  10  10   0   0
  0.1295752E+04  0.2340337E-08  0.2571532E-08  0.2153038E-08  0.5000000E-15
   1.0000000000000000E-004
  CAR 
 unknown system                          
      1.84840784    -11.93528617  301     -4.13251101      1.00000000
    -11.935  0.0000E+00  0.0000E+00  0.0000E+00  0.0000E+00
    -11.889  0.0000E+00  0.0000E+00  0.0000E+00  0.0000E+00
    -11.843  0.0000E+00  0.0000E+00  0.0000E+00  0.0000E+00
    -11.797  0.0000E+00  0.0000E+00  0.0000E+00  0.0000E+00
    -11.752  0.0000E+00  0.0000E+00  0.0000E+00  0.0000E+00
    -11.706  0.0000E+00  0.0000E+00  0.0000E+00  0.0000E+00
    -11.660  0.0000E+00  0.0000E+00  0.0000E+00  0.0000E+00
    -11.614  0.0000E+00  0.0000E+00  0.0000E+00  0.0000E+00
    -11.568 -0.5845E-30  0.0000E+00 -0.2686E-31  0.0000E+00
    -11.522 -0.2233E-28  0.0000E+00 -0.1053E-29  0.0000E+00
    -11.476 -0.7849E-27 -0.4740E-29 -0.3711E-28 -0.2178E-30
    -11.430 -0.2479E-25 -0.1702E-27 -0.1176E-26 -0.8039E-29
    -11.384 -0.7037E-24 -0.5631E-26 -0.3351E-25 -0.2668E-27
    -11.338 -0.1795E-22 -0.1674E-24 -0.8581E-24 -0.7959E-26
    -11.292 -0.4112E-21 -0.4473E-23 -0.1975E-22 -0.2135E-24
    -11.246 -0.8465E-20 -0.1074E-21 -0.4087E-21 -0.5146E-23
    -11.200 -0.1565E-18 -0.2315E-20 -0.7599E-20 -0.1115E-21
    -11.154 -0.2598E-17 -0.4483E-19 -0.1270E-18 -0.2171E-20
    -11.108 -0.3752E-16 -0.7799E-18 -0.1851E-17 -0.3800E-19
    -11.062 -0.5026E-15 -0.1218E-16 -0.2494E-16 -0.5977E-18
    -11.016 -0.6012E-14 -0.1648E-15 -0.3012E-15 -0.8167E-17
    -10.970 -0.6457E-13 -0.2079E-14 -0.3268E-14 -0.1037E-15
    -10.924 -0.6217E-12 -0.2341E-13 -0.3183E-13 -0.1179E-14
    -10.879 -0.5363E-11 -0.2363E-12 -0.2782E-12 -0.1204E-13
    -10.833 -0.4143E-10 -0.2138E-11 -0.2182E-11 -0.1103E-12
    -10.787 -0.2865E-09 -0.1733E-10 -0.1534E-10 -0.9064E-12
    -10.741 -0.1771E-08 -0.1257E-09 -0.9671E-10 -0.6682E-11
    -10.695 -0.9780E-08 -0.8158E-09 -0.5461E-09 -0.4416E-10
    -10.649 -0.4819E-07 -0.4732E-08 -0.2760E-08 -0.2616E-09
    -10.603 -0.2115E-06 -0.2450E-07 -0.1248E-07 -0.1387E-08
    -10.557 -0.8247E-06 -0.1131E-06 -0.5037E-07 -0.6582E-08
    -10.511 -0.2851E-05 -0.4642E-06 -0.1813E-06 -0.2791E-07
    -10.465 -0.8696E-05 -0.1691E-05 -0.5809E-06 -0.1056E-06
    -10.419 -0.2328E-04 -0.5450E-05 -0.1650E-05 -0.3560E-06
    -10.373 -0.5416E-04 -0.1545E-04 -0.4139E-05 -0.1066E-05
    -10.327 -0.1078E-03 -0.3825E-04 -0.9092E-05 -0.2823E-05
    -10.281 -0.1780E-03 -0.8168E-04 -0.1727E-04 -0.6576E-05
    -10.235 -0.2259E-03 -0.1470E-03 -0.2765E-04 -0.1333E-04
    -10.189 -0.1634E-03 -0.2123E-03 -0.3516E-04 -0.2309E-04
    -10.143  0.1374E-03 -0.2118E-03 -0.2884E-04 -0.3282E-04
    -10.097  0.7850E-03 -0.3058E-04  0.7223E-05 -0.3422E-04
    -10.052  0.1772E-02  0.4586E-03  0.8863E-04 -0.1315E-04
    -10.006  0.2903E-02  0.1311E-02  0.2220E-03  0.4707E-04
     -9.960  0.3828E-02  0.2415E-02  0.3979E-03  0.1580E-03
     -9.914  0.4200E-02  0.3477E-02  0.5908E-03  0.3178E-03
     -9.868  0.3868E-02  0.4123E-02  0.7686E-03  0.5072E-03
     -9.822  0.2967E-02  0.4096E-02  0.9049E-03  0.6954E-03
     -9.776  0.1838E-02  0.3408E-02  0.9893E-03  0.8520E-03
     -9.730  0.8351E-03  0.2330E-02  0.1028E-02  0.9591E-03
     -9.684  0.1655E-03  0.1236E-02  0.1035E-02  0.1016E-02
     -9.638 -0.1535E-03  0.4096E-03  0.1028E-02  0.1035E-02
     -9.592 -0.2264E-03 -0.5330E-04  0.1018E-02  0.1032E-02
     -9.546 -0.1821E-03 -0.2164E-03  0.1009E-02  0.1022E-02
     -9.500 -0.1117E-03 -0.2086E-03  0.1004E-02  0.1013E-02
     -9.454 -0.5668E-04 -0.1417E-03  0.1002E-02  0.1006E-02
     -9.408 -0.2457E-04 -0.7762E-04  0.1001E-02  0.1003E-02
     -9.362 -0.9259E-05 -0.3593E-04  0.1000E-02  0.1001E-02
     -9.316 -0.3079E-05 -0.1436E-04  0.1000E-02  0.1000E-02
     -9.270 -0.9959E-06 -0.5016E-05  0.1000E-02  0.1000E-02
     -9.224 -0.6642E-06 -0.1542E-05  0.1000E-02  0.1000E-02
     -9.179 -0.1644E-05 -0.4198E-06  0.9999E-03  0.1000E-02
     -9.133 -0.5171E-05 -0.1027E-06  0.9997E-03  0.1000E-02
     -9.087 -0.1473E-04 -0.2983E-07  0.9990E-03  0.1000E-02
     -9.041 -0.3671E-04 -0.4447E-07  0.9973E-03  0.1000E-02
     -8.995 -0.7901E-04 -0.1800E-06  0.9937E-03  0.1000E-02
     -8.949 -0.1436E-03 -0.7089E-06  0.9871E-03  0.1000E-02
     -8.903 -0.2103E-03 -0.2485E-05  0.9774E-03  0.9998E-03
     -8.857 -0.2165E-03 -0.7693E-05  0.9675E-03  0.9995E-03
     -8.811 -0.5096E-04 -0.2091E-04  0.9651E-03  0.9985E-03
     -8.765  0.4112E-03 -0.4949E-04  0.9840E-03  0.9963E-03
     -8.719  0.1224E-02 -0.1004E-03  0.1040E-02  0.9916E-03
     -8.673  0.2280E-02 -0.1699E-03  0.1145E-02  0.9838E-03
     -8.627  0.3288E-02 -0.2239E-03  0.1296E-02  0.9735E-03
     -8.581  0.3895E-02 -0.1805E-03  0.1475E-02  0.9653E-03
     -8.535  0.3896E-02  0.8549E-04  0.1654E-02  0.9692E-03
     -8.489  0.3398E-02  0.6883E-03  0.1810E-02  0.1001E-02
     -8.443  0.2784E-02  0.1636E-02  0.1938E-02  0.1076E-02
     -8.397  0.2479E-02  0.2753E-02  0.2052E-02  0.1202E-02
     -8.352  0.2660E-02  0.3692E-02  0.2174E-02  0.1372E-02
     -8.306  0.3145E-02  0.4089E-02  0.2319E-02  0.1560E-02
     -8.260  0.3531E-02  0.3767E-02  0.2481E-02  0.1733E-02
     -8.214  0.3513E-02  0.2865E-02  0.2642E-02  0.1865E-02
     -8.168  0.3128E-02  0.1796E-02  0.2786E-02  0.1947E-02
     -8.122  0.2770E-02  0.1049E-02  0.2913E-02  0.1995E-02
     -8.076  0.2946E-02  0.9629E-03  0.3049E-02  0.2040E-02
     -8.030  0.3958E-02  0.1576E-02  0.3230E-02  0.2112E-02
     -7.984  0.5699E-02  0.2603E-02  0.3492E-02  0.2232E-02
     -7.938  0.7672E-02  0.3564E-02  0.3845E-02  0.2395E-02
     -7.892  0.9223E-02  0.3997E-02  0.4269E-02  0.2579E-02
     -7.846  0.9897E-02  0.3680E-02  0.4723E-02  0.2748E-02
     -7.800  0.9735E-02  0.2728E-02  0.5171E-02  0.2873E-02
     -7.754  0.9317E-02  0.1523E-02  0.5599E-02  0.2943E-02
     -7.708  0.9445E-02  0.5350E-03  0.6033E-02  0.2968E-02
     -7.662  0.1062E-01  0.1511E-03  0.6521E-02  0.2975E-02
     -7.616  0.1268E-01  0.5845E-03  0.7103E-02  0.3002E-02
     -7.570  0.1490E-01  0.1855E-02  0.7788E-02  0.3087E-02
     -7.525  0.1644E-01  0.3797E-02  0.8543E-02  0.3261E-02
     -7.479  0.1677E-01  0.6067E-02  0.9314E-02  0.3540E-02
     -7.433  0.1584E-01  0.8188E-02  0.1004E-01  0.3916E-02
     -7.387  0.1387E-01  0.9646E-02  0.1068E-01  0.4360E-02
     -7.341  0.1119E-01  0.1005E-01  0.1119E-01  0.4821E-02
     -7.295  0.8284E-02  0.9336E-02  0.1157E-01  0.5250E-02
     -7.249  0.5774E-02  0.7804E-02  0.1184E-01  0.5609E-02
     -7.203  0.4349E-02  0.6047E-02  0.1204E-01  0.5887E-02
     -7.157  0.4431E-02  0.4654E-02  0.1224E-01  0.6101E-02
     -7.111  0.5909E-02  0.3935E-02  0.1251E-01  0.6281E-02
     -7.065  0.8140E-02  0.3861E-02  0.1289E-01  0.6459E-02
     -7.019  0.1025E-01  0.4230E-02  0.1336E-01  0.6653E-02
     -6.973  0.1152E-01  0.4905E-02  0.1389E-01  0.6879E-02
     -6.927  0.1164E-01  0.5915E-02  0.1442E-01  0.7150E-02
     -6.881  0.1075E-01  0.7347E-02  0.1492E-01  0.7488E-02
     -6.835  0.9306E-02  0.9183E-02  0.1534E-01  0.7910E-02
     -6.789  0.7904E-02  0.1122E-01  0.1571E-01  0.8425E-02
     -6.743  0.7059E-02  0.1312E-01  0.1603E-01  0.9028E-02
     -6.697  0.7042E-02  0.1454E-01  0.1635E-01  0.9696E-02
     -6.652  0.7837E-02  0.1520E-01  0.1671E-01  0.1039E-01
     -6.606  0.9260E-02  0.1486E-01  0.1714E-01  0.1108E-01
     -6.560  0.1113E-01  0.1341E-01  0.1765E-01  0.1169E-01
     -6.514  0.1333E-01  0.1097E-01  0.1826E-01  0.1220E-01
     -6.468  0.1568E-01  0.8001E-02  0.1898E-01  0.1256E-01
     -6.422  0.1786E-01  0.5351E-02  0.1980E-01  0.1281E-01
     -6.376  0.1938E-01  0.3950E-02  0.2070E-01  0.1299E-01
     -6.330  0.1983E-01  0.4443E-02  0.2161E-01  0.1320E-01
     -6.284  0.1907E-01  0.6890E-02  0.2248E-01  0.1351E-01
     -6.238  0.1736E-01  0.1073E-01  0.2328E-01  0.1401E-01
     -6.192  0.1521E-01  0.1499E-01  0.2398E-01  0.1469E-01
     -6.146  0.1324E-01  0.1867E-01  0.2459E-01  0.1555E-01
     -6.100  0.1187E-01  0.2101E-01  0.2513E-01  0.1652E-01
     -6.054  0.1121E-01  0.2170E-01  0.2565E-01  0.1751E-01
     -6.008  0.1105E-01  0.2089E-01  0.2616E-01  0.1847E-01
     -5.962  0.1103E-01  0.1909E-01  0.2666E-01  0.1935E-01
     -5.916  0.1092E-01  0.1696E-01  0.2716E-01  0.2013E-01
     -5.870  0.1069E-01  0.1509E-01  0.2766E-01  0.2082E-01
     -5.825  0.1053E-01  0.1381E-01  0.2814E-01  0.2146E-01
     -5.779  0.1067E-01  0.1316E-01  0.2863E-01  0.2206E-01
     -5.733  0.1129E-01  0.1297E-01  0.2915E-01  0.2266E-01
     -5.687  0.1235E-01  0.1303E-01  0.2972E-01  0.2326E-01
     -5.641  0.1365E-01  0.1318E-01  0.3034E-01  0.2386E-01
     -5.595  0.1499E-01  0.1336E-01  0.3103E-01  0.2448E-01
     -5.549  0.1627E-01  0.1350E-01  0.3178E-01  0.2510E-01
     -5.503  0.1758E-01  0.1347E-01  0.3259E-01  0.2572E-01
     -5.457  0.1911E-01  0.1303E-01  0.3347E-01  0.2632E-01
     -5.411  0.2105E-01  0.1201E-01  0.3443E-01  0.2687E-01
     -5.365  0.2342E-01  0.1055E-01  0.3551E-01  0.2735E-01
     -5.319  0.2610E-01  0.9142E-02  0.3671E-01  0.2777E-01
     -5.273  0.2882E-01  0.8446E-02  0.3803E-01  0.2816E-01
     -5.227  0.3115E-01  0.8879E-02  0.3946E-01  0.2857E-01
     -5.181  0.3260E-01  0.1035E-01  0.4096E-01  0.2904E-01
     -5.135  0.3276E-01  0.1232E-01  0.4247E-01  0.2961E-01
     -5.089  0.3154E-01  0.1410E-01  0.4392E-01  0.3026E-01
     -5.043  0.2922E-01  0.1519E-01  0.4526E-01  0.3095E-01
     -4.997  0.2629E-01  0.1540E-01  0.4647E-01  0.3166E-01
     -4.952  0.2324E-01  0.1483E-01  0.4753E-01  0.3234E-01
     -4.906  0.2045E-01  0.1374E-01  0.4847E-01  0.3297E-01
     -4.860  0.1816E-01  0.1252E-01  0.4931E-01  0.3355E-01
     -4.814  0.1644E-01  0.1167E-01  0.5006E-01  0.3409E-01
     -4.768  0.1516E-01  0.1169E-01  0.5076E-01  0.3462E-01
     -4.722  0.1393E-01  0.1286E-01  0.5140E-01  0.3521E-01
     -4.676  0.1229E-01  0.1507E-01  0.5196E-01  0.3591E-01
     -4.630  0.9965E-02  0.1773E-01  0.5242E-01  0.3672E-01
     -4.584  0.7125E-02  0.2005E-01  0.5275E-01  0.3764E-01
     -4.538  0.4338E-02  0.2145E-01  0.5295E-01  0.3863E-01
     -4.492  0.2279E-02  0.2181E-01  0.5305E-01  0.3963E-01
     -4.446  0.1376E-02  0.2138E-01  0.5312E-01  0.4061E-01
     -4.400  0.1602E-02  0.2058E-01  0.5319E-01  0.4156E-01
     -4.354  0.2505E-02  0.1962E-01  0.5331E-01  0.4246E-01
     -4.308  0.3439E-02  0.1854E-01  0.5346E-01  0.4331E-01
     -4.262  0.3859E-02  0.1727E-01  0.5364E-01  0.4410E-01
     -4.216  0.3553E-02  0.1584E-01  0.5380E-01  0.4483E-01
     -4.170  0.2677E-02  0.1444E-01  0.5393E-01  0.4550E-01
     -4.125  0.1597E-02  0.1346E-01  0.5400E-01  0.4611E-01
     -4.079  0.6690E-03  0.1331E-01  0.5403E-01  0.4673E-01
     -4.033  0.7719E-04  0.1420E-01  0.5403E-01  0.4738E-01
     -3.987 -0.1830E-03  0.1590E-01  0.5403E-01  0.4811E-01
     -3.941 -0.2239E-03  0.1776E-01  0.5402E-01  0.4893E-01
     -3.895 -0.1690E-03  0.1903E-01  0.5401E-01  0.4980E-01
     -3.849 -0.9967E-04  0.1917E-01  0.5400E-01  0.5068E-01
     -3.803 -0.4902E-04  0.1807E-01  0.5400E-01  0.5151E-01
     -3.757 -0.2069E-04  0.1600E-01  0.5400E-01  0.5225E-01
     -3.711 -0.7647E-05  0.1333E-01  0.5400E-01  0.5286E-01
     -3.665 -0.2688E-05  0.1041E-01  0.5400E-01  0.5334E-01
     -3.619 -0.1648E-05  0.7499E-02  0.5400E-01  0.5368E-01
     -3.573 -0.3536E-05  0.4836E-02  0.5400E-01  0.5390E-01
     -3.527 -0.1058E-04  0.2632E-02  0.5400E-01  0.5402E-01
     -3.481 -0.2924E-04  0.1033E-02  0.5400E-01  0.5407E-01
     -3.435 -0.7120E-04  0.6697E-04  0.5399E-01  0.5407E-01
     -3.389 -0.1508E-03 -0.3682E-03  0.5399E-01  0.5406E-01
     -3.343 -0.2729E-03 -0.4515E-03  0.5398E-01  0.5404E-01
     -3.298 -0.4059E-03 -0.3664E-03  0.5396E-01  0.5402E-01
     -3.252 -0.4480E-03 -0.2474E-03  0.5394E-01  0.5401E-01
     -3.206 -0.2094E-03 -0.1680E-03  0.5393E-01  0.5400E-01
     -3.160  0.5486E-03 -0.1562E-03  0.5395E-01  0.5399E-01
     -3.114  0.2002E-02 -0.2139E-03  0.5404E-01  0.5398E-01
     -3.068  0.4117E-02 -0.3159E-03  0.5423E-01  0.5397E-01
     -3.022  0.6559E-02 -0.3885E-03  0.5453E-01  0.5395E-01
     -2.976  0.8753E-02 -0.2864E-03  0.5494E-01  0.5394E-01
     -2.930  0.1009E-01  0.1931E-03  0.5540E-01  0.5395E-01
     -2.884  0.1020E-01  0.1226E-02  0.5587E-01  0.5400E-01
     -2.838  0.9137E-02  0.2827E-02  0.5629E-01  0.5413E-01
     -2.792  0.7355E-02  0.4742E-02  0.5663E-01  0.5435E-01
     -2.746  0.5532E-02  0.6495E-02  0.5688E-01  0.5465E-01
     -2.700  0.4245E-02  0.7600E-02  0.5708E-01  0.5500E-01
     -2.654  0.3717E-02  0.7847E-02  0.5725E-01  0.5536E-01
     -2.608  0.3736E-02  0.7435E-02  0.5742E-01  0.5570E-01
     -2.562  0.3837E-02  0.6846E-02  0.5759E-01  0.5602E-01
     -2.516  0.3603E-02  0.6521E-02  0.5776E-01  0.5632E-01
     -2.470  0.2902E-02  0.6589E-02  0.5789E-01  0.5662E-01
     -2.425  0.1908E-02  0.6814E-02  0.5798E-01  0.5693E-01
     -2.379  0.9270E-03  0.6788E-02  0.5802E-01  0.5724E-01
     -2.333  0.1914E-03  0.6200E-02  0.5803E-01  0.5753E-01
     -2.287 -0.2357E-03  0.5019E-02  0.5802E-01  0.5776E-01
     -2.241 -0.4210E-03  0.3488E-02  0.5800E-01  0.5792E-01
     -2.195 -0.4506E-03  0.1971E-02  0.5798E-01  0.5801E-01
     -2.149 -0.3402E-03  0.7717E-03  0.5797E-01  0.5804E-01
     -2.103 -0.1776E-04  0.1610E-04  0.5796E-01  0.5805E-01
     -2.057  0.6160E-03 -0.3492E-03  0.5799E-01  0.5803E-01
     -2.011  0.1591E-02 -0.4665E-03  0.5807E-01  0.5801E-01
     -1.965  0.2800E-02 -0.4575E-03  0.5819E-01  0.5799E-01
     -1.919  0.4025E-02 -0.3498E-03  0.5838E-01  0.5797E-01
     -1.873  0.5031E-02 -0.7130E-04  0.5861E-01  0.5797E-01
     -1.827  0.5665E-02  0.4858E-03  0.5887E-01  0.5799E-01
     -1.781  0.5873E-02  0.1357E-02  0.5914E-01  0.5805E-01
     -1.735  0.5645E-02  0.2417E-02  0.5940E-01  0.5816E-01
     -1.689  0.4990E-02  0.3396E-02  0.5963E-01  0.5832E-01
     -1.643  0.3967E-02  0.4026E-02  0.5981E-01  0.5850E-01
     -1.598  0.2731E-02  0.4218E-02  0.5994E-01  0.5870E-01
     -1.552  0.1514E-02  0.4131E-02  0.6001E-01  0.5889E-01
     -1.506  0.5294E-03  0.4038E-02  0.6003E-01  0.5907E-01
     -1.460 -0.1159E-03  0.4086E-02  0.6003E-01  0.5926E-01
     -1.414 -0.4324E-03  0.4163E-02  0.6001E-01  0.5945E-01
     -1.368 -0.4722E-03  0.3995E-02  0.5998E-01  0.5964E-01
     -1.322 -0.2482E-03  0.3384E-02  0.5997E-01  0.5979E-01
     -1.276  0.2775E-03  0.2405E-02  0.5999E-01  0.5990E-01
     -1.230  0.1118E-02  0.1387E-02  0.6004E-01  0.5997E-01
     -1.184  0.2165E-02  0.7417E-03  0.6014E-01  0.6000E-01
     -1.138  0.3168E-02  0.7403E-03  0.6028E-01  0.6003E-01
     -1.092  0.3848E-02  0.1382E-02  0.6046E-01  0.6010E-01
     -1.046  0.4084E-02  0.2390E-02  0.6065E-01  0.6021E-01
     -1.000  0.4023E-02  0.3349E-02  0.6083E-01  0.6036E-01
     -0.954  0.3995E-02  0.3919E-02  0.6102E-01  0.6054E-01
     -0.908  0.4298E-02  0.4017E-02  0.6121E-01  0.6073E-01
     -0.862  0.5009E-02  0.3841E-02  0.6144E-01  0.6090E-01
     -0.816  0.5962E-02  0.3716E-02  0.6172E-01  0.6107E-01
     -0.770  0.6876E-02  0.3883E-02  0.6203E-01  0.6125E-01
     -0.725  0.7495E-02  0.4404E-02  0.6238E-01  0.6145E-01
     -0.679  0.7674E-02  0.5213E-02  0.6273E-01  0.6169E-01
     -0.633  0.7412E-02  0.6197E-02  0.6307E-01  0.6198E-01
     -0.587  0.6868E-02  0.7184E-02  0.6339E-01  0.6231E-01
     -0.541  0.6355E-02  0.7894E-02  0.6368E-01  0.6267E-01
     -0.495  0.6223E-02  0.8001E-02  0.6396E-01  0.6304E-01
     -0.449  0.6639E-02  0.7355E-02  0.6427E-01  0.6338E-01
     -0.403  0.7405E-02  0.6203E-02  0.6461E-01  0.6366E-01
     -0.357  0.7996E-02  0.5154E-02  0.6498E-01  0.6390E-01
     -0.311  0.7856E-02  0.4847E-02  0.6534E-01  0.6412E-01
     -0.265  0.6747E-02  0.5500E-02  0.6565E-01  0.6437E-01
     -0.219  0.4905E-02  0.6715E-02  0.6587E-01  0.6468E-01
     -0.173  0.2875E-02  0.7690E-02  0.6600E-01  0.6504E-01
     -0.127  0.1193E-02  0.7709E-02  0.6606E-01  0.6539E-01
     -0.081  0.1309E-03  0.6565E-02  0.6607E-01  0.6569E-01
     -0.035 -0.3385E-03  0.4631E-02  0.6605E-01  0.6590E-01
      0.011 -0.4155E-03  0.2567E-02  0.6603E-01  0.6602E-01
      0.057 -0.3178E-03  0.9396E-03  0.6602E-01  0.6607E-01
      0.102 -0.1907E-03 -0.2017E-04  0.6601E-01  0.6606E-01
      0.148 -0.9575E-04 -0.3938E-03  0.6600E-01  0.6605E-01
      0.194 -0.4136E-04 -0.4120E-03  0.6600E-01  0.6603E-01
      0.240 -0.1559E-04 -0.2928E-03  0.6600E-01  0.6601E-01
      0.286 -0.5175E-05 -0.1664E-03  0.6600E-01  0.6601E-01
      0.332 -0.1520E-05 -0.7973E-04  0.6600E-01  0.6600E-01
      0.378 -0.3967E-06 -0.3296E-04  0.6600E-01  0.6600E-01
      0.424 -0.9219E-07 -0.1191E-04  0.6600E-01  0.6600E-01
      0.470 -0.1912E-07 -0.3793E-05  0.6600E-01  0.6600E-01
      0.516 -0.3543E-08 -0.1069E-05  0.6600E-01  0.6600E-01
      0.562 -0.5874E-09 -0.2679E-06  0.6600E-01  0.6600E-01
      0.608 -0.8718E-10 -0.5977E-07  0.6600E-01  0.6600E-01
      0.654 -0.1159E-10 -0.1190E-07  0.6600E-01  0.6600E-01
      0.700 -0.1382E-11 -0.2118E-08  0.6600E-01  0.6600E-01
      0.746 -0.1478E-12 -0.3373E-09  0.6600E-01  0.6600E-01
      0.792 -0.1417E-13 -0.4808E-10  0.6600E-01  0.6600E-01
      0.838 -0.1223E-14 -0.6143E-11  0.6600E-01  0.6600E-01
      0.884 -0.9666E-16 -0.7036E-12  0.6600E-01  0.6600E-01
      0.929 -0.4833E-17 -0.7229E-13  0.6600E-01  0.6600E-01
      0.975  0.0000E+00 -0.6664E-14  0.6600E-01  0.6600E-01
      1.021  0.0000E+00 -0.5461E-15  0.6600E-01  0.6600E-01
      1.067  0.0000E+00 -0.4349E-16  0.6600E-01  0.6600E-01
      1.113  0.0000E+00 -0.4833E-17  0.6600E-01  0.6600E-01
      1.159  0.0000E+00  0.0000E+00  0.6600E-01  0.6600E-01
      1.205  0.0000E+00  0.0000E+00  0.6600E-01  0.6600E-01
      1.251  0.0000E+00  0.0000E+00  0.6600E-01  0.6600E-01
      1.297  0.0000E+00  0.0000E+00  0.6600E-01  0.6600E-01
      1.343  0.0000E+00  0.0000E+00  0.6600E-01  0.6600E-01
      1.389  0.0000E+00  0.0000E+00  0.6600E-01  0.6600E-01
      1.435  0.0000E+00  0.0000E+00  0.6600E-01  0.6600E-01
      1.481  0.0000E+00  0.0000E+00  0.6600E-01  0.6600E-01
      1.527  0.0000E+00  0.0000E+00  0.6600E-01  0.6600E-01
      1.573  0.0000E+00  0.0000E+00  0.6600E-01  0.6600E-01
      1.619  0.0000E+00  0.0000E+00  0.6600E-01  0.6600E-01
      1.665  0.0000E+00  0.0000E+00  0.6600E-01  0.6600E-01
      1.711  0.0000E+00  0.0000E+00  0.6600E-01  0.6600E-01
      1.757  0.0000E+00  0.0000E+00  0.6600E-01  0.6600E-01
      1.802  0.0000E+00  0.0000E+00  0.6600E-01  0.6600E-01
      1.848  0.0000E+00  0.0000E+00  0.6600E-01  0.6600E-01
