   10   10 1000    2
  0.1295752E+04  0.2340337E-08  0.2571532E-08  0.2153038E-08  0.5000000E-15
   1.0000000000000000E-004
  CAR 
 unknown system                          
    100      1     66
 
  0.1262379E-14  0.1262379E-14  0.1262379E-14  0.1000000E+01
    1       -9.935286     -9.869443   1.000000   1.000000
    2       -8.580703     -8.321870   1.000000   1.000000
    3       -8.259189     -7.911187   1.000000   1.000000
    4       -7.967620     -7.471820   1.000000   1.000000
    5       -7.839447     -7.357556   1.000000   1.000000
    6       -7.831472     -7.302177   1.000000   1.000000
    7       -7.600338     -7.055838   1.000000   1.000000
    8       -7.572087     -6.870474   1.000000   1.000000
    9       -7.569235     -6.764448   1.000000   1.000000
   10       -7.474727     -6.717875   1.000000   1.000000
   11       -7.369274     -6.645862   1.000000   1.000000
   12       -7.360071     -6.550668   1.000000   1.000000
   13       -7.064420     -6.537798   1.000000   1.000000
   14       -7.024971     -6.239315   1.000000   1.000000
   15       -6.920846     -6.210663   1.000000   1.000000
   16       -6.843847     -6.123066   1.000000   1.000000
   17       -6.652614     -6.095836   1.000000   1.000000
   18       -6.593888     -6.080899   1.000000   1.000000
   19       -6.467726     -6.024204   1.000000   1.000000
   20       -6.431130     -5.944076   1.000000   1.000000
   21       -6.381174     -5.920639   1.000000   1.000000
   22       -6.351748     -5.789497   1.000000   1.000000
   23       -6.279180     -5.766327   1.000000   1.000000
   24       -6.245597     -5.645906   1.000000   1.000000
   25       -6.163970     -5.613217   1.000000   1.000000
   26       -6.043660     -5.503284   1.000000   1.000000
   27       -5.984692     -5.423334   1.000000   1.000000
   28       -5.892470     -5.404076   1.000000   1.000000
   29       -5.792395     -5.201859   1.000000   1.000000
   30       -5.697911     -5.131431   1.000000   1.000000
   31       -5.616269     -5.088085   1.000000   1.000000
   32       -5.573004     -4.985322   1.000000   1.000000
   33       -5.531863     -4.973158   1.000000   1.000000
   34       -5.419978     -4.864612   1.000000   1.000001
   35       -5.408708     -4.797927   1.000000   1.000013
   36       -5.384299     -4.667387   1.000000   1.000513
   37       -5.314374     -4.612606   1.000000   1.001786
   38       -5.292270     -4.598061   1.000000   1.002414
   39       -5.252893     -4.557602   1.000000   1.005221
   40       -5.208442     -4.522201   1.000000   1.009410
   41       -5.182686     -4.434604   1.000000   1.027182
   42       -5.164773     -4.402055   1.000000   1.033498
   43       -5.145806     -4.357409   1.000000   1.033690
   44       -5.117476     -4.305573   1.000000   1.004921
   45       -5.084488     -4.234376   1.000000   0.875175
   46       -5.044194     -4.178850   1.000000   0.690362
   47       -4.976251     -4.113266   1.000000   0.418982
   48       -4.958743     -3.979877   1.000000   0.019984
   49       -4.915404     -3.945222   1.000000  -0.017213
   50       -4.859957     -3.920036   1.000002  -0.030448
   51       -4.750261     -3.881328   1.000056  -0.035314
   52       -4.712168     -3.787284   1.000163  -0.017423
   53       -4.650600     -3.760718   1.000766  -0.012270
   54       -4.292584     -3.647605   0.990141  -0.001612
   55       -2.998030     -2.745218  -0.000000  -0.000000
   56       -2.930571     -2.667524  -0.000000  -0.000000
   57       -2.834170     -2.469604  -0.000000  -0.000000
   58       -2.572770     -2.343855  -0.000000  -0.000000
   59       -1.897157     -1.652891  -0.000000  -0.000000
   60       -1.713503     -1.395006  -0.000000  -0.000000
   61       -1.093408     -0.973163  -0.000000  -0.000000
   62       -0.844814     -0.718287  -0.000000  -0.000000
   63       -0.707132     -0.533842  -0.000000  -0.000000
   64       -0.584983     -0.467686  -0.000000  -0.000000
   65       -0.375417     -0.192816  -0.000000  -0.000000
   66       -0.319987     -0.151592  -0.000000  -0.000000
