 vasp.6.1.2 22Jul20 (build Aug  2 2021 21:04:21) gamma-only                      
 executed on             LinuxPGI date 2021.12.22  20:26:55
 running on   16 total cores
 distrk:  each k-point on   16 cores,    1 groups
 distr:  one band on NCORE=   8 cores,    2 groups


--------------------------------------------------------------------------------------------------------


 INCAR:
 POTCAR:    PAW_PBE Ni 02Aug2007                  
 POTCAR:    PAW_PBE Pd 04Jan2005                  
 -----------------------------------------------------------------------------
|                                                                             |
|           W    W    AA    RRRRR   N    N  II  N    N   GGGG   !!!           |
|           W    W   A  A   R    R  NN   N  II  NN   N  G    G  !!!           |
|           W    W  A    A  R    R  N N  N  II  N N  N  G       !!!           |
|           W WW W  AAAAAA  RRRRR   N  N N  II  N  N N  G  GGG   !            |
|           WW  WW  A    A  R   R   N   NN  II  N   NN  G    G                |
|           W    W  A    A  R    R  N    N  II  N    N   GGGG   !!!           |
|                                                                             |
|     You use a magnetic or noncollinear calculation, but did not specify     |
|     the initial magnetic moment with the MAGMOM tag. Note that a            |
|     default of 1 will be used for all atoms. This ferromagnetic setup       |
|     may break the symmetry of the crystal, in particular it may rule        |
|     out finding an antiferromagnetic solution. Thence, we recommend         |
|     setting the initial magnetic moment manually or verifying carefully     |
|     that this magnetic setup is desired.                                    |
|                                                                             |
 -----------------------------------------------------------------------------

 POTCAR:    PAW_PBE Ni 02Aug2007                  
   SHA256 =  0534bc51ca8003dfef23f56753fef9fdd3e22eac8d719fccacb59f3e6b7a69c7 Ni/POTCAR             
   COPYR  = (c) Copyright 02Aug2007 Georg Kresse                                                    
   COPYR  = This file is part of the software VASP. Any use, copying, and all other rights are regul
   COPYR  = If you do not have a valid VASP license, you may not use, copy or distribute this file. 
   VRHFIN =Ni:                                                                                      
   LEXCH  = PE                                                                                      
   EATOM  =  1077.6739 eV,   79.2068 Ry                                                             
                                                                                                    
   TITEL  = PAW_PBE Ni 02Aug2007                                                                    
   LULTRA =        F    use ultrasoft PP ?                                                          
   IUNSCR =        1    unscreen: 0-lin 1-nonlin 2-no                                               
   RPACOR =    2.000    partial core radius                                                         
   POMASS =   58.690; ZVAL   =   10.000    mass and valenz                                          
   RCORE  =    2.300    outmost cutoff radius                                                       
   RWIGS  =    2.430; RWIGS  =    1.286    wigner-seitz radius (au A)                               
   ENMAX  =  269.532; ENMIN  =  202.149 eV                                                          
   RCLOC  =    1.201    cutoff for local pot                                                        
   LCOR   =        T    correct aug charges                                                         
   LPAW   =        T    paw PP                                                                      
   EAUG   =  544.565                                                                                
   DEXC   =    0.000                                                                                
   RMAX   =    2.357    core radius for proj-oper                                                   
   RAUG   =    1.300    factor for augmentation sphere                                              
   RDEP   =    2.390    radius for radial grids                                                     
   RDEPT  =    1.838    core radius for aug-charge                                                  
                                                                                                    
   Atomic configuration                                                                             
    9 entries                                                                                       
     n  l   j            E        occ.                                                              
     1  0  0.50     -8206.4253   2.0000                                                             
     2  0  0.50      -976.1748   2.0000                                                             
     2  1  1.50      -839.0571   6.0000                                                             
     3  0  0.50      -105.9991   2.0000                                                             
     3  1  1.50       -66.4603   6.0000                                                             
     3  2  2.50        -4.6458   9.0000                                                             
     4  0  0.50        -4.4926   1.0000                                                             
     4  1  1.50        -4.0817   0.0000                                                             
     4  3  2.50        -1.3606   0.0000                                                             
   Description                                                                                      
     l       E           TYP  RCUT    TYP  RCUT                                                     
     2     -4.6457903     23  2.300                                                                 
     2     -6.0063729     23  2.300                                                                 
     0     -4.4925590     23  2.300                                                                 
     0      5.0102601     23  2.300                                                                 
     1     -2.7211652     23  2.300                                                                 
     1     16.5183231     23  2.300                                                                 
  local pseudopotential read in
  partial core-charges read in
  partial kinetic energy density read in
  atomic valenz-charges read in
  non local Contribution for L=            2  read in
    real space projection operators read in
  non local Contribution for L=            2  read in
    real space projection operators read in
  non local Contribution for L=            0  read in
    real space projection operators read in
  non local Contribution for L=            0  read in
    real space projection operators read in
  non local Contribution for L=            1  read in
    real space projection operators read in
  non local Contribution for L=            1  read in
    real space projection operators read in
    PAW grid and wavefunctions read in
 
   number of l-projection  operators is LMAX  =            6
   number of lm-projection operators is LMMAX =           18
 
 POTCAR:    PAW_PBE Pd 04Jan2005                  
   SHA256 =  dd6f6f02930356371984e2b707ff5e456046761dc76b07c1eba30abd15eb3c39 Pd/POTCAR             
   COPYR  = (c) Copyright 04Jan2005 Georg Kresse                                                    
   COPYR  = This file is part of the software VASP. Any use, copying, and all other rights are regul
   COPYR  = If you do not have a valid VASP license, you may not use, copy or distribute this file. 
   VRHFIN =Pd : s1 d9                                                                               
   LEXCH  = PE                                                                                      
   EATOM  =   809.7530 eV,   59.5152 Ry                                                             
                                                                                                    
   TITEL  = PAW_PBE Pd 04Jan2005                                                                    
   LULTRA =        F    use ultrasoft PP ?                                                          
   IUNSCR =        1    unscreen: 0-lin 1-nonlin 2-no                                               
   RPACOR =    2.000    partial core radius                                                         
   POMASS =  106.420; ZVAL   =   10.000    mass and valenz                                          
   RCORE  =    2.600    outmost cutoff radius                                                       
   RWIGS  =    2.710; RWIGS  =    1.434    wigner-seitz radius (au A)                               
   ENMAX  =  250.925; ENMIN  =  188.194 eV                                                          
   ICORE  =        3    local potential                                                             
   LCOR   =        T    correct aug charges                                                         
   LPAW   =        T    paw PP                                                                      
   EAUG   =  416.230                                                                                
   DEXC   =    0.000                                                                                
   RMAX   =    2.653    core radius for proj-oper                                                   
   RAUG   =    1.300    factor for augmentation sphere                                              
   RDEP   =    2.734    radius for radial grids                                                     
   RDEPT  =    2.103    core radius for aug-charge                                                  
                                                                                                    
   Atomic configuration                                                                             
   12 entries                                                                                       
     n  l   j            E        occ.                                                              
     1  0  0.50    -24164.6631   2.0000                                                             
     2  0  0.50     -3530.9218   2.0000                                                             
     2  1  1.50     -3165.6822   6.0000                                                             
     3  0  0.50      -639.4577   2.0000                                                             
     3  1  1.50      -519.4532   6.0000                                                             
     3  2  2.50      -328.9757  10.0000                                                             
     4  0  0.50       -88.7014   2.0000                                                             
     4  1  1.50       -54.4540   6.0000                                                             
     4  2  2.50        -6.6878   9.0000                                                             
     5  0  0.50        -4.3543   1.0000                                                             
     5  1  0.50        -1.3606   0.0000                                                             
     4  3  2.50        -1.3606   0.0000                                                             
   Description                                                                                      
     l       E           TYP  RCUT    TYP  RCUT                                                     
     2     -6.6878251     23  2.400                                                                 
     2     -8.0484077     23  2.400                                                                 
     0     -4.3542939     23  2.400                                                                 
     0      4.3406793     23  2.400                                                                 
     1     -4.0817478     23  2.600                                                                 
     1     15.8380318     23  2.600                                                                 
     3     -4.0817478     23  2.400                                                                 
  local pseudopotential read in
  partial core-charges read in
  partial kinetic energy density read in
  atomic valenz-charges read in
  non local Contribution for L=            2  read in
    real space projection operators read in
  non local Contribution for L=            2  read in
    real space projection operators read in
  non local Contribution for L=            0  read in
    real space projection operators read in
  non local Contribution for L=            0  read in
    real space projection operators read in
  non local Contribution for L=            1  read in
    real space projection operators read in
  non local Contribution for L=            1  read in
    real space projection operators read in
    PAW grid and wavefunctions read in
 
   number of l-projection  operators is LMAX  =            6
   number of lm-projection operators is LMMAX =           18
 
  PAW_PBE Ni 02Aug2007                  :
 energy of atom  1       EATOM=-1077.6739
 kinetic energy error for atom=    0.0101 (will be added to EATOM!!)
  PAW_PBE Pd 04Jan2005                  :
 energy of atom  2       EATOM= -809.7530
 kinetic energy error for atom=    0.0091 (will be added to EATOM!!)
 
 
 POSCAR: Ni Pd
  positions in cartesian coordinates
  No initial velocities read in
 exchange correlation table for  LEXCH =        8
   RHO(1)=    0.500       N(1)  =     2000
   RHO(2)=  100.500       N(2)  =     4000
 


--------------------------------------------------------------------------------------------------------


 ion  position               nearest neighbor table
   1  0.454  0.512  0.530-   5 2.31   6 2.32   3 2.33   2 2.34   4 2.39   7 2.50   8 2.57
   2  0.456  0.597  0.489-   1 2.34   5 2.35   6 2.37  10 2.45
   3  0.496  0.430  0.526-   4 2.30   1 2.33   8 2.47   9 2.49   7 2.49
   4  0.499  0.481  0.438-   3 2.30   5 2.30   6 2.32   1 2.39   9 2.50  10 2.54   8 2.64
   5  0.415  0.527  0.433-   4 2.30   1 2.31   2 2.35   8 2.48  10 2.50
   6  0.540  0.546  0.496-   4 2.32   1 2.32   2 2.37   7 2.48  10 2.49   9 2.50
   7  0.541  0.496  0.595-   6 2.48   3 2.49   1 2.50   9 2.67
   8  0.402  0.438  0.473-   3 2.47   5 2.48   1 2.57   4 2.64
   9  0.591  0.461  0.492-   3 2.49   6 2.50   4 2.50   7 2.67
  10  0.503  0.572  0.392-   2 2.45   6 2.49   5 2.50   4 2.54
 

IMPORTANT INFORMATION: All symmetrisations will be switched off!
NOSYMM: (Re-)initialisation of all symmetry stuff for point group C_1.


----------------------------------------------------------------------------------------

                                     Primitive cell                                     

  volume of cell :   12957.5241

  direct lattice vectors                    reciprocal lattice vectors
    23.403370347  0.000000000  0.000000000     0.042728888  0.000000000  0.000000000
     0.000000000 25.715317475  0.000000000     0.000000000  0.038887329  0.000000000
     0.000000000  0.000000000 21.530381774     0.000000000  0.000000000  0.046445995

  length of vectors
    23.403370347 25.715317475 21.530381774     0.042728888  0.038887329  0.046445995

  position of ions in fractional coordinates (direct lattice)
     0.453920037  0.512064555  0.529898402
     0.455767521  0.596620566  0.489392317
     0.495587127  0.430029403  0.525882627
     0.499015945  0.480560886  0.437776004
     0.415229034  0.527469990  0.433138127
     0.540316025  0.546424759  0.496262196
     0.540928084  0.496242149  0.594683878
     0.401963634  0.437851926  0.473383487
     0.591370876  0.461103191  0.491564712
     0.502848132  0.571512128  0.392376054

  ion indices of the primitive-cell ions
   primitive index   ion index
                 1           1
                 2           2
                 3           3
                 4           4
                 5           5
                 6           6
                 7           7
                 8           8
                 9           9
                10          10

----------------------------------------------------------------------------------------

 
 
 KPOINTS: KPOINTS created by Atomic Simulation Env

Automatic generation of k-mesh.
Space group operators:
 irot       det(A)        alpha          n_x          n_y          n_z        tau_x        tau_y        tau_z
    1     1.000000     0.000001     1.000000     0.000000     0.000000     0.000000     0.000000     0.000000
 
 Subroutine IBZKPT returns following result:
 ===========================================
 
 Found      1 irreducible k-points:
 
 Following reciprocal coordinates:
            Coordinates               Weight
  0.000000  0.000000  0.000000      1.000000
 
 Following cartesian coordinates:
            Coordinates               Weight
  0.000000  0.000000  0.000000      1.000000
 


--------------------------------------------------------------------------------------------------------




 Dimension of arrays:
   k-points           NKPTS =      1   k-points in BZ     NKDIM =      1   number of bands    NBANDS=     66
   number of dos      NEDOS =    301   number of ions     NIONS =     10
   non local maximal  LDIM  =      6   non local SUM 2l+1 LMDIM =     18
   total plane-waves  NPLWV = ******
   max r-space proj   IRMAX =      1   max aug-charges    IRDMAX=   6312
   dimension x,y,z NGX =   120 NGY =  126 NGZ =  108
   dimension x,y,z NGXF=   240 NGYF=  252 NGZF=  216
   support grid    NGXF=   240 NGYF=  252 NGZF=  216
   ions per type =               6   4
   NGX,Y,Z   is equivalent  to a cutoff of   8.52,  8.15,  8.34 a.u.
   NGXF,Y,Z  is equivalent  to a cutoff of  17.05, 16.29, 16.68 a.u.

 SYSTEM =  unknown system                          
 POSCAR =  Ni Pd                                   

 Startparameter for this run:
   NWRITE =      2    write-flag & timer
   PREC   = normal    normal or accurate (medium, high low for compatibility)
   ISTART =      0    job   : 0-new  1-cont  2-samecut
   ICHARG =      2    charge: 1-file 2-atom 10-const
   ISPIN  =      2    spin polarized calculation?
   LNONCOLLINEAR =      F non collinear calculations
   LSORBIT =      F    spin-orbit coupling
   INIWAV =      1    electr: 0-lowe 1-rand  2-diag
   LASPH  =      F    aspherical Exc in radial PAW
   METAGGA=      F    non-selfconsistent MetaGGA calc.

 Electronic Relaxation 1
   ENCUT  =  400.0 eV  29.40 Ry    5.42 a.u.  38.16 41.94 35.11*2*pi/ulx,y,z
   ENINI  =  400.0     initial cutoff
   ENAUG  =  544.6 eV  augmentation charge cutoff
   NELM   =     60;   NELMIN=  2; NELMDL=  0     # of ELM steps 
   EDIFF  = 0.1E-03   stopping-criterion for ELM
   LREAL  =      F    real-space projection
   NLSPLINE    = F    spline interpolate recip. space projectors
   LCOMPAT=      F    compatible to vasp.4.4
   GGA_COMPAT  = T    GGA compatible to vasp.4.4-vasp.4.6
   LMAXPAW     = -100 max onsite density
   LMAXMIX     =    2 max onsite mixed and CHGCAR
   VOSKOWN=      0    Vosko Wilk Nusair interpolation
   ROPT   =    0.00000   0.00000
 Ionic relaxation
   EDIFFG = 0.1E-02   stopping-criterion for IOM
   NSW    =   1000    number of steps for IOM
   NBLOCK =      1;   KBLOCK =   1000    inner block; outer block 
   IBRION =      2    ionic relax: 0-MD 1-quasi-New 2-CG
   NFREE  =      1    steps in history (QN), initial steepest desc. (CG)
   ISIF   =      0    stress and relaxation
   IWAVPR =     11    prediction:  0-non 1-charg 2-wave 3-comb
   ISYM   =      0    0-nonsym 1-usesym 2-fastsym
   LCORR  =      T    Harris-Foulkes like correction to forces

   POTIM  = 0.5000    time-step for ionic-motion
   TEIN   =    0.0    initial temperature
   TEBEG  =    0.0;   TEEND  =   0.0 temperature during run
   SMASS  =  -3.00    Nose mass-parameter (am)
   estimated Nose-frequenzy (Omega)   =  0.10E-29 period in steps = 0.13E+47 mass=  -0.125E-25a.u.
   SCALEE = 1.0000    scale energy and forces
   NPACO  =    256;   APACO  = 16.0  distance and # of slots for P.C.
   PSTRESS=    0.0 pullay stress

  Mass of Ions in am
   POMASS =  58.69106.42
  Ionic Valenz
   ZVAL   =  10.00 10.00
  Atomic Wigner-Seitz radii
   RWIGS  =  -1.00 -1.00
  virtual crystal weights 
   VCA    =   1.00  1.00
   NELECT =     100.0000    total number of electrons
   NUPDOWN=      -1.0000    fix difference up-down

 DOS related values:
   EMIN   =  10.00;   EMAX   =-10.00  energy-range for DOS
   EFERMI =   0.00
   ISMEAR =     1;   SIGMA  =   0.20  broadening in eV -4-tet -1-fermi 0-gaus

 Electronic relaxation 2 (details)
   IALGO  =     38    algorithm
   LDIAG  =      T    sub-space diagonalisation (order eigenvalues)
   LSUBROT=      F    optimize rotation matrix (better conditioning)
   TURBO    =      0    0=normal 1=particle mesh
   IRESTART =      0    0=no restart 2=restart with 2 vectors
   NREBOOT  =      0    no. of reboots
   NMIN     =      0    reboot dimension
   EREF     =   0.00    reference energy to select bands
   IMIX   =      4    mixing-type and parameters
     AMIX     =   0.40;   BMIX     =  1.00
     AMIX_MAG =   1.60;   BMIX_MAG =  1.00
     AMIN     =   0.10
     WC   =   100.;   INIMIX=   1;  MIXPRE=   1;  MAXMIX= -45

 Intra band minimization:
   WEIMIN = 0.0010     energy-eigenvalue tresh-hold
   EBREAK =  0.38E-06  absolut break condition
   DEPER  =   0.30     relativ break condition  

   TIME   =   0.40     timestep for ELM

  volume/ion in A,a.u.               =    1295.75      8744.17
  Fermi-wavevector in a.u.,A,eV,Ry     =   0.323520  0.611364  1.424054  0.104665
  Thomas-Fermi vector in A             =   1.212842
 
 Write flags
   LWAVE        =      F    write WAVECAR
   LDOWNSAMPLE  =      F    k-point downsampling of WAVECAR
   LCHARG       =      F    write CHGCAR
   LVTOT        =      F    write LOCPOT, total local potential
   LVHAR        =      F    write LOCPOT, Hartree potential only
   LELF         =      F    write electronic localiz. function (ELF)
   LORBIT       =      0    0 simple, 1 ext, 2 COOP (PROOUT), +10 PAW based schemes


 Dipole corrections
   LMONO  =      F    monopole corrections only (constant potential shift)
   LDIPOL =      F    correct potential (dipole corrections)
   IDIPOL =      0    1-x, 2-y, 3-z, 4-all directions 
   EPSILON=  1.0000000 bulk dielectric constant

 Exchange correlation treatment:
   GGA     =    PE    GGA type
   LEXCH   =     8    internal setting for exchange type
   VOSKOWN=      0    Vosko Wilk Nusair interpolation
   LHFCALC =     F    Hartree Fock is set to
   LHFONE  =     F    Hartree Fock one center treatment
   AEXX    =    0.0000 exact exchange contribution

 Linear response parameters
   LEPSILON=     F    determine dielectric tensor
   LRPA    =     F    only Hartree local field effects (RPA)
   LNABLA  =     F    use nabla operator in PAW spheres
   LVEL    =     F    velocity operator in full k-point grid
   LINTERFAST=   F  fast interpolation
   KINTER  =     0    interpolate to denser k-point grid
   CSHIFT  =0.1000    complex shift for real part using Kramers Kronig
   OMEGAMAX=  -1.0    maximum frequency
   DEG_THRESHOLD= 0.2000000E-02 threshold for treating states as degnerate
   RTIME   =   -0.100 relaxation time in fs
  (WPLASMAI=    0.000 imaginary part of plasma frequency in eV, 0.658/RTIME)
   DFIELD  = 0.0000000 0.0000000 0.0000000 field for delta impulse in time
 
 Orbital magnetization related:
   ORBITALMAG=     F  switch on orbital magnetization
   LCHIMAG   =     F  perturbation theory with respect to B field
   DQ        =  0.001000  dq finite difference perturbation B field
   LLRAUG    =     F  two centre corrections for induced B field



--------------------------------------------------------------------------------------------------------


 conjugate gradient relaxation of ions
 charge density and potential will be updated during run
 spin polarized calculation
 Variant of blocked Davidson
 Davidson routine will perform the subspace rotation
 perform sub-space diagonalisation
    after iterative eigenvector-optimisation
 modified Broyden-mixing scheme, WC =      100.0
 initial mixing is a Kerker type mixing with AMIX =  0.4000 and BMIX =      1.0000
 Hartree-type preconditioning will be used
 using additional bands            16
 reciprocal scheme for non local part
 use partial core corrections
 calculate Harris-corrections to forces 
   (improved forces if not selfconsistent)
 use gradient corrections 
 use of overlap-Matrix (Vanderbilt PP)
 Methfessel and Paxton  Order N= 1 SIGMA  =   0.20


--------------------------------------------------------------------------------------------------------


  energy-cutoff  :      400.00
  volume of cell :    12957.52
      direct lattice vectors                 reciprocal lattice vectors
    23.403370347  0.000000000  0.000000000     0.042728888  0.000000000  0.000000000
     0.000000000 25.715317475  0.000000000     0.000000000  0.038887329  0.000000000
     0.000000000  0.000000000 21.530381774     0.000000000  0.000000000  0.046445995

  length of vectors
    23.403370347 25.715317475 21.530381774     0.042728888  0.038887329  0.046445995


 
 k-points in units of 2pi/SCALE and weight: KPOINTS created by Atomic Simulation Env
   0.00000000  0.00000000  0.00000000       1.000
 
 k-points in reciprocal lattice and weights: KPOINTS created by Atomic Simulation Env
   0.00000000  0.00000000  0.00000000       1.000
 
 position of ions in fractional coordinates (direct lattice) 
   0.45392004  0.51206455  0.52989840
   0.45576752  0.59662057  0.48939232
   0.49558713  0.43002940  0.52588263
   0.49901595  0.48056089  0.43777600
   0.41522903  0.52746999  0.43313813
   0.54031603  0.54642476  0.49626220
   0.54092808  0.49624215  0.59468388
   0.40196363  0.43785193  0.47338349
   0.59137088  0.46110319  0.49156471
   0.50284813  0.57151213  0.39237605
 
 position of ions in cartesian coordinates  (Angst):
  10.62325874 13.16790260 11.40891491
  10.66649608 15.34228726 10.53680342
  11.59840908 11.05834263 11.32245373
  11.67865497 12.35777575  9.42548449
   9.71775886 13.56405824  9.32562923
  12.64521604 14.05148615 10.68471454
  12.65954028 12.76102442 12.80377093
   9.40730380 11.25950129 10.19212720
  13.84007163 11.85741495 10.58357591
  11.76834107 14.69661582  8.44800624
 


--------------------------------------------------------------------------------------------------------


 use parallel FFT for orbitals z direction half grid
 k-point   1 :   0.0000 0.0000 0.0000  plane waves:  117645

 maximum and minimum number of plane-waves per node :     14709    14703

 maximum number of plane-waves:    117645
 maximum index in each direction: 
   IXMAX=   38   IYMAX=   41   IZMAX=   35
   IXMIN=  -38   IYMIN=  -41   IZMIN=    0


 parallel 3D FFT for wavefunctions:
    minimum data exchange during FFTs selected (reduces bandwidth)
 parallel 3D FFT for charge:
    minimum data exchange during FFTs selected (reduces bandwidth)


 total amount of memory used by VASP MPI-rank0   166434. kBytes
=======================================================================

   base      :      30000. kBytes
   nonl-proj :       6587. kBytes
   fftplans  :      32070. kBytes
   grid      :      82200. kBytes
   one-center:         31. kBytes
   wavefun   :      15546. kBytes
 
     INWAV:  cpu time    0.0000: real time    0.0000
 Broyden mixing: mesh for mixing (old mesh)
   NGX = 77   NGY = 83   NGZ = 71
  (NGX  =240   NGY  =252   NGZ  =216)
  gives a total of 453761 points

 initial charge density was supplied:
 charge density of overlapping atoms calculated
 number of electron     100.0000000 magnetization      10.0000000
 keeping initial charge density in first step


--------------------------------------------------------------------------------------------------------


 Maximum index for augmentation-charges           397 (set IRDMAX)


--------------------------------------------------------------------------------------------------------


 First call to EWALD:  gamma=   0.075
 Maximum number of real-space cells 3x 3x 3
 Maximum number of reciprocal cells 3x 3x 3

    FEWALD:  cpu time    0.0015: real time    0.0015


--------------------------------------- Iteration      1(   1)  ---------------------------------------


    POTLOK:  cpu time    2.7219: real time    2.7345
    SETDIJ:  cpu time    0.0224: real time    0.0224
     EDDAV:  cpu time    6.0353: real time    6.0417
       DOS:  cpu time    0.0092: real time    0.0093
    --------------------------------------------
      LOOP:  cpu time    8.7889: real time    8.8080

 eigenvalue-minimisations  :   264
 total energy-change (2. order) : 0.7385404E+03  (-0.1529391E+04)
 number of electron     100.0000000 magnetization      10.0000000
 augmentation part      100.0000000 magnetization      10.0000000

 Free energy of the ion-electron system (eV)
  ---------------------------------------------------
  alpha Z        PSCENC =         4.37349991
  Ewald energy   TEWEN  =     13365.96014707
  -Hartree energ DENC   =    -22333.12403942
  -exchange      EXHF   =         0.00000000
  -V(xc)+E(xc)   XCENC  =        63.33133914
  PAW double counting   =      9003.59075477    -9155.75339974
  entropy T*S    EENTRO =        -0.00308048
  eigenvalues    EBANDS =        85.20661629
  atomic energy  EATOM  =      9704.95859309
  Solvation  Ediel_sol  =         0.00000000
  ---------------------------------------------------
  free energy    TOTEN  =       738.54043063 eV

  energy without entropy =      738.54351111  energy(sigma->0) =      738.54145746


--------------------------------------------------------------------------------------------------------




--------------------------------------- Iteration      1(   2)  ---------------------------------------


     EDDAV:  cpu time    9.4907: real time    9.5018
       DOS:  cpu time    0.0080: real time    0.0080
    --------------------------------------------
      LOOP:  cpu time    9.4988: real time    9.5099

 eigenvalue-minimisations  :   480
 total energy-change (2. order) :-0.4736318E+03  (-0.4384231E+03)
 number of electron     100.0000000 magnetization      10.0000000
 augmentation part      100.0000000 magnetization      10.0000000

 Free energy of the ion-electron system (eV)
  ---------------------------------------------------
  alpha Z        PSCENC =         4.37349991
  Ewald energy   TEWEN  =     13365.96014707
  -Hartree energ DENC   =    -22333.12403942
  -exchange      EXHF   =         0.00000000
  -V(xc)+E(xc)   XCENC  =        63.33133914
  PAW double counting   =      9003.59075477    -9155.75339974
  entropy T*S    EENTRO =         0.05557269
  eigenvalues    EBANDS =      -388.48386957
  atomic energy  EATOM  =      9704.95859309
  Solvation  Ediel_sol  =         0.00000000
  ---------------------------------------------------
  free energy    TOTEN  =       264.90859794 eV

  energy without entropy =      264.85302525  energy(sigma->0) =      264.89007371


--------------------------------------------------------------------------------------------------------




--------------------------------------- Iteration      1(   3)  ---------------------------------------


     EDDAV:  cpu time    8.3347: real time    8.3436
       DOS:  cpu time    0.0085: real time    0.0085
    --------------------------------------------
      LOOP:  cpu time    8.3432: real time    8.3521

 eigenvalue-minimisations  :   408
 total energy-change (2. order) :-0.2389102E+03  (-0.2237807E+03)
 number of electron     100.0000000 magnetization      10.0000000
 augmentation part      100.0000000 magnetization      10.0000000

 Free energy of the ion-electron system (eV)
  ---------------------------------------------------
  alpha Z        PSCENC =         4.37349991
  Ewald energy   TEWEN  =     13365.96014707
  -Hartree energ DENC   =    -22333.12403942
  -exchange      EXHF   =         0.00000000
  -V(xc)+E(xc)   XCENC  =        63.33133914
  PAW double counting   =      9003.59075477    -9155.75339974
  entropy T*S    EENTRO =        -0.01107859
  eigenvalues    EBANDS =      -627.32738653
  atomic energy  EATOM  =      9704.95859309
  Solvation  Ediel_sol  =         0.00000000
  ---------------------------------------------------
  free energy    TOTEN  =        25.99842969 eV

  energy without entropy =       26.00950828  energy(sigma->0) =       26.00212255


--------------------------------------------------------------------------------------------------------




--------------------------------------- Iteration      1(   4)  ---------------------------------------


     EDDAV:  cpu time    8.3336: real time    8.3426
       DOS:  cpu time    0.0077: real time    0.0077
    --------------------------------------------
      LOOP:  cpu time    8.3413: real time    8.3503

 eigenvalue-minimisations  :   408
 total energy-change (2. order) :-0.6244905E+02  (-0.5367412E+02)
 number of electron     100.0000000 magnetization      10.0000000
 augmentation part      100.0000000 magnetization      10.0000000

 Free energy of the ion-electron system (eV)
  ---------------------------------------------------
  alpha Z        PSCENC =         4.37349991
  Ewald energy   TEWEN  =     13365.96014707
  -Hartree energ DENC   =    -22333.12403942
  -exchange      EXHF   =         0.00000000
  -V(xc)+E(xc)   XCENC  =        63.33133914
  PAW double counting   =      9003.59075477    -9155.75339974
  entropy T*S    EENTRO =        -0.03679303
  eigenvalues    EBANDS =      -689.75072190
  atomic energy  EATOM  =      9704.95859309
  Solvation  Ediel_sol  =         0.00000000
  ---------------------------------------------------
  free energy    TOTEN  =       -36.45062011 eV

  energy without entropy =      -36.41382708  energy(sigma->0) =      -36.43835577


--------------------------------------------------------------------------------------------------------




--------------------------------------- Iteration      1(   5)  ---------------------------------------


     EDDAV:  cpu time    7.2934: real time    7.3008
       DOS:  cpu time    0.0015: real time    0.0015
    CHARGE:  cpu time    0.6722: real time    0.6729
    MIXING:  cpu time    0.0406: real time    0.0406
    --------------------------------------------
      LOOP:  cpu time    8.0076: real time    8.0157

 eigenvalue-minimisations  :   344
 total energy-change (2. order) :-0.7698179E+01  (-0.6926300E+01)
 number of electron     100.0000139 magnetization       9.8271587
 augmentation part       52.1207299 magnetization       7.9718197

 Broyden mixing:
  rms(total) = 0.26919E+01    rms(broyden)= 0.26908E+01
  rms(prec ) = 0.27956E+01
  weight for this iteration     100.00

 Free energy of the ion-electron system (eV)
  ---------------------------------------------------
  alpha Z        PSCENC =         4.37349991
  Ewald energy   TEWEN  =     13365.96014707
  -Hartree energ DENC   =    -22333.12403942
  -exchange      EXHF   =         0.00000000
  -V(xc)+E(xc)   XCENC  =        63.33133914
  PAW double counting   =      9003.59075477    -9155.75339974
  entropy T*S    EENTRO =         0.00232075
  eigenvalues    EBANDS =      -697.48801458
  atomic energy  EATOM  =      9704.95859309
  Solvation  Ediel_sol  =         0.00000000
  ---------------------------------------------------
  free energy    TOTEN  =       -44.14879901 eV

  energy without entropy =      -44.15111976  energy(sigma->0) =      -44.14957259


--------------------------------------------------------------------------------------------------------




--------------------------------------- Iteration      1(   6)  ---------------------------------------


    POTLOK:  cpu time    2.7317: real time    2.7364
    SETDIJ:  cpu time    0.0236: real time    0.0236
     EDDAV:  cpu time    6.4208: real time    6.4271
       DOS:  cpu time    0.0100: real time    0.0100
    CHARGE:  cpu time    0.6597: real time    0.6603
    MIXING:  cpu time    0.0438: real time    0.0439
    --------------------------------------------
      LOOP:  cpu time    9.8896: real time    9.9013

 eigenvalue-minimisations  :   292
 total energy-change (2. order) :-0.1335310E+02  (-0.1015060E+02)
 number of electron     100.0000179 magnetization       9.6351792
 augmentation part       56.6096886 magnetization       9.0193238

 Broyden mixing:
  rms(total) = 0.54308E+01    rms(broyden)= 0.54304E+01
  rms(prec ) = 0.57442E+01
  weight for this iteration     100.00

 eigenvalues of (default mixing * dielectric matrix)
  average eigenvalue GAMMA=   0.2929
  0.2929

 Free energy of the ion-electron system (eV)
  ---------------------------------------------------
  alpha Z        PSCENC =         4.37349991
  Ewald energy   TEWEN  =     13365.96014707
  -Hartree energ DENC   =    -22253.31520643
  -exchange      EXHF   =         0.00000000
  -V(xc)+E(xc)   XCENC  =        60.14178777
  PAW double counting   =      9487.91068969    -9615.18510763
  entropy T*S    EENTRO =        -0.01219917
  eigenvalues    EBANDS =      -812.33410740
  atomic energy  EATOM  =      9704.95859309
  Solvation  Ediel_sol  =         0.00000000
  ---------------------------------------------------
  free energy    TOTEN  =       -57.50190309 eV

  energy without entropy =      -57.48970392  energy(sigma->0) =      -57.49783670


--------------------------------------------------------------------------------------------------------




--------------------------------------- Iteration      1(   7)  ---------------------------------------


    POTLOK:  cpu time    2.7321: real time    2.7355
    SETDIJ:  cpu time    0.0242: real time    0.0242
     EDDAV:  cpu time    7.0427: real time    7.0504
       DOS:  cpu time    0.0072: real time    0.0072
    CHARGE:  cpu time    0.6674: real time    0.6681
    MIXING:  cpu time    0.0488: real time    0.0488
    --------------------------------------------
      LOOP:  cpu time   10.5224: real time   10.5341

 eigenvalue-minimisations  :   330
 total energy-change (2. order) : 0.1703989E+02  (-0.6078094E+01)
 number of electron     100.0000155 magnetization       9.6034936
 augmentation part       54.7889944 magnetization       6.9842580

 Broyden mixing:
  rms(total) = 0.25321E+01    rms(broyden)= 0.25312E+01
  rms(prec ) = 0.26547E+01
  weight for this iteration     100.00

 eigenvalues of (default mixing * dielectric matrix)
  average eigenvalue GAMMA=   0.2675
  0.2675  0.2675

 Free energy of the ion-electron system (eV)
  ---------------------------------------------------
  alpha Z        PSCENC =         4.37349991
  Ewald energy   TEWEN  =     13365.96014707
  -Hartree energ DENC   =    -22313.96653429
  -exchange      EXHF   =         0.00000000
  -V(xc)+E(xc)   XCENC  =        61.34032741
  PAW double counting   =      9634.77180904    -9784.74260773
  entropy T*S    EENTRO =         0.04277614
  eigenvalues    EBANDS =      -713.20002200
  atomic energy  EATOM  =      9704.95859309
  Solvation  Ediel_sol  =         0.00000000
  ---------------------------------------------------
  free energy    TOTEN  =       -40.46201137 eV

  energy without entropy =      -40.50478750  energy(sigma->0) =      -40.47627008


--------------------------------------------------------------------------------------------------------




--------------------------------------- Iteration      1(   8)  ---------------------------------------


    POTLOK:  cpu time    2.7316: real time    2.7367
    SETDIJ:  cpu time    0.0232: real time    0.0232
     EDDAV:  cpu time    7.5824: real time    7.5917
       DOS:  cpu time    0.0008: real time    0.0008
    CHARGE:  cpu time    0.6609: real time    0.6615
    MIXING:  cpu time    0.0484: real time    0.0485
    --------------------------------------------
      LOOP:  cpu time   11.0473: real time   11.0623

 eigenvalue-minimisations  :   364
 total energy-change (2. order) : 0.1814140E+01  (-0.2122576E+01)
 number of electron     100.0000166 magnetization       9.4849299
 augmentation part       55.1634864 magnetization       7.4899418

 Broyden mixing:
  rms(total) = 0.28821E+01    rms(broyden)= 0.28816E+01
  rms(prec ) = 0.30221E+01
  weight for this iteration     100.00

 eigenvalues of (default mixing * dielectric matrix)
  average eigenvalue GAMMA=   0.3646
  0.6692  0.2123  0.2123

 Free energy of the ion-electron system (eV)
  ---------------------------------------------------
  alpha Z        PSCENC =         4.37349991
  Ewald energy   TEWEN  =     13365.96014707
  -Hartree energ DENC   =    -22318.82009497
  -exchange      EXHF   =         0.00000000
  -V(xc)+E(xc)   XCENC  =        61.32078039
  PAW double counting   =      9720.23987401    -9871.49479690
  entropy T*S    EENTRO =        -0.01340109
  eigenvalues    EBANDS =      -705.17247264
  atomic energy  EATOM  =      9704.95859309
  Solvation  Ediel_sol  =         0.00000000
  ---------------------------------------------------
  free energy    TOTEN  =       -38.64787113 eV

  energy without entropy =      -38.63447004  energy(sigma->0) =      -38.64340410


--------------------------------------------------------------------------------------------------------




--------------------------------------- Iteration      1(   9)  ---------------------------------------


    POTLOK:  cpu time    2.7272: real time    2.7317
    SETDIJ:  cpu time    0.0233: real time    0.0233
     EDDAV:  cpu time    7.6368: real time    7.6444
       DOS:  cpu time    0.0008: real time    0.0008
    CHARGE:  cpu time    0.6631: real time    0.6638
    MIXING:  cpu time    0.0535: real time    0.0536
    --------------------------------------------
      LOOP:  cpu time   11.1046: real time   11.1175

 eigenvalue-minimisations  :   366
 total energy-change (2. order) :-0.1287283E+00  (-0.2244829E+01)
 number of electron     100.0000151 magnetization       9.4543137
 augmentation part       54.3639322 magnetization       7.1057163

 Broyden mixing:
  rms(total) = 0.34239E+01    rms(broyden)= 0.34234E+01
  rms(prec ) = 0.36069E+01
  weight for this iteration     100.00

 eigenvalues of (default mixing * dielectric matrix)
  average eigenvalue GAMMA=   0.3189
  0.7288  0.2254  0.2254  0.0962

 Free energy of the ion-electron system (eV)
  ---------------------------------------------------
  alpha Z        PSCENC =         4.37349991
  Ewald energy   TEWEN  =     13365.96014707
  -Hartree energ DENC   =    -22354.91646996
  -exchange      EXHF   =         0.00000000
  -V(xc)+E(xc)   XCENC  =        62.45100452
  PAW double counting   =      9893.89542596   -10052.82131543
  entropy T*S    EENTRO =         0.02320321
  eigenvalues    EBANDS =      -662.70068778
  atomic energy  EATOM  =      9704.95859309
  Solvation  Ediel_sol  =         0.00000000
  ---------------------------------------------------
  free energy    TOTEN  =       -38.77659941 eV

  energy without entropy =      -38.79980263  energy(sigma->0) =      -38.78433382


--------------------------------------------------------------------------------------------------------




--------------------------------------- Iteration      1(  10)  ---------------------------------------


    POTLOK:  cpu time    2.7270: real time    2.7344
    SETDIJ:  cpu time    0.0236: real time    0.0237
     EDDAV:  cpu time    7.4919: real time    7.5022
       DOS:  cpu time    0.0067: real time    0.0067
    CHARGE:  cpu time    0.6566: real time    0.6572
    MIXING:  cpu time    0.0556: real time    0.0557
    --------------------------------------------
      LOOP:  cpu time   10.9615: real time   10.9799

 eigenvalue-minimisations  :   358
 total energy-change (2. order) : 0.8545366E+00  (-0.8927766E+00)
 number of electron     100.0000165 magnetization       9.3706692
 augmentation part       54.2407907 magnetization       7.1628431

 Broyden mixing:
  rms(total) = 0.23309E+01    rms(broyden)= 0.23303E+01
  rms(prec ) = 0.24334E+01
  weight for this iteration     100.00

 eigenvalues of (default mixing * dielectric matrix)
  average eigenvalue GAMMA=   0.3529
  0.9770  0.2747  0.2747  0.1189  0.1189

 Free energy of the ion-electron system (eV)
  ---------------------------------------------------
  alpha Z        PSCENC =         4.37349991
  Ewald energy   TEWEN  =     13365.96014707
  -Hartree energ DENC   =    -22359.07805329
  -exchange      EXHF   =         0.00000000
  -V(xc)+E(xc)   XCENC  =        62.29358825
  PAW double counting   =      9936.53173534   -10095.93392024
  entropy T*S    EENTRO =        -0.01402417
  eigenvalues    EBANDS =      -657.01362876
  atomic energy  EATOM  =      9704.95859309
  Solvation  Ediel_sol  =         0.00000000
  ---------------------------------------------------
  free energy    TOTEN  =       -37.92206280 eV

  energy without entropy =      -37.90803862  energy(sigma->0) =      -37.91738807


--------------------------------------------------------------------------------------------------------




--------------------------------------- Iteration      1(  11)  ---------------------------------------


    POTLOK:  cpu time    2.7270: real time    2.7314
    SETDIJ:  cpu time    0.0230: real time    0.0230
     EDDAV:  cpu time    6.7537: real time    6.7604
       DOS:  cpu time    0.0081: real time    0.0081
    CHARGE:  cpu time    0.6601: real time    0.6606
    MIXING:  cpu time    0.0618: real time    0.0618
    --------------------------------------------
      LOOP:  cpu time   10.2336: real time   10.2454

 eigenvalue-minimisations  :   310
 total energy-change (2. order) : 0.1722421E+01  (-0.6673356E+00)
 number of electron     100.0000156 magnetization       9.3138869
 augmentation part       54.3299204 magnetization       7.0288954

 Broyden mixing:
  rms(total) = 0.16057E+01    rms(broyden)= 0.16045E+01
  rms(prec ) = 0.16805E+01
  weight for this iteration     100.00

 eigenvalues of (default mixing * dielectric matrix)
  average eigenvalue GAMMA=   0.3604
  1.0732  0.4076  0.2739  0.1799  0.1203  0.1075

 Free energy of the ion-electron system (eV)
  ---------------------------------------------------
  alpha Z        PSCENC =         4.37349991
  Ewald energy   TEWEN  =     13365.96014707
  -Hartree energ DENC   =    -22369.37711534
  -exchange      EXHF   =         0.00000000
  -V(xc)+E(xc)   XCENC  =        62.44488141
  PAW double counting   =     10031.60691058   -10193.73885991
  entropy T*S    EENTRO =        -0.02262720
  eigenvalues    EBANDS =      -642.40507125
  atomic energy  EATOM  =      9704.95859309
  Solvation  Ediel_sol  =         0.00000000
  ---------------------------------------------------
  free energy    TOTEN  =       -36.19964163 eV

  energy without entropy =      -36.17701444  energy(sigma->0) =      -36.19209923


--------------------------------------------------------------------------------------------------------




--------------------------------------- Iteration      1(  12)  ---------------------------------------


    POTLOK:  cpu time    2.7140: real time    2.7206
    SETDIJ:  cpu time    0.0229: real time    0.0230
     EDDAV:  cpu time    7.6395: real time    7.6475
       DOS:  cpu time    0.0063: real time    0.0063
    CHARGE:  cpu time    0.6627: real time    0.6633
    MIXING:  cpu time    0.0674: real time    0.0675
    --------------------------------------------
      LOOP:  cpu time   11.1129: real time   11.1281

 eigenvalue-minimisations  :   364
 total energy-change (2. order) : 0.6282814E-01  (-0.5743647E+00)
 number of electron     100.0000167 magnetization       9.2581917
 augmentation part       54.3936500 magnetization       7.0689004

 Broyden mixing:
  rms(total) = 0.11611E+01    rms(broyden)= 0.11602E+01
  rms(prec ) = 0.12120E+01
  weight for this iteration     100.00

 eigenvalues of (default mixing * dielectric matrix)
  average eigenvalue GAMMA=   0.3636
  1.0824  0.4997  0.3030  0.3030  0.1496  0.1037  0.1037

 Free energy of the ion-electron system (eV)
  ---------------------------------------------------
  alpha Z        PSCENC =         4.37349991
  Ewald energy   TEWEN  =     13365.96014707
  -Hartree energ DENC   =    -22371.75140882
  -exchange      EXHF   =         0.00000000
  -V(xc)+E(xc)   XCENC  =        62.33523974
  PAW double counting   =     10081.34475029   -10243.91088839
  entropy T*S    EENTRO =        -0.00932357
  eigenvalues    EBANDS =      -639.43742280
  atomic energy  EATOM  =      9704.95859309
  Solvation  Ediel_sol  =         0.00000000
  ---------------------------------------------------
  free energy    TOTEN  =       -36.13681349 eV

  energy without entropy =      -36.12748992  energy(sigma->0) =      -36.13370563


--------------------------------------------------------------------------------------------------------




--------------------------------------- Iteration      1(  13)  ---------------------------------------


    POTLOK:  cpu time    2.7247: real time    2.7303
    SETDIJ:  cpu time    0.0235: real time    0.0235
     EDDAV:  cpu time    7.1484: real time    7.1563
       DOS:  cpu time    0.0083: real time    0.0083
    CHARGE:  cpu time    0.6608: real time    0.6616
    MIXING:  cpu time    0.0708: real time    0.0709
    --------------------------------------------
      LOOP:  cpu time   10.6366: real time   10.6508

 eigenvalue-minimisations  :   334
 total energy-change (2. order) :-0.2235641E+00  (-0.1977560E+00)
 number of electron     100.0000156 magnetization       9.2109021
 augmentation part       54.3220912 magnetization       7.0686063

 Broyden mixing:
  rms(total) = 0.10602E+01    rms(broyden)= 0.10595E+01
  rms(prec ) = 0.11035E+01
  weight for this iteration     100.00

 eigenvalues of (default mixing * dielectric matrix)
  average eigenvalue GAMMA=   0.3732
  1.1689  0.5185  0.5185  0.2357  0.1952  0.1222  0.1222  0.1048

 Free energy of the ion-electron system (eV)
  ---------------------------------------------------
  alpha Z        PSCENC =         4.37349991
  Ewald energy   TEWEN  =     13365.96014707
  -Hartree energ DENC   =    -22374.65130344
  -exchange      EXHF   =         0.00000000
  -V(xc)+E(xc)   XCENC  =        62.13888731
  PAW double counting   =     10111.70508871   -10274.86943321
  entropy T*S    EENTRO =         0.00300048
  eigenvalues    EBANDS =      -635.97885750
  atomic energy  EATOM  =      9704.95859309
  Solvation  Ediel_sol  =         0.00000000
  ---------------------------------------------------
  free energy    TOTEN  =       -36.36037758 eV

  energy without entropy =      -36.36337806  energy(sigma->0) =      -36.36137774


--------------------------------------------------------------------------------------------------------




--------------------------------------- Iteration      1(  14)  ---------------------------------------


    POTLOK:  cpu time    2.7096: real time    2.7172
    SETDIJ:  cpu time    0.0224: real time    0.0224
     EDDAV:  cpu time    7.0652: real time    7.0725
       DOS:  cpu time    0.0082: real time    0.0082
    CHARGE:  cpu time    0.6580: real time    0.6587
    MIXING:  cpu time    0.0757: real time    0.0765
    --------------------------------------------
      LOOP:  cpu time   10.5390: real time   10.5554

 eigenvalue-minimisations  :   328
 total energy-change (2. order) : 0.1102275E+00  (-0.1011510E+00)
 number of electron     100.0000157 magnetization       9.1143927
 augmentation part       54.2686813 magnetization       7.0030318

 Broyden mixing:
  rms(total) = 0.42203E+00    rms(broyden)= 0.42095E+00
  rms(prec ) = 0.43669E+00
  weight for this iteration     100.00

 eigenvalues of (default mixing * dielectric matrix)
  average eigenvalue GAMMA=   0.4369
  1.4013  0.7136  0.7136  0.3090  0.3090  0.1419  0.1130  0.1130  0.1179

 Free energy of the ion-electron system (eV)
  ---------------------------------------------------
  alpha Z        PSCENC =         4.37349991
  Ewald energy   TEWEN  =     13365.96014707
  -Hartree energ DENC   =    -22378.35899101
  -exchange      EXHF   =         0.00000000
  -V(xc)+E(xc)   XCENC  =        62.06975883
  PAW double counting   =     10134.63215230   -10298.60726948
  entropy T*S    EENTRO =         0.02676014
  eigenvalues    EBANDS =      -631.30480092
  atomic energy  EATOM  =      9704.95859309
  Solvation  Ediel_sol  =         0.00000000
  ---------------------------------------------------
  free energy    TOTEN  =       -36.25015007 eV

  energy without entropy =      -36.27691021  energy(sigma->0) =      -36.25907011


--------------------------------------------------------------------------------------------------------




--------------------------------------- Iteration      1(  15)  ---------------------------------------


    POTLOK:  cpu time    2.7100: real time    2.7133
    SETDIJ:  cpu time    0.0237: real time    0.0237
     EDDAV:  cpu time    7.7708: real time    7.7787
       DOS:  cpu time    0.0063: real time    0.0063
    CHARGE:  cpu time    0.6566: real time    0.6573
    MIXING:  cpu time    0.0804: real time    0.0805
    --------------------------------------------
      LOOP:  cpu time   11.2478: real time   11.2599

 eigenvalue-minimisations  :   372
 total energy-change (2. order) :-0.2027541E+00  (-0.3969117E-01)
 number of electron     100.0000157 magnetization       9.0706651
 augmentation part       54.3205002 magnetization       6.9837790

 Broyden mixing:
  rms(total) = 0.53265E+00    rms(broyden)= 0.53243E+00
  rms(prec ) = 0.55708E+00
  weight for this iteration     100.00

 eigenvalues of (default mixing * dielectric matrix)
  average eigenvalue GAMMA=   0.4250
  1.4892  0.7396  0.7396  0.3170  0.3170  0.1557  0.1557  0.1136  0.1136  0.1091

 Free energy of the ion-electron system (eV)
  ---------------------------------------------------
  alpha Z        PSCENC =         4.37349991
  Ewald energy   TEWEN  =     13365.96014707
  -Hartree energ DENC   =    -22381.22728162
  -exchange      EXHF   =         0.00000000
  -V(xc)+E(xc)   XCENC  =        61.88131262
  PAW double counting   =     10164.99235612   -10329.23064984
  entropy T*S    EENTRO =         0.03876203
  eigenvalues    EBANDS =      -628.19964361
  atomic energy  EATOM  =      9704.95859309
  Solvation  Ediel_sol  =         0.00000000
  ---------------------------------------------------
  free energy    TOTEN  =       -36.45290421 eV

  energy without entropy =      -36.49166625  energy(sigma->0) =      -36.46582489


--------------------------------------------------------------------------------------------------------




--------------------------------------- Iteration      1(  16)  ---------------------------------------


    POTLOK:  cpu time    2.7188: real time    2.7234
    SETDIJ:  cpu time    0.0234: real time    0.0234
     EDDAV:  cpu time    6.5281: real time    6.5355
       DOS:  cpu time    0.0113: real time    0.0113
    CHARGE:  cpu time    0.6598: real time    0.6612
    MIXING:  cpu time    0.0880: real time    0.0881
    --------------------------------------------
      LOOP:  cpu time   10.0293: real time   10.0429

 eigenvalue-minimisations  :   296
 total energy-change (2. order) :-0.2447118E-01  (-0.3843667E-01)
 number of electron     100.0000156 magnetization       8.9518264
 augmentation part       54.3838102 magnetization       6.8674858

 Broyden mixing:
  rms(total) = 0.36987E+00    rms(broyden)= 0.36959E+00
  rms(prec ) = 0.38512E+00
  weight for this iteration     100.00

 eigenvalues of (default mixing * dielectric matrix)
  average eigenvalue GAMMA=   0.4777
  1.7770  0.7780  0.7780  0.6433  0.3772  0.2924  0.1516  0.1136  0.1136  0.1217
  0.1083

 Free energy of the ion-electron system (eV)
  ---------------------------------------------------
  alpha Z        PSCENC =         4.37349991
  Ewald energy   TEWEN  =     13365.96014707
  -Hartree energ DENC   =    -22382.35837230
  -exchange      EXHF   =         0.00000000
  -V(xc)+E(xc)   XCENC  =        61.81329570
  PAW double counting   =     10174.92267959   -10339.17925034
  entropy T*S    EENTRO =         0.02634948
  eigenvalues    EBANDS =      -626.99431759
  atomic energy  EATOM  =      9704.95859309
  Solvation  Ediel_sol  =         0.00000000
  ---------------------------------------------------
  free energy    TOTEN  =       -36.47737539 eV

  energy without entropy =      -36.50372487  energy(sigma->0) =      -36.48615855


--------------------------------------------------------------------------------------------------------




--------------------------------------- Iteration      1(  17)  ---------------------------------------


    POTLOK:  cpu time    2.7185: real time    2.7223
    SETDIJ:  cpu time    0.0228: real time    0.0228
     EDDAV:  cpu time    7.7160: real time    7.7245
       DOS:  cpu time    0.0112: real time    0.0112
    CHARGE:  cpu time    0.6589: real time    0.6596
    MIXING:  cpu time    0.0986: real time    0.0987
    --------------------------------------------
      LOOP:  cpu time   11.2261: real time   11.2391

 eigenvalue-minimisations  :   370
 total energy-change (2. order) :-0.2021886E+00  (-0.1702863E-01)
 number of electron     100.0000157 magnetization       8.8276453
 augmentation part       54.4279051 magnetization       6.7926153

 Broyden mixing:
  rms(total) = 0.16433E+00    rms(broyden)= 0.16418E+00
  rms(prec ) = 0.17113E+00
  weight for this iteration     100.00

 eigenvalues of (default mixing * dielectric matrix)
  average eigenvalue GAMMA=   0.5414
  2.1137  1.2534  0.6899  0.6899  0.4733  0.3684  0.2967  0.1513  0.1132  0.1132
  0.1253  0.1081

 Free energy of the ion-electron system (eV)
  ---------------------------------------------------
  alpha Z        PSCENC =         4.37349991
  Ewald energy   TEWEN  =     13365.96014707
  -Hartree energ DENC   =    -22387.98285909
  -exchange      EXHF   =         0.00000000
  -V(xc)+E(xc)   XCENC  =        61.66498898
  PAW double counting   =     10193.34306071   -10358.01123282
  entropy T*S    EENTRO =         0.03587199
  eigenvalues    EBANDS =      -621.02163384
  atomic energy  EATOM  =      9704.95859309
  Solvation  Ediel_sol  =         0.00000000
  ---------------------------------------------------
  free energy    TOTEN  =       -36.67956401 eV

  energy without entropy =      -36.71543599  energy(sigma->0) =      -36.69152134


--------------------------------------------------------------------------------------------------------




--------------------------------------- Iteration      1(  18)  ---------------------------------------


    POTLOK:  cpu time    2.7153: real time    2.7217
    SETDIJ:  cpu time    0.0241: real time    0.0241
     EDDAV:  cpu time    7.4931: real time    7.5033
       DOS:  cpu time    0.0019: real time    0.0019
    CHARGE:  cpu time    0.6588: real time    0.6594
    MIXING:  cpu time    0.1064: real time    0.1065
    --------------------------------------------
      LOOP:  cpu time   10.9997: real time   11.0170

 eigenvalue-minimisations  :   356
 total energy-change (2. order) :-0.2641607E+00  (-0.7673857E-02)
 number of electron     100.0000157 magnetization       8.7638492
 augmentation part       54.4124173 magnetization       6.7223867

 Broyden mixing:
  rms(total) = 0.18778E+00    rms(broyden)= 0.18759E+00
  rms(prec ) = 0.19630E+00
  weight for this iteration     100.00

 eigenvalues of (default mixing * dielectric matrix)
  average eigenvalue GAMMA=   0.5689
  2.2977  1.3755  0.7228  0.7228  0.5392  0.4425  0.3903  0.2935  0.1514  0.1132
  0.1132  0.1249  0.1082

 Free energy of the ion-electron system (eV)
  ---------------------------------------------------
  alpha Z        PSCENC =         4.37349991
  Ewald energy   TEWEN  =     13365.96014707
  -Hartree energ DENC   =    -22393.95839299
  -exchange      EXHF   =         0.00000000
  -V(xc)+E(xc)   XCENC  =        61.51882559
  PAW double counting   =     10195.79573133   -10360.78065236
  entropy T*S    EENTRO =         0.02892572
  eigenvalues    EBANDS =      -614.84040209
  atomic energy  EATOM  =      9704.95859309
  Solvation  Ediel_sol  =         0.00000000
  ---------------------------------------------------
  free energy    TOTEN  =       -36.94372474 eV

  energy without entropy =      -36.97265045  energy(sigma->0) =      -36.95336664


--------------------------------------------------------------------------------------------------------




--------------------------------------- Iteration      1(  19)  ---------------------------------------


    POTLOK:  cpu time    2.7217: real time    2.7282
    SETDIJ:  cpu time    0.0237: real time    0.0237
     EDDAV:  cpu time    6.8375: real time    6.8463
       DOS:  cpu time    0.0031: real time    0.0031
    CHARGE:  cpu time    0.6558: real time    0.6564
    MIXING:  cpu time    0.1159: real time    0.1160
    --------------------------------------------
      LOOP:  cpu time   10.3575: real time   10.3737

 eigenvalue-minimisations  :   316
 total energy-change (2. order) :-0.1795285E+00  (-0.3056487E-02)
 number of electron     100.0000157 magnetization       8.6949482
 augmentation part       54.4095014 magnetization       6.6823855

 Broyden mixing:
  rms(total) = 0.11470E+00    rms(broyden)= 0.11466E+00
  rms(prec ) = 0.12015E+00
  weight for this iteration     100.00

 eigenvalues of (default mixing * dielectric matrix)
  average eigenvalue GAMMA=   0.6150
  2.4881  1.5233  0.7812  0.7812  0.6630  0.6630  0.4382  0.3659  0.2956  0.1514
  0.1132  0.1132  0.1249  0.1082

 Free energy of the ion-electron system (eV)
  ---------------------------------------------------
  alpha Z        PSCENC =         4.37349991
  Ewald energy   TEWEN  =     13365.96014707
  -Hartree energ DENC   =    -22396.11664624
  -exchange      EXHF   =         0.00000000
  -V(xc)+E(xc)   XCENC  =        61.37370145
  PAW double counting   =     10191.43820982   -10356.40404682
  entropy T*S    EENTRO =         0.03362265
  eigenvalues    EBANDS =      -612.74033414
  atomic energy  EATOM  =      9704.95859309
  Solvation  Ediel_sol  =         0.00000000
  ---------------------------------------------------
  free energy    TOTEN  =       -37.12325321 eV

  energy without entropy =      -37.15687586  energy(sigma->0) =      -37.13446076


--------------------------------------------------------------------------------------------------------




--------------------------------------- Iteration      1(  20)  ---------------------------------------


    POTLOK:  cpu time    2.7206: real time    2.7275
    SETDIJ:  cpu time    0.0233: real time    0.0233
     EDDAV:  cpu time    7.2352: real time    7.2432
       DOS:  cpu time    0.0023: real time    0.0023
    CHARGE:  cpu time    0.6632: real time    0.6638
    MIXING:  cpu time    0.1227: real time    0.1228
    --------------------------------------------
      LOOP:  cpu time   10.7673: real time   10.7829

 eigenvalue-minimisations  :   340
 total energy-change (2. order) :-0.1862661E+00  (-0.1944267E-02)
 number of electron     100.0000157 magnetization       8.6282975
 augmentation part       54.4051440 magnetization       6.6288346

 Broyden mixing:
  rms(total) = 0.59228E-01    rms(broyden)= 0.59120E-01
  rms(prec ) = 0.62392E-01
  weight for this iteration     100.00

 eigenvalues of (default mixing * dielectric matrix)
  average eigenvalue GAMMA=   0.6405
  2.6138  1.6211  0.8695  0.8695  0.6774  0.6774  0.5849  0.3992  0.3899  0.2945
  0.1514  0.1132  0.1132  0.1249  0.1082

 Free energy of the ion-electron system (eV)
  ---------------------------------------------------
  alpha Z        PSCENC =         4.37349991
  Ewald energy   TEWEN  =     13365.96014707
  -Hartree energ DENC   =    -22398.36111111
  -exchange      EXHF   =         0.00000000
  -V(xc)+E(xc)   XCENC  =        61.22265819
  PAW double counting   =     10185.06544711   -10350.01752365
  entropy T*S    EENTRO =         0.03533084
  eigenvalues    EBANDS =      -610.54656080
  atomic energy  EATOM  =      9704.95859309
  Solvation  Ediel_sol  =         0.00000000
  ---------------------------------------------------
  free energy    TOTEN  =       -37.30951935 eV

  energy without entropy =      -37.34485019  energy(sigma->0) =      -37.32129629


--------------------------------------------------------------------------------------------------------




--------------------------------------- Iteration      1(  21)  ---------------------------------------


    POTLOK:  cpu time    2.7148: real time    2.7192
    SETDIJ:  cpu time    0.0229: real time    0.0229
     EDDAV:  cpu time    6.7256: real time    6.7323
       DOS:  cpu time    0.0082: real time    0.0082
    CHARGE:  cpu time    0.6565: real time    0.6571
    MIXING:  cpu time    0.1265: real time    0.1273
    --------------------------------------------
      LOOP:  cpu time   10.2544: real time   10.2671

 eigenvalue-minimisations  :   306
 total energy-change (2. order) :-0.1587459E+00  (-0.7952799E-03)
 number of electron     100.0000157 magnetization       8.5682604
 augmentation part       54.3972203 magnetization       6.5798387

 Broyden mixing:
  rms(total) = 0.40348E-01    rms(broyden)= 0.40307E-01
  rms(prec ) = 0.42789E-01
  weight for this iteration     100.00

 eigenvalues of (default mixing * dielectric matrix)
  average eigenvalue GAMMA=   0.6725
  2.7860  1.6632  0.9944  0.9944  0.7022  0.7022  0.6020  0.6020  0.4364  0.3711
  0.2950  0.1514  0.1132  0.1132  0.1249  0.1082

 Free energy of the ion-electron system (eV)
  ---------------------------------------------------
  alpha Z        PSCENC =         4.37349991
  Ewald energy   TEWEN  =     13365.96014707
  -Hartree energ DENC   =    -22400.47286250
  -exchange      EXHF   =         0.00000000
  -V(xc)+E(xc)   XCENC  =        61.10161407
  PAW double counting   =     10180.08723579   -10345.06094077
  entropy T*S    EENTRO =         0.03826217
  eigenvalues    EBANDS =      -608.45381410
  atomic energy  EATOM  =      9704.95859309
  Solvation  Ediel_sol  =         0.00000000
  ---------------------------------------------------
  free energy    TOTEN  =       -37.46826526 eV

  energy without entropy =      -37.50652743  energy(sigma->0) =      -37.48101932


--------------------------------------------------------------------------------------------------------




--------------------------------------- Iteration      1(  22)  ---------------------------------------


    POTLOK:  cpu time    2.7113: real time    2.7175
    SETDIJ:  cpu time    0.0238: real time    0.0238
     EDDAV:  cpu time    6.9723: real time    6.9813
       DOS:  cpu time    0.0109: real time    0.0109
    CHARGE:  cpu time    0.6594: real time    0.6600
    MIXING:  cpu time    0.1415: real time    0.1417
    --------------------------------------------
      LOOP:  cpu time   10.5192: real time   10.5352

 eigenvalue-minimisations  :   324
 total energy-change (2. order) :-0.1300803E+00  (-0.5264858E-03)
 number of electron     100.0000157 magnetization       8.5076643
 augmentation part       54.3965637 magnetization       6.5272637

 Broyden mixing:
  rms(total) = 0.25555E-01    rms(broyden)= 0.25522E-01
  rms(prec ) = 0.27477E-01
  weight for this iteration     100.00

 eigenvalues of (default mixing * dielectric matrix)
  average eigenvalue GAMMA=   0.6876
  2.8973  1.6877  1.0499  1.0499  0.7080  0.7080  0.6745  0.6745  0.5257  0.4330
  0.3739  0.2949  0.1514  0.1132  0.1132  0.1249  0.1082

 Free energy of the ion-electron system (eV)
  ---------------------------------------------------
  alpha Z        PSCENC =         4.37349991
  Ewald energy   TEWEN  =     13365.96014707
  -Hartree energ DENC   =    -22401.96861490
  -exchange      EXHF   =         0.00000000
  -V(xc)+E(xc)   XCENC  =        60.99264925
  PAW double counting   =     10176.22037288   -10341.18656772
  entropy T*S    EENTRO =         0.03978141
  eigenvalues    EBANDS =      -606.98820654
  atomic energy  EATOM  =      9704.95859309
  Solvation  Ediel_sol  =         0.00000000
  ---------------------------------------------------
  free energy    TOTEN  =       -37.59834554 eV

  energy without entropy =      -37.63812695  energy(sigma->0) =      -37.61160601


--------------------------------------------------------------------------------------------------------




--------------------------------------- Iteration      1(  23)  ---------------------------------------


    POTLOK:  cpu time    2.7094: real time    2.7138
    SETDIJ:  cpu time    0.0233: real time    0.0233
     EDDAV:  cpu time    6.1864: real time    6.1956
       DOS:  cpu time    0.0105: real time    0.0105
    CHARGE:  cpu time    0.6605: real time    0.6612
    MIXING:  cpu time    0.1511: real time    0.1513
    --------------------------------------------
      LOOP:  cpu time    9.7413: real time    9.7557

 eigenvalue-minimisations  :   274
 total energy-change (2. order) :-0.1193360E+00  (-0.3197015E-03)
 number of electron     100.0000157 magnetization       8.4299000
 augmentation part       54.3985745 magnetization       6.4568344

 Broyden mixing:
  rms(total) = 0.14665E-01    rms(broyden)= 0.14641E-01
  rms(prec ) = 0.16326E-01
  weight for this iteration     100.00

 eigenvalues of (default mixing * dielectric matrix)
  average eigenvalue GAMMA=   0.7209
  2.9633  1.7861  1.1245  1.1245  0.8641  0.8641  0.7063  0.7063  0.5976  0.5285
  0.4308  0.3735  0.2949  0.1514  0.1132  0.1132  0.1249  0.1082

 Free energy of the ion-electron system (eV)
  ---------------------------------------------------
  alpha Z        PSCENC =         4.37349991
  Ewald energy   TEWEN  =     13365.96014707
  -Hartree energ DENC   =    -22403.17577200
  -exchange      EXHF   =         0.00000000
  -V(xc)+E(xc)   XCENC  =        60.88498545
  PAW double counting   =     10172.44885546   -10337.39727364
  entropy T*S    EENTRO =         0.03992699
  eigenvalues    EBANDS =      -605.81064384
  atomic energy  EATOM  =      9704.95859309
  Solvation  Ediel_sol  =         0.00000000
  ---------------------------------------------------
  free energy    TOTEN  =       -37.71768151 eV

  energy without entropy =      -37.75760850  energy(sigma->0) =      -37.73099051


--------------------------------------------------------------------------------------------------------




--------------------------------------- Iteration      1(  24)  ---------------------------------------


    POTLOK:  cpu time    2.7045: real time    2.7074
    SETDIJ:  cpu time    0.0235: real time    0.0235
     EDDAV:  cpu time    6.1472: real time    6.1543
       DOS:  cpu time    0.0009: real time    0.0009
    CHARGE:  cpu time    0.6607: real time    0.6614
    MIXING:  cpu time    0.1640: real time    0.1642
    --------------------------------------------
      LOOP:  cpu time    9.7009: real time    9.7117

 eigenvalue-minimisations  :   274
 total energy-change (2. order) :-0.1316947E+00  (-0.3764592E-03)
 number of electron     100.0000157 magnetization       8.3536586
 augmentation part       54.3982763 magnetization       6.3885026

 Broyden mixing:
  rms(total) = 0.16853E-01    rms(broyden)= 0.16836E-01
  rms(prec ) = 0.18002E-01
  weight for this iteration     100.00

 eigenvalues of (default mixing * dielectric matrix)
  average eigenvalue GAMMA=   0.7462
  3.1062  1.9541  1.5258  0.8967  0.8967  0.7998  0.7998  0.6877  0.6877  0.6120
  0.5048  0.4273  0.3740  0.2949  0.1514  0.1132  0.1132  0.1249  0.1082

 Free energy of the ion-electron system (eV)
  ---------------------------------------------------
  alpha Z        PSCENC =         4.37349991
  Ewald energy   TEWEN  =     13365.96014707
  -Hartree energ DENC   =    -22404.59114228
  -exchange      EXHF   =         0.00000000
  -V(xc)+E(xc)   XCENC  =        60.76503699
  PAW double counting   =     10168.32302220   -10333.26554924
  entropy T*S    EENTRO =         0.04003226
  eigenvalues    EBANDS =      -604.41301618
  atomic energy  EATOM  =      9704.95859309
  Solvation  Ediel_sol  =         0.00000000
  ---------------------------------------------------
  free energy    TOTEN  =       -37.84937617 eV

  energy without entropy =      -37.88940843  energy(sigma->0) =      -37.86272026


--------------------------------------------------------------------------------------------------------




--------------------------------------- Iteration      1(  25)  ---------------------------------------


    POTLOK:  cpu time    2.7178: real time    2.7244
    SETDIJ:  cpu time    0.0229: real time    0.0229
     EDDAV:  cpu time    6.4345: real time    6.4420
       DOS:  cpu time    0.0107: real time    0.0107
    CHARGE:  cpu time    0.6571: real time    0.6591
    MIXING:  cpu time    0.1674: real time    0.1683
    --------------------------------------------
      LOOP:  cpu time   10.0105: real time   10.0274

 eigenvalue-minimisations  :   290
 total energy-change (2. order) :-0.9919108E-01  (-0.2437218E-03)
 number of electron     100.0000157 magnetization       8.2992269
 augmentation part       54.3970133 magnetization       6.3417623

 Broyden mixing:
  rms(total) = 0.87829E-02    rms(broyden)= 0.87735E-02
  rms(prec ) = 0.95584E-02
  weight for this iteration     100.00

 eigenvalues of (default mixing * dielectric matrix)
  average eigenvalue GAMMA=   0.7871
  3.3026  2.1615  1.7422  1.0335  1.0335  0.7891  0.7891  0.6975  0.6975  0.6468
  0.6468  0.4929  0.4300  0.3736  0.2949  0.1514  0.1132  0.1132  0.1249  0.1082

 Free energy of the ion-electron system (eV)
  ---------------------------------------------------
  alpha Z        PSCENC =         4.37349991
  Ewald energy   TEWEN  =     13365.96014707
  -Hartree energ DENC   =    -22405.90132703
  -exchange      EXHF   =         0.00000000
  -V(xc)+E(xc)   XCENC  =        60.67609230
  PAW double counting   =     10165.33956912   -10330.28071257
  entropy T*S    EENTRO =         0.04056191
  eigenvalues    EBANDS =      -603.11499105
  atomic energy  EATOM  =      9704.95859309
  Solvation  Ediel_sol  =         0.00000000
  ---------------------------------------------------
  free energy    TOTEN  =       -37.94856726 eV

  energy without entropy =      -37.98912917  energy(sigma->0) =      -37.96208789


--------------------------------------------------------------------------------------------------------




--------------------------------------- Iteration      1(  26)  ---------------------------------------


    POTLOK:  cpu time    2.7169: real time    2.7236
    SETDIJ:  cpu time    0.0234: real time    0.0234
     EDDAV:  cpu time    5.5521: real time    5.5576
       DOS:  cpu time    0.0109: real time    0.0109
    CHARGE:  cpu time    0.6555: real time    0.6562
    MIXING:  cpu time    0.1833: real time    0.1835
    --------------------------------------------
      LOOP:  cpu time    9.1420: real time    9.1551

 eigenvalue-minimisations  :   236
 total energy-change (2. order) :-0.5500239E-01  (-0.7839601E-04)
 number of electron     100.0000157 magnetization       8.2224354
 augmentation part       54.3980921 magnetization       6.2692818

 Broyden mixing:
  rms(total) = 0.80299E-02    rms(broyden)= 0.80264E-02
  rms(prec ) = 0.86394E-02
  weight for this iteration     100.00

 eigenvalues of (default mixing * dielectric matrix)
  average eigenvalue GAMMA=   0.8449
  4.0276  2.1563  2.1563  1.0691  1.0691  0.8280  0.8280  0.6915  0.6915  0.6954
  0.6954  0.6262  0.4993  0.4298  0.3736  0.2949  0.1514  0.1132  0.1132  0.1249
  0.1082

 Free energy of the ion-electron system (eV)
  ---------------------------------------------------
  alpha Z        PSCENC =         4.37349991
  Ewald energy   TEWEN  =     13365.96014707
  -Hartree energ DENC   =    -22406.69645904
  -exchange      EXHF   =         0.00000000
  -V(xc)+E(xc)   XCENC  =        60.62563505
  PAW double counting   =     10164.11345129   -10329.05546034
  entropy T*S    EENTRO =         0.04041927
  eigenvalues    EBANDS =      -602.32339596
  atomic energy  EATOM  =      9704.95859309
  Solvation  Ediel_sol  =         0.00000000
  ---------------------------------------------------
  free energy    TOTEN  =       -38.00356964 eV

  energy without entropy =      -38.04398892  energy(sigma->0) =      -38.01704273


--------------------------------------------------------------------------------------------------------




--------------------------------------- Iteration      1(  27)  ---------------------------------------


    POTLOK:  cpu time    2.7139: real time    2.7193
    SETDIJ:  cpu time    0.0232: real time    0.0232
     EDDAV:  cpu time    5.7961: real time    5.8042
       DOS:  cpu time    0.0009: real time    0.0009
    CHARGE:  cpu time    0.6501: real time    0.6515
    MIXING:  cpu time    0.1931: real time    0.1933
    --------------------------------------------
      LOOP:  cpu time    9.3773: real time    9.3923

 eigenvalue-minimisations  :   252
 total energy-change (2. order) :-0.6472147E-01  (-0.1262921E-03)
 number of electron     100.0000157 magnetization       8.1730027
 augmentation part       54.3987307 magnetization       6.2269291

 Broyden mixing:
  rms(total) = 0.80128E-02    rms(broyden)= 0.80060E-02
  rms(prec ) = 0.84813E-02
  weight for this iteration     100.00

 eigenvalues of (default mixing * dielectric matrix)
  average eigenvalue GAMMA=   0.8658
  4.3926  2.3806  2.0720  1.0438  1.0438  0.8591  0.8591  0.6993  0.6993  0.7913
  0.7913  0.6029  0.6029  0.5015  0.4296  0.3736  0.2949  0.1514  0.1132  0.1132
  0.1249  0.1082

 Free energy of the ion-electron system (eV)
  ---------------------------------------------------
  alpha Z        PSCENC =         4.37349991
  Ewald energy   TEWEN  =     13365.96014707
  -Hartree energ DENC   =    -22407.72966846
  -exchange      EXHF   =         0.00000000
  -V(xc)+E(xc)   XCENC  =        60.56640539
  PAW double counting   =     10163.14641783   -10328.10383281
  entropy T*S    EENTRO =         0.04081663
  eigenvalues    EBANDS =      -601.28066977
  atomic energy  EATOM  =      9704.95859309
  Solvation  Ediel_sol  =         0.00000000
  ---------------------------------------------------
  free energy    TOTEN  =       -38.06829112 eV

  energy without entropy =      -38.10910775  energy(sigma->0) =      -38.08189666


--------------------------------------------------------------------------------------------------------




--------------------------------------- Iteration      1(  28)  ---------------------------------------


    POTLOK:  cpu time    2.7135: real time    2.7181
    SETDIJ:  cpu time    0.0229: real time    0.0229
     EDDAV:  cpu time    5.5602: real time    5.5659
       DOS:  cpu time    0.0008: real time    0.0008
    CHARGE:  cpu time    0.6561: real time    0.6567
    MIXING:  cpu time    0.2012: real time    0.2014
    --------------------------------------------
      LOOP:  cpu time    9.1547: real time    9.1659

 eigenvalue-minimisations  :   236
 total energy-change (2. order) :-0.3628534E-01  (-0.5441285E-04)
 number of electron     100.0000157 magnetization       8.1315759
 augmentation part       54.3960986 magnetization       6.1889729

 Broyden mixing:
  rms(total) = 0.40784E-02    rms(broyden)= 0.40726E-02
  rms(prec ) = 0.42847E-02
  weight for this iteration     100.00

 eigenvalues of (default mixing * dielectric matrix)
  average eigenvalue GAMMA=   0.9112
[...]
 total energy-change (2. order) :-0.1557279E-04  (-0.4421211E-04)
 number of electron     100.0000156 magnetization       7.9848152
 augmentation part       54.3960149 magnetization       6.0566954

 Free energy of the ion-electron system (eV)
  ---------------------------------------------------
  alpha Z        PSCENC =         4.37349991
  Ewald energy   TEWEN  =     13353.07186945
  -Hartree energ DENC   =    -22395.99776011
  -exchange      EXHF   =         0.00000000
  -V(xc)+E(xc)   XCENC  =        60.43288248
  PAW double counting   =     10159.63181322   -10324.53991855
  entropy T*S    EENTRO =         0.04194692
  eigenvalues    EBANDS =      -600.14816394
  atomic energy  EATOM  =      9704.95859309
  Solvation  Ediel_sol  =         0.00000000
  ---------------------------------------------------
  free energy    TOTEN  =       -38.17523754 eV

  energy without entropy =      -38.21718445  energy(sigma->0) =      -38.18921984


--------------------------------------------------------------------------------------------------------




 average (electrostatic) potential at core
  the test charge radii are     0.9791  1.1199
  (the norm of the test charge is              1.0000)
       1 -95.5501       2 -95.1855       3 -95.2032       4 -95.4778       5 -95.2263
       6 -95.3560       7 -83.7203       8 -83.6090       9 -83.6503      10 -83.8444
 
 
 
 E-fermi :  -4.1325     XC(G=0):  -0.3025     alpha+bet : -0.1590


 spin component 1

 k-point     1 :       0.0000    0.0000    0.0000
  band No.  band energies     occupation 
      1      -9.9353      1.00000
      2      -8.5807      1.00000
      3      -8.2592      1.00000
      4      -7.9676      1.00000
      5      -7.8394      1.00000
      6      -7.8315      1.00000
      7      -7.6003      1.00000
      8      -7.5721      1.00000
      9      -7.5692      1.00000
     10      -7.4747      1.00000
     11      -7.3693      1.00000
     12      -7.3601      1.00000
     13      -7.0644      1.00000
     14      -7.0250      1.00000
     15      -6.9208      1.00000
     16      -6.8438      1.00000
     17      -6.6526      1.00000
     18      -6.5939      1.00000
     19      -6.4677      1.00000
     20      -6.4311      1.00000
     21      -6.3812      1.00000
     22      -6.3517      1.00000
     23      -6.2792      1.00000
     24      -6.2456      1.00000
     25      -6.1640      1.00000
     26      -6.0437      1.00000
     27      -5.9847      1.00000
     28      -5.8925      1.00000
     29      -5.7924      1.00000
     30      -5.6979      1.00000
     31      -5.6163      1.00000
     32      -5.5730      1.00000
     33      -5.5319      1.00000
     34      -5.4200      1.00000
     35      -5.4087      1.00000
     36      -5.3843      1.00000
     37      -5.3144      1.00000
     38      -5.2923      1.00000
     39      -5.2529      1.00000
     40      -5.2084      1.00000
     41      -5.1827      1.00000
     42      -5.1648      1.00000
     43      -5.1458      1.00000
     44      -5.1175      1.00000
     45      -5.0845      1.00000
     46      -5.0442      1.00000
     47      -4.9763      1.00000
     48      -4.9587      1.00000
     49      -4.9154      1.00000
     50      -4.8600      1.00000
     51      -4.7503      1.00006
     52      -4.7122      1.00016
     53      -4.6506      1.00077
     54      -4.2926      0.99014
     55      -2.9980     -0.00000
     56      -2.9306     -0.00000
     57      -2.8342     -0.00000
     58      -2.5728     -0.00000
     59      -1.8972     -0.00000
     60      -1.7135     -0.00000
     61      -1.0934     -0.00000
     62      -0.8448     -0.00000
     63      -0.7071     -0.00000
     64      -0.5850     -0.00000
     65      -0.3754     -0.00000
     66      -0.3200     -0.00000

 spin component 2

 k-point     1 :       0.0000    0.0000    0.0000
  band No.  band energies     occupation 
      1      -9.8694      1.00000
      2      -8.3219      1.00000
      3      -7.9112      1.00000
      4      -7.4718      1.00000
      5      -7.3576      1.00000
      6      -7.3022      1.00000
      7      -7.0558      1.00000
      8      -6.8705      1.00000
      9      -6.7644      1.00000
     10      -6.7179      1.00000
     11      -6.6459      1.00000
     12      -6.5507      1.00000
     13      -6.5378      1.00000
     14      -6.2393      1.00000
     15      -6.2107      1.00000
     16      -6.1231      1.00000
     17      -6.0958      1.00000
     18      -6.0809      1.00000
     19      -6.0242      1.00000
     20      -5.9441      1.00000
     21      -5.9206      1.00000
     22      -5.7895      1.00000
     23      -5.7663      1.00000
     24      -5.6459      1.00000
     25      -5.6132      1.00000
     26      -5.5033      1.00000
     27      -5.4233      1.00000
     28      -5.4041      1.00000
     29      -5.2019      1.00000
     30      -5.1314      1.00000
     31      -5.0881      1.00000
     32      -4.9853      1.00000
     33      -4.9732      1.00000
     34      -4.8646      1.00000
     35      -4.7979      1.00001
     36      -4.6674      1.00051
     37      -4.6126      1.00179
     38      -4.5981      1.00241
     39      -4.5576      1.00522
     40      -4.5222      1.00941
     41      -4.4346      1.02718
     42      -4.4021      1.03350
     43      -4.3574      1.03369
     44      -4.3056      1.00492
     45      -4.2344      0.87518
     46      -4.1789      0.69036
     47      -4.1133      0.41898
     48      -3.9799      0.01998
     49      -3.9452     -0.01721
     50      -3.9200     -0.03045
     51      -3.8813     -0.03531
     52      -3.7873     -0.01742
     53      -3.7607     -0.01227
     54      -3.6476     -0.00161
     55      -2.7452     -0.00000
     56      -2.6675     -0.00000
     57      -2.4696     -0.00000
     58      -2.3439     -0.00000
     59      -1.6529     -0.00000
     60      -1.3950     -0.00000
     61      -0.9732     -0.00000
     62      -0.7183     -0.00000
     63      -0.5338     -0.00000
     64      -0.4677     -0.00000
     65      -0.1928     -0.00000
     66      -0.1516     -0.00000


--------------------------------------------------------------------------------------------------------


 soft charge-density along one line, spin component            1
         0         1         2         3         4         5         6         7         8         9
 total charge-density along one line
 
 soft charge-density along one line, spin component            2
         0         1         2         3         4         5         6         7         8         9
 total charge-density along one line
 
 pseudopotential strength for first ion, spin component:            1
-10.420  -0.045   0.065   0.082  -0.109 -10.683  -0.042   0.062
 -0.045 -10.311  -0.031   0.108  -0.077  -0.042 -10.579  -0.030
  0.065  -0.031 -10.410  -0.057  -0.096   0.062  -0.030 -10.674
  0.082   0.108  -0.057 -10.469  -0.021   0.078   0.104  -0.055
 -0.109  -0.077  -0.096  -0.021 -10.412  -0.104  -0.074  -0.092
-10.683  -0.042   0.062   0.078  -0.104 -10.892  -0.040   0.060
 -0.042 -10.579  -0.030   0.104  -0.074  -0.040 -10.793  -0.029
  0.062  -0.030 -10.674  -0.055  -0.092   0.060  -0.029 -10.884
  0.078   0.104  -0.055 -10.731  -0.020   0.075   0.099  -0.052
 -0.104  -0.074  -0.092  -0.020 -10.676  -0.100  -0.070  -0.088
 -0.003  -0.017  -0.004   0.017  -0.005  -0.003  -0.016  -0.004
 -0.005  -0.029  -0.008   0.030  -0.009  -0.004  -0.028  -0.008
 -0.007   0.006  -0.005   0.001  -0.005  -0.006   0.005  -0.004
  0.001   0.005   0.005  -0.006  -0.002   0.001   0.004   0.004
  0.008   0.001   0.005   0.002  -0.007   0.007   0.001   0.004
 -0.007   0.005  -0.006   0.001  -0.006  -0.006   0.004  -0.005
  0.001   0.005   0.004  -0.005  -0.003   0.001   0.005   0.003
  0.009   0.001   0.005  -0.000  -0.006   0.008   0.001   0.004
 pseudopotential strength for first ion, spin component:            2
 -9.543  -0.020  -0.051   0.023   0.050  -9.848  -0.019  -0.050
 -0.020  -9.590   0.051  -0.033  -0.023  -0.019  -9.893   0.049
 -0.051   0.051  -9.526   0.001   0.019  -0.050   0.049  -9.831
  0.023  -0.033   0.001  -9.487  -0.037   0.022  -0.032   0.001
  0.050  -0.023   0.019  -0.037  -9.550   0.048  -0.022   0.018
 -9.848  -0.019  -0.050   0.022   0.048 -10.096  -0.018  -0.048
 -0.019  -9.893   0.049  -0.032  -0.022  -0.018 -10.140   0.047
 -0.050   0.049  -9.831   0.001   0.018  -0.048   0.047 -10.080
  0.022  -0.032   0.001  -9.794  -0.036   0.021  -0.031   0.001
  0.048  -0.022   0.018  -0.036  -9.854   0.046  -0.021   0.018
 -0.001  -0.007  -0.002   0.007  -0.003  -0.001  -0.006  -0.002
 -0.002  -0.011  -0.004   0.013  -0.005  -0.002  -0.010  -0.004
 -0.009   0.008  -0.003  -0.000  -0.006  -0.008   0.007  -0.003
 -0.000   0.007   0.010  -0.010   0.000  -0.000   0.007   0.008
  0.007  -0.000   0.005   0.009  -0.009   0.006  -0.000   0.004
 -0.010   0.009  -0.004  -0.000  -0.007  -0.008   0.007  -0.004
 -0.000   0.008   0.011  -0.011   0.001  -0.000   0.008   0.009
  0.008  -0.000   0.005   0.010  -0.011   0.007  -0.000   0.005
 total augmentation occupancy for first ion, spin component:            1
  3.030  -0.081   0.319   0.178  -0.489  -1.308   0.015  -0.148  -0.057   0.218   0.025  -0.018  -0.181   0.042   0.097   0.012
 -0.081   3.721  -0.159   0.381  -0.116   0.008  -1.701   0.053  -0.143   0.025   0.102   0.000   0.334   0.032   0.051  -0.020
  0.319  -0.159   3.147  -0.270  -0.498  -0.150   0.053  -1.396   0.127   0.226   0.049   0.032  -0.051   0.254   0.149   0.004
  0.178   0.381  -0.270   2.985  -0.091  -0.065  -0.150   0.125  -1.376   0.041  -0.245  -0.048   0.046  -0.128   0.143  -0.003
 -0.489  -0.116  -0.498  -0.091   3.060   0.221   0.033   0.221   0.039  -1.346   0.121   0.014  -0.029  -0.087  -0.207   0.003
 -1.308   0.008  -0.150  -0.065   0.221   1.320   0.030   0.062  -0.014  -0.058  -0.040   0.014   0.196  -0.039  -0.081  -0.020
  0.015  -1.701   0.053  -0.150   0.033   0.030   1.539   0.001   0.013   0.022  -0.127   0.004  -0.352  -0.043  -0.045   0.033
 -0.148   0.053  -1.396   0.125   0.221   0.062   0.001   1.390  -0.025  -0.042  -0.067  -0.019   0.039  -0.284  -0.154  -0.005
 -0.057  -0.143   0.127  -1.376   0.039  -0.014   0.013  -0.025   1.437   0.007   0.276   0.017  -0.039   0.159  -0.194   0.004
  0.218   0.025   0.226   0.041  -1.346  -0.058   0.022  -0.042   0.007   1.381  -0.148  -0.002   0.034   0.073   0.227  -0.005
  0.025   0.102   0.049  -0.245   0.121  -0.040  -0.127  -0.067   0.276  -0.148   2.070  -0.229  -0.041  -0.247   0.186   0.010
 -0.018   0.000   0.032  -0.048   0.014   0.014   0.004  -0.019   0.017  -0.002  -0.229   0.036   0.011   0.048  -0.035  -0.001
 -0.181   0.334  -0.051   0.046  -0.029   0.196  -0.352   0.039  -0.039   0.034  -0.041   0.011   0.266  -0.012   0.002  -0.024
  0.042   0.032   0.254  -0.128  -0.087  -0.039  -0.043  -0.284   0.159   0.073  -0.247   0.048  -0.012   0.223   0.045   0.000
  0.097   0.051   0.149   0.143  -0.207  -0.081  -0.045  -0.154  -0.194   0.227   0.186  -0.035   0.002   0.045   0.228   0.000
  0.012  -0.020   0.004  -0.003   0.003  -0.020   0.033  -0.005   0.004  -0.005   0.010  -0.001  -0.024   0.000   0.000   0.002
 -0.002   0.001  -0.014   0.001   0.008   0.003   0.004   0.027  -0.013  -0.008   0.043  -0.007   0.000  -0.023  -0.001   0.000
 -0.005  -0.004  -0.011  -0.004   0.009   0.008   0.004   0.016   0.017  -0.020  -0.032   0.005   0.000  -0.001  -0.022  -0.000
 total augmentation occupancy for first ion, spin component:            2
  1.266   0.123  -0.344  -0.245   0.559  -0.633  -0.076   0.165   0.129  -0.294   0.017   0.001   0.004   0.005  -0.010  -0.002
  0.123   0.741   0.236  -0.425   0.207  -0.069  -0.361  -0.116   0.200  -0.105   0.017   0.006  -0.010   0.024  -0.006   0.005
 -0.344   0.236   1.297   0.289   0.416   0.169  -0.114  -0.654  -0.174  -0.223   0.041   0.017   0.017   0.018  -0.004  -0.000
 -0.245  -0.425   0.289   1.500   0.031   0.142   0.212  -0.171  -0.727  -0.037  -0.077  -0.034  -0.014  -0.027   0.038   0.000
  0.559   0.207   0.416   0.031   1.291  -0.302  -0.115  -0.215  -0.031  -0.665   0.039   0.016  -0.007   0.026  -0.011  -0.001
 -0.633  -0.069   0.169   0.142  -0.302   0.219   0.037  -0.072  -0.066   0.147  -0.010  -0.001  -0.009  -0.005   0.005   0.002
 -0.076  -0.361  -0.114   0.212  -0.115   0.037   0.092   0.052  -0.086   0.050   0.001  -0.005   0.015  -0.012   0.002  -0.004
  0.165  -0.116  -0.654  -0.171  -0.215  -0.072   0.052   0.239   0.093   0.100  -0.021  -0.009  -0.009   0.000   0.005   0.000
  0.129   0.200  -0.174  -0.727  -0.031  -0.066  -0.086   0.093   0.253   0.023   0.038   0.021   0.007   0.006  -0.007  -0.001
 -0.294  -0.105  -0.223  -0.037  -0.665   0.147   0.050   0.100   0.023   0.248  -0.017  -0.009   0.003  -0.014   0.000   0.000
  0.017   0.017   0.041  -0.077   0.039  -0.010   0.001  -0.021   0.038  -0.017  -0.114   0.059   0.010   0.043  -0.027  -0.001
  0.001   0.006   0.017  -0.034   0.016  -0.001  -0.005  -0.009   0.021  -0.009   0.059  -0.007   0.000  -0.002   0.002   0.000
  0.004  -0.010   0.017  -0.014  -0.007  -0.009   0.015  -0.009   0.007   0.003   0.010   0.000  -0.014   0.008   0.000   0.003
  0.005   0.024   0.018  -0.027   0.026  -0.005  -0.012   0.000   0.006  -0.014   0.043  -0.002   0.008  -0.005  -0.006  -0.000
 -0.010  -0.006  -0.004   0.038  -0.011   0.005   0.002   0.005  -0.007   0.000  -0.027   0.002   0.000  -0.006  -0.008   0.000
 -0.002   0.005  -0.000   0.000  -0.001   0.002  -0.004   0.000  -0.001   0.000  -0.001   0.000   0.003  -0.000   0.000  -0.000
  0.000   0.002   0.005  -0.005  -0.000  -0.000  -0.001  -0.003   0.003   0.001  -0.003   0.001  -0.000   0.002   0.001   0.000
  0.001   0.000   0.001   0.004  -0.004  -0.001  -0.000  -0.001  -0.002   0.003   0.003  -0.001   0.000   0.001   0.002   0.000


------------------------ aborting loop because EDIFF is reached ----------------------------------------


    CHARGE:  cpu time    0.9490: real time    1.2141
    FORLOC:  cpu time    0.0928: real time    0.0929
    FORNL :  cpu time    2.9347: real time    2.9378
    FORCOR:  cpu time    2.6281: real time    2.6309
    FORHAR:  cpu time    0.3596: real time    0.3599
    MIXING:  cpu time    0.0552: real time    0.0553
    OFIELD:  cpu time    0.0000: real time    0.0000

 VOLUME and BASIS-vectors are now :
 -----------------------------------------------------------------------------
  energy-cutoff  :      400.00
  volume of cell :    12957.52
      direct lattice vectors                 reciprocal lattice vectors
    23.403370347  0.000000000  0.000000000     0.042728888  0.000000000  0.000000000
     0.000000000 25.715317475  0.000000000     0.000000000  0.038887329  0.000000000
     0.000000000  0.000000000 21.530381774     0.000000000  0.000000000  0.046445995

  length of vectors
    23.403370347 25.715317475 21.530381774     0.042728888  0.038887329  0.046445995


 FORCES acting on ions
    electron-ion (+dipol)            ewald-force                    non-local-force                 convergence-correction
 -----------------------------------------------------------------------------------------------
   0.575E+03 -.127E+03 -.737E+03   -.574E+03 0.126E+03 0.736E+03   -.672E+00 0.336E+00 0.603E+00   -.129E-01 0.300E+00 -.123E+00
   0.333E+03 -.101E+04 -.211E+03   -.330E+03 0.100E+04 0.208E+03   -.262E+01 0.695E+01 0.276E+01   0.334E-01 0.349E-01 -.819E-01
   -.239E+02 0.966E+03 -.387E+03   0.240E+02 -.961E+03 0.385E+03   -.687E-01 -.489E+01 0.199E+01   -.325E-01 -.130E-01 -.541E-02
   -.219E+03 0.469E+03 0.793E+03   0.219E+03 -.469E+03 -.792E+03   0.863E-01 -.700E+00 -.122E+01   -.797E-01 0.237E+00 -.894E-01
   0.872E+03 -.191E+03 0.567E+03   -.868E+03 0.190E+03 -.564E+03   -.409E+01 0.140E+01 -.280E+01   -.375E-01 0.221E+00 -.672E-01
   -.749E+03 -.617E+03 -.133E+03   0.747E+03 0.614E+03 0.133E+03   0.173E+01 0.214E+01 0.280E+00   -.715E-01 0.299E+00 -.556E-01
   -.381E+03 -.106E+02 -.935E+03   0.378E+03 0.968E+01 0.928E+03   0.220E+01 0.746E+00 0.749E+01   0.302E-01 0.146E+00 0.255E-01
   0.757E+03 0.658E+03 0.106E+03   -.751E+03 -.653E+03 -.105E+03   -.593E+01 -.534E+01 -.924E+00   -.132E+00 0.103E+00 -.121E+00
   -.919E+03 0.404E+03 0.983E+02   0.912E+03 -.401E+03 -.964E+02   0.703E+01 -.280E+01 -.184E+01   0.956E-01 0.118E+00 -.345E-01
   -.246E+03 -.545E+03 0.839E+03   0.243E+03 0.542E+03 -.833E+03   0.261E+01 0.320E+01 -.679E+01   -.140E+00 0.609E-01 0.122E+00
 -----------------------------------------------------------------------------------------------
   0.637E-01 -.258E+01 0.867E+00   -.284E-12 -.341E-12 -.227E-12   0.292E+00 0.106E+01 -.435E+00   -.347E+00 0.151E+01 -.431E+00
 
 
 POSITION                                       TOTAL-FORCE (eV/Angst)
 -----------------------------------------------------------------------------------
     10.62540     13.16678     11.41186        -0.001520      0.001513     -0.014215
     10.66905     15.34290     10.53798         0.016826     -0.018049     -0.005132
     11.59702     11.05883     11.32200        -0.004280      0.000839     -0.007155
     11.67866     12.35695      9.42595         0.001952      0.009288      0.014909
      9.71605     13.56295      9.32317         0.017598     -0.009015      0.015485
     12.64525     14.05382     10.68602        -0.000433     -0.003440      0.001249
     12.65903     12.76162     12.80485         0.005623      0.002222      0.002236
      9.40390     11.25883     10.19001        -0.013972      0.009318     -0.014649
     13.84388     11.85742     10.58339        -0.002498      0.015713      0.006218
     11.76681     14.69630      8.44625        -0.019297     -0.008388      0.001054
 -----------------------------------------------------------------------------------
    total drift:                                0.008272     -0.009791      0.001603


--------------------------------------------------------------------------------------------------------



  FREE ENERGIE OF THE ION-ELECTRON SYSTEM (eV)
  ---------------------------------------------------
  free  energy   TOTEN  =       -38.17523754 eV

  energy  without entropy=      -38.21718445  energy(sigma->0) =      -38.18921984
 
 d Force = 0.1109287E-03[ 0.827E-05, 0.214E-03]  d Energy = 0.7620348E-04 0.347E-04
 d Force = 0.6494316E+01[ 0.649E+01, 0.650E+01]  d Ewald  = 0.6494316E+01 0.787E-06


--------------------------------------------------------------------------------------------------------


    POTLOK:  cpu time    2.7278: real time    2.7321


--------------------------------------------------------------------------------------------------------




--------------------------------------------------------------------------------------------------------


  
 reached required accuracy - stopping structural energy minimisation
     LOOP+:  cpu time   59.2993: real time   59.9791
    4ORBIT:  cpu time    0.0000: real time    0.0000

 total amount of memory used by VASP MPI-rank0   166434. kBytes
=======================================================================

   base      :      30000. kBytes
   nonl-proj :       6587. kBytes
   fftplans  :      32070. kBytes
   grid      :      82200. kBytes
   one-center:         31. kBytes
   wavefun   :      15546. kBytes
 
  
  
 General timing and accounting informations for this job:
 ========================================================
  
                  Total CPU time used (sec):      544.489
                            User time (sec):      539.117
                          System time (sec):        5.372
                         Elapsed time (sec):      548.998
  
                   Maximum memory used (kb):      339224.
                   Average memory used (kb):           0.
  
                          Minor page faults:      1751023
                          Major page faults:        20098
                 Voluntary context switches:         3474
