<?xml version="1.0" encoding="ISO-8859-1"?>
<modeling>
 <generator>
  <i name="program" type="string">vasp </i>
  <i name="version" type="string">6.1.2  </i>
  <i name="subversion" type="string">22Jul20 (build Aug  2 2021 21:04:21) gamma-only                       parallel </i>
  <i name="platform" type="string">LinuxPGI </i>
  <i name="date" type="string">2021 12 22 </i>
  <i name="time" type="string">20:26:55 </i>
 </generator>
 <incar>
  <i type="int" name="ISPIN">     2</i>
  <i type="int" name="IBRION">     2</i>
  <i type="int" name="NSW">  1000</i>
  <i type="int" name="ISIF">     0</i>
  <i type="int" name="ISYM">     0</i>
  <i name="ENCUT">    400.00000000</i>
  <i type="logical" name="LREAL"> F  </i>
  <i type="int" name="ISMEAR">     1</i>
  <i name="SIGMA">      0.20000000</i>
  <i type="logical" name="LWAVE"> F  </i>
  <i type="logical" name="LCHARG"> F  </i>
  <i type="int" name="KPAR">     1</i>
  <i type="int" name="NCORE">     8</i>
  <i type="string" name="GGA"> PE</i>
  <i type="int" name="ISPIN">     2</i>
 </incar>
 <structure name="primitive_cell" >
  <crystal>
   <varray name="basis" >
    <v>      23.40337035       0.00000000       0.00000000 </v>
    <v>       0.00000000      25.71531747       0.00000000 </v>
    <v>       0.00000000       0.00000000      21.53038177 </v>
   </varray>
   <i name="volume">  12957.52413134 </i>
   <varray name="rec_basis" >
    <v>       0.04272889       0.00000000       0.00000000 </v>
    <v>       0.00000000       0.03888733       0.00000000 </v>
    <v>       0.00000000       0.00000000       0.04644599 </v>
   </varray>
  </crystal>
  <varray name="positions" >
   <v>       0.45392004       0.51206455       0.52989840 </v>
   <v>       0.45576752       0.59662057       0.48939232 </v>
   <v>       0.49558713       0.43002940       0.52588263 </v>
   <v>       0.49901595       0.48056089       0.43777600 </v>
   <v>       0.41522903       0.52746999       0.43313813 </v>
   <v>       0.54031603       0.54642476       0.49626220 </v>
   <v>       0.54092808       0.49624215       0.59468388 </v>
   <v>       0.40196363       0.43785193       0.47338349 </v>
   <v>       0.59137088       0.46110319       0.49156471 </v>
   <v>       0.50284813       0.57151213       0.39237605 </v>
  </varray>
 </structure>
 <varray name="primitive_index" >
  <v type="int" >        1 </v>
  <v type="int" >        2 </v>
  <v type="int" >        3 </v>
  <v type="int" >        4 </v>
  <v type="int" >        5 </v>
  <v type="int" >        6 </v>
  <v type="int" >        7 </v>
  <v type="int" >        8 </v>
  <v type="int" >        9 </v>
  <v type="int" >       10 </v>
 </varray>
 <kpoints>
  <generation param="Gamma">
   <v type="int" name="divisions">       1        1        1 </v>
   <v name="usershift">      0.00000000       0.00000000       0.00000000 </v>
   <v name="genvec1">      1.00000000       0.00000000       0.00000000 </v>
   <v name="genvec2">      0.00000000       1.00000000       0.00000000 </v>
   <v name="genvec3">      0.00000000       0.00000000       1.00000000 </v>
   <v name="shift">      0.00000000       0.00000000       0.00000000 </v>
  </generation>
  <varray name="kpointlist" >
   <v>       0.00000000       0.00000000       0.00000000 </v>
  </varray>
  <varray name="weights" >
   <v>       1.00000000 </v>
  </varray>
 </kpoints>
 <parameters>
  <separator name="general" >
   <i type="string" name="SYSTEM">unknown system</i>
   <i type="logical" name="LCOMPAT"> F  </i>
  </separator>
  <separator name="electronic" >
   <i type="string" name="PREC">normal</i>
   <i name="ENMAX">    400.00000000</i>
   <i name="ENAUG">    544.56500000</i>
   <i name="EDIFF">      0.00010000</i>
   <i type="int" name="IALGO">    38</i>
   <i type="int" name="IWAVPR">    11</i>
   <i type="int" name="NBANDS">    66</i>
   <i type="int" name="NBANDSLOW">    -1</i>
   <i type="int" name="NBANDSHIGH">    -1</i>
   <i name="NELECT">    100.00000000</i>
   <i type="int" name="TURBO">     0</i>
   <i type="int" name="IRESTART">     0</i>
   <i type="int" name="NREBOOT">     0</i>
   <i type="int" name="NMIN">     0</i>
   <i name="EREF">      0.00000000</i>
   <separator name="electronic smearing" >
    <i type="int" name="ISMEAR">     1</i>
    <i name="SIGMA">      0.20000000</i>
    <i name="KSPACING">      0.50000000</i>
    <i type="logical" name="KGAMMA"> T  </i>
    <i type="logical" name="KBLOWUP"> T  </i>
   </separator>
   <separator name="electronic projectors" >
    <i type="logical" name="LREAL"> F  </i>
    <v name="ROPT">      0.00000000      0.00000000</v>
    <i type="int" name="LMAXPAW">  -100</i>
    <i type="int" name="LMAXMIX">     2</i>
    <i type="logical" name="NLSPLINE"> F  </i>
   </separator>
   <separator name="electronic startup" >
    <i type="int" name="ISTART">     0</i>
    <i type="int" name="ICHARG">     2</i>
    <i type="int" name="INIWAV">     1</i>
   </separator>
   <separator name="electronic spin" >
    <i type="int" name="ISPIN">     2</i>
    <i type="logical" name="LNONCOLLINEAR"> F  </i>
    <v name="MAGMOM">      1.00000000      1.00000000      1.00000000      1.00000000      1.00000000      1.00000000      1.00000000      1.00000000      1.00000000      1.00000000</v>
    <i name="NUPDOWN">     -1.00000000</i>
    <i type="logical" name="LSORBIT"> F  </i>
    <v name="SAXIS">      0.00000000      0.00000000      1.00000000</v>
    <i type="logical" name="LSPIRAL"> F  </i>
    <v name="QSPIRAL">      0.00000000      0.00000000      0.00000000</v>
    <i type="logical" name="LZEROZ"> F  </i>
   </separator>
   <separator name="electronic exchange-correlation" >
    <i type="logical" name="LASPH"> F  </i>
    <i type="logical" name="LMETAGGA"> F  </i>
   </separator>
   <separator name="electronic convergence" >
    <i type="int" name="NELM">    60</i>
    <i type="int" name="NELMDL">     0</i>
    <i type="int" name="NELMIN">     2</i>
    <i name="ENINI">    400.00000000</i>
    <separator name="electronic convergence detail" >
     <i type="logical" name="LDIAG"> T  </i>
     <i type="logical" name="LSUBROT"> F  </i>
     <i name="WEIMIN">      0.00100000</i>
     <i name="EBREAK">      0.00000038</i>
     <i name="DEPER">      0.30000000</i>
     <i type="int" name="NRMM">     4</i>
     <i name="TIME">      0.40000000</i>
    </separator>
   </separator>
   <separator name="electronic mixer" >
    <i name="AMIX">      0.40000000</i>
    <i name="BMIX">      1.00000000</i>
    <i name="AMIN">      0.10000000</i>
    <i name="AMIX_MAG">      1.60000000</i>
    <i name="BMIX_MAG">      1.00000000</i>
    <separator name="electronic mixer details" >
     <i type="int" name="IMIX">     4</i>
     <i type="logical" name="MIXFIRST"> F  </i>
     <i type="int" name="MAXMIX">   -45</i>
     <i name="WC">    100.00000000</i>
     <i type="int" name="INIMIX">     1</i>
     <i type="int" name="MIXPRE">     1</i>
     <i type="int" name="MREMOVE">     5</i>
    </separator>
   </separator>
   <separator name="electronic dipolcorrection" >
    <i type="logical" name="LDIPOL"> F  </i>
    <i type="logical" name="LMONO"> F  </i>
    <i type="int" name="IDIPOL">     0</i>
    <i name="EPSILON">      1.00000000</i>
    <v name="DIPOL">   -100.00000000   -100.00000000   -100.00000000</v>
    <i name="EFIELD">      0.00000000</i>
   </separator>
  </separator>
  <separator name="grids" >
   <i type="int" name="NGX">   120</i>
   <i type="int" name="NGY">   126</i>
   <i type="int" name="NGZ">   108</i>
   <i type="int" name="NGXF">   240</i>
   <i type="int" name="NGYF">   252</i>
   <i type="int" name="NGZF">   216</i>
   <i type="logical" name="ADDGRID"> F  </i>
  </separator>
  <separator name="ionic" >
   <i type="int" name="NSW">  1000</i>
   <i type="int" name="IBRION">     2</i>
   <i type="int" name="MDALGO">     0</i>
   <i type="int" name="ISIF">     0</i>
   <i name="PSTRESS">      0.00000000</i>
   <i name="EDIFFG">      0.00100000</i>
   <i type="int" name="NFREE">     1</i>
   <i name="POTIM">      0.50000000</i>
   <i name="SMASS">     -3.00000000</i>
   <i name="SCALEE">      1.00000000</i>
  </separator>
  <separator name="ionic md" >
   <i name="TEBEG">      0.00010000</i>
   <i name="TEEND">      0.00010000</i>
   <i type="int" name="NBLOCK">     1</i>
   <i type="int" name="KBLOCK">  1000</i>
   <i type="int" name="NPACO">   256</i>
   <i name="APACO">     16.00000000</i>
  </separator>
  <separator name="symmetry" >
   <i type="int" name="ISYM">     0</i>
   <i name="SYMPREC">      0.00001000</i>
  </separator>
  <separator name="dos" >
   <i type="int" name="LORBIT">     0</i>
   <v name="RWIGS">     -1.00000000     -1.00000000</v>
   <i type="int" name="NEDOS">   301</i>
   <i name="EMIN">     10.00000000</i>
   <i name="EMAX">    -10.00000000</i>
   <i name="EFERMI">      0.00000000</i>
  </separator>
  <separator name="writing" >
   <i type="int" name="NWRITE">     2</i>
   <i type="logical" name="LWAVE"> F  </i>
   <i type="logical" name="LDOWNSAMPLE"> F  </i>
   <i type="logical" name="LCHARG"> F  </i>
   <i type="logical" name="LPARD"> F  </i>
   <i type="logical" name="LVTOT"> F  </i>
   <i type="logical" name="LVHAR"> F  </i>
   <i type="logical" name="LELF"> F  </i>
   <i type="logical" name="LOPTICS"> F  </i>
   <v name="STM">      0.00000000      0.00000000      0.00000000      0.00000000      0.00000000      0.00000000      0.00000000</v>
  </separator>
  <separator name="performance" >
   <i type="int" name="NPAR">     2</i>
   <i type="int" name="NSIM">     4</i>
   <i type="int" name="NBLK">    -1</i>
   <i type="logical" name="LPLANE"> T  </i>
   <i type="logical" name="LSCALAPACK"> T  </i>
   <i type="logical" name="LSCAAWARE"> F  </i>
   <i type="logical" name="LSCALU"> F  </i>
   <i type="logical" name="LASYNC"> F  </i>
   <i type="logical" name="LORBITALREAL"> F  </i>
  </separator>
  <separator name="miscellaneous" >
   <i type="int" name="IDIOT">     3</i>
   <i type="int" name="PHON_NSTRUCT">    -1</i>
   <i type="logical" name="LMUSIC"> F  </i>
   <v name="POMASS">     58.69000000    106.42000000</v>
   <v name="DARWINR">      0.00000000      0.00000000</v>
   <v name="DARWINV">      1.00000000      1.00000000</v>
   <i type="logical" name="LCORR"> T  </i>
  </separator>
  <i type="logical" name="GGA_COMPAT"> T  </i>
  <i type="logical" name="LBERRY"> F  </i>
  <i type="int" name="ICORELEVEL">     0</i>
  <i type="logical" name="LDAU"> F  </i>
  <i type="int" name="I_CONSTRAINED_M">     0</i>
  <separator name="electronic exchange-correlation" >
   <i type="string" name="GGA">PE</i>
   <i type="int" name="VOSKOWN">     0</i>
   <i type="logical" name="LHFCALC"> F  </i>
   <i type="string" name="PRECFOCK"></i>
   <i type="logical" name="LSYMGRAD"> F  </i>
   <i type="logical" name="LHFONE"> F  </i>
   <i type="logical" name="LRHFCALC"> F  </i>
   <i type="logical" name="LTHOMAS"> F  </i>
   <i type="logical" name="LMODELHF"> F  </i>
   <i type="logical" name="LFOCKACE"> F  </i>
   <i name="ENCUT4O">     -1.00000000</i>
   <i type="int" name="EXXOEP">     0</i>
   <i type="int" name="FOURORBIT">     0</i>
   <i name="AEXX">      0.00000000</i>
   <i name="HFALPHA">      0.00000000</i>
   <i name="MCALPHA">      0.00000000</i>
   <i name="ALDAX">      1.00000000</i>
   <i name="AGGAX">      1.00000000</i>
   <i name="ALDAC">      1.00000000</i>
   <i name="AGGAC">      1.00000000</i>
   <i type="int" name="NKREDX">     1</i>
   <i type="int" name="NKREDY">     1</i>
   <i type="int" name="NKREDZ">     1</i>
   <i type="logical" name="SHIFTRED"> F  </i>
   <i type="logical" name="ODDONLY"> F  </i>
   <i type="logical" name="EVENONLY"> F  </i>
   <i type="int" name="LMAXFOCK">     0</i>
   <i type="int" name="NMAXFOCKAE">     0</i>
   <i type="logical" name="LFOCKAEDFT"> F  </i>
   <i name="HFSCREEN">      0.00000000</i>
   <i name="HFSCREENC">      0.00000000</i>
   <i type="int" name="NBANDSGWLOW">     0</i>
  </separator>
  <separator name="vdW DFT" >
   <i type="logical" name="LUSE_VDW"> F  </i>
   <i name="Zab_VDW">     -0.84910000</i>
   <i name="PARAM1">      0.12340000</i>
   <i name="PARAM2">      1.00000000</i>
   <i name="PARAM3">      0.00000000</i>
  </separator>
  <separator name="model GW" >
   <i type="int" name="MODEL_GW">     0</i>
   <i name="MODEL_EPS0">    777.45144788</i>
   <i name="MODEL_ALPHA">      1.00000000</i>
  </separator>
  <separator name="linear response parameters" >
   <i type="logical" name="LEPSILON"> F  </i>
   <i type="logical" name="LRPA"> F  </i>
   <i type="logical" name="LNABLA"> F  </i>
   <i type="logical" name="LVEL"> F  </i>
   <i type="int" name="KINTER">     0</i>
   <i name="CSHIFT">      0.10000000</i>
   <i name="OMEGAMAX">     -1.00000000</i>
   <i name="DEG_THRESHOLD">      0.00200000</i>
   <i name="RTIME">     -0.10000000</i>
   <i name="WPLASMAI">      0.00000000</i>
   <v name="DFIELD">      0.00000000      0.00000000      0.00000000</v>
   <v name="WPLASMA">      0.00000000      0.00000000      0.00000000      0.00000000      0.00000000      0.00000000      0.00000000      0.00000000      0.00000000</v>
  </separator>
  <separator name="orbital magnetization" >
   <i type="logical" name="NUCIND"> F  </i>
   <v name="MAGPOS">      0.00000000      0.00000000      0.00000000</v>
   <i type="logical" name="LNICSALL"> T  </i>
   <i type="logical" name="ORBITALMAG"> F  </i>
   <i type="logical" name="LMAGBLOCH"> F  </i>
   <i type="logical" name="LCHIMAG"> F  </i>
   <i type="logical" name="LGAUGE"> T  </i>
   <i type="int" name="MAGATOM">     0</i>
   <v name="MAGDIPOL">      0.00000000      0.00000000      0.00000000</v>
   <v name="AVECCONST">      0.00000000      0.00000000      0.00000000</v>
  </separator>
  <separator name="response functions" >
   <i type="logical" name="LFINITE_TEMPERATURE"> F  </i>
   <i type="logical" name="LADDER"> F  </i>
   <i type="logical" name="LRPAFORCE"> F  </i>
   <i type="logical" name="LFXC"> F  </i>
   <i type="logical" name="LHARTREE"> T  </i>
   <i type="int" name="IBSE">     0</i>
   <v type="int" name="KPOINT">    -1     0     0     0</v>
   <i type="logical" name="LTCTC"> F  </i>
   <i type="logical" name="LTCTE"> F  </i>
   <i type="logical" name="LTETE"> F  </i>
   <i type="logical" name="LTRIPLET"> F  </i>
   <i type="logical" name="LFXCEPS"> F  </i>
   <i type="logical" name="LFXHEG"> F  </i>
   <i type="int" name="NATURALO">     2</i>
   <i type="logical" name="LHOLEGF"> F  </i>
   <i type="logical" name="L2ORDER"> F  </i>
   <i type="logical" name="LDMP1"> F  </i>
   <i type="logical" name="LMP2LT"> F  </i>
   <i type="logical" name="LSMP2LT"> F  </i>
   <i type="logical" name="LGWLF"> F  </i>
   <i name="ENCUTGW">     -2.00000000</i>
   <i name="ENCUTGWSOFT">     -2.00000000</i>
   <i name="ENCUTLF">     -1.00000000</i>
   <i type="logical" name="LESF_SPLINES"> F  </i>
   <i type="int" name="LMAXMP2">    -1</i>
   <i name="SCISSOR">      0.00000000</i>
   <i type="int" name="NOMEGA">     0</i>
   <i type="int" name="NOMEGAR">     0</i>
   <i type="int" name="NBANDSGW">    -1</i>
   <i type="int" name="NBANDSO">    -1</i>
   <i type="int" name="NBANDSV">    -1</i>
   <i type="int" name="NELM">     1</i>
   <i type="int" name="NELMHF">     1</i>
   <i type="int" name="DIM">     3</i>
   <i type="int" name="IESPILON">     4</i>
   <i type="int" name="ANTIRES">     0</i>
   <i name="OMEGAMAX">    -30.00000000</i>
   <i name="OMEGAMIN">    -30.00000000</i>
   <i name="OMEGATL">   -200.00000000</i>
   <i type="int" name="OMEGAGRID">     0</i>
   <i name="CSHIFT">     -0.10000000</i>
   <i type="logical" name="LSELFENERGY"> F  </i>
   <i type="logical" name="LSPECTRAL"> F  </i>
   <i type="logical" name="LSPECTRALGW"> F  </i>
   <i type="logical" name="LSINGLES"> F  </i>
   <i type="logical" name="LFERMIGW"> F  </i>
   <i type="logical" name="ODDONLYGW"> F  </i>
   <i type="logical" name="EVENONLYGW"> F  </i>
   <i type="int" name="NKREDLFX">     1</i>
   <i type="int" name="NKREDLFY">     1</i>
   <i type="int" name="NKREDLFZ">     1</i>
   <i type="int" name="MAXMEM">  2800</i>
   <i type="int" name="TELESCOPE">     0</i>
   <i type="int" name="NTAUPAR">    -1</i>
   <i type="int" name="NOMEGAPAR">    -1</i>
   <i name="LAMBDA">      1.00000000</i>
  </separator>
  <separator name="External order field" >
   <i name="OFIELD_KAPPA">      0.00000000</i>
   <v name="OFIELD_K">      0.00000000      0.00000000      0.00000000</v>
   <i name="OFIELD_Q6_NEAR">      0.00000000</i>
   <i name="OFIELD_Q6_FAR">      0.00000000</i>
   <i name="OFIELD_A">      0.00000000</i>
  </separator>
 </parameters>
 <atominfo>
  <atoms>      10 </atoms>
  <types>       2 </types>
  <array name="atoms" >
   <dimension dim="1">ion</dimension>
   <field type="string">element</field>
   <field type="int">atomtype</field>
   <set>
    <rc><c>Ni</c><c>   1</c></rc>
    <rc><c>Ni</c><c>   1</c></rc>
    <rc><c>Ni</c><c>   1</c></rc>
    <rc><c>Ni</c><c>   1</c></rc>
    <rc><c>Ni</c><c>   1</c></rc>
    <rc><c>Ni</c><c>   1</c></rc>
    <rc><c>Pd</c><c>   2</c></rc>
    <rc><c>Pd</c><c>   2</c></rc>
    <rc><c>Pd</c><c>   2</c></rc>
    <rc><c>Pd</c><c>   2</c></rc>
   </set>
  </array>
  <array name="atomtypes" >
   <dimension dim="1">type</dimension>
   <field type="int">atomspertype</field>
   <field type="string">element</field>
   <field>mass</field>
   <field>valence</field>
   <field type="string">pseudopotential</field>
   <set>
    <rc><c>   6</c><c>Ni</c><c>     58.69000000</c><c>     10.00000000</c><c>  PAW_PBE Ni 02Aug2007                  </c></rc>
    <rc><c>   4</c><c>Pd</c><c>    106.42000000</c><c>     10.00000000</c><c>  PAW_PBE Pd 04Jan2005                  </c></rc>
   </set>
  </array>
 </atominfo>
 <structure name="initialpos" >
  <crystal>
   <varray name="basis" >
    <v>      23.40337035       0.00000000       0.00000000 </v>
    <v>       0.00000000      25.71531747       0.00000000 </v>
    <v>       0.00000000       0.00000000      21.53038177 </v>
   </varray>
   <i name="volume">  12957.52413134 </i>
   <varray name="rec_basis" >
    <v>       0.04272889       0.00000000       0.00000000 </v>
    <v>       0.00000000       0.03888733       0.00000000 </v>
    <v>       0.00000000       0.00000000       0.04644599 </v>
   </varray>
  </crystal>
  <varray name="positions" >
   <v>       0.45392004       0.51206455       0.52989840 </v>
   <v>       0.45576752       0.59662057       0.48939232 </v>
   <v>       0.49558713       0.43002940       0.52588263 </v>
   <v>       0.49901595       0.48056089       0.43777600 </v>
   <v>       0.41522903       0.52746999       0.43313813 </v>
   <v>       0.54031603       0.54642476       0.49626220 </v>
   <v>       0.54092808       0.49624215       0.59468388 </v>
   <v>       0.40196363       0.43785193       0.47338349 </v>
   <v>       0.59137088       0.46110319       0.49156471 </v>
   <v>       0.50284813       0.57151213       0.39237605 </v>
  </varray>
 </structure>
 <calculation>
  <scstep>
   <time name="dav">    6.04    6.04</time>
   <time name="total">    8.79    8.81</time>
   <energy>
    <i name="alphaZ">      4.37349991 </i>
    <i name="ewald">  13365.96014707 </i>
    <i name="hartreedc"> -22333.12403942 </i>
    <i name="XCdc">     63.33133914 </i>
    <i name="pawpsdc">   9003.59075477 </i>
    <i name="pawaedc">  -9155.75339974 </i>
    <i name="eentropy">     -0.00308048 </i>
    <i name="bandstr">     85.20661629 </i>
    <i name="atom">   9704.95859309 </i>
    <i name="e_fr_energy">    738.54043063 </i>
    <i name="e_wo_entrp">    738.54351111 </i>
    <i name="e_0_energy">    738.54145746 </i>
   </energy>
  </scstep>
  <scstep>
   <time name="dav">    9.49    9.50</time>
   <time name="total">    9.50    9.51</time>
   <energy>
    <i name="e_fr_energy">    264.90859794 </i>
    <i name="e_wo_entrp">    264.85302525 </i>
    <i name="e_0_energy">    264.89007371 </i>
   </energy>
  </scstep>
  <scstep>
   <time name="dav">    8.33    8.34</time>
   <time name="total">    8.34    8.35</time>
   <energy>
    <i name="e_fr_energy">     25.99842969 </i>
    <i name="e_wo_entrp">     26.00950828 </i>
    <i name="e_0_energy">     26.00212255 </i>
   </energy>
  </scstep>
  <scstep>
   <time name="dav">    8.33    8.34</time>
   <time name="total">    8.34    8.35</time>
   <energy>
    <i name="e_fr_energy">    -36.45062011 </i>
    <i name="e_wo_entrp">    -36.41382708 </i>
    <i name="e_0_energy">    -36.43835577 </i>
   </energy>
  </scstep>
  <scstep>
   <time name="dav">    7.29    7.30</time>
   <time name="total">    8.01    8.02</time>
   <energy>
    <i name="e_fr_energy">    -44.14879901 </i>
    <i name="e_wo_entrp">    -44.15111976 </i>
    <i name="e_0_energy">    -44.14957259 </i>
   </energy>
  </scstep>
  <scstep>
   <time name="dav">    6.42    6.43</time>
   <time name="total">    9.89    9.90</time>
   <energy>
    <i name="e_fr_energy">    -57.50190309 </i>
    <i name="e_wo_entrp">    -57.48970392 </i>
    <i name="e_0_energy">    -57.49783670 </i>
   </energy>
  </scstep>
  <scstep>
   <time name="dav">    7.04    7.05</time>
   <time name="total">   10.52   10.53</time>
   <energy>
    <i name="e_fr_energy">    -40.46201137 </i>
    <i name="e_wo_entrp">    -40.50478750 </i>
    <i name="e_0_energy">    -40.47627008 </i>
   </energy>
  </scstep>
  <scstep>
   <time name="dav">    7.58    7.59</time>
   <time name="total">   11.05   11.06</time>
   <energy>
    <i name="e_fr_energy">    -38.64787113 </i>
    <i name="e_wo_entrp">    -38.63447004 </i>
    <i name="e_0_energy">    -38.64340410 </i>
   </energy>
  </scstep>
  <scstep>
   <time name="dav">    7.64    7.64</time>
   <time name="total">   11.10   11.12</time>
   <energy>
    <i name="e_fr_energy">    -38.77659941 </i>
    <i name="e_wo_entrp">    -38.79980263 </i>
    <i name="e_0_energy">    -38.78433382 </i>
   </energy>
  </scstep>
  <scstep>
   <time name="dav">    7.49    7.50</time>
   <time name="total">   10.96   10.98</time>
   <energy>
    <i name="e_fr_energy">    -37.92206280 </i>
    <i name="e_wo_entrp">    -37.90803862 </i>
    <i name="e_0_energy">    -37.91738807 </i>
   </energy>
  </scstep>
  <scstep>
   <time name="dav">    6.75    6.76</time>
   <time name="total">   10.23   10.25</time>
   <energy>
    <i name="e_fr_energy">    -36.19964163 </i>
    <i name="e_wo_entrp">    -36.17701444 </i>
    <i name="e_0_energy">    -36.19209923 </i>
   </energy>
  </scstep>
  <scstep>
   <time name="dav">    7.64    7.65</time>
   <time name="total">   11.11   11.13</time>
   <energy>
    <i name="e_fr_energy">    -36.13681349 </i>
    <i name="e_wo_entrp">    -36.12748992 </i>
    <i name="e_0_energy">    -36.13370563 </i>
   </energy>
  </scstep>
  <scstep>
   <time name="dav">    7.15    7.16</time>
   <time name="total">   10.64   10.65</time>
   <energy>
    <i name="e_fr_energy">    -36.36037758 </i>
    <i name="e_wo_entrp">    -36.36337806 </i>
    <i name="e_0_energy">    -36.36137774 </i>
   </energy>
  </scstep>
  <scstep>
   <time name="dav">    7.07    7.07</time>
   <time name="total">   10.54   10.56</time>
   <energy>
    <i name="e_fr_energy">    -36.25015007 </i>
    <i name="e_wo_entrp">    -36.27691021 </i>
    <i name="e_0_energy">    -36.25907011 </i>
   </energy>
  </scstep>
  <scstep>
   <time name="dav">    7.77    7.78</time>
   <time name="total">   11.25   11.26</time>
   <energy>
    <i name="e_fr_energy">    -36.45290421 </i>
    <i name="e_wo_entrp">    -36.49166625 </i>
    <i name="e_0_energy">    -36.46582489 </i>
   </energy>
  </scstep>
  <scstep>
   <time name="dav">    6.53    6.54</time>
   <time name="total">   10.03   10.04</time>
   <energy>
    <i name="e_fr_energy">    -36.47737539 </i>
    <i name="e_wo_entrp">    -36.50372487 </i>
    <i name="e_0_energy">    -36.48615855 </i>
   </energy>
  </scstep>
  <scstep>
   <time name="dav">    7.72    7.72</time>
   <time name="total">   11.23   11.24</time>
   <energy>
    <i name="e_fr_energy">    -36.67956401 </i>
    <i name="e_wo_entrp">    -36.71543599 </i>
    <i name="e_0_energy">    -36.69152134 </i>
   </energy>
  </scstep>
  <scstep>
   <time name="dav">    7.49    7.50</time>
   <time name="total">   11.00   11.02</time>
   <energy>
    <i name="e_fr_energy">    -36.94372474 </i>
    <i name="e_wo_entrp">    -36.97265045 </i>
    <i name="e_0_energy">    -36.95336664 </i>
   </energy>
  </scstep>
  <scstep>
   <time name="dav">    6.84    6.85</time>
   <time name="total">   10.36   10.37</time>
   <energy>
    <i name="e_fr_energy">    -37.12325321 </i>
    <i name="e_wo_entrp">    -37.15687586 </i>
    <i name="e_0_energy">    -37.13446076 </i>
   </energy>
  </scstep>
  <scstep>
   <time name="dav">    7.24    7.24</time>
   <time name="total">   10.77   10.78</time>
   <energy>
    <i name="e_fr_energy">    -37.30951935 </i>
    <i name="e_wo_entrp">    -37.34485019 </i>
    <i name="e_0_energy">    -37.32129629 </i>
   </energy>
  </scstep>
  <scstep>
   <time name="dav">    6.73    6.73</time>
   <time name="total">   10.25   10.27</time>
   <energy>
    <i name="e_fr_energy">    -37.46826526 </i>
    <i name="e_wo_entrp">    -37.50652743 </i>
    <i name="e_0_energy">    -37.48101932 </i>
   </energy>
  </scstep>
  <scstep>
   <time name="dav">    6.97    6.98</time>
   <time name="total">   10.52   10.54</time>
   <energy>
    <i name="e_fr_energy">    -37.59834554 </i>
    <i name="e_wo_entrp">    -37.63812695 </i>
    <i name="e_0_energy">    -37.61160601 </i>
   </energy>
  </scstep>
  <scstep>
   <time name="dav">    6.19    6.20</time>
   <time name="total">    9.74    9.76</time>
   <energy>
    <i name="e_fr_energy">    -37.71768151 </i>
    <i name="e_wo_entrp">    -37.75760850 </i>
    <i name="e_0_energy">    -37.73099051 </i>
   </energy>
  </scstep>
  <scstep>
   <time name="dav">    6.15    6.15</time>
   <time name="total">    9.70    9.71</time>
   <energy>
    <i name="e_fr_energy">    -37.84937617 </i>
    <i name="e_wo_entrp">    -37.88940843 </i>
    <i name="e_0_energy">    -37.86272026 </i>
   </energy>
  </scstep>
  <scstep>
   <time name="dav">    6.43    6.44</time>
   <time name="total">   10.01   10.03</time>
   <energy>
    <i name="e_fr_energy">    -37.94856726 </i>
    <i name="e_wo_entrp">    -37.98912917 </i>
    <i name="e_0_energy">    -37.96208789 </i>
   </energy>
  </scstep>
  <scstep>
   <time name="dav">    5.55    5.56</time>
   <time name="total">    9.14    9.16</time>
   <energy>
    <i name="e_fr_energy">    -38.00356964 </i>
    <i name="e_wo_entrp">    -38.04398892 </i>
    <i name="e_0_energy">    -38.01704273 </i>
   </energy>
  </scstep>
  <scstep>
   <time name="dav">    5.80    5.80</time>
   <time name="total">    9.38    9.39</time>
   <energy>
    <i name="e_fr_energy">    -38.06829112 </i>
    <i name="e_wo_entrp">    -38.10910775 </i>
    <i name="e_0_energy">    -38.08189666 </i>
   </energy>
  </scstep>
  <scstep>
   <time name="dav">    5.56    5.57</time>
   <time name="total">    9.15    9.17</time>
   <energy>
    <i name="e_fr_energy">    -38.10457646 </i>
    <i name="e_wo_entrp">    -38.14554824 </i>
    <i name="e_0_energy">    -38.11823372 </i>
   </energy>
  </scstep>
  <scstep>
   <time name="dav">    5.46    5.47</time>
   <time name="total">    9.08    9.09</time>
   <energy>
    <i name="e_fr_energy">    -38.13015987 </i>
    <i name="e_wo_entrp">    -38.17095890 </i>
    <i name="e_0_energy">    -38.14375955 </i>
   </energy>
  </scstep>
  <scstep>
   <time name="dav">    5.28    5.29</time>
   <time name="total">    8.91    8.92</time>
   <energy>
    <i name="e_fr_energy">    -38.14675892 </i>
    <i name="e_wo_entrp">    -38.18762053 </i>
    <i name="e_0_energy">    -38.16037946 </i>
   </energy>
  </scstep>
  <scstep>
   <time name="dav">    4.85    4.85</time>
   <time name="total">    8.50    8.51</time>
   <energy>
    <i name="e_fr_energy">    -38.15583729 </i>
    <i name="e_wo_entrp">    -38.19668351 </i>
    <i name="e_0_energy">    -38.16945269 </i>
   </energy>
  </scstep>
  <scstep>
   <time name="dav">    4.99    5.00</time>
   <time name="total">    8.67    8.69</time>
   <energy>
    <i name="e_fr_energy">    -38.16285502 </i>
    <i name="e_wo_entrp">    -38.20369219 </i>
    <i name="e_0_energy">    -38.17646741 </i>
   </energy>
  </scstep>
  <scstep>
   <time name="dav">    4.74    4.74</time>
   <time name="total">    8.43    8.44</time>
   <energy>
    <i name="e_fr_energy">    -38.16651252 </i>
    <i name="e_wo_entrp">    -38.20738592 </i>
    <i name="e_0_energy">    -38.18013699 </i>
   </energy>
  </scstep>
  <scstep>
   <time name="dav">    4.71    4.72</time>
   <time name="total">    8.43    8.44</time>
   <energy>
    <i name="e_fr_energy">    -38.16852720 </i>
    <i name="e_wo_entrp">    -38.20938306 </i>
    <i name="e_0_energy">    -38.18214582 </i>
   </energy>
  </scstep>
  <scstep>
   <time name="dav">    4.73    4.73</time>
   <time name="total">    8.45    8.47</time>
   <energy>
    <i name="e_fr_energy">    -38.17037982 </i>
    <i name="e_wo_entrp">    -38.21126047 </i>
    <i name="e_0_energy">    -38.18400670 </i>
   </energy>
  </scstep>
  <scstep>
   <time name="dav">    4.58    4.59</time>
   <time name="total">    8.31    8.32</time>
   <energy>
    <i name="e_fr_energy">    -38.17173523 </i>
    <i name="e_wo_entrp">    -38.21258996 </i>
    <i name="e_0_energy">    -38.18535347 </i>
   </energy>
  </scstep>
  <scstep>
   <time name="dav">    4.76    4.76</time>
   <time name="total">    8.50    8.51</time>
   <energy>
    <i name="e_fr_energy">    -38.17273747 </i>
    <i name="e_wo_entrp">    -38.21356895 </i>
    <i name="e_0_energy">    -38.18634797 </i>
   </energy>
  </scstep>
  <scstep>
   <time name="dav">    4.60    4.61</time>
   <time name="total">    8.36    8.37</time>
   <energy>
    <i name="e_fr_energy">    -38.17346780 </i>
    <i name="e_wo_entrp">    -38.21430519 </i>
    <i name="e_0_energy">    -38.18708026 </i>
   </energy>
  </scstep>
  <scstep>
   <time name="dav">    4.53    4.53</time>
   <time name="total">    8.29    8.30</time>
   <energy>
    <i name="e_fr_energy">    -38.17406854 </i>
    <i name="e_wo_entrp">    -38.21490841 </i>
    <i name="e_0_energy">    -38.18768183 </i>
   </energy>
  </scstep>
  <scstep>
   <time name="dav">    4.60    4.60</time>
   <time name="total">    8.39    8.40</time>
   <energy>
    <i name="e_fr_energy">    -38.17451311 </i>
    <i name="e_wo_entrp">    -38.21534689 </i>
    <i name="e_0_energy">    -38.18812437 </i>
   </energy>
  </scstep>
  <scstep>
   <time name="dav">    4.86    4.94</time>
   <time name="total">    8.66    8.74</time>
   <energy>
    <i name="e_fr_energy">    -38.17469998 </i>
    <i name="e_wo_entrp">    -38.21552514 </i>
    <i name="e_0_energy">    -38.18830837 </i>
   </energy>
  </scstep>
  <scstep>
   <time name="dav">    4.39    4.40</time>
   <time name="total">    8.22    8.24</time>
   <energy>
    <i name="e_fr_energy">    -38.17480867 </i>
    <i name="e_wo_entrp">    -38.21564016 </i>
    <i name="e_0_energy">    -38.18841917 </i>
   </energy>
  </scstep>
  <scstep>
   <time name="dav">    4.32    4.33</time>
   <time name="total">    7.06    7.07</time>
   <energy>
    <i name="alphaZ">      4.37349991 </i>
    <i name="ewald">  13365.96014707 </i>
    <i name="hartreedc"> -22408.54505503 </i>
    <i name="XCdc">     60.45938878 </i>
    <i name="pawpsdc">  10163.47187746 </i>
    <i name="pawaedc"> -10328.42380017 </i>
    <i name="eentropy">      0.04082740 </i>
    <i name="bandstr">   -600.47035171 </i>
    <i name="atom">   9704.95859309 </i>
    <i name="e_fr_energy">    -38.17487320 </i>
    <i name="e_wo_entrp">    -38.21570060 </i>
    <i name="e_0_energy">    -38.18848234 </i>
   </energy>
  </scstep>
  <structure>
   <crystal>
    <varray name="basis" >
     <v>      23.40337035       0.00000000       0.00000000 </v>
     <v>       0.00000000      25.71531747       0.00000000 </v>
     <v>       0.00000000       0.00000000      21.53038177 </v>
    </varray>
    <i name="volume">  12957.52413134 </i>
    <varray name="rec_basis" >
     <v>       0.04272889       0.00000000       0.00000000 </v>
     <v>       0.00000000       0.03888733       0.00000000 </v>
     <v>       0.00000000       0.00000000       0.04644599 </v>
    </varray>
   </crystal>
   <varray name="positions" >
    <v>       0.45392004       0.51206455       0.52989840 </v>
    <v>       0.45576752       0.59662057       0.48939232 </v>
    <v>       0.49558713       0.43002940       0.52588263 </v>
    <v>       0.49901595       0.48056089       0.43777600 </v>
    <v>       0.41522903       0.52746999       0.43313813 </v>
    <v>       0.54031603       0.54642476       0.49626220 </v>
    <v>       0.54092808       0.49624215       0.59468388 </v>
    <v>       0.40196363       0.43785193       0.47338349 </v>
    <v>       0.59137088       0.46110319       0.49156471 </v>
    <v>       0.50284813       0.57151213       0.39237605 </v>
   </varray>
  </structure>
  <varray name="forces" >
   <v>       0.02203162      -0.01154828       0.03023267 </v>
   <v>       0.02621340       0.00627862       0.01212902 </v>
   <v>      -0.01427071       0.00502317      -0.00467175 </v>
   <v>       0.00000452      -0.00847679       0.00481261 </v>
   <v>      -0.01753713      -0.01135841      -0.02525624 </v>
   <v>       0.00032417       0.02400460       0.01340843 </v>
   <v>      -0.00526740       0.00614736       0.01108426 </v>
   <v>      -0.03496983      -0.00690234      -0.02179452 </v>
   <v>       0.03917963       0.00007976      -0.00189828 </v>
   <v>      -0.01570828      -0.00324769      -0.01804620 </v>
  </varray>
  <energy>
   <i name="e_fr_energy">    -38.17487320 </i>
   <i name="e_wo_entrp">    -38.21570060 </i>
   <i name="e_0_energy">    -38.18848234 </i>
  </energy>
  <time name="totalsc">  418.35  419.02</time>
 </calculation>
 <calculation>
  <scstep>
   <time name="dav">    5.98    6.00</time>
   <time name="total">    9.44    9.47</time>
   <energy>
    <i name="alphaZ">      4.37349991 </i>
    <i name="ewald">  13359.56618496 </i>
    <i name="hartreedc"> -22402.26158932 </i>
    <i name="XCdc">     60.44236769 </i>
    <i name="pawpsdc">  10163.48367142 </i>
    <i name="pawaedc"> -10328.43545027 </i>
    <i name="eentropy">      0.04130378 </i>
    <i name="bandstr">   -600.34361976 </i>
    <i name="atom">   9704.95859309 </i>
    <i name="e_fr_energy">    -38.17503850 </i>
    <i name="e_wo_entrp">    -38.21634228 </i>
    <i name="e_0_energy">    -38.18880643 </i>
   </energy>
  </scstep>
  <scstep>
   <time name="dav">    8.02    8.05</time>
   <time name="total">   11.44   11.48</time>
   <energy>
    <i name="e_fr_energy">    -38.17512318 </i>
    <i name="e_wo_entrp">    -38.21511328 </i>
    <i name="e_0_energy">    -38.18845321 </i>
   </energy>
  </scstep>
  <scstep>
   <time name="dav">    6.45    6.47</time>
   <time name="total">    9.87    9.91</time>
   <energy>
    <i name="e_fr_energy">    -38.17501810 </i>
    <i name="e_wo_entrp">    -38.21578881 </i>
    <i name="e_0_energy">    -38.18860834 </i>
   </energy>
  </scstep>
  <scstep>
   <time name="dav">    5.33    5.35</time>
   <time name="total">    8.75    8.78</time>
   <energy>
    <i name="e_fr_energy">    -38.17513318 </i>
    <i name="e_wo_entrp">    -38.21684717 </i>
    <i name="e_0_energy">    -38.18903784 </i>
   </energy>
  </scstep>
  <scstep>
   <time name="dav">    4.24    4.25</time>
   <time name="total">    6.95    6.98</time>
   <energy>
    <i name="alphaZ">      4.37349991 </i>
    <i name="ewald">  13359.56618496 </i>
    <i name="hartreedc"> -22402.32505429 </i>
    <i name="XCdc">     60.44635258 </i>
    <i name="pawpsdc">  10162.01727984 </i>
    <i name="pawaedc"> -10326.95580504 </i>
    <i name="eentropy">      0.04115585 </i>
    <i name="bandstr">   -600.29736823 </i>
    <i name="atom">   9704.95859309 </i>
    <i name="e_fr_energy">    -38.17516133 </i>
    <i name="e_wo_entrp">    -38.21631718 </i>
    <i name="e_0_energy">    -38.18887995 </i>
   </energy>
  </scstep>
  <structure>
   <crystal>
    <varray name="basis" >
     <v>      23.40337035       0.00000000       0.00000000 </v>
     <v>       0.00000000      25.71531747       0.00000000 </v>
     <v>       0.00000000       0.00000000      21.53038177 </v>
    </varray>
    <i name="volume">  12957.52413134 </i>
    <varray name="rec_basis" >
     <v>       0.04272889       0.00000000       0.00000000 </v>
     <v>       0.00000000       0.03888733       0.00000000 </v>
     <v>       0.00000000       0.00000000       0.04644599 </v>
    </varray>
   </crystal>
   <varray name="positions" >
    <v>       0.45396545       0.51204289       0.52996614 </v>
    <v>       0.45582156       0.59663234       0.48941949 </v>
    <v>       0.49555771       0.43003883       0.52587216 </v>
    <v>       0.49901595       0.48054498       0.43778679 </v>
    <v>       0.41519288       0.52744868       0.43308154 </v>
    <v>       0.54031669       0.54646979       0.49629224 </v>
    <v>       0.54091723       0.49625368       0.59470871 </v>
    <v>       0.40189155       0.43783898       0.47333465 </v>
    <v>       0.59145164       0.46110334       0.49156046 </v>
    <v>       0.50281575       0.57150604       0.39233562 </v>
   </varray>
  </structure>
  <varray name="forces" >
   <v>       0.01267133      -0.00686545       0.00738270 </v>
   <v>       0.01931675       0.00196212       0.00620778 </v>
   <v>      -0.00796102       0.00365727      -0.00577354 </v>
   <v>       0.00056396       0.00050904       0.01075258 </v>
   <v>      -0.00319694      -0.00956665      -0.00797096 </v>
   <v>      -0.00216129       0.00767596       0.00709470 </v>
   <v>       0.00135368       0.00212197       0.00620487 </v>
   <v>      -0.02258835      -0.00080922      -0.01725375 </v>
   <v>       0.01699203       0.00683715       0.00261835 </v>
   <v>      -0.01499015      -0.00552219      -0.00926273 </v>
  </varray>
  <energy>
   <i name="e_fr_energy">    -38.17516133 </i>
   <i name="e_wo_entrp">    -38.21631718 </i>
   <i name="e_0_energy">    -38.18887995 </i>
  </energy>
  <time name="totalsc">   56.56   56.78</time>
 </calculation>
 <calculation>
  <scstep>
   <time name="dav">    5.98    6.00</time>
   <time name="total">    9.42    9.45</time>
   <energy>
    <i name="alphaZ">      4.37349991 </i>
    <i name="ewald">  13353.07186945 </i>
    <i name="hartreedc"> -22395.91193079 </i>
    <i name="XCdc">     60.42853993 </i>
    <i name="pawpsdc">  10161.80140092 </i>
    <i name="pawaedc"> -10326.72748603 </i>
    <i name="eentropy">      0.04170106 </i>
    <i name="bandstr">   -600.21128268 </i>
    <i name="atom">   9704.95859309 </i>
    <i name="e_fr_energy">    -38.17509514 </i>
    <i name="e_wo_entrp">    -38.21679620 </i>
    <i name="e_0_energy">    -38.18899549 </i>
   </energy>
  </scstep>
  <scstep>
   <time name="dav">    8.13    8.16</time>
   <time name="total">   11.55   11.60</time>
   <energy>
    <i name="e_fr_energy">    -38.17542046 </i>
    <i name="e_wo_entrp">    -38.21488121 </i>
    <i name="e_0_energy">    -38.18857404 </i>
   </energy>
  </scstep>
  <scstep>
   <time name="dav">    6.71    6.73</time>
   <time name="total">   10.14   10.17</time>
   <energy>
    <i name="e_fr_energy">    -38.17491154 </i>
    <i name="e_wo_entrp">    -38.21614095 </i>
    <i name="e_0_energy">    -38.18865468 </i>
   </energy>
  </scstep>
  <scstep>
   <time name="dav">    5.49    5.51</time>
   <time name="total">    8.92    8.96</time>
   <energy>
    <i name="e_fr_energy">    -38.17522196 </i>
    <i name="e_wo_entrp">    -38.21687394 </i>
    <i name="e_0_energy">    -38.18910595 </i>
   </energy>
  </scstep>
  <scstep>
   <time name="dav">    6.50    6.63</time>
   <time name="total">    9.45    9.68</time>
   <energy>
    <i name="alphaZ">      4.37349991 </i>
    <i name="ewald">  13353.07186945 </i>
    <i name="hartreedc"> -22395.99776011 </i>
    <i name="XCdc">     60.43288248 </i>
    <i name="pawpsdc">  10159.63181322 </i>
    <i name="pawaedc"> -10324.53991855 </i>
    <i name="eentropy">      0.04194692 </i>
    <i name="bandstr">   -600.14816394 </i>
    <i name="atom">   9704.95859309 </i>
    <i name="e_fr_energy">    -38.17523754 </i>
    <i name="e_wo_entrp">    -38.21718445 </i>
    <i name="e_0_energy">    -38.18921984 </i>
   </energy>
  </scstep>
  <structure>
   <crystal>
    <varray name="basis" >
     <v>      23.40337035       0.00000000       0.00000000 </v>
     <v>       0.00000000      25.71531747       0.00000000 </v>
     <v>       0.00000000       0.00000000      21.53038177 </v>
    </varray>
    <i name="volume">  12957.52413134 </i>
    <varray name="rec_basis" >
     <v>       0.04272889       0.00000000       0.00000000 </v>
     <v>       0.00000000       0.03888733       0.00000000 </v>
     <v>       0.00000000       0.00000000       0.04644599 </v>
    </varray>
   </crystal>
   <varray name="positions" >
    <v>       0.45401162       0.51202086       0.53003502 </v>
    <v>       0.45587649       0.59664432       0.48944712 </v>
    <v>       0.49552780       0.43004841       0.52586152 </v>
    <v>       0.49901596       0.48052882       0.43779775 </v>
    <v>       0.41515613       0.52742702       0.43302400 </v>
    <v>       0.54031737       0.54651558       0.49632278 </v>
    <v>       0.54090619       0.49626541       0.59473396 </v>
    <v>       0.40181826       0.43782581       0.47328500 </v>
    <v>       0.59153375       0.46110349       0.49155613 </v>
    <v>       0.50278283       0.57149984       0.39229451 </v>
   </varray>
  </structure>
  <varray name="forces" >
   <v>      -0.00152029       0.00151260      -0.01421533 </v>
   <v>       0.01682591      -0.01804938      -0.00513245 </v>
   <v>      -0.00428001       0.00083939      -0.00715473 </v>
   <v>       0.00195237       0.00928798       0.01490867 </v>
   <v>       0.01759824      -0.00901543       0.01548510 </v>
   <v>      -0.00043261      -0.00343977       0.00124863 </v>
   <v>       0.00562347       0.00222159       0.00223643 </v>
   <v>      -0.01397244       0.00931805      -0.01464861 </v>
   <v>      -0.00249782       0.01571329       0.00621816 </v>
   <v>      -0.01929682      -0.00838832       0.00105415 </v>
  </varray>
  <energy>
   <i name="e_fr_energy">    -38.17523754 </i>
   <i name="e_wo_entrp">    -38.21718445 </i>
   <i name="e_0_energy">    -38.18921984 </i>
  </energy>
  <time name="totalsc">   59.30   59.98</time>
  <eigenvalues>
   <array>
    <dimension dim="1">band</dimension>
    <dimension dim="2">kpoint</dimension>
    <dimension dim="3">spin</dimension>
    <field>eigene</field>
    <field>occ</field>
    <set>
     <set comment="spin 1">
      <set comment="kpoint 1">
       <r>   -9.9353    1.0000 </r>
       <r>   -8.5807    1.0000 </r>
       <r>   -8.2592    1.0000 </r>
       <r>   -7.9676    1.0000 </r>
       <r>   -7.8394    1.0000 </r>
       <r>   -7.8315    1.0000 </r>
       <r>   -7.6003    1.0000 </r>
       <r>   -7.5721    1.0000 </r>
       <r>   -7.5692    1.0000 </r>
       <r>   -7.4747    1.0000 </r>
       <r>   -7.3693    1.0000 </r>
       <r>   -7.3601    1.0000 </r>
       <r>   -7.0644    1.0000 </r>
       <r>   -7.0250    1.0000 </r>
       <r>   -6.9208    1.0000 </r>
       <r>   -6.8438    1.0000 </r>
       <r>   -6.6526    1.0000 </r>
       <r>   -6.5939    1.0000 </r>
       <r>   -6.4677    1.0000 </r>
       <r>   -6.4311    1.0000 </r>
       <r>   -6.3812    1.0000 </r>
       <r>   -6.3517    1.0000 </r>
       <r>   -6.2792    1.0000 </r>
       <r>   -6.2456    1.0000 </r>
       <r>   -6.1640    1.0000 </r>
       <r>   -6.0437    1.0000 </r>
       <r>   -5.9847    1.0000 </r>
       <r>   -5.8925    1.0000 </r>
       <r>   -5.7924    1.0000 </r>
       <r>   -5.6979    1.0000 </r>
       <r>   -5.6163    1.0000 </r>
       <r>   -5.5730    1.0000 </r>
       <r>   -5.5319    1.0000 </r>
       <r>   -5.4200    1.0000 </r>
       <r>   -5.4087    1.0000 </r>
       <r>   -5.3843    1.0000 </r>
       <r>   -5.3144    1.0000 </r>
       <r>   -5.2923    1.0000 </r>
       <r>   -5.2529    1.0000 </r>
       <r>   -5.2084    1.0000 </r>
       <r>   -5.1827    1.0000 </r>
       <r>   -5.1648    1.0000 </r>
       <r>   -5.1458    1.0000 </r>
       <r>   -5.1175    1.0000 </r>
       <r>   -5.0845    1.0000 </r>
       <r>   -5.0442    1.0000 </r>
       <r>   -4.9763    1.0000 </r>
       <r>   -4.9587    1.0000 </r>
       <r>   -4.9154    1.0000 </r>
       <r>   -4.8600    1.0000 </r>
       <r>   -4.7503    1.0001 </r>
       <r>   -4.7122    1.0002 </r>
       <r>   -4.6506    1.0008 </r>
       <r>   -4.2926    0.9901 </r>
       <r>   -2.9980   -0.0000 </r>
       <r>   -2.9306   -0.0000 </r>
       <r>   -2.8342   -0.0000 </r>
       <r>   -2.5728   -0.0000 </r>
       <r>   -1.8972   -0.0000 </r>
       <r>   -1.7135   -0.0000 </r>
       <r>   -1.0934   -0.0000 </r>
       <r>   -0.8448   -0.0000 </r>
       <r>   -0.7071   -0.0000 </r>
       <r>   -0.5850   -0.0000 </r>
       <r>   -0.3754   -0.0000 </r>
       <r>   -0.3200   -0.0000 </r>
      </set>
     </set>
     <set comment="spin 2">
      <set comment="kpoint 1">
       <r>   -9.8694    1.0000 </r>
       <r>   -8.3219    1.0000 </r>
       <r>   -7.9112    1.0000 </r>
       <r>   -7.4718    1.0000 </r>
       <r>   -7.3576    1.0000 </r>
       <r>   -7.3022    1.0000 </r>
       <r>   -7.0558    1.0000 </r>
       <r>   -6.8705    1.0000 </r>
       <r>   -6.7644    1.0000 </r>
       <r>   -6.7179    1.0000 </r>
       <r>   -6.6459    1.0000 </r>
       <r>   -6.5507    1.0000 </r>
       <r>   -6.5378    1.0000 </r>
       <r>   -6.2393    1.0000 </r>
       <r>   -6.2107    1.0000 </r>
       <r>   -6.1231    1.0000 </r>
       <r>   -6.0958    1.0000 </r>
       <r>   -6.0809    1.0000 </r>
       <r>   -6.0242    1.0000 </r>
       <r>   -5.9441    1.0000 </r>
       <r>   -5.9206    1.0000 </r>
       <r>   -5.7895    1.0000 </r>
       <r>   -5.7663    1.0000 </r>
       <r>   -5.6459    1.0000 </r>
       <r>   -5.6132    1.0000 </r>
       <r>   -5.5033    1.0000 </r>
       <r>   -5.4233    1.0000 </r>
       <r>   -5.4041    1.0000 </r>
       <r>   -5.2019    1.0000 </r>
       <r>   -5.1314    1.0000 </r>
       <r>   -5.0881    1.0000 </r>
       <r>   -4.9853    1.0000 </r>
       <r>   -4.9732    1.0000 </r>
       <r>   -4.8646    1.0000 </r>
       <r>   -4.7979    1.0000 </r>
       <r>   -4.6674    1.0005 </r>
       <r>   -4.6126    1.0018 </r>
       <r>   -4.5981    1.0024 </r>
       <r>   -4.5576    1.0052 </r>
       <r>   -4.5222    1.0094 </r>
       <r>   -4.4346    1.0272 </r>
       <r>   -4.4021    1.0335 </r>
       <r>   -4.3574    1.0337 </r>
       <r>   -4.3056    1.0049 </r>
       <r>   -4.2344    0.8752 </r>
       <r>   -4.1789    0.6904 </r>
       <r>   -4.1133    0.4190 </r>
       <r>   -3.9799    0.0200 </r>
       <r>   -3.9452   -0.0172 </r>
       <r>   -3.9200   -0.0304 </r>
       <r>   -3.8813   -0.0353 </r>
       <r>   -3.7873   -0.0174 </r>
       <r>   -3.7607   -0.0123 </r>
       <r>   -3.6476   -0.0016 </r>
       <r>   -2.7452   -0.0000 </r>
       <r>   -2.6675   -0.0000 </r>
       <r>   -2.4696   -0.0000 </r>
       <r>   -2.3439   -0.0000 </r>
       <r>   -1.6529   -0.0000 </r>
       <r>   -1.3950   -0.0000 </r>
       <r>   -0.9732   -0.0000 </r>
       <r>   -0.7183   -0.0000 </r>
       <r>   -0.5338   -0.0000 </r>
       <r>   -0.4677   -0.0000 </r>
       <r>   -0.1928   -0.0000 </r>
       <r>   -0.1516   -0.0000 </r>
      </set>
     </set>
    </set>
   </array>
  </eigenvalues>
  <separator name="orbital magnetization" >
   <v name="MAGDIPOLOUT">      0.00000000      0.00000000      0.00000000</v>
  </separator>
  <dos>
   <i name="efermi">     -4.13251101 </i>
   <total>
    <array>
     <dimension dim="1">gridpoints</dimension>
     <dimension dim="2">spin</dimension>
     <field>energy</field>
     <field>total</field>
     <field>integrated</field>
     <set>
      <set comment="spin 1">
       <r>   -11.9353     0.0000     0.0000 </r>
       <r>   -11.8893     0.0000     0.0000 </r>
       <r>   -11.8434     0.0000     0.0000 </r>
       <r>   -11.7974     0.0000     0.0000 </r>
       <r>   -11.7515     0.0000     0.0000 </r>
       <r>   -11.7056     0.0000     0.0000 </r>
       <r>   -11.6596     0.0000     0.0000 </r>
       <r>   -11.6137     0.0000     0.0000 </r>
       <r>   -11.5677    -0.0000    -0.0000 </r>
       <r>   -11.5218    -0.0000    -0.0000 </r>
       <r>   -11.4758    -0.0000    -0.0000 </r>
       <r>   -11.4299    -0.0000    -0.0000 </r>
       <r>   -11.3839    -0.0000    -0.0000 </r>
       <r>   -11.3380    -0.0000    -0.0000 </r>
       <r>   -11.2920    -0.0000    -0.0000 </r>
       <r>   -11.2461    -0.0000    -0.0000 </r>
       <r>   -11.2002    -0.0000    -0.0000 </r>
       <r>   -11.1542    -0.0000    -0.0000 </r>
       <r>   -11.1083    -0.0000    -0.0000 </r>
       <r>   -11.0623    -0.0000    -0.0000 </r>
       <r>   -11.0164    -0.0000    -0.0000 </r>
       <r>   -10.9704    -0.0000    -0.0000 </r>
       <r>   -10.9245    -0.0000    -0.0000 </r>
       <r>   -10.8785    -0.0000    -0.0000 </r>
       <r>   -10.8326    -0.0000    -0.0000 </r>
       <r>   -10.7866    -0.0000    -0.0000 </r>
       <r>   -10.7407    -0.0000    -0.0000 </r>
       <r>   -10.6948    -0.0000    -0.0000 </r>
       <r>   -10.6488    -0.0000    -0.0000 </r>
       <r>   -10.6029    -0.0002    -0.0000 </r>
       <r>   -10.5569    -0.0008    -0.0001 </r>
       <r>   -10.5110    -0.0029    -0.0002 </r>
       <r>   -10.4650    -0.0087    -0.0006 </r>
       <r>   -10.4191    -0.0233    -0.0017 </r>
       <r>   -10.3731    -0.0542    -0.0041 </r>
       <r>   -10.3272    -0.1078    -0.0091 </r>
       <r>   -10.2812    -0.1780    -0.0173 </r>
       <r>   -10.2353    -0.2259    -0.0276 </r>
       <r>   -10.1894    -0.1634    -0.0352 </r>
       <r>   -10.1434     0.1374    -0.0288 </r>
       <r>   -10.0975     0.7850     0.0072 </r>
       <r>   -10.0515     1.7717     0.0886 </r>
       <r>   -10.0056     2.9026     0.2220 </r>
       <r>    -9.9596     3.8279     0.3979 </r>
       <r>    -9.9137     4.2003     0.5908 </r>
       <r>    -9.8677     3.8682     0.7686 </r>
       <r>    -9.8218     2.9671     0.9049 </r>
       <r>    -9.7758     1.8378     0.9893 </r>
       <r>    -9.7299     0.8351     1.0277 </r>
       <r>    -9.6839     0.1655     1.0353 </r>
       <r>    -9.6380    -0.1535     1.0283 </r>
       <r>    -9.5921    -0.2264     1.0178 </r>
       <r>    -9.5461    -0.1821     1.0095 </r>
       <r>    -9.5002    -0.1117     1.0044 </r>
       <r>    -9.4542    -0.0567     1.0017 </r>
       <r>    -9.4083    -0.0246     1.0006 </r>
       <r>    -9.3623    -0.0093     1.0002 </r>
       <r>    -9.3164    -0.0031     1.0001 </r>
       <r>    -9.2704    -0.0010     1.0000 </r>
       <r>    -9.2245    -0.0007     1.0000 </r>
       <r>    -9.1785    -0.0016     0.9999 </r>
       <r>    -9.1326    -0.0052     0.9997 </r>
       <r>    -9.0867    -0.0147     0.9990 </r>
       <r>    -9.0407    -0.0367     0.9973 </r>
       <r>    -8.9948    -0.0790     0.9937 </r>
       <r>    -8.9488    -0.1436     0.9871 </r>
       <r>    -8.9029    -0.2103     0.9774 </r>
       <r>    -8.8569    -0.2165     0.9675 </r>
       <r>    -8.8110    -0.0510     0.9651 </r>
       <r>    -8.7650     0.4112     0.9840 </r>
       <r>    -8.7191     1.2244     1.0403 </r>
       <r>    -8.6731     2.2798     1.1450 </r>
       <r>    -8.6272     3.2878     1.2961 </r>
       <r>    -8.5813     3.8946     1.4750 </r>
       <r>    -8.5353     3.8959     1.6540 </r>
       <r>    -8.4894     3.3978     1.8101 </r>
       <r>    -8.4434     2.7843     1.9381 </r>
       <r>    -8.3975     2.4788     2.0519 </r>
       <r>    -8.3515     2.6603     2.1742 </r>
       <r>    -8.3056     3.1446     2.3186 </r>
       <r>    -8.2596     3.5309     2.4809 </r>
       <r>    -8.2137     3.5126     2.6423 </r>
       <r>    -8.1677     3.1284     2.7860 </r>
       <r>    -8.1218     2.7701     2.9133 </r>
       <r>    -8.0759     2.9456     3.0486 </r>
       <r>    -8.0299     3.9578     3.2305 </r>
       <r>    -7.9840     5.6993     3.4923 </r>
       <r>    -7.9380     7.6721     3.8448 </r>
       <r>    -7.8921     9.2232     4.2686 </r>
       <r>    -7.8461     9.8974     4.7233 </r>
       <r>    -7.8002     9.7355     5.1706 </r>
       <r>    -7.7542     9.3173     5.5987 </r>
       <r>    -7.7083     9.4451     6.0327 </r>
       <r>    -7.6623    10.6207     6.5206 </r>
       <r>    -7.6164    12.6845     7.1034 </r>
       <r>    -7.5704    14.9042     7.7882 </r>
       <r>    -7.5245    16.4355     8.5434 </r>
       <r>    -7.4786    16.7671     9.3137 </r>
       <r>    -7.4326    15.8372    10.0414 </r>
       <r>    -7.3867    13.8660    10.6785 </r>
       <r>    -7.3407    11.1937    11.1928 </r>
       <r>    -7.2948     8.2843    11.5734 </r>
       <r>    -7.2488     5.7742    11.8387 </r>
       <r>    -7.2029     4.3488    12.0385 </r>
       <r>    -7.1569     4.4309    12.2421 </r>
       <r>    -7.1110     5.9090    12.5136 </r>
       <r>    -7.0650     8.1400    12.8876 </r>
       <r>    -7.0191    10.2485    13.3585 </r>
       <r>    -6.9732    11.5167    13.8876 </r>
       <r>    -6.9272    11.6375    14.4223 </r>
       <r>    -6.8813    10.7475    14.9161 </r>
       <r>    -6.8353     9.3058    15.3436 </r>
       <r>    -6.7894     7.9041    15.7068 </r>
       <r>    -6.7434     7.0589    16.0311 </r>
       <r>    -6.6975     7.0416    16.3547 </r>
       <r>    -6.6515     7.8368    16.7147 </r>
       <r>    -6.6056     9.2600    17.1402 </r>
       <r>    -6.5596    11.1300    17.6516 </r>
       <r>    -6.5137    13.3256    18.2638 </r>
       <r>    -6.4678    15.6811    18.9843 </r>
       <r>    -6.4218    17.8602    19.8049 </r>
       <r>    -6.3759    19.3842    20.6955 </r>
       <r>    -6.3299    19.8333    21.6068 </r>
       <r>    -6.2840    19.0749    22.4832 </r>
       <r>    -6.2380    17.3563    23.2806 </r>
       <r>    -6.1921    15.2115    23.9795 </r>
       <r>    -6.1461    13.2419    24.5879 </r>
       <r>    -6.1002    11.8746    25.1335 </r>
       <r>    -6.0542    11.2115    25.6486 </r>
       <r>    -6.0083    11.0450    26.1561 </r>
       <r>    -5.9624    11.0328    26.6630 </r>
       <r>    -5.9164    10.9235    27.1649 </r>
       <r>    -5.8705    10.6938    27.6562 </r>
       <r>    -5.8245    10.5272    28.1399 </r>
       <r>    -5.7786    10.6740    28.6303 </r>
       <r>    -5.7326    11.2901    29.1491 </r>
       <r>    -5.6867    12.3463    29.7163 </r>
       <r>    -5.6407    13.6541    30.3437 </r>
       <r>    -5.5948    14.9948    31.0326 </r>
       <r>    -5.5488    16.2722    31.7803 </r>
       <r>    -5.5029    17.5765    32.5878 </r>
       <r>    -5.4569    19.1111    33.4659 </r>
       <r>    -5.4110    21.0470    34.4329 </r>
       <r>    -5.3651    23.4193    35.5089 </r>
       <r>    -5.3191    26.1036    36.7083 </r>
       <r>    -5.2732    28.8226    38.0326 </r>
       <r>    -5.2272    31.1543    39.4640 </r>
       <r>    -5.1813    32.6000    40.9618 </r>
       <r>    -5.1353    32.7613    42.4670 </r>
       <r>    -5.0894    31.5438    43.9163 </r>
       <r>    -5.0434    29.2199    45.2589 </r>
       <r>    -4.9975    26.2857    46.4666 </r>
       <r>    -4.9515    23.2393    47.5343 </r>
       <r>    -4.9056    20.4518    48.4740 </r>
       <r>    -4.8597    18.1561    49.3082 </r>
       <r>    -4.8137    16.4359    50.0633 </r>
       <r>    -4.7678    15.1551    50.7597 </r>
       <r>    -4.7218    13.9315    51.3997 </r>
       <r>    -4.6759    12.2904    51.9644 </r>
       <r>    -4.6299     9.9650    52.4223 </r>
       <r>    -4.5840     7.1247    52.7496 </r>
       <r>    -4.5380     4.3376    52.9489 </r>
       <r>    -4.4921     2.2787    53.0536 </r>
       <r>    -4.4461     1.3757    53.1168 </r>
       <r>    -4.4002     1.6017    53.1904 </r>
       <r>    -4.3543     2.5054    53.3055 </r>
       <r>    -4.3083     3.4387    53.4635 </r>
       <r>    -4.2624     3.8589    53.6408 </r>
       <r>    -4.2164     3.5535    53.8041 </r>
       <r>    -4.1705     2.6768    53.9271 </r>
       <r>    -4.1245     1.5970    54.0005 </r>
       <r>    -4.0786     0.6690    54.0312 </r>
       <r>    -4.0326     0.0772    54.0347 </r>
       <r>    -3.9867    -0.1830    54.0263 </r>
       <r>    -3.9407    -0.2239    54.0161 </r>
       <r>    -3.8948    -0.1690    54.0083 </r>
       <r>    -3.8489    -0.0997    54.0037 </r>
       <r>    -3.8029    -0.0490    54.0015 </r>
       <r>    -3.7570    -0.0207    54.0005 </r>
       <r>    -3.7110    -0.0076    54.0002 </r>
       <r>    -3.6651    -0.0027    54.0000 </r>
       <r>    -3.6191    -0.0016    54.0000 </r>
       <r>    -3.5732    -0.0035    53.9998 </r>
       <r>    -3.5272    -0.0106    53.9993 </r>
       <r>    -3.4813    -0.0292    53.9980 </r>
       <r>    -3.4353    -0.0712    53.9947 </r>
       <r>    -3.3894    -0.1508    53.9878 </r>
       <r>    -3.3435    -0.2729    53.9752 </r>
       <r>    -3.2975    -0.4059    53.9566 </r>
       <r>    -3.2516    -0.4480    53.9360 </r>
       <r>    -3.2056    -0.2094    53.9264 </r>
       <r>    -3.1597     0.5486    53.9516 </r>
       <r>    -3.1137     2.0021    54.0436 </r>
       <r>    -3.0678     4.1169    54.2327 </r>
       <r>    -3.0218     6.5593    54.5341 </r>
       <r>    -2.9759     8.7529    54.9362 </r>
       <r>    -2.9299    10.0907    55.3999 </r>
       <r>    -2.8840    10.2025    55.8686 </r>
       <r>    -2.8380     9.1367    56.2884 </r>
       <r>    -2.7921     7.3550    56.6263 </r>
       <r>    -2.7462     5.5315    56.8805 </r>
       <r>    -2.7002     4.2455    57.0756 </r>
       <r>    -2.6543     3.7168    57.2463 </r>
       <r>    -2.6083     3.7362    57.4180 </r>
       <r>    -2.5624     3.8370    57.5943 </r>
       <r>    -2.5164     3.6028    57.7598 </r>
       <r>    -2.4705     2.9022    57.8932 </r>
       <r>    -2.4245     1.9082    57.9808 </r>
       <r>    -2.3786     0.9270    58.0234 </r>
       <r>    -2.3326     0.1914    58.0322 </r>
       <r>    -2.2867    -0.2357    58.0214 </r>
       <r>    -2.2408    -0.4210    58.0020 </r>
       <r>    -2.1948    -0.4506    57.9813 </r>
       <r>    -2.1489    -0.3402    57.9657 </r>
       <r>    -2.1029    -0.0178    57.9649 </r>
       <r>    -2.0570     0.6160    57.9932 </r>
       <r>    -2.0110     1.5905    58.0663 </r>
       <r>    -1.9651     2.7999    58.1949 </r>
       <r>    -1.9191     4.0246    58.3798 </r>
       <r>    -1.8732     5.0307    58.6110 </r>
       <r>    -1.8272     5.6653    58.8713 </r>
       <r>    -1.7813     5.8727    59.1411 </r>
       <r>    -1.7354     5.6449    59.4004 </r>
       <r>    -1.6894     4.9904    59.6297 </r>
       <r>    -1.6435     3.9672    59.8120 </r>
       <r>    -1.5975     2.7308    59.9375 </r>
       <r>    -1.5516     1.5135    60.0070 </r>
       <r>    -1.5056     0.5294    60.0313 </r>
       <r>    -1.4597    -0.1159    60.0260 </r>
       <r>    -1.4137    -0.4324    60.0062 </r>
       <r>    -1.3678    -0.4722    59.9845 </r>
       <r>    -1.3218    -0.2482    59.9731 </r>
       <r>    -1.2759     0.2775    59.9858 </r>
       <r>    -1.2300     1.1182    60.0372 </r>
       <r>    -1.1840     2.1652    60.1367 </r>
       <r>    -1.1381     3.1679    60.2822 </r>
       <r>    -1.0921     3.8475    60.4590 </r>
       <r>    -1.0462     4.0839    60.6466 </r>
       <r>    -1.0002     4.0228    60.8315 </r>
       <r>    -0.9543     3.9953    61.0150 </r>
       <r>    -0.9083     4.2985    61.2125 </r>
       <r>    -0.8624     5.0092    61.4427 </r>
       <r>    -0.8164     5.9624    61.7166 </r>
       <r>    -0.7705     6.8757    62.0325 </r>
       <r>    -0.7245     7.4946    62.3769 </r>
       <r>    -0.6786     7.6744    62.7295 </r>
       <r>    -0.6327     7.4119    63.0700 </r>
       <r>    -0.5867     6.8677    63.3856 </r>
       <r>    -0.5408     6.3550    63.6775 </r>
       <r>    -0.4948     6.2233    63.9635 </r>
       <r>    -0.4489     6.6393    64.2685 </r>
       <r>    -0.4029     7.4050    64.6088 </r>
       <r>    -0.3570     7.9962    64.9761 </r>
       <r>    -0.3110     7.8556    65.3371 </r>
       <r>    -0.2651     6.7468    65.6471 </r>
       <r>    -0.2191     4.9045    65.8724 </r>
       <r>    -0.1732     2.8754    66.0045 </r>
       <r>    -0.1273     1.1932    66.0593 </r>
       <r>    -0.0813     0.1309    66.0654 </r>
       <r>    -0.0354    -0.3385    66.0498 </r>
       <r>     0.0106    -0.4155    66.0307 </r>
       <r>     0.0565    -0.3178    66.0161 </r>
       <r>     0.1025    -0.1907    66.0073 </r>
       <r>     0.1484    -0.0957    66.0029 </r>
       <r>     0.1944    -0.0414    66.0010 </r>
       <r>     0.2403    -0.0156    66.0003 </r>
       <r>     0.2863    -0.0052    66.0001 </r>
       <r>     0.3322    -0.0015    66.0000 </r>
       <r>     0.3781    -0.0004    66.0000 </r>
       <r>     0.4241    -0.0001    66.0000 </r>
       <r>     0.4700    -0.0000    66.0000 </r>
       <r>     0.5160    -0.0000    66.0000 </r>
       <r>     0.5619    -0.0000    66.0000 </r>
       <r>     0.6079    -0.0000    66.0000 </r>
       <r>     0.6538    -0.0000    66.0000 </r>
       <r>     0.6998    -0.0000    66.0000 </r>
       <r>     0.7457    -0.0000    66.0000 </r>
       <r>     0.7917    -0.0000    66.0000 </r>
       <r>     0.8376    -0.0000    66.0000 </r>
       <r>     0.8835    -0.0000    66.0000 </r>
       <r>     0.9295    -0.0000    66.0000 </r>
       <r>     0.9754     0.0000    66.0000 </r>
       <r>     1.0214     0.0000    66.0000 </r>
       <r>     1.0673     0.0000    66.0000 </r>
       <r>     1.1133     0.0000    66.0000 </r>
       <r>     1.1592     0.0000    66.0000 </r>
       <r>     1.2052     0.0000    66.0000 </r>
       <r>     1.2511     0.0000    66.0000 </r>
       <r>     1.2971     0.0000    66.0000 </r>
       <r>     1.3430     0.0000    66.0000 </r>
       <r>     1.3890     0.0000    66.0000 </r>
       <r>     1.4349     0.0000    66.0000 </r>
       <r>     1.4808     0.0000    66.0000 </r>
       <r>     1.5268     0.0000    66.0000 </r>
       <r>     1.5727     0.0000    66.0000 </r>
       <r>     1.6187     0.0000    66.0000 </r>
       <r>     1.6646     0.0000    66.0000 </r>
       <r>     1.7106     0.0000    66.0000 </r>
       <r>     1.7565     0.0000    66.0000 </r>
       <r>     1.8025     0.0000    66.0000 </r>
       <r>     1.8484     0.0000    66.0000 </r>
      </set>
      <set comment="spin 2">
       <r>   -11.9353     0.0000     0.0000 </r>
       <r>   -11.8893     0.0000     0.0000 </r>
       <r>   -11.8434     0.0000     0.0000 </r>
       <r>   -11.7974     0.0000     0.0000 </r>
       <r>   -11.7515     0.0000     0.0000 </r>
       <r>   -11.7056     0.0000     0.0000 </r>
       <r>   -11.6596     0.0000     0.0000 </r>
       <r>   -11.6137     0.0000     0.0000 </r>
       <r>   -11.5677     0.0000     0.0000 </r>
       <r>   -11.5218     0.0000     0.0000 </r>
       <r>   -11.4758    -0.0000    -0.0000 </r>
       <r>   -11.4299    -0.0000    -0.0000 </r>
       <r>   -11.3839    -0.0000    -0.0000 </r>
       <r>   -11.3380    -0.0000    -0.0000 </r>
       <r>   -11.2920    -0.0000    -0.0000 </r>
       <r>   -11.2461    -0.0000    -0.0000 </r>
       <r>   -11.2002    -0.0000    -0.0000 </r>
       <r>   -11.1542    -0.0000    -0.0000 </r>
       <r>   -11.1083    -0.0000    -0.0000 </r>
       <r>   -11.0623    -0.0000    -0.0000 </r>
       <r>   -11.0164    -0.0000    -0.0000 </r>
       <r>   -10.9704    -0.0000    -0.0000 </r>
       <r>   -10.9245    -0.0000    -0.0000 </r>
       <r>   -10.8785    -0.0000    -0.0000 </r>
       <r>   -10.8326    -0.0000    -0.0000 </r>
       <r>   -10.7866    -0.0000    -0.0000 </r>
       <r>   -10.7407    -0.0000    -0.0000 </r>
       <r>   -10.6948    -0.0000    -0.0000 </r>
       <r>   -10.6488    -0.0000    -0.0000 </r>
       <r>   -10.6029    -0.0000    -0.0000 </r>
       <r>   -10.5569    -0.0001    -0.0000 </r>
       <r>   -10.5110    -0.0005    -0.0000 </r>
       <r>   -10.4650    -0.0017    -0.0001 </r>
       <r>   -10.4191    -0.0054    -0.0004 </r>
       <r>   -10.3731    -0.0155    -0.0011 </r>
       <r>   -10.3272    -0.0383    -0.0028 </r>
       <r>   -10.2812    -0.0817    -0.0066 </r>
       <r>   -10.2353    -0.1470    -0.0133 </r>
       <r>   -10.1894    -0.2123    -0.0231 </r>
       <r>   -10.1434    -0.2118    -0.0328 </r>
       <r>   -10.0975    -0.0306    -0.0342 </r>
       <r>   -10.0515     0.4586    -0.0131 </r>
       <r>   -10.0056     1.3107     0.0471 </r>
       <r>    -9.9596     2.4154     0.1580 </r>
       <r>    -9.9137     3.4772     0.3178 </r>
       <r>    -9.8677     4.1229     0.5072 </r>
       <r>    -9.8218     4.0962     0.6954 </r>
       <r>    -9.7758     3.4080     0.8520 </r>
       <r>    -9.7299     2.3301     0.9591 </r>
       <r>    -9.6839     1.2360     1.0159 </r>
       <r>    -9.6380     0.4096     1.0347 </r>
       <r>    -9.5921    -0.0533     1.0322 </r>
       <r>    -9.5461    -0.2164     1.0223 </r>
       <r>    -9.5002    -0.2086     1.0127 </r>
       <r>    -9.4542    -0.1417     1.0062 </r>
       <r>    -9.4083    -0.0776     1.0026 </r>
       <r>    -9.3623    -0.0359     1.0010 </r>
       <r>    -9.3164    -0.0144     1.0003 </r>
       <r>    -9.2704    -0.0050     1.0001 </r>
       <r>    -9.2245    -0.0015     1.0000 </r>
       <r>    -9.1785    -0.0004     1.0000 </r>
       <r>    -9.1326    -0.0001     1.0000 </r>
       <r>    -9.0867    -0.0000     1.0000 </r>
       <r>    -9.0407    -0.0000     1.0000 </r>
       <r>    -8.9948    -0.0002     1.0000 </r>
       <r>    -8.9488    -0.0007     1.0000 </r>
       <r>    -8.9029    -0.0025     0.9998 </r>
       <r>    -8.8569    -0.0077     0.9995 </r>
       <r>    -8.8110    -0.0209     0.9985 </r>
       <r>    -8.7650    -0.0495     0.9963 </r>
       <r>    -8.7191    -0.1004     0.9916 </r>
       <r>    -8.6731    -0.1699     0.9838 </r>
       <r>    -8.6272    -0.2239     0.9735 </r>
       <r>    -8.5813    -0.1805     0.9653 </r>
       <r>    -8.5353     0.0855     0.9692 </r>
       <r>    -8.4894     0.6883     1.0008 </r>
       <r>    -8.4434     1.6365     1.0760 </r>
       <r>    -8.3975     2.7526     1.2025 </r>
       <r>    -8.3515     3.6916     1.3721 </r>
       <r>    -8.3056     4.0885     1.5599 </r>
       <r>    -8.2596     3.7666     1.7330 </r>
       <r>    -8.2137     2.8653     1.8646 </r>
       <r>    -8.1677     1.7961     1.9472 </r>
       <r>    -8.1218     1.0487     1.9953 </r>
       <r>    -8.0759     0.9629     2.0396 </r>
       <r>    -8.0299     1.5755     2.1120 </r>
       <r>    -7.9840     2.6030     2.2316 </r>
       <r>    -7.9380     3.5637     2.3953 </r>
       <r>    -7.8921     3.9969     2.5790 </r>
       <r>    -7.8461     3.6801     2.7480 </r>
       <r>    -7.8002     2.7281     2.8734 </r>
       <r>    -7.7542     1.5230     2.9434 </r>
       <r>    -7.7083     0.5350     2.9679 </r>
       <r>    -7.6623     0.1511     2.9749 </r>
       <r>    -7.6164     0.5845     3.0017 </r>
       <r>    -7.5704     1.8552     3.0870 </r>
       <r>    -7.5245     3.7966     3.2614 </r>
       <r>    -7.4786     6.0668     3.5402 </r>
       <r>    -7.4326     8.1880     3.9164 </r>
       <r>    -7.3867     9.6456     4.3595 </r>
       <r>    -7.3407    10.0542     4.8215 </r>
       <r>    -7.2948     9.3360     5.2504 </r>
       <r>    -7.2488     7.8037     5.6090 </r>
       <r>    -7.2029     6.0474     5.8868 </r>
       <r>    -7.1569     4.6541     6.1007 </r>
       <r>    -7.1110     3.9354     6.2815 </r>
       <r>    -7.0650     3.8611     6.4589 </r>
       <r>    -7.0191     4.2295     6.6532 </r>
       <r>    -6.9732     4.9053     6.8786 </r>
       <r>    -6.9272     5.9152     7.1504 </r>
       <r>    -6.8813     7.3474     7.4879 </r>
       <r>    -6.8353     9.1826     7.9098 </r>
       <r>    -6.7894    11.2161     8.4252 </r>
       <r>    -6.7434    13.1168     9.0278 </r>
       <r>    -6.6975    14.5404     9.6959 </r>
       <r>    -6.6515    15.1961    10.3941 </r>
       <r>    -6.6056    14.8591    11.0768 </r>
       <r>    -6.5596    13.4114    11.6930 </r>
       <r>    -6.5137    10.9658    12.1968 </r>
       <r>    -6.4678     8.0014    12.5645 </r>
       <r>    -6.4218     5.3512    12.8103 </r>
       <r>    -6.3759     3.9497    12.9918 </r>
       <r>    -6.3299     4.4431    13.1959 </r>
       <r>    -6.2840     6.8900    13.5125 </r>
       <r>    -6.2380    10.7259    14.0053 </r>
       <r>    -6.1921    14.9898    14.6940 </r>
       <r>    -6.1461    18.6699    15.5518 </r>
       <r>    -6.1002    21.0121    16.5172 </r>
       <r>    -6.0542    21.7008    17.5143 </r>
       <r>    -6.0083    20.8892    18.4741 </r>
       <r>    -5.9624    19.0892    19.3511 </r>
       <r>    -5.9164    16.9630    20.1305 </r>
       <r>    -5.8705    15.0919    20.8239 </r>
       <r>    -5.8245    13.8086    21.4584 </r>
       <r>    -5.7786    13.1560    22.0628 </r>
       <r>    -5.7326    12.9708    22.6588 </r>
       <r>    -5.6867    13.0319    23.2575 </r>
       <r>    -5.6407    13.1830    23.8632 </r>
       <r>    -5.5948    13.3578    24.4770 </r>
       <r>    -5.5488    13.5021    25.0973 </r>
       <r>    -5.5029    13.4719    25.7163 </r>
       <r>    -5.4569    13.0313    26.3150 </r>
       <r>    -5.4110    12.0136    26.8670 </r>
       <r>    -5.3651    10.5500    27.3517 </r>
       <r>    -5.3191     9.1423    27.7718 </r>
       <r>    -5.2732     8.4460    28.1598 </r>
       <r>    -5.2272     8.8787    28.5678 </r>
       <r>    -5.1813    10.3498    29.0433 </r>
       <r>    -5.1353    12.3163    29.6092 </r>
       <r>    -5.0894    14.0956    30.2568 </r>
       <r>    -5.0434    15.1857    30.9545 </r>
       <r>    -4.9975    15.4010    31.6621 </r>
       <r>    -4.9515    14.8295    32.3435 </r>
       <r>    -4.9056    13.7384    32.9747 </r>
       <r>    -4.8597    12.5222    33.5501 </r>
       <r>    -4.8137    11.6746    34.0864 </r>
       <r>    -4.7678    11.6909    34.6236 </r>
       <r>    -4.7218    12.8638    35.2146 </r>
       <r>    -4.6759    15.0685    35.9070 </r>
       <r>    -4.6299    17.7259    36.7214 </r>
       <r>    -4.5840    20.0509    37.6426 </r>
       <r>    -4.5380    21.4537    38.6283 </r>
       <r>    -4.4921    21.8063    39.6302 </r>
       <r>    -4.4461    21.3846    40.6128 </r>
       <r>    -4.4002    20.5762    41.5582 </r>
       <r>    -4.3543    19.6173    42.4595 </r>
       <r>    -4.3083    18.5354    43.3111 </r>
       <r>    -4.2624    17.2706    44.1046 </r>
       <r>    -4.2164    15.8401    44.8324 </r>
       <r>    -4.1705    14.4441    45.4961 </r>
       <r>    -4.1245    13.4624    46.1146 </r>
       <r>    -4.0786    13.3125    46.7262 </r>
       <r>    -4.0326    14.1985    47.3786 </r>
       <r>    -3.9867    15.8959    48.1090 </r>
       <r>    -3.9407    17.7638    48.9251 </r>
       <r>    -3.8948    19.0309    49.7995 </r>
       <r>    -3.8489    19.1662    50.6801 </r>
       <r>    -3.8029    18.0718    51.5104 </r>
       <r>    -3.7570    16.0007    52.2456 </r>
       <r>    -3.7110    13.3332    52.8582 </r>
       <r>    -3.6651    10.4099    53.3365 </r>
       <r>    -3.6191     7.4994    53.6811 </r>
       <r>    -3.5732     4.8361    53.9033 </r>
       <r>    -3.5272     2.6320    54.0242 </r>
       <r>    -3.4813     1.0333    54.0717 </r>
       <r>    -3.4353     0.0670    54.0747 </r>
       <r>    -3.3894    -0.3682    54.0578 </r>
       <r>    -3.3435    -0.4515    54.0371 </r>
       <r>    -3.2975    -0.3664    54.0202 </r>
       <r>    -3.2516    -0.2474    54.0089 </r>
       <r>    -3.2056    -0.1680    54.0012 </r>
       <r>    -3.1597    -0.1562    53.9940 </r>
       <r>    -3.1137    -0.2139    53.9841 </r>
       <r>    -3.0678    -0.3159    53.9696 </r>
       <r>    -3.0218    -0.3885    53.9518 </r>
       <r>    -2.9759    -0.2864    53.9386 </r>
       <r>    -2.9299     0.1931    53.9475 </r>
       <r>    -2.8840     1.2264    54.0038 </r>
       <r>    -2.8380     2.8271    54.1337 </r>
       <r>    -2.7921     4.7423    54.3516 </r>
       <r>    -2.7462     6.4945    54.6500 </r>
       <r>    -2.7002     7.5996    54.9992 </r>
       <r>    -2.6543     7.8466    55.3597 </r>
       <r>    -2.6083     7.4351    55.7013 </r>
       <r>    -2.5624     6.8455    56.0158 </r>
       <r>    -2.5164     6.5208    56.3154 </r>
       <r>    -2.4705     6.5888    56.6182 </r>
       <r>    -2.4245     6.8140    56.9312 </r>
       <r>    -2.3786     6.7875    57.2431 </r>
       <r>    -2.3326     6.2000    57.5280 </r>
       <r>    -2.2867     5.0194    57.7586 </r>
       <r>    -2.2408     3.4877    57.9188 </r>
       <r>    -2.1948     1.9706    58.0094 </r>
       <r>    -2.1489     0.7717    58.0448 </r>
       <r>    -2.1029     0.0161    58.0456 </r>
       <r>    -2.0570    -0.3492    58.0295 </r>
       <r>    -2.0110    -0.4665    58.0081 </r>
       <r>    -1.9651    -0.4575    57.9871 </r>
       <r>    -1.9191    -0.3498    57.9710 </r>
       <r>    -1.8732    -0.0713    57.9677 </r>
       <r>    -1.8272     0.4858    57.9900 </r>
       <r>    -1.7813     1.3566    58.0524 </r>
       <r>    -1.7354     2.4165    58.1634 </r>
       <r>    -1.6894     3.3965    58.3194 </r>
       <r>    -1.6435     4.0263    58.5044 </r>
       <r>    -1.5975     4.2178    58.6982 </r>
       <r>    -1.5516     4.1308    58.8880 </r>
       <r>    -1.5056     4.0376    59.0735 </r>
       <r>    -1.4597     4.0857    59.2612 </r>
       <r>    -1.4137     4.1633    59.4525 </r>
       <r>    -1.3678     3.9947    59.6361 </r>
       <r>    -1.3218     3.3844    59.7916 </r>
       <r>    -1.2759     2.4049    59.9021 </r>
       <r>    -1.2300     1.3873    59.9658 </r>
       <r>    -1.1840     0.7417    59.9999 </r>
       <r>    -1.1381     0.7403    60.0339 </r>
       <r>    -1.0921     1.3815    60.0974 </r>
       <r>    -1.0462     2.3897    60.2072 </r>
       <r>    -1.0002     3.3489    60.3610 </r>
       <r>    -0.9543     3.9190    60.5411 </r>
       <r>    -0.9083     4.0169    60.7257 </r>
       <r>    -0.8624     3.8413    60.9021 </r>
       <r>    -0.8164     3.7162    61.0729 </r>
       <r>    -0.7705     3.8830    61.2513 </r>
       <r>    -0.7245     4.4037    61.4536 </r>
       <r>    -0.6786     5.2130    61.6931 </r>
       <r>    -0.6327     6.1969    61.9779 </r>
       <r>    -0.5867     7.1839    62.3079 </r>
       <r>    -0.5408     7.8941    62.6706 </r>
       <r>    -0.4948     8.0011    63.0382 </r>
       <r>    -0.4489     7.3554    63.3762 </r>
       <r>    -0.4029     6.2025    63.6612 </r>
       <r>    -0.3570     5.1545    63.8980 </r>
       <r>    -0.3110     4.8472    64.1207 </r>
       <r>    -0.2651     5.5003    64.3734 </r>
       <r>    -0.2191     6.7155    64.6820 </r>
       <r>    -0.1732     7.6900    65.0353 </r>
       <r>    -0.1273     7.7088    65.3895 </r>
       <r>    -0.0813     6.5654    65.6911 </r>
       <r>    -0.0354     4.6306    65.9039 </r>
       <r>     0.0106     2.5675    66.0218 </r>
       <r>     0.0565     0.9396    66.0650 </r>
       <r>     0.1025    -0.0202    66.0641 </r>
       <r>     0.1484    -0.3938    66.0460 </r>
       <r>     0.1944    -0.4120    66.0271 </r>
       <r>     0.2403    -0.2928    66.0136 </r>
       <r>     0.2863    -0.1664    66.0060 </r>
       <r>     0.3322    -0.0797    66.0023 </r>
       <r>     0.3781    -0.0330    66.0008 </r>
       <r>     0.4241    -0.0119    66.0002 </r>
       <r>     0.4700    -0.0038    66.0001 </r>
       <r>     0.5160    -0.0011    66.0000 </r>
       <r>     0.5619    -0.0003    66.0000 </r>
       <r>     0.6079    -0.0001    66.0000 </r>
       <r>     0.6538    -0.0000    66.0000 </r>
       <r>     0.6998    -0.0000    66.0000 </r>
       <r>     0.7457    -0.0000    66.0000 </r>
       <r>     0.7917    -0.0000    66.0000 </r>
       <r>     0.8376    -0.0000    66.0000 </r>
       <r>     0.8835    -0.0000    66.0000 </r>
       <r>     0.9295    -0.0000    66.0000 </r>
       <r>     0.9754    -0.0000    66.0000 </r>
       <r>     1.0214    -0.0000    66.0000 </r>
       <r>     1.0673    -0.0000    66.0000 </r>
       <r>     1.1133    -0.0000    66.0000 </r>
       <r>     1.1592     0.0000    66.0000 </r>
       <r>     1.2052     0.0000    66.0000 </r>
       <r>     1.2511     0.0000    66.0000 </r>
       <r>     1.2971     0.0000    66.0000 </r>
       <r>     1.3430     0.0000    66.0000 </r>
       <r>     1.3890     0.0000    66.0000 </r>
       <r>     1.4349     0.0000    66.0000 </r>
       <r>     1.4808     0.0000    66.0000 </r>
       <r>     1.5268     0.0000    66.0000 </r>
       <r>     1.5727     0.0000    66.0000 </r>
       <r>     1.6187     0.0000    66.0000 </r>
       <r>     1.6646     0.0000    66.0000 </r>
       <r>     1.7106     0.0000    66.0000 </r>
       <r>     1.7565     0.0000    66.0000 </r>
       <r>     1.8025     0.0000    66.0000 </r>
       <r>     1.8484     0.0000    66.0000 </r>
      </set>
     </set>
    </array>
   </total>
  </dos>
 </calculation>
 <structure name="finalpos" >
  <crystal>
   <varray name="basis" >
    <v>      23.40337035       0.00000000       0.00000000 </v>
    <v>       0.00000000      25.71531747       0.00000000 </v>
    <v>       0.00000000       0.00000000      21.53038177 </v>
   </varray>
   <i name="volume">  12957.52413134 </i>
   <varray name="rec_basis" >
    <v>       0.04272889       0.00000000       0.00000000 </v>
    <v>       0.00000000       0.03888733       0.00000000 </v>
    <v>       0.00000000       0.00000000       0.04644599 </v>
   </varray>
  </crystal>
  <varray name="positions" >
   <v>       0.45401162       0.51202086       0.53003502 </v>
   <v>       0.45587649       0.59664432       0.48944712 </v>
   <v>       0.49552780       0.43004841       0.52586152 </v>
   <v>       0.49901596       0.48052882       0.43779775 </v>
   <v>       0.41515613       0.52742702       0.43302400 </v>
   <v>       0.54031737       0.54651558       0.49632278 </v>
   <v>       0.54090619       0.49626541       0.59473396 </v>
   <v>       0.40181826       0.43782581       0.47328500 </v>
   <v>       0.59153375       0.46110349       0.49155613 </v>
   <v>       0.50278283       0.57149984       0.39229451 </v>
  </varray>
 </structure>
</modeling>
