unknown system                          
            1
    23.403370    0.000000    0.000000
     0.000000   25.715317    0.000000
     0.000000    0.000000   21.530382
   Ni   Pd
     6     4
Direct configuration=     1
   0.45392004  0.51206455  0.52989840
   0.45576752  0.59662057  0.48939232
   0.49558713  0.43002940  0.52588263
   0.49901595  0.48056089  0.43777600
   0.41522903  0.52746999  0.43313813
   0.54031603  0.54642476  0.49626220
   0.54092808  0.49624215  0.59468388
   0.40196363  0.43785193  0.47338349
   0.59137088  0.46110319  0.49156471
   0.50284813  0.57151213  0.39237605
Direct configuration=     2
   0.45396545  0.51204289  0.52996614
   0.45582156  0.59663234  0.48941949
   0.49555771  0.43003883  0.52587216
   0.49901595  0.48054498  0.43778679
   0.41519288  0.52744868  0.43308154
   0.54031669  0.54646979  0.49629224
   0.54091723  0.49625368  0.59470871
   0.40189155  0.43783898  0.47333465
   0.59145164  0.46110334  0.49156046
   0.50281575  0.57150604  0.39233562
Direct configuration=     3
   0.45401162  0.51202086  0.53003502
   0.45587649  0.59664432  0.48944712
   0.49552780  0.43004841  0.52586152
   0.49901596  0.48052882  0.43779775
   0.41515613  0.52742702  0.43302400
   0.54031737  0.54651558  0.49632278
   0.54090619  0.49626541  0.59473396
   0.40181826  0.43782581  0.47328500
   0.59153375  0.46110349  0.49155613
   0.50278283  0.57149984  0.39229451
