  13  13   0   0
  0.1115444E+04  0.2450977E-08  0.2428316E-08  0.2436389E-08  0.5000000E-15
   1.0000000000000000E-004
  CAR 
 unknown system                          
      2.31240783    -12.45415365  301     -3.92757994      1.00000000
    -12.454  0.0000E+00  0.0000E+00  0.0000E+00  0.0000E+00
    -12.405  0.0000E+00  0.0000E+00  0.0000E+00  0.0000E+00
    -12.356  0.0000E+00  0.0000E+00  0.0000E+00  0.0000E+00
    -12.306  0.0000E+00  0.0000E+00  0.0000E+00  0.0000E+00
    -12.257  0.0000E+00  0.0000E+00  0.0000E+00  0.0000E+00
    -12.208  0.0000E+00  0.0000E+00  0.0000E+00  0.0000E+00
    -12.159  0.0000E+00  0.0000E+00  0.0000E+00  0.0000E+00
    -12.110  0.0000E+00  0.0000E+00  0.0000E+00  0.0000E+00
    -12.060 -0.4482E-29 -0.4473E-29 -0.2206E-30 -0.2201E-30
    -12.011 -0.2085E-27 -0.2081E-27 -0.1049E-28 -0.1046E-28
    -11.962 -0.8748E-26 -0.8731E-26 -0.4411E-27 -0.4402E-27
    -11.913 -0.3246E-24 -0.3240E-24 -0.1642E-25 -0.1639E-25
    -11.863 -0.1066E-22 -0.1064E-22 -0.5409E-24 -0.5399E-24
    -11.814 -0.3093E-21 -0.3088E-21 -0.1577E-22 -0.1574E-22
    -11.765 -0.7940E-20 -0.7927E-20 -0.4066E-21 -0.4059E-21
    -11.716 -0.1802E-18 -0.1799E-18 -0.9277E-20 -0.9261E-20
    -11.667 -0.3615E-17 -0.3609E-17 -0.1872E-18 -0.1869E-18
    -11.617 -0.6183E-16 -0.6173E-16 -0.3230E-17 -0.3225E-17
    -11.568 -0.9721E-15 -0.9706E-15 -0.5108E-16 -0.5100E-16
    -11.519 -0.1340E-13 -0.1338E-13 -0.7105E-15 -0.7096E-15
    -11.470 -0.1630E-12 -0.1628E-12 -0.8735E-14 -0.8724E-14
    -11.420 -0.1750E-11 -0.1748E-11 -0.9487E-13 -0.9475E-13
    -11.371 -0.1655E-10 -0.1654E-10 -0.9097E-12 -0.9087E-12
    -11.322 -0.1379E-09 -0.1378E-09 -0.7700E-11 -0.7691E-11
    -11.273 -0.1012E-08 -0.1011E-08 -0.5749E-10 -0.5743E-10
    -11.224 -0.6520E-08 -0.6513E-08 -0.3784E-09 -0.3780E-09
    -11.174 -0.3688E-07 -0.3685E-07 -0.2194E-08 -0.2192E-08
    -11.125 -0.1828E-06 -0.1826E-06 -0.1119E-07 -0.1118E-07
    -11.076 -0.7913E-06 -0.7907E-06 -0.5014E-07 -0.5010E-07
    -11.027 -0.2983E-05 -0.2981E-05 -0.1970E-06 -0.1968E-06
    -10.977 -0.9746E-05 -0.9740E-05 -0.6767E-06 -0.6763E-06
    -10.928 -0.2737E-04 -0.2736E-04 -0.2024E-05 -0.2023E-05
    -10.879 -0.6530E-04 -0.6527E-04 -0.5238E-05 -0.5236E-05
    -10.830 -0.1294E-03 -0.1293E-03 -0.1161E-04 -0.1160E-04
    -10.781 -0.2026E-03 -0.2026E-03 -0.2158E-04 -0.2157E-04
    -10.731 -0.2171E-03 -0.2171E-03 -0.3227E-04 -0.3226E-04
    -10.682 -0.3973E-04 -0.3990E-04 -0.3422E-04 -0.3423E-04
    -10.633  0.4853E-03  0.4849E-03 -0.1034E-04 -0.1036E-04
    -10.584  0.1422E-02  0.1422E-02  0.5967E-04  0.5962E-04
    -10.535  0.2618E-02  0.2617E-02  0.1885E-03  0.1884E-03
    -10.485  0.3688E-02  0.3687E-02  0.3701E-03  0.3699E-03
    -10.436  0.4189E-02  0.4189E-02  0.5762E-03  0.5761E-03
    -10.387  0.3891E-02  0.3891E-02  0.7677E-03  0.7677E-03
    -10.338  0.2933E-02  0.2933E-02  0.9121E-03  0.9120E-03
    -10.288  0.1726E-02  0.1727E-02  0.9971E-03  0.9970E-03
    -10.239  0.6948E-03  0.6953E-03  0.1031E-02  0.1031E-02
    -10.190  0.5997E-04  0.6020E-04  0.1034E-02  0.1034E-02
    -10.141 -0.1955E-03 -0.1954E-03  0.1025E-02  0.1025E-02
    -10.092 -0.2166E-03 -0.2166E-03  0.1014E-02  0.1014E-02
    -10.042 -0.1495E-03 -0.1495E-03  0.1007E-02  0.1007E-02
     -9.993 -0.7979E-04 -0.7982E-04  0.1003E-02  0.1003E-02
     -9.944 -0.3503E-04 -0.3505E-04  0.1001E-02  0.1001E-02
     -9.895 -0.1300E-04 -0.1301E-04  0.1000E-02  0.1000E-02
     -9.845 -0.4140E-05 -0.4142E-05  0.1000E-02  0.1000E-02
     -9.796 -0.1140E-05 -0.1141E-05  0.1000E-02  0.1000E-02
     -9.747 -0.2730E-06 -0.2732E-06  0.1000E-02  0.1000E-02
     -9.698 -0.5708E-07 -0.5713E-07  0.1000E-02  0.1000E-02
     -9.649 -0.1053E-07 -0.1054E-07  0.1000E-02  0.1000E-02
     -9.599 -0.2340E-08 -0.2342E-08  0.1000E-02  0.1000E-02
     -9.550 -0.4663E-08 -0.4661E-08  0.1000E-02  0.1000E-02
     -9.501 -0.2603E-07 -0.2602E-07  0.1000E-02  0.1000E-02
     -9.452 -0.1341E-06 -0.1341E-06  0.1000E-02  0.1000E-02
     -9.402 -0.6066E-06 -0.6063E-06  0.1000E-02  0.1000E-02
     -9.353 -0.2399E-05 -0.2398E-05  0.9998E-03  0.9998E-03
     -9.304 -0.8271E-05 -0.8268E-05  0.9994E-03  0.9994E-03
     -9.255 -0.2473E-04 -0.2472E-04  0.9982E-03  0.9982E-03
     -9.206 -0.6363E-04 -0.6361E-04  0.9951E-03  0.9951E-03
     -9.156 -0.1389E-03 -0.1389E-03  0.9882E-03  0.9883E-03
     -9.107 -0.2507E-03 -0.2507E-03  0.9759E-03  0.9759E-03
     -9.058 -0.3513E-03 -0.3513E-03  0.9586E-03  0.9586E-03
     -9.009 -0.3061E-03 -0.3062E-03  0.9435E-03  0.9436E-03
     -8.959  0.1086E-03  0.1084E-03  0.9489E-03  0.9489E-03
     -8.910  0.1121E-02  0.1121E-02  0.1004E-02  0.1004E-02
     -8.861  0.2791E-02  0.2790E-02  0.1141E-02  0.1141E-02
     -8.812  0.4846E-02  0.4845E-02  0.1380E-02  0.1380E-02
     -8.763  0.6684E-02  0.6684E-02  0.1709E-02  0.1709E-02
     -8.713  0.7619E-02  0.7619E-02  0.2084E-02  0.2084E-02
     -8.664  0.7251E-02  0.7251E-02  0.2441E-02  0.2441E-02
     -8.615  0.5720E-02  0.5721E-02  0.2722E-02  0.2722E-02
     -8.566  0.3660E-02  0.3661E-02  0.2903E-02  0.2903E-02
     -8.516  0.1883E-02  0.1883E-02  0.2995E-02  0.2995E-02
     -8.467  0.1004E-02  0.1004E-02  0.3045E-02  0.3045E-02
     -8.418  0.1201E-02  0.1201E-02  0.3104E-02  0.3104E-02
     -8.369  0.2169E-02  0.2168E-02  0.3211E-02  0.3210E-02
     -8.320  0.3283E-02  0.3282E-02  0.3372E-02  0.3372E-02
     -8.270  0.3898E-02  0.3898E-02  0.3564E-02  0.3564E-02
     -8.221  0.3670E-02  0.3670E-02  0.3745E-02  0.3745E-02
     -8.172  0.2714E-02  0.2714E-02  0.3878E-02  0.3878E-02
     -8.123  0.1519E-02  0.1519E-02  0.3953E-02  0.3953E-02
     -8.073  0.6748E-03  0.6749E-03  0.3986E-02  0.3986E-02
     -8.024  0.5899E-03  0.5896E-03  0.4015E-02  0.4015E-02
     -7.975  0.1346E-02  0.1345E-02  0.4081E-02  0.4081E-02
     -7.926  0.2701E-02  0.2701E-02  0.4214E-02  0.4214E-02
     -7.877  0.4213E-02  0.4213E-02  0.4422E-02  0.4422E-02
     -7.827  0.5423E-02  0.5423E-02  0.4689E-02  0.4689E-02
     -7.778  0.6041E-02  0.6041E-02  0.4986E-02  0.4986E-02
     -7.729  0.6056E-02  0.6056E-02  0.5284E-02  0.5284E-02
     -7.680  0.5737E-02  0.5738E-02  0.5567E-02  0.5567E-02
     -7.630  0.5504E-02  0.5504E-02  0.5838E-02  0.5837E-02
     -7.581  0.5705E-02  0.5705E-02  0.6118E-02  0.6118E-02
     -7.532  0.6423E-02  0.6423E-02  0.6435E-02  0.6434E-02
     -7.483  0.7479E-02  0.7479E-02  0.6803E-02  0.6803E-02
     -7.434  0.8656E-02  0.8656E-02  0.7229E-02  0.7229E-02
     -7.384  0.9930E-02  0.9930E-02  0.7717E-02  0.7717E-02
     -7.335  0.1145E-01  0.1145E-01  0.8281E-02  0.8281E-02
     -7.286  0.1325E-01  0.1325E-01  0.8933E-02  0.8933E-02
     -7.237  0.1509E-01  0.1508E-01  0.9676E-02  0.9676E-02
     -7.187  0.1644E-01  0.1644E-01  0.1049E-01  0.1048E-01
     -7.138  0.1690E-01  0.1690E-01  0.1132E-01  0.1132E-01
     -7.089  0.1643E-01  0.1643E-01  0.1213E-01  0.1213E-01
     -7.040  0.1549E-01  0.1549E-01  0.1289E-01  0.1289E-01
     -6.991  0.1481E-01  0.1481E-01  0.1362E-01  0.1362E-01
     -6.941  0.1502E-01  0.1502E-01  0.1436E-01  0.1436E-01
     -6.892  0.1623E-01  0.1623E-01  0.1516E-01  0.1516E-01
     -6.843  0.1801E-01  0.1801E-01  0.1604E-01  0.1604E-01
     -6.794  0.1967E-01  0.1967E-01  0.1701E-01  0.1701E-01
     -6.744  0.2062E-01  0.2062E-01  0.1803E-01  0.1803E-01
     -6.695  0.2059E-01  0.2059E-01  0.1904E-01  0.1904E-01
     -6.646  0.1962E-01  0.1962E-01  0.2000E-01  0.2000E-01
     -6.597  0.1805E-01  0.1805E-01  0.2089E-01  0.2089E-01
     -6.548  0.1648E-01  0.1648E-01  0.2170E-01  0.2170E-01
     -6.498  0.1563E-01  0.1563E-01  0.2247E-01  0.2247E-01
     -6.449  0.1593E-01  0.1593E-01  0.2326E-01  0.2326E-01
     -6.400  0.1732E-01  0.1732E-01  0.2411E-01  0.2411E-01
     -6.351  0.1946E-01  0.1946E-01  0.2507E-01  0.2507E-01
     -6.301  0.2201E-01  0.2200E-01  0.2615E-01  0.2615E-01
     -6.252  0.2477E-01  0.2477E-01  0.2737E-01  0.2737E-01
     -6.203  0.2758E-01  0.2758E-01  0.2873E-01  0.2873E-01
     -6.154  0.3007E-01  0.3007E-01  0.3021E-01  0.3021E-01
     -6.105  0.3173E-01  0.3173E-01  0.3177E-01  0.3177E-01
     -6.055  0.3224E-01  0.3224E-01  0.3336E-01  0.3336E-01
     -6.006  0.3172E-01  0.3172E-01  0.3492E-01  0.3492E-01
     -5.957  0.3070E-01  0.3070E-01  0.3643E-01  0.3643E-01
     -5.908  0.2988E-01  0.2989E-01  0.3790E-01  0.3790E-01
     -5.858  0.2981E-01  0.2981E-01  0.3937E-01  0.3937E-01
     -5.809  0.3066E-01  0.3066E-01  0.4088E-01  0.4088E-01
     -5.760  0.3228E-01  0.3228E-01  0.4247E-01  0.4247E-01
     -5.711  0.3437E-01  0.3437E-01  0.4416E-01  0.4416E-01
     -5.662  0.3655E-01  0.3655E-01  0.4596E-01  0.4596E-01
     -5.612  0.3844E-01  0.3844E-01  0.4785E-01  0.4785E-01
     -5.563  0.3979E-01  0.3979E-01  0.4981E-01  0.4981E-01
     -5.514  0.4065E-01  0.4065E-01  0.5181E-01  0.5181E-01
     -5.465  0.4136E-01  0.4136E-01  0.5384E-01  0.5384E-01
     -5.415  0.4228E-01  0.4228E-01  0.5593E-01  0.5592E-01
     -5.366  0.4338E-01  0.4338E-01  0.5806E-01  0.5806E-01
     -5.317  0.4401E-01  0.4401E-01  0.6023E-01  0.6023E-01
     -5.268  0.4317E-01  0.4317E-01  0.6235E-01  0.6235E-01
     -5.219  0.4006E-01  0.4006E-01  0.6432E-01  0.6432E-01
     -5.169  0.3450E-01  0.3450E-01  0.6602E-01  0.6602E-01
     -5.120  0.2709E-01  0.2709E-01  0.6736E-01  0.6735E-01
     -5.071  0.1897E-01  0.1897E-01  0.6829E-01  0.6829E-01
     -5.022  0.1142E-01  0.1142E-01  0.6885E-01  0.6885E-01
     -4.972  0.5436E-02  0.5437E-02  0.6912E-01  0.6912E-01
     -4.923  0.1461E-02  0.1462E-02  0.6919E-01  0.6919E-01
     -4.874 -0.6365E-03 -0.6362E-03  0.6916E-01  0.6916E-01
     -4.825 -0.1352E-02 -0.1352E-02  0.6909E-01  0.6909E-01
     -4.776 -0.1219E-02 -0.1220E-02  0.6903E-01  0.6903E-01
     -4.726 -0.5847E-03 -0.5851E-03  0.6900E-01  0.6900E-01
     -4.677  0.4133E-03  0.4126E-03  0.6902E-01  0.6902E-01
     -4.628  0.1671E-02  0.1670E-02  0.6911E-01  0.6911E-01
     -4.579  0.2936E-02  0.2935E-02  0.6925E-01  0.6925E-01
     -4.529  0.3805E-02  0.3804E-02  0.6944E-01  0.6944E-01
     -4.480  0.3942E-02  0.3942E-02  0.6963E-01  0.6963E-01
     -4.431  0.3351E-02  0.3351E-02  0.6980E-01  0.6980E-01
     -4.382  0.2446E-02  0.2446E-02  0.6992E-01  0.6992E-01
     -4.333  0.1819E-02  0.1819E-02  0.7001E-01  0.7001E-01
     -4.283  0.1864E-02  0.1864E-02  0.7010E-01  0.7010E-01
     -4.234  0.2533E-02  0.2533E-02  0.7022E-01  0.7022E-01
     -4.185  0.3419E-02  0.3418E-02  0.7039E-01  0.7039E-01
     -4.136  0.4082E-02  0.4081E-02  0.7059E-01  0.7059E-01
     -4.086  0.4359E-02  0.4358E-02  0.7081E-01  0.7081E-01
     -4.037  0.4383E-02  0.4381E-02  0.7102E-01  0.7102E-01
     -3.988  0.4358E-02  0.4357E-02  0.7124E-01  0.7124E-01
     -3.939  0.4353E-02  0.4353E-02  0.7145E-01  0.7145E-01
     -3.890  0.4315E-02  0.4315E-02  0.7166E-01  0.7166E-01
     -3.840  0.4231E-02  0.4232E-02  0.7187E-01  0.7187E-01
     -3.791  0.4182E-02  0.4184E-02  0.7208E-01  0.7208E-01
     -3.742  0.4198E-02  0.4200E-02  0.7228E-01  0.7228E-01
     -3.693  0.4140E-02  0.4141E-02  0.7249E-01  0.7249E-01
     -3.643  0.3815E-02  0.3816E-02  0.7268E-01  0.7268E-01
     -3.594  0.3237E-02  0.3237E-02  0.7284E-01  0.7284E-01
     -3.545  0.2705E-02  0.2705E-02  0.7297E-01  0.7297E-01
     -3.496  0.2583E-02  0.2583E-02  0.7310E-01  0.7310E-01
     -3.447  0.2951E-02  0.2951E-02  0.7324E-01  0.7324E-01
     -3.397  0.3491E-02  0.3490E-02  0.7341E-01  0.7341E-01
     -3.348  0.3738E-02  0.3738E-02  0.7360E-01  0.7360E-01
     -3.299  0.3490E-02  0.3490E-02  0.7377E-01  0.7377E-01
     -3.250  0.2987E-02  0.2987E-02  0.7392E-01  0.7392E-01
     -3.200  0.2704E-02  0.2704E-02  0.7405E-01  0.7405E-01
     -3.151  0.2930E-02  0.2929E-02  0.7419E-01  0.7419E-01
     -3.102  0.3505E-02  0.3504E-02  0.7437E-01  0.7437E-01
     -3.053  0.3940E-02  0.3940E-02  0.7456E-01  0.7456E-01
     -3.004  0.3799E-02  0.3799E-02  0.7475E-01  0.7475E-01
     -2.954  0.3011E-02  0.3013E-02  0.7489E-01  0.7489E-01
     -2.905  0.1882E-02  0.1884E-02  0.7499E-01  0.7499E-01
     -2.856  0.8314E-03  0.8327E-03  0.7503E-01  0.7503E-01
     -2.807  0.1302E-03  0.1309E-03  0.7503E-01  0.7503E-01
     -2.757 -0.1949E-03 -0.1947E-03  0.7503E-01  0.7503E-01
     -2.708 -0.2778E-03 -0.2777E-03  0.7501E-01  0.7501E-01
     -2.659 -0.2768E-03 -0.2768E-03  0.7500E-01  0.7500E-01
     -2.610 -0.2819E-03 -0.2818E-03  0.7498E-01  0.7498E-01
     -2.561 -0.2805E-03 -0.2806E-03  0.7497E-01  0.7497E-01
     -2.511 -0.1652E-03 -0.1656E-03  0.7496E-01  0.7496E-01
     -2.462  0.2173E-03  0.2160E-03  0.7497E-01  0.7497E-01
     -2.413  0.9628E-03  0.9607E-03  0.7502E-01  0.7502E-01
     -2.364  0.1999E-02  0.1997E-02  0.7512E-01  0.7512E-01
     -2.314  0.3078E-02  0.3075E-02  0.7527E-01  0.7527E-01
     -2.265  0.3933E-02  0.3931E-02  0.7546E-01  0.7546E-01
     -2.216  0.4519E-02  0.4517E-02  0.7569E-01  0.7569E-01
     -2.167  0.5068E-02  0.5065E-02  0.7594E-01  0.7593E-01
     -2.118  0.5853E-02  0.5849E-02  0.7622E-01  0.7622E-01
     -2.068  0.6831E-02  0.6827E-02  0.7656E-01  0.7656E-01
     -2.019  0.7547E-02  0.7544E-02  0.7693E-01  0.7693E-01
     -1.970  0.7441E-02  0.7442E-02  0.7730E-01  0.7730E-01
     -1.921  0.6338E-02  0.6343E-02  0.7761E-01  0.7761E-01
     -1.871  0.4667E-02  0.4673E-02  0.7784E-01  0.7784E-01
     -1.822  0.3213E-02  0.3216E-02  0.7800E-01  0.7800E-01
     -1.773  0.2613E-02  0.2614E-02  0.7813E-01  0.7813E-01
     -1.724  0.2997E-02  0.2995E-02  0.7827E-01  0.7827E-01
     -1.675  0.4005E-02  0.4002E-02  0.7847E-01  0.7847E-01
     -1.625  0.5109E-02  0.5107E-02  0.7872E-01  0.7872E-01
     -1.576  0.5939E-02  0.5938E-02  0.7901E-01  0.7901E-01
     -1.527  0.6393E-02  0.6391E-02  0.7933E-01  0.7933E-01
     -1.478  0.6544E-02  0.6542E-02  0.7965E-01  0.7965E-01
     -1.428  0.6498E-02  0.6495E-02  0.7997E-01  0.7997E-01
     -1.379  0.6333E-02  0.6331E-02  0.8028E-01  0.8028E-01
     -1.330  0.6117E-02  0.6117E-02  0.8058E-01  0.8058E-01
     -1.281  0.5940E-02  0.5941E-02  0.8088E-01  0.8088E-01
     -1.232  0.5886E-02  0.5888E-02  0.8117E-01  0.8116E-01
     -1.182  0.5986E-02  0.5987E-02  0.8146E-01  0.8146E-01
     -1.133  0.6185E-02  0.6184E-02  0.8177E-01  0.8176E-01
     -1.084  0.6381E-02  0.6379E-02  0.8208E-01  0.8208E-01
     -1.035  0.6491E-02  0.6488E-02  0.8240E-01  0.8240E-01
     -0.985  0.6469E-02  0.6466E-02  0.8272E-01  0.8272E-01
     -0.936  0.6266E-02  0.6265E-02  0.8303E-01  0.8302E-01
     -0.887  0.5795E-02  0.5797E-02  0.8331E-01  0.8331E-01
     -0.838  0.4975E-02  0.4980E-02  0.8356E-01  0.8355E-01
     -0.789  0.3873E-02  0.3879E-02  0.8375E-01  0.8375E-01
     -0.739  0.2808E-02  0.2810E-02  0.8388E-01  0.8388E-01
     -0.690  0.2268E-02  0.2261E-02  0.8400E-01  0.8400E-01
     -0.641  0.2628E-02  0.2610E-02  0.8413E-01  0.8412E-01
     -0.592  0.3851E-02  0.3827E-02  0.8432E-01  0.8431E-01
     -0.542  0.5432E-02  0.5411E-02  0.8458E-01  0.8458E-01
     -0.493  0.6655E-02  0.6644E-02  0.8491E-01  0.8491E-01
     -0.444  0.7030E-02  0.7029E-02  0.8526E-01  0.8525E-01
     -0.395  0.6595E-02  0.6591E-02  0.8558E-01  0.8558E-01
     -0.346  0.5867E-02  0.5842E-02  0.8587E-01  0.8586E-01
     -0.296  0.5467E-02  0.5408E-02  0.8614E-01  0.8613E-01
     -0.247  0.5669E-02  0.5581E-02  0.8642E-01  0.8640E-01
     -0.198  0.6222E-02  0.6134E-02  0.8672E-01  0.8671E-01
     -0.149  0.6577E-02  0.6532E-02  0.8705E-01  0.8703E-01
     -0.099  0.6341E-02  0.6373E-02  0.8736E-01  0.8734E-01
     -0.050  0.5619E-02  0.5731E-02  0.8764E-01  0.8762E-01
     -0.001  0.5001E-02  0.5152E-02  0.8788E-01  0.8788E-01
      0.048  0.5192E-02  0.5309E-02  0.8814E-01  0.8814E-01
      0.097  0.6559E-02  0.6570E-02  0.8846E-01  0.8846E-01
      0.147  0.8871E-02  0.8746E-02  0.8890E-01  0.8889E-01
      0.196  0.1136E-01  0.1113E-01  0.8946E-01  0.8944E-01
      0.245  0.1303E-01  0.1280E-01  0.9010E-01  0.9007E-01
      0.294  0.1312E-01  0.1300E-01  0.9074E-01  0.9071E-01
      0.344  0.1143E-01  0.1146E-01  0.9131E-01  0.9127E-01
      0.393  0.8439E-02  0.8591E-02  0.9172E-01  0.9170E-01
      0.442  0.5059E-02  0.5264E-02  0.9197E-01  0.9196E-01
      0.491  0.2204E-02  0.2383E-02  0.9208E-01  0.9207E-01
      0.540  0.3700E-03  0.4811E-03  0.9210E-01  0.9210E-01
      0.590 -0.4558E-03 -0.4105E-03  0.9208E-01  0.9208E-01
      0.639 -0.6063E-03 -0.6020E-03  0.9205E-01  0.9205E-01
      0.688 -0.4588E-03 -0.4701E-03  0.9202E-01  0.9202E-01
      0.737 -0.2644E-03 -0.2763E-03  0.9201E-01  0.9201E-01
      0.787 -0.1248E-03 -0.1325E-03  0.9200E-01  0.9200E-01
      0.836 -0.4978E-04 -0.5356E-04  0.9200E-01  0.9200E-01
      0.885 -0.1702E-04 -0.1854E-04  0.9200E-01  0.9200E-01
      0.934 -0.5035E-05 -0.5548E-05  0.9200E-01  0.9200E-01
      0.983 -0.1296E-05 -0.1444E-05  0.9200E-01  0.9200E-01
      1.033 -0.2912E-06 -0.3280E-06  0.9200E-01  0.9200E-01
      1.082 -0.5730E-07 -0.6521E-07  0.9200E-01  0.9200E-01
      1.131 -0.9893E-08 -0.1138E-07  0.9200E-01  0.9200E-01
      1.180 -0.1501E-08 -0.1743E-08  0.9200E-01  0.9200E-01
      1.230 -0.2004E-09 -0.2350E-09  0.9200E-01  0.9200E-01
      1.279 -0.2356E-10 -0.2790E-10  0.9200E-01  0.9200E-01
      1.328 -0.2441E-11 -0.2919E-11  0.9200E-01  0.9200E-01
      1.377 -0.2231E-12 -0.2693E-12  0.9200E-01  0.9200E-01
      1.426 -0.1799E-13 -0.2193E-13  0.9200E-01  0.9200E-01
      1.476 -0.1286E-14 -0.1574E-14  0.9200E-01  0.9200E-01
      1.525 -0.8120E-16 -0.1038E-15  0.9200E-01  0.9200E-01
      1.574 -0.4511E-17 -0.4511E-17  0.9200E-01  0.9200E-01
      1.623  0.0000E+00  0.0000E+00  0.9200E-01  0.9200E-01
      1.673  0.0000E+00  0.0000E+00  0.9200E-01  0.9200E-01
      1.722  0.0000E+00  0.0000E+00  0.9200E-01  0.9200E-01
      1.771  0.0000E+00  0.0000E+00  0.9200E-01  0.9200E-01
      1.820  0.0000E+00  0.0000E+00  0.9200E-01  0.9200E-01
      1.869  0.0000E+00  0.0000E+00  0.9200E-01  0.9200E-01
      1.919  0.0000E+00  0.0000E+00  0.9200E-01  0.9200E-01
      1.968  0.0000E+00  0.0000E+00  0.9200E-01  0.9200E-01
      2.017  0.0000E+00  0.0000E+00  0.9200E-01  0.9200E-01
      2.066  0.0000E+00  0.0000E+00  0.9200E-01  0.9200E-01
      2.116  0.0000E+00  0.0000E+00  0.9200E-01  0.9200E-01
      2.165  0.0000E+00  0.0000E+00  0.9200E-01  0.9200E-01
      2.214  0.0000E+00  0.0000E+00  0.9200E-01  0.9200E-01
      2.263  0.0000E+00  0.0000E+00  0.9200E-01  0.9200E-01
      2.312  0.0000E+00  0.0000E+00  0.9200E-01  0.9200E-01
