   13   13 1000    2
  0.1115444E+04  0.2450977E-08  0.2428316E-08  0.2436389E-08  0.5000000E-15
   1.0000000000000000E-004
  CAR 
 unknown system                          
    143      1     92
 
  0.1262379E-14  0.1262379E-14  0.1262379E-14  0.1000000E+01
    1      -10.454154    -10.454127   1.000000   1.000000
    2       -8.769312     -8.769297   1.000000   1.000000
    3       -8.680148     -8.680130   1.000000   1.000000
    4       -8.285243     -8.285226   1.000000   1.000000
    5       -7.860328     -7.860305   1.000000   1.000000
    6       -7.707014     -7.707002   1.000000   1.000000
    7       -7.502079     -7.502068   1.000000   1.000000
    8       -7.431481     -7.431472   1.000000   1.000000
    9       -7.283459     -7.283450   1.000000   1.000000
   10       -7.251941     -7.251930   1.000000   1.000000
   11       -7.193637     -7.193624   1.000000   1.000000
   12       -7.125482     -7.125468   1.000000   1.000000
   13       -7.072986     -7.072977   1.000000   1.000000
   14       -7.029452     -7.029440   1.000000   1.000000
   15       -6.883636     -6.883625   1.000000   1.000000
   16       -6.867344     -6.867332   1.000000   1.000000
   17       -6.836365     -6.836352   1.000000   1.000000
   18       -6.773899     -6.773888   1.000000   1.000000
   19       -6.714607     -6.714594   1.000000   1.000000
   20       -6.664256     -6.664244   1.000000   1.000000
   21       -6.628561     -6.628551   1.000000   1.000000
   22       -6.597801     -6.597790   1.000000   1.000000
   23       -6.486563     -6.486553   1.000000   1.000000
   24       -6.406278     -6.406267   1.000000   1.000000
   25       -6.379158     -6.379146   1.000000   1.000000
   26       -6.349170     -6.349159   1.000000   1.000000
   27       -6.294706     -6.294695   1.000000   1.000000
   28       -6.212871     -6.212856   1.000000   1.000000
   29       -6.201310     -6.201296   1.000000   1.000000
   30       -6.184818     -6.184802   1.000000   1.000000
   31       -6.144164     -6.144150   1.000000   1.000000
   32       -6.116546     -6.116532   1.000000   1.000000
   33       -6.083846     -6.083834   1.000000   1.000000
   34       -6.058400     -6.058384   1.000000   1.000000
   35       -6.013898     -6.013885   1.000000   1.000000
   36       -5.994157     -5.994141   1.000000   1.000000
   37       -5.970932     -5.970919   1.000000   1.000000
   38       -5.938010     -5.937990   1.000000   1.000000
   39       -5.867658     -5.867646   1.000000   1.000000
   40       -5.846857     -5.846842   1.000000   1.000000
   41       -5.808123     -5.808111   1.000000   1.000000
   42       -5.803937     -5.803925   1.000000   1.000000
   43       -5.768190     -5.768180   1.000000   1.000000
   44       -5.716415     -5.716403   1.000000   1.000000
   45       -5.704232     -5.704219   1.000000   1.000000
   46       -5.665149     -5.665138   1.000000   1.000000
   47       -5.650780     -5.650767   1.000000   1.000000
   48       -5.598546     -5.598534   1.000000   1.000000
   49       -5.591117     -5.591102   1.000000   1.000000
   50       -5.578340     -5.578328   1.000000   1.000000
   51       -5.566036     -5.566025   1.000000   1.000000
   52       -5.523906     -5.523893   1.000000   1.000000
   53       -5.500248     -5.500232   1.000000   1.000000
   54       -5.480602     -5.480593   1.000000   1.000000
   55       -5.443419     -5.443408   1.000000   1.000000
   56       -5.422138     -5.422127   1.000000   1.000000
   57       -5.385516     -5.385503   1.000000   1.000000
   58       -5.371745     -5.371736   1.000000   1.000000
   59       -5.346988     -5.346975   1.000000   1.000000
   60       -5.331782     -5.331765   1.000000   1.000000
   61       -5.304853     -5.304837   1.000000   1.000000
   62       -5.285035     -5.285021   1.000000   1.000000
   63       -5.258040     -5.258026   1.000000   1.000000
   64       -5.251325     -5.251312   1.000000   1.000000
   65       -5.215043     -5.215027   1.000000   1.000000
   66       -5.193343     -5.193326   1.000000   1.000000
   67       -5.177388     -5.177378   1.000000   1.000000
   68       -5.117889     -5.117874   1.000000   1.000000
   69       -5.084039     -5.084029   1.000000   1.000000
   70       -4.517786     -4.517752   1.000122   1.000123
   71       -4.162904     -4.162865   1.035077   1.035074
   72       -3.927752     -3.927652   0.500729   0.500306
   73       -3.686681     -3.686642  -0.035393  -0.035394
   74       -3.373998     -3.373946  -0.000322  -0.000322
   75       -3.061494     -3.061423  -0.000000  -0.000000
   76       -2.271136     -2.271022  -0.000000  -0.000000
   77       -2.045934     -2.045801  -0.000000  -0.000000
   78       -1.970262     -1.970079  -0.000000  -0.000000
   79       -1.664273     -1.664114  -0.000000  -0.000000
   80       -1.502224     -1.502106  -0.000000  -0.000000
   81       -1.347846     -1.347595  -0.000000  -0.000000
   82       -1.171513     -1.171362  -0.000000  -0.000000
   83       -1.018788     -1.018578  -0.000000  -0.000000
   84       -0.851400     -0.851091  -0.000000  -0.000000
   85       -0.536599     -0.535893  -0.000000  -0.000000
   86       -0.432769     -0.431961  -0.000000  -0.000000
   87       -0.212909     -0.211186  -0.000000  -0.000000
   88       -0.100659     -0.096872  -0.000000  -0.000000
   89        0.127665      0.125544  -0.000000  -0.000000
   90        0.211644      0.212847  -0.000000  -0.000000
   91        0.299255      0.303631  -0.000000  -0.000000
   92        0.308986      0.312408  -0.000000  -0.000000
