       N       E                     dE             d eps       ncg     rms          rms(c)
DAV:   1     0.976154336971E+03    0.97615E+03   -0.23965E+04   368   0.728E+02
DAV:   2     0.280476834840E+03   -0.69568E+03   -0.61839E+03   392   0.203E+02
DAV:   3     0.178644297208E+02   -0.26261E+03   -0.25190E+03   464   0.141E+02
DAV:   4    -0.338570938497E+02   -0.51722E+02   -0.46814E+02   464   0.116E+02
DAV:   5    -0.363168954505E+02   -0.24598E+01   -0.24377E+01   496   0.259E+01    0.273E+01
DAV:   6    -0.199700098574E+02    0.16347E+02   -0.12113E+02   404   0.926E+01    0.123E+01
DAV:   7    -0.130388911849E+02    0.69311E+01   -0.30641E+01   448   0.713E+01    0.438E+00
DAV:   8    -0.123292901500E+02    0.70960E+00   -0.61009E+00   452   0.459E+01    0.400E+00
DAV:   9    -0.135284200447E+02   -0.11991E+01   -0.14110E+00   448   0.278E+01    0.268E+00
DAV:  10    -0.164515549204E+02   -0.29231E+01   -0.16561E+00   508   0.127E+01    0.210E+00
DAV:  11    -0.181170004200E+02   -0.16654E+01   -0.64375E-01   472   0.113E+01    0.174E+00
DAV:  12    -0.204716499409E+02   -0.23546E+01   -0.84652E-01   496   0.530E+00    0.138E+00
DAV:  13    -0.248730463024E+02   -0.44014E+01   -0.23076E+00   456   0.567E+00    0.105E+00
DAV:  14    -0.265784719021E+02   -0.17054E+01   -0.46726E-01   464   0.656E+00    0.913E-01
DAV:  15    -0.276750570455E+02   -0.10966E+01   -0.19670E-01   464   0.480E+00    0.762E-01
DAV:  16    -0.292020820776E+02   -0.15270E+01   -0.30800E-01   480   0.308E+00    0.655E-01
DAV:  17    -0.297766982145E+02   -0.57462E+00   -0.97718E-02   536   0.207E+00    0.467E-01
DAV:  18    -0.302799823230E+02   -0.50328E+00   -0.93373E-02   504   0.215E+00    0.414E-01
DAV:  19    -0.307673013706E+02   -0.48732E+00   -0.57483E-02   516   0.278E+00    0.264E-01
DAV:  20    -0.310611099890E+02   -0.29381E+00   -0.20796E-02   456   0.187E+00    0.202E-01
DAV:  21    -0.312284358311E+02   -0.16733E+00   -0.12002E-02   512   0.119E+00    0.203E-01
DAV:  22    -0.314166518957E+02   -0.18822E+00   -0.56178E-03   496   0.954E-01    0.124E-01
DAV:  23    -0.315611323486E+02   -0.14448E+00   -0.35315E-03   528   0.731E-01    0.695E-02
DAV:  24    -0.316269499415E+02   -0.65818E-01   -0.21838E-03   512   0.471E-01    0.566E-02
DAV:  25    -0.316628695500E+02   -0.35920E-01   -0.10553E-03   428   0.337E-01    0.387E-02
DAV:  26    -0.316739256882E+02   -0.11056E-01   -0.42806E-04   348   0.322E-01    0.313E-02
DAV:  27    -0.316763647888E+02   -0.24391E-02   -0.24160E-04   276   0.217E-01    0.208E-02
DAV:  28    -0.316810333582E+02   -0.46686E-02   -0.40313E-04   316   0.154E-01    0.199E-02
DAV:  29    -0.316838188056E+02   -0.27854E-02   -0.14332E-04   280   0.162E-01    0.152E-02
DAV:  30    -0.316869079581E+02   -0.30892E-02   -0.12978E-04   272   0.112E-01    0.117E-02
DAV:  31    -0.316895808473E+02   -0.26729E-02   -0.12943E-04   272   0.784E-02    0.121E-02
DAV:  32    -0.316909990863E+02   -0.14182E-02   -0.67177E-05   280   0.934E-02    0.943E-03
DAV:  33    -0.316928300489E+02   -0.18310E-02   -0.64852E-05   256   0.565E-02    0.757E-03
DAV:  34    -0.316942263148E+02   -0.13963E-02   -0.38473E-05   244   0.571E-02    0.589E-03
DAV:  35    -0.316946747601E+02   -0.44845E-03   -0.22064E-05   272   0.404E-02    0.414E-03
DAV:  36    -0.316951220918E+02   -0.44733E-03   -0.14841E-05   224   0.345E-02    0.343E-03
DAV:  37    -0.316954020532E+02   -0.27996E-03   -0.11836E-05   256   0.234E-02    0.292E-03
DAV:  38    -0.316954562753E+02   -0.54222E-04   -0.60672E-06   256   0.205E-02
   1 F= -.31695456E+02 E0= -.31669709E+02  d E =-.316955E+02  mag=     1.1668
       N       E                     dE             d eps       ncg     rms          rms(c)
DAV:   1    -0.317197773090E+02   -0.24375E-01   -0.15879E+01   400   0.136E+01    0.378E-01
DAV:   2    -0.317473523025E+02   -0.27575E-01   -0.31534E-01   560   0.530E+00    0.440E-01
DAV:   3    -0.317453242244E+02    0.20281E-02   -0.25962E-02   432   0.362E+00    0.212E-01
DAV:   4    -0.317449724827E+02    0.35174E-03   -0.49853E-03   488   0.962E-01    0.167E-01
DAV:   5    -0.317442540757E+02    0.71841E-03   -0.10513E-03   408   0.367E-01    0.120E-01
DAV:   6    -0.317425060481E+02    0.17480E-02   -0.10703E-03   428   0.886E-01    0.821E-02
DAV:   7    -0.317412600570E+02    0.12460E-02   -0.61821E-04   440   0.623E-01    0.311E-02
DAV:   8    -0.317411341291E+02    0.12593E-03   -0.14660E-04   264   0.194E-01    0.205E-02
DAV:   9    -0.317410412165E+02    0.92913E-04   -0.90566E-05   248   0.128E-01
   2 F= -.31741041E+02 E0= -.31716665E+02  d E =-.455849E-01  mag=     1.1292
       N       E                     dE             d eps       ncg     rms          rms(c)
DAV:   1    -0.315331321623E+02    0.20800E+00   -0.14597E+02   392   0.440E+01    0.124E+00
DAV:   2    -0.318293663645E+02   -0.29623E+00   -0.33848E+00   556   0.196E+01    0.148E+00
DAV:   3    -0.317955648020E+02    0.33802E-01   -0.19283E-01   416   0.122E+01    0.635E-01
DAV:   4    -0.317941883617E+02    0.13764E-02   -0.58270E-02   440   0.247E+00    0.524E-01
DAV:   5    -0.317898049019E+02    0.43835E-02   -0.79455E-03   408   0.134E+00    0.396E-01
DAV:   6    -0.317804788272E+02    0.93261E-02   -0.97557E-03   496   0.253E+00    0.251E-01
DAV:   7    -0.317745884719E+02    0.58904E-02   -0.64462E-03   624   0.176E+00    0.948E-02
DAV:   8    -0.317750461341E+02   -0.45766E-03   -0.16954E-03   544   0.678E-01    0.744E-02
DAV:   9    -0.317756581522E+02   -0.61202E-03   -0.37553E-04   352   0.310E-01    0.660E-02
DAV:  10    -0.317768516151E+02   -0.11935E-02   -0.31448E-04   320   0.295E-01    0.389E-02
DAV:  11    -0.317783592488E+02   -0.15076E-02   -0.12827E-04   272   0.156E-01    0.390E-02
DAV:  12    -0.317792677681E+02   -0.90852E-03   -0.10284E-04   264   0.147E-01    0.354E-02
DAV:  13    -0.317832418354E+02   -0.39741E-02   -0.23213E-04   280   0.112E-01    0.347E-02
DAV:  14    -0.317860849353E+02   -0.28431E-02   -0.14512E-04   264   0.127E-01    0.317E-02
DAV:  15    -0.317915583814E+02   -0.54734E-02   -0.49214E-04   336   0.202E-01    0.282E-02
DAV:  16    -0.317973012910E+02   -0.57429E-02   -0.11668E-03   464   0.157E-01    0.214E-02
DAV:  17    -0.317989803394E+02   -0.16790E-02   -0.11080E-04   304   0.811E-02    0.199E-02
DAV:  18    -0.318001110416E+02   -0.11307E-02   -0.59909E-05   264   0.671E-02    0.181E-02
DAV:  19    -0.318020503348E+02   -0.19393E-02   -0.15081E-04   264   0.780E-02    0.181E-02
DAV:  20    -0.318043177278E+02   -0.22674E-02   -0.27399E-04   312   0.104E-01    0.163E-02
DAV:  21    -0.318061498286E+02   -0.18321E-02   -0.21110E-04   280   0.120E-01    0.169E-02
DAV:  22    -0.318078725507E+02   -0.17227E-02   -0.22754E-04   288   0.124E-01    0.131E-02
DAV:  23    -0.318092055195E+02   -0.13330E-02   -0.19980E-04   288   0.111E-01    0.150E-02
DAV:  24    -0.318099175952E+02   -0.71208E-03   -0.16511E-04   280   0.112E-01    0.958E-03
DAV:  25    -0.318102276757E+02   -0.31008E-03   -0.13534E-04   280   0.715E-02    0.834E-03
DAV:  26    -0.318104074992E+02   -0.17982E-03   -0.13161E-04   272   0.721E-02    0.799E-03
DAV:  27    -0.318105783555E+02   -0.17086E-03   -0.92644E-05   296   0.607E-02    0.900E-03
DAV:  28    -0.318107578131E+02   -0.17946E-03   -0.75137E-05   256   0.637E-02    0.491E-03
DAV:  29    -0.318110277246E+02   -0.26991E-03   -0.65995E-05   288   0.416E-02    0.578E-03
DAV:  30    -0.318113770532E+02   -0.34933E-03   -0.44963E-05   256   0.464E-02    0.533E-03
DAV:  31    -0.318116658203E+02   -0.28877E-03   -0.26625E-05   280   0.452E-02    0.412E-03
DAV:  32    -0.318119119450E+02   -0.24612E-03   -0.17510E-05   240   0.259E-02    0.395E-03
DAV:  33    -0.318121834409E+02   -0.27150E-03   -0.15004E-05   256   0.282E-02    0.251E-03
DAV:  34    -0.318123407510E+02   -0.15731E-03   -0.11753E-05   272   0.226E-02    0.258E-03
DAV:  35    -0.318124450092E+02   -0.10426E-03   -0.56015E-06   248   0.180E-02    0.148E-03
DAV:  36    -0.318125218920E+02   -0.76883E-04   -0.41046E-06   256   0.121E-02
   3 F= -.31812522E+02 E0= -.31788797E+02  d E =-.117066E+00  mag=     0.0131
       N       E                     dE             d eps       ncg     rms          rms(c)
DAV:   1    -0.317881701990E+02    0.24275E-01   -0.34844E+01   396   0.205E+01    0.492E-01
DAV:   2    -0.318579743485E+02   -0.69804E-01   -0.74625E-01   556   0.712E+00    0.641E-01
DAV:   3    -0.318533054217E+02    0.46689E-02   -0.37850E-02   416   0.458E+00    0.343E-01
DAV:   4    -0.318530942820E+02    0.21114E-03   -0.78927E-03   464   0.973E-01    0.286E-01
DAV:   5    -0.318523417922E+02    0.75249E-03   -0.17483E-03   472   0.620E-01    0.198E-01
DAV:   6    -0.318519845132E+02    0.35728E-03   -0.33675E-03   624   0.121E+00    0.966E-02
DAV:   7    -0.318518643019E+02    0.12021E-03   -0.93866E-04   432   0.844E-01    0.305E-02
DAV:   8    -0.318518896308E+02   -0.25329E-04   -0.34150E-04   312   0.235E-01
   4 F= -.31851890E+02 E0= -.31834410E+02  d E =-.393677E-01  mag=     0.0120
       N       E                     dE             d eps       ncg     rms          rms(c)
DAV:   1    -0.316378344034E+02    0.21403E+00   -0.12145E+02   396   0.400E+01    0.921E-01
DAV:   2    -0.318999186253E+02   -0.26208E+00   -0.27680E+00   560   0.144E+01    0.120E+00
DAV:   3    -0.318817189185E+02    0.18200E-01   -0.12383E-01   416   0.900E+00    0.599E-01
DAV:   4    -0.318817410812E+02   -0.22163E-04   -0.31714E-02   432   0.164E+00    0.512E-01
DAV:   5    -0.318794575240E+02    0.22836E-02   -0.53567E-03   456   0.122E+00    0.387E-01
DAV:   6    -0.318775019297E+02    0.19556E-02   -0.10863E-02   592   0.207E+00    0.182E-01
DAV:   7    -0.318770896005E+02    0.41233E-03   -0.32198E-03   440   0.146E+00    0.803E-02
DAV:   8    -0.318771496507E+02   -0.60050E-04   -0.17730E-03   496   0.504E-01    0.728E-02
DAV:   9    -0.318771499318E+02   -0.28115E-06   -0.43256E-04   376   0.340E-01
   5 F= -.31877150E+02 E0= -.31869027E+02  d E =-.646280E-01  mag=     0.0095
       N       E                     dE             d eps       ncg     rms          rms(c)
DAV:   1    -0.318066389507E+02    0.70511E-01   -0.55163E+01   392   0.262E+01    0.518E-01
DAV:   2    -0.319195532210E+02   -0.11291E+00   -0.11639E+00   560   0.686E+00    0.644E-01
DAV:   3    -0.319148067291E+02    0.47465E-02   -0.30614E-02   416   0.398E+00    0.385E-01
DAV:   4    -0.319141938099E+02    0.61292E-03   -0.79600E-03   448   0.131E+00    0.329E-01
DAV:   5    -0.319130388660E+02    0.11549E-02   -0.32132E-03   496   0.918E-01    0.214E-01
DAV:   6    -0.319125402233E+02    0.49864E-03   -0.40248E-03   656   0.864E-01    0.756E-02
DAV:   7    -0.319125124547E+02    0.27769E-04   -0.67750E-04   408   0.559E-01
   6 F= -.31912512E+02 E0= -.31907828E+02  d E =-.353625E-01  mag=     0.0075
       N       E                     dE             d eps       ncg     rms          rms(c)
DAV:   1    -0.318976106142E+02    0.14930E-01   -0.11752E+01   392   0.117E+01    0.255E-01
DAV:   2    -0.319195875201E+02   -0.21977E-01   -0.23143E-01   556   0.333E+00    0.329E-01
DAV:   3    -0.319182725036E+02    0.13150E-02   -0.82614E-03   412   0.195E+00    0.185E-01
DAV:   4    -0.319181786468E+02    0.93857E-04   -0.22334E-03   448   0.667E-01    0.148E-01
DAV:   5    -0.319180306182E+02    0.14803E-03   -0.61195E-04   376   0.429E-01    0.104E-01
DAV:   6    -0.319180103150E+02    0.20303E-04   -0.76951E-04   456   0.400E-01
   7 F= -.31918010E+02 E0= -.31914300E+02  d E =-.408604E-01  mag=     0.0061
       N       E                     dE             d eps       ncg     rms          rms(c)
DAV:   1    -0.318898185081E+02    0.28212E-01   -0.28219E+01   392   0.184E+01    0.419E-01
DAV:   2    -0.319439412193E+02   -0.54123E-01   -0.57654E-01   556   0.547E+00    0.510E-01
DAV:   3    -0.319414597886E+02    0.24814E-02   -0.25839E-02   408   0.319E+00    0.293E-01
DAV:   4    -0.319411271671E+02    0.33262E-03   -0.51471E-03   488   0.115E+00    0.237E-01
DAV:   5    -0.319406481876E+02    0.47898E-03   -0.15034E-03   432   0.536E-01    0.159E-01
DAV:   6    -0.319405313340E+02    0.11685E-03   -0.23238E-03   624   0.911E-01    0.798E-02
DAV:   7    -0.319404623391E+02    0.68995E-04   -0.55435E-04   400   0.673E-01
   8 F= -.31940462E+02 E0= -.31937814E+02  d E =-.224520E-01  mag=     0.0047
       N       E                     dE             d eps       ncg     rms          rms(c)
DAV:   1    -0.319340348643E+02    0.64965E-02   -0.54502E+00   400   0.800E+00    0.176E-01
DAV:   2    -0.319432382928E+02   -0.92034E-02   -0.98633E-02   560   0.227E+00    0.198E-01
DAV:   3    -0.319428805524E+02    0.35774E-03   -0.42384E-03   412   0.126E+00    0.114E-01
DAV:   4    -0.319428450969E+02    0.35455E-04   -0.82735E-04   384   0.497E-01
   9 F= -.31942845E+02 E0= -.31940460E+02  d E =-.248348E-01  mag=     0.0043
       N       E                     dE             d eps       ncg     rms          rms(c)
DAV:   1    -0.319109024912E+02    0.31978E-01   -0.24662E+01   392   0.172E+01    0.399E-01
DAV:   2    -0.319579873574E+02   -0.47085E-01   -0.50454E-01   552   0.509E+00    0.512E-01
DAV:   3    -0.319550792631E+02    0.29081E-02   -0.20253E-02   412   0.293E+00    0.303E-01
DAV:   4    -0.319546452958E+02    0.43397E-03   -0.46534E-03   504   0.105E+00    0.248E-01
DAV:   5    -0.319540266572E+02    0.61864E-03   -0.17993E-03   464   0.618E-01    0.155E-01
DAV:   6    -0.319539253873E+02    0.10127E-03   -0.25643E-03   656   0.108E+00    0.836E-02
DAV:   7    -0.319538417254E+02    0.83662E-04   -0.61283E-04   400   0.747E-01
  10 F= -.31953842E+02 E0= -.31951591E+02  d E =-.109966E-01  mag=     0.0033
       N       E                     dE             d eps       ncg     rms          rms(c)
DAV:   1    -0.319529520214E+02    0.97337E-03   -0.80210E-01   400   0.306E+00    0.634E-02
DAV:   2    -0.319542566338E+02   -0.13046E-02   -0.13648E-02   560   0.789E-01    0.594E-02
DAV:   3    -0.319542409453E+02    0.15688E-04   -0.46169E-04   400   0.505E-01
  11 F= -.31954241E+02 E0= -.31951985E+02  d E =-.113958E-01  mag=     0.0030
       N       E                     dE             d eps       ncg     rms          rms(c)
DAV:   1    -0.319456573446E+02    0.85993E-02   -0.97325E+00   392   0.106E+01    0.242E-01
DAV:   2    -0.319635296593E+02   -0.17872E-01   -0.19087E-01   552   0.340E+00    0.329E-01
DAV:   3    -0.319623368856E+02    0.11928E-02   -0.92403E-03   416   0.206E+00    0.185E-01
DAV:   4    -0.319622422480E+02    0.94638E-04   -0.19696E-03   488   0.523E-01    0.151E-01
DAV:   5    -0.319620673902E+02    0.17486E-03   -0.48293E-04   372   0.331E-01    0.106E-01
DAV:   6    -0.319620176681E+02    0.49722E-04   -0.10352E-03   552   0.599E-01    0.521E-02
DAV:   7    -0.319619816076E+02    0.36060E-04   -0.18782E-04   248   0.433E-01
  12 F= -.31961982E+02 E0= -.31959871E+02  d E =-.774066E-02  mag=     0.0023
       N       E                     dE             d eps       ncg     rms          rms(c)
DAV:   1    -0.319380759225E+02    0.23942E-01   -0.14966E+01   392   0.132E+01    0.313E-01
DAV:   2    -0.319664875582E+02   -0.28412E-01   -0.30442E-01   560   0.427E+00    0.410E-01
DAV:   3    -0.319645326076E+02    0.19550E-02   -0.14848E-02   416   0.265E+00    0.220E-01
DAV:   4    -0.319644122180E+02    0.12039E-03   -0.33183E-03   504   0.692E-01    0.175E-01
DAV:   5    -0.319641996679E+02    0.21255E-03   -0.68358E-04   384   0.377E-01    0.128E-01
DAV:   6    -0.319641083271E+02    0.91341E-04   -0.12919E-03   552   0.664E-01    0.673E-02
DAV:   7    -0.319640425336E+02    0.65793E-04   -0.25252E-04   256   0.500E-01
  13 F= -.31964043E+02 E0= -.31962011E+02  d E =-.980159E-02  mag=     0.0018
       N       E                     dE             d eps       ncg     rms          rms(c)
DAV:   1    -0.319455910892E+02    0.18517E-01   -0.13483E+01   392   0.125E+01    0.322E-01
DAV:   2    -0.319700643023E+02   -0.24473E-01   -0.26866E-01   552   0.437E+00    0.395E-01
DAV:   3    -0.319682721124E+02    0.17922E-02   -0.16361E-02   416   0.279E+00    0.206E-01
DAV:   4    -0.319681946047E+02    0.77508E-04   -0.33347E-03   496   0.679E-01    0.161E-01
DAV:   5    -0.319680316157E+02    0.16299E-03   -0.61696E-04   384   0.314E-01    0.120E-01
DAV:   6    -0.319679920542E+02    0.39561E-04   -0.11846E-03   544   0.703E-01    0.727E-02
DAV:   7    -0.319679204060E+02    0.71648E-04   -0.28138E-04   272   0.510E-01
  14 F= -.31967920E+02 E0= -.31965990E+02  d E =-.387787E-02  mag=     0.0014
       N       E                     dE             d eps       ncg     rms          rms(c)
DAV:   1    -0.319668380581E+02    0.11540E-02   -0.80305E-01   400   0.304E+00    0.565E-02
DAV:   2    -0.319680835153E+02   -0.12455E-02   -0.12777E-02   560   0.733E-01    0.514E-02
DAV:   3    -0.319680584206E+02    0.25095E-04   -0.21453E-04   240   0.359E-01
  15 F= -.31968058E+02 E0= -.31966143E+02  d E =-.401589E-02  mag=     0.0013
       N       E                     dE             d eps       ncg     rms          rms(c)
DAV:   1    -0.319612729545E+02    0.68106E-02   -0.51959E+00   392   0.782E+00    0.188E-01
DAV:   2    -0.319703644822E+02   -0.90915E-02   -0.98271E-02   560   0.253E+00    0.202E-01
DAV:   3    -0.319701292876E+02    0.23519E-03   -0.62441E-03   408   0.156E+00    0.114E-01
DAV:   4    -0.319701244480E+02    0.48397E-05   -0.11298E-03   400   0.507E-01    0.864E-02
DAV:   5    -0.319701158657E+02    0.85823E-05   -0.19438E-04   224   0.208E-01
  16 F= -.31970116E+02 E0= -.31968191E+02  d E =-.205745E-02  mag=     0.0010
       N       E                     dE             d eps       ncg     rms          rms(c)
DAV:   1    -0.319698265641E+02    0.29788E-03   -0.39046E-01   396   0.217E+00    0.475E-02
DAV:   2    -0.319704763781E+02   -0.64981E-03   -0.69188E-03   560   0.769E-01    0.510E-02
DAV:   3    -0.319704889573E+02   -0.12579E-04   -0.62928E-04   384   0.456E-01
  17 F= -.31970489E+02 E0= -.31968568E+02  d E =-.243054E-02  mag=     0.0010
       N       E                     dE             d eps       ncg     rms          rms(c)
DAV:   1    -0.319682108542E+02    0.22655E-02   -0.22258E+00   392   0.510E+00    0.107E-01
DAV:   2    -0.319718863594E+02   -0.36755E-02   -0.38693E-02   552   0.137E+00    0.119E-01
DAV:   3    -0.319717301150E+02    0.15624E-03   -0.13389E-03   404   0.704E-01    0.681E-02
DAV:   4    -0.319717256079E+02    0.45071E-05   -0.32725E-04   288   0.336E-01
  18 F= -.31971726E+02 E0= -.31969794E+02  d E =-.123665E-02  mag=     0.0008
       N       E                     dE             d eps       ncg     rms          rms(c)
DAV:   1    -0.319716406710E+02    0.89444E-04   -0.23351E-02   416   0.574E-01    0.352E-02
DAV:   2    -0.319716973575E+02   -0.56687E-04   -0.54017E-04   384   0.269E-01
  19 F= -.31971697E+02 E0= -.31969767E+02  d E =-.120840E-02  mag=     0.0008
       N       E                     dE             d eps       ncg     rms          rms(c)
DAV:   1    -0.319712645628E+02    0.37611E-03   -0.70755E-01   392   0.288E+00    0.564E-02
DAV:   2    -0.319723939156E+02   -0.11294E-02   -0.11865E-02   552   0.871E-01    0.766E-02
DAV:   3    -0.319723360580E+02    0.57858E-04   -0.53755E-04   380   0.517E-01
  20 F= -.31972336E+02 E0= -.31970419E+02  d E =-.638700E-03  mag=     0.0007
       N       E                     dE             d eps       ncg     rms          rms(c)
DAV:   1    -0.319723799143E+02    0.14001E-04   -0.13953E-02   400   0.418E-01    0.363E-02
DAV:   2    -0.319723769695E+02    0.29448E-05   -0.12646E-04   240   0.205E-01
  21 F= -.31972377E+02 E0= -.31970462E+02  d E =-.679612E-03  mag=     0.0007
