 vasp.6.1.2 22Jul20 (build Jan 14 2022 17:24:41) gamma-only                      
 executed on             LinuxPGI date 2022.01.31  15:26:53
 running on    8 total cores
 distrk:  each k-point on    8 cores,    1 groups
 distr:  one band on NCORE=   8 cores,    1 groups


--------------------------------------------------------------------------------------------------------


 INCAR:
 POTCAR:    PAW_PBE Cu 22Jun2005                  
 -----------------------------------------------------------------------------
|                                                                             |
|           W    W    AA    RRRRR   N    N  II  N    N   GGGG   !!!           |
|           W    W   A  A   R    R  NN   N  II  NN   N  G    G  !!!           |
|           W    W  A    A  R    R  N N  N  II  N N  N  G       !!!           |
|           W WW W  AAAAAA  RRRRR   N  N N  II  N  N N  G  GGG   !            |
|           WW  WW  A    A  R   R   N   NN  II  N   NN  G    G                |
|           W    W  A    A  R    R  N    N  II  N    N   GGGG   !!!           |
|                                                                             |
|     You use a magnetic or noncollinear calculation, but did not specify     |
|     the initial magnetic moment with the MAGMOM tag. Note that a            |
|     default of 1 will be used for all atoms. This ferromagnetic setup       |
|     may break the symmetry of the crystal, in particular it may rule        |
|     out finding an antiferromagnetic solution. Thence, we recommend         |
|     setting the initial magnetic moment manually or verifying carefully     |
|     that this magnetic setup is desired.                                    |
|                                                                             |
 -----------------------------------------------------------------------------

 -----------------------------------------------------------------------------
|                                                                             |
|           W    W    AA    RRRRR   N    N  II  N    N   GGGG   !!!           |
|           W    W   A  A   R    R  NN   N  II  NN   N  G    G  !!!           |
|           W    W  A    A  R    R  N N  N  II  N N  N  G       !!!           |
|           W WW W  AAAAAA  RRRRR   N  N N  II  N  N N  G  GGG   !            |
|           WW  WW  A    A  R   R   N   NN  II  N   NN  G    G                |
|           W    W  A    A  R    R  N    N  II  N    N   GGGG   !!!           |
|                                                                             |
|     For optimal performance we recommend to set                             |
|       NCORE = 4 - approx SQRT(number of cores).                             |
|     NCORE specifies how many cores store one orbital (NPAR=cpu/NCORE).      |
|     This setting can greatly improve the performance of VASP for DFT.       |
|     The default, NCORE=1 might be grossly inefficient on modern             |
|     multi-core architectures or massively parallel machines. Do your        |
|     own testing!!!!                                                         |
|     Unfortunately you need to use the default for GW and RPA                |
|     calculations (for HF NCORE is supported but not extensively tested      |
|     yet).                                                                   |
|                                                                             |
 -----------------------------------------------------------------------------

 POTCAR:    PAW_PBE Cu 22Jun2005                  
   SHA256 =  0e71e558f37a4e8407882b4609ceaae59938afaad9ced71dfe8490308a0ab630 Cu/POTCAR             
   COPYR  = (c) Copyright 22Jun2005 Georg Kresse                                                    
   COPYR  = This file is part of the software VASP. Any use, copying, and all other rights are regul
   COPYR  = If you do not have a valid VASP license, you may not use, copy or distribute this file. 
   VRHFIN =Cu: d10 p1                                                                               
   LEXCH  = PE                                                                                      
   EATOM  =  1390.9808 eV,  102.2342 Ry                                                             
                                                                                                    
   TITEL  = PAW_PBE Cu 22Jun2005                                                                    
   LULTRA =        F    use ultrasoft PP ?                                                          
   IUNSCR =        1    unscreen: 0-lin 1-nonlin 2-no                                               
   RPACOR =    2.000    partial core radius                                                         
   POMASS =   63.546; ZVAL   =   11.000    mass and valenz                                          
   RCORE  =    2.300    outmost cutoff radius                                                       
   RWIGS  =    2.200; RWIGS  =    1.164    wigner-seitz radius (au A)                               
   ENMAX  =  295.446; ENMIN  =  221.585 eV                                                          
   ICORE  =        3    local potential                                                             
   LCOR   =        T    correct aug charges                                                         
   LPAW   =        T    paw PP                                                                      
   EAUG   =  586.980                                                                                
   DEXC   =    0.000                                                                                
   RMAX   =    2.344    core radius for proj-oper                                                   
   RAUG   =    1.300    factor for augmentation sphere                                              
   RDEP   =    2.302    radius for radial grids                                                     
   RDEPT  =    1.771    core radius for aug-charge                                                  
                                                                                                    
   Atomic configuration                                                                             
    9 entries                                                                                       
     n  l   j            E        occ.                                                              
     1  0  0.50     -8850.2468   2.0000                                                             
     2  0  0.50     -1062.3498   2.0000                                                             
     2  1  1.50      -916.8226   6.0000                                                             
     3  0  0.50      -114.6929   2.0000                                                             
     3  1  1.50       -72.1325   6.0000                                                             
     3  2  2.50        -5.0394  10.0000                                                             
     4  0  0.50        -4.6097   1.0000                                                             
     4  1  0.50        -4.0817   0.0000                                                             
     4  3  2.50        -1.3606   0.0000                                                             
   Description                                                                                      
     l       E           TYP  RCUT    TYP  RCUT                                                     
     2     -5.0393973     23  2.200                                                                 
     2     10.8846608     23  2.200                                                                 
     0     -4.6097109     23  2.200                                                                 
     0      8.2520465     23  2.200                                                                 
     1     -2.7211652     23  2.200                                                                 
     1     21.7055443     23  2.200                                                                 
     3      2.7211652     23  2.300                                                                 
  local pseudopotential read in
  partial core-charges read in
  partial kinetic energy density read in
  atomic valenz-charges read in
  non local Contribution for L=            2  read in
    real space projection operators read in
  non local Contribution for L=            2  read in
    real space projection operators read in
  non local Contribution for L=            0  read in
    real space projection operators read in
  non local Contribution for L=            0  read in
    real space projection operators read in
  non local Contribution for L=            1  read in
    real space projection operators read in
  non local Contribution for L=            1  read in
    real space projection operators read in
    PAW grid and wavefunctions read in
 
   number of l-projection  operators is LMAX  =            6
   number of lm-projection operators is LMMAX =           18
 
  PAW_PBE Cu 22Jun2005                  :
 energy of atom  1       EATOM=-1390.9808
 kinetic energy error for atom=    0.0232 (will be added to EATOM!!)
 
 
 POSCAR: Cu
  positions in cartesian coordinates
  No initial velocities read in
 exchange correlation table for  LEXCH =        8
   RHO(1)=    0.500       N(1)  =     2000
   RHO(2)=  100.500       N(2)  =     4000
 


--------------------------------------------------------------------------------------------------------


 ion  position               nearest neighbor table
   1  0.513  0.424  0.547-   8 2.44  13 2.49   7 2.49   5 2.50   2 2.51   6 2.52   3 2.52
   2  0.550  0.445  0.453-   8 2.42   4 2.48   7 2.48  12 2.48   1 2.51   3 2.55
   3  0.579  0.503  0.535-   8 2.40   6 2.44   4 2.44   1 2.52   2 2.55
   4  0.525  0.543  0.461-   9 2.41  12 2.41   3 2.44  11 2.47   2 2.48   7 2.58   6 2.62
   5  0.415  0.400  0.540-  13 2.40   7 2.44  10 2.46   1 2.50
   6  0.484  0.523  0.558-   9 2.39  13 2.43   3 2.44  10 2.47  11 2.48   7 2.51   1 2.52   4 2.62

   7  0.454  0.467  0.477-  12 2.40   5 2.44  10 2.48  11 2.48   2 2.48   1 2.49   6 2.51   4 2.58

   8  0.609  0.410  0.524-   3 2.40   2 2.42   1 2.44
   9  0.506  0.614  0.528-   6 2.39   4 2.41  11 2.47
  10  0.387  0.497  0.547-   5 2.46   6 2.47  13 2.48   7 2.48  11 2.51
  11  0.429  0.566  0.484-   9 2.47   4 2.47   7 2.48   6 2.48  10 2.51
  12  0.487  0.490  0.387-   7 2.40   4 2.41   2 2.48
  13  0.445  0.452  0.618-   5 2.40   6 2.43  10 2.48   1 2.49
 

IMPORTANT INFORMATION: All symmetrisations will be switched off!
NOSYMM: (Re-)initialisation of all symmetry stuff for point group C_1.


----------------------------------------------------------------------------------------

                                     Primitive cell                                     

  volume of cell :   14500.7669

  direct lattice vectors                    reciprocal lattice vectors
    24.509767166  0.000000000  0.000000000     0.040800061  0.000000000  0.000000000
     0.000000000 24.283156960  0.000000000     0.000000000  0.041180807  0.000000000
     0.000000000  0.000000000 24.363890426     0.000000000  0.000000000  0.041044348

  length of vectors
    24.509767166 24.283156960 24.363890426     0.040800061  0.041180807  0.041044348

  position of ions in fractional coordinates (direct lattice)
     0.513272531  0.423666680  0.547453716
     0.549567286  0.444653454  0.453325524
     0.578665708  0.502972004  0.535307515
     0.524942264  0.543222482  0.460882227
     0.414552095  0.399625863  0.540240320
     0.483687127  0.522525894  0.558024449
     0.453575775  0.466796395  0.476775883
     0.609335945  0.409967525  0.524160549
     0.506441158  0.613510336  0.527898407
     0.387012150  0.496629009  0.547306250
     0.429233008  0.565671500  0.483667595
     0.487046269  0.489700136  0.387055525
     0.445244223  0.452185818  0.617569483

  ion indices of the primitive-cell ions
   primitive index   ion index
                 1           1
                 2           2
                 3           3
                 4           4
                 5           5
                 6           6
                 7           7
                 8           8
                 9           9
                10          10
                11          11
                12          12
                13          13

----------------------------------------------------------------------------------------

 
 
 KPOINTS: KPOINTS created by Atomic Simulation Env

Automatic generation of k-mesh.
Space group operators:
 irot       det(A)        alpha          n_x          n_y          n_z        tau_x        tau_y        tau_z
    1     1.000000     0.000000     1.000000     0.000000     0.000000     0.000000     0.000000     0.000000
 
 Subroutine IBZKPT returns following result:
 ===========================================
 
 Found      1 irreducible k-points:
 
 Following reciprocal coordinates:
            Coordinates               Weight
  0.000000  0.000000  0.000000      1.000000
 
 Following cartesian coordinates:
            Coordinates               Weight
  0.000000  0.000000  0.000000      1.000000
 


--------------------------------------------------------------------------------------------------------




 Dimension of arrays:
   k-points           NKPTS =      1   k-points in BZ     NKDIM =      1   number of bands    NBANDS=     92
   number of dos      NEDOS =    301   number of ions     NIONS =     13
   non local maximal  LDIM  =      6   non local SUM 2l+1 LMDIM =     18
   total plane-waves  NPLWV = ******
   max r-space proj   IRMAX =      1   max aug-charges    IRDMAX=   3651
   dimension x,y,z NGX =   120 NGY =  120 NGZ =  120
   dimension x,y,z NGXF=   240 NGYF=  240 NGZF=  240
   support grid    NGXF=   240 NGYF=  240 NGZF=  240
   ions per type =              13
   NGX,Y,Z   is equivalent  to a cutoff of   8.14,  8.22,  8.19 a.u.
   NGXF,Y,Z  is equivalent  to a cutoff of  16.28, 16.43, 16.38 a.u.

 SYSTEM =  unknown system                          
 POSCAR =  Cu                                      

 Startparameter for this run:
   NWRITE =      2    write-flag & timer
   PREC   = normal    normal or accurate (medium, high low for compatibility)
   ISTART =      0    job   : 0-new  1-cont  2-samecut
   ICHARG =      2    charge: 1-file 2-atom 10-const
   ISPIN  =      2    spin polarized calculation?
   LNONCOLLINEAR =      F non collinear calculations
   LSORBIT =      F    spin-orbit coupling
   INIWAV =      1    electr: 0-lowe 1-rand  2-diag
   LASPH  =      F    aspherical Exc in radial PAW
   METAGGA=      F    non-selfconsistent MetaGGA calc.

 Electronic Relaxation 1
   ENCUT  =  400.0 eV  29.40 Ry    5.42 a.u.  39.97 39.60 39.73*2*pi/ulx,y,z
   ENINI  =  400.0     initial cutoff
   ENAUG  =  587.0 eV  augmentation charge cutoff
   NELM   =     60;   NELMIN=  2; NELMDL=  0     # of ELM steps 
   EDIFF  = 0.1E-03   stopping-criterion for ELM
   LREAL  =      F    real-space projection
   NLSPLINE    = F    spline interpolate recip. space projectors
   LCOMPAT=      F    compatible to vasp.4.4
   GGA_COMPAT  = T    GGA compatible to vasp.4.4-vasp.4.6
   LMAXPAW     = -100 max onsite density
   LMAXMIX     =    2 max onsite mixed and CHGCAR
   VOSKOWN=      0    Vosko Wilk Nusair interpolation
   ROPT   =    0.00000
 Ionic relaxation
   EDIFFG = 0.1E-02   stopping-criterion for IOM
   NSW    =   1000    number of steps for IOM
   NBLOCK =      1;   KBLOCK =   1000    inner block; outer block 
   IBRION =      2    ionic relax: 0-MD 1-quasi-New 2-CG
   NFREE  =      1    steps in history (QN), initial steepest desc. (CG)
   ISIF   =      0    stress and relaxation
   IWAVPR =     11    prediction:  0-non 1-charg 2-wave 3-comb
   ISYM   =      0    0-nonsym 1-usesym 2-fastsym
   LCORR  =      T    Harris-Foulkes like correction to forces

   POTIM  = 0.5000    time-step for ionic-motion
   TEIN   =    0.0    initial temperature
   TEBEG  =    0.0;   TEEND  =   0.0 temperature during run
   SMASS  =  -3.00    Nose mass-parameter (am)
   estimated Nose-frequenzy (Omega)   =  0.10E-29 period in steps = 0.13E+47 mass=  -0.137E-25a.u.
   SCALEE = 1.0000    scale energy and forces
   NPACO  =    256;   APACO  = 16.0  distance and # of slots for P.C.
   PSTRESS=    0.0 pullay stress

  Mass of Ions in am
   POMASS =  63.55
  Ionic Valenz
   ZVAL   =  11.00
  Atomic Wigner-Seitz radii
   RWIGS  =  -1.00
  virtual crystal weights 
   VCA    =   1.00
   NELECT =     143.0000    total number of electrons
   NUPDOWN=      -1.0000    fix difference up-down

 DOS related values:
   EMIN   =  10.00;   EMAX   =-10.00  energy-range for DOS
   EFERMI =   0.00
   ISMEAR =     1;   SIGMA  =   0.20  broadening in eV -4-tet -1-fermi 0-gaus

 Electronic relaxation 2 (details)
   IALGO  =     38    algorithm
   LDIAG  =      T    sub-space diagonalisation (order eigenvalues)
   LSUBROT=      F    optimize rotation matrix (better conditioning)
   TURBO    =      0    0=normal 1=particle mesh
   IRESTART =      0    0=no restart 2=restart with 2 vectors
   NREBOOT  =      0    no. of reboots
   NMIN     =      0    reboot dimension
   EREF     =   0.00    reference energy to select bands
   IMIX   =      4    mixing-type and parameters
     AMIX     =   0.40;   BMIX     =  1.00
     AMIX_MAG =   1.60;   BMIX_MAG =  1.00
     AMIN     =   0.10
     WC   =   100.;   INIMIX=   1;  MIXPRE=   1;  MAXMIX= -45

 Intra band minimization:
   WEIMIN = 0.0010     energy-eigenvalue tresh-hold
   EBREAK =  0.27E-06  absolut break condition
   DEPER  =   0.30     relativ break condition  

   TIME   =   0.40     timestep for ELM

  volume/ion in A,a.u.               =    1115.44      7527.38
  Fermi-wavevector in a.u.,A,eV,Ry     =   0.351067  0.663420  1.676890  0.123248
  Thomas-Fermi vector in A             =   1.263423
 
 Write flags
   LWAVE        =      F    write WAVECAR
   LDOWNSAMPLE  =      F    k-point downsampling of WAVECAR
   LCHARG       =      F    write CHGCAR
   LVTOT        =      F    write LOCPOT, total local potential
   LVHAR        =      F    write LOCPOT, Hartree potential only
   LELF         =      F    write electronic localiz. function (ELF)
   LORBIT       =      0    0 simple, 1 ext, 2 COOP (PROOUT), +10 PAW based schemes


 Dipole corrections
   LMONO  =      F    monopole corrections only (constant potential shift)
   LDIPOL =      F    correct potential (dipole corrections)
   IDIPOL =      0    1-x, 2-y, 3-z, 4-all directions 
   EPSILON=  1.0000000 bulk dielectric constant

 Exchange correlation treatment:
   GGA     =    PE    GGA type
   LEXCH   =     8    internal setting for exchange type
   VOSKOWN=      0    Vosko Wilk Nusair interpolation
   LHFCALC =     F    Hartree Fock is set to
   LHFONE  =     F    Hartree Fock one center treatment
   AEXX    =    0.0000 exact exchange contribution

 Linear response parameters
   LEPSILON=     F    determine dielectric tensor
   LRPA    =     F    only Hartree local field effects (RPA)
   LNABLA  =     F    use nabla operator in PAW spheres
   LVEL    =     F    velocity operator in full k-point grid
   LINTERFAST=   F  fast interpolation
   KINTER  =     0    interpolate to denser k-point grid
   CSHIFT  =0.1000    complex shift for real part using Kramers Kronig
   OMEGAMAX=  -1.0    maximum frequency
   DEG_THRESHOLD= 0.2000000E-02 threshold for treating states as degnerate
   RTIME   =   -0.100 relaxation time in fs
  (WPLASMAI=    0.000 imaginary part of plasma frequency in eV, 0.658/RTIME)
   DFIELD  = 0.0000000 0.0000000 0.0000000 field for delta impulse in time
 
 Orbital magnetization related:
   ORBITALMAG=     F  switch on orbital magnetization
   LCHIMAG   =     F  perturbation theory with respect to B field
   DQ        =  0.001000  dq finite difference perturbation B field
   LLRAUG    =     F  two centre corrections for induced B field



--------------------------------------------------------------------------------------------------------


 conjugate gradient relaxation of ions
 charge density and potential will be updated during run
 spin polarized calculation
 Variant of blocked Davidson
 Davidson routine will perform the subspace rotation
 perform sub-space diagonalisation
    after iterative eigenvector-optimisation
 modified Broyden-mixing scheme, WC =      100.0
 initial mixing is a Kerker type mixing with AMIX =  0.4000 and BMIX =      1.0000
 Hartree-type preconditioning will be used
 using additional bands            20
 reciprocal scheme for non local part
 use partial core corrections
 calculate Harris-corrections to forces 
   (improved forces if not selfconsistent)
 use gradient corrections 
 use of overlap-Matrix (Vanderbilt PP)
 Methfessel and Paxton  Order N= 1 SIGMA  =   0.20


--------------------------------------------------------------------------------------------------------


  energy-cutoff  :      400.00
  volume of cell :    14500.77
      direct lattice vectors                 reciprocal lattice vectors
    24.509767166  0.000000000  0.000000000     0.040800061  0.000000000  0.000000000
     0.000000000 24.283156960  0.000000000     0.000000000  0.041180807  0.000000000
     0.000000000  0.000000000 24.363890426     0.000000000  0.000000000  0.041044348

  length of vectors
    24.509767166 24.283156960 24.363890426     0.040800061  0.041180807  0.041044348


 
 k-points in units of 2pi/SCALE and weight: KPOINTS created by Atomic Simulation Env
   0.00000000  0.00000000  0.00000000       1.000
 
 k-points in reciprocal lattice and weights: KPOINTS created by Atomic Simulation Env
   0.00000000  0.00000000  0.00000000       1.000
 
 position of ions in fractional coordinates (direct lattice) 
   0.51327253  0.42366668  0.54745372
   0.54956729  0.44465345  0.45332552
   0.57866571  0.50297200  0.53530752
   0.52494226  0.54322248  0.46088223
   0.41455210  0.39962586  0.54024032
   0.48368713  0.52252589  0.55802445
   0.45357577  0.46679639  0.47677588
   0.60933594  0.40996752  0.52416055
   0.50644116  0.61351034  0.52789841
   0.38701215  0.49662901  0.54730625
   0.42923301  0.56567150  0.48366759
   0.48704627  0.48970014  0.38705553
   0.44524422  0.45218582  0.61756948
 
 position of ions in cartesian coordinates  (Angst):
  12.58019024 10.28796449 13.33810236
  13.46976623 10.79758962 11.04477339
  14.18296177 12.21374813 13.04217365
  12.86621266 13.19115680 11.22888408
  10.16057533  9.70417754 13.16235595
  11.85505886 12.68857829 13.59564653
  11.11703663 11.33529012 11.61611538
  14.93468213  9.95530576 12.77059019
  12.41275486 14.89796780 12.86165894
   9.48557768 12.05972017 13.33450951
  10.52040110 13.73628982 11.78402428
  11.93739066 11.89146527  9.43017840
  10.91283223 10.98049919 15.04639522
 


--------------------------------------------------------------------------------------------------------


 use parallel FFT for orbitals z direction half grid
 k-point   1 :   0.0000 0.0000 0.0000  plane waves:  131716

 maximum and minimum number of plane-waves per node :     16469    16458

 maximum number of plane-waves:    131716
 maximum index in each direction: 
   IXMAX=   39   IYMAX=   39   IZMAX=   39
   IXMIN=  -39   IYMIN=  -39   IZMIN=    0


 parallel 3D FFT for wavefunctions:
    minimum data exchange during FFTs selected (reduces bandwidth)
 parallel 3D FFT for charge:
    minimum data exchange during FFTs selected (reduces bandwidth)


 total amount of memory used by VASP MPI-rank0   289949. kBytes
=======================================================================

   base      :      30000. kBytes
   nonl-proj :       5794. kBytes
   fftplans  :      63044. kBytes
   grid      :     142560. kBytes
   one-center:         31. kBytes
   wavefun   :      48520. kBytes
 
     INWAV:  cpu time    0.0000: real time    0.0000
 Broyden mixing: mesh for mixing (old mesh)
   NGX = 79   NGY = 79   NGZ = 79
  (NGX  =240   NGY  =240   NGZ  =240)
  gives a total of 493039 points

 initial charge density was supplied:
 charge density of overlapping atoms calculated
 number of electron     143.0000000 magnetization      13.0000000
 keeping initial charge density in first step


--------------------------------------------------------------------------------------------------------


 Maximum index for augmentation-charges           444 (set IRDMAX)


--------------------------------------------------------------------------------------------------------


 First call to EWALD:  gamma=   0.073
 Maximum number of real-space cells 3x 3x 3
 Maximum number of reciprocal cells 3x 3x 3

    FEWALD:  cpu time    0.0012: real time    0.0013


--------------------------------------- Iteration      1(   1)  ---------------------------------------


    POTLOK:  cpu time    4.2255: real time    4.2551
    SETDIJ:  cpu time    0.0432: real time    0.0432
     EDDAV:  cpu time   17.5551: real time   18.2210
       DOS:  cpu time    0.0060: real time    0.0060
    --------------------------------------------
      LOOP:  cpu time   21.8298: real time   22.5253

 eigenvalue-minimisations  :   368
 total energy-change (2. order) : 0.9761543E+03  (-0.2396504E+04)
 number of electron     143.0000000 magnetization      13.0000000
 augmentation part      143.0000000 magnetization      13.0000000

 Free energy of the ion-electron system (eV)
  ---------------------------------------------------
  alpha Z        PSCENC =         8.52330359
  Ewald energy   TEWEN  =     24875.76819292
  -Hartree energ DENC   =    -41339.78916670
  -exchange      EXHF   =         0.00000000
  -V(xc)+E(xc)   XCENC  =       584.05182490
  PAW double counting   =     15965.26744864   -17340.97210982
  entropy T*S    EENTRO =         0.01707250
  eigenvalues    EBANDS =       140.83844835
  atomic energy  EATOM  =     18082.44932260
  Solvation  Ediel_sol  =         0.00000000
  ---------------------------------------------------
  free energy    TOTEN  =       976.15433697 eV

  energy without entropy =      976.13726447  energy(sigma->0) =      976.14864614


--------------------------------------------------------------------------------------------------------




--------------------------------------- Iteration      1(   2)  ---------------------------------------


     EDDAV:  cpu time   17.4087: real time   17.6636
       DOS:  cpu time    0.0109: real time    0.0110
    --------------------------------------------
      LOOP:  cpu time   17.4196: real time   17.6746

 eigenvalue-minimisations  :   392
 total energy-change (2. order) :-0.6956775E+03  (-0.6183900E+03)
 number of electron     143.0000000 magnetization      13.0000000
 augmentation part      143.0000000 magnetization      13.0000000

 Free energy of the ion-electron system (eV)
  ---------------------------------------------------
  alpha Z        PSCENC =         8.52330359
  Ewald energy   TEWEN  =     24875.76819292
  -Hartree energ DENC   =    -41339.78916670
  -exchange      EXHF   =         0.00000000
  -V(xc)+E(xc)   XCENC  =       584.05182490
  PAW double counting   =     15965.26744864   -17340.97210982
  entropy T*S    EENTRO =         0.01149163
  eigenvalues    EBANDS =      -554.83347291
  atomic energy  EATOM  =     18082.44932260
  Solvation  Ediel_sol  =         0.00000000
  ---------------------------------------------------
  free energy    TOTEN  =       280.47683484 eV

  energy without entropy =      280.46534321  energy(sigma->0) =      280.47300430


--------------------------------------------------------------------------------------------------------




--------------------------------------- Iteration      1(   3)  ---------------------------------------


     EDDAV:  cpu time   20.0205: real time   20.3547
       DOS:  cpu time    0.0055: real time    0.0055
    --------------------------------------------
      LOOP:  cpu time   20.0260: real time   20.3602

 eigenvalue-minimisations  :   464
 total energy-change (2. order) :-0.2626124E+03  (-0.2519019E+03)
 number of electron     143.0000000 magnetization      13.0000000
 augmentation part      143.0000000 magnetization      13.0000000

 Free energy of the ion-electron system (eV)
  ---------------------------------------------------
  alpha Z        PSCENC =         8.52330359
  Ewald energy   TEWEN  =     24875.76819292
  -Hartree energ DENC   =    -41339.78916670
  -exchange      EXHF   =         0.00000000
  -V(xc)+E(xc)   XCENC  =       584.05182490
  PAW double counting   =     15965.26744864   -17340.97210982
  entropy T*S    EENTRO =         0.01210313
  eigenvalues    EBANDS =      -817.44648953
  atomic energy  EATOM  =     18082.44932260
  Solvation  Ediel_sol  =         0.00000000
  ---------------------------------------------------
  free energy    TOTEN  =        17.86442972 eV

  energy without entropy =       17.85232659  energy(sigma->0) =       17.86039534


--------------------------------------------------------------------------------------------------------




--------------------------------------- Iteration      1(   4)  ---------------------------------------


     EDDAV:  cpu time   19.6070: real time   19.7001
       DOS:  cpu time    0.0016: real time    0.0015
    --------------------------------------------
      LOOP:  cpu time   19.6085: real time   19.7017

 eigenvalue-minimisations  :   464
 total energy-change (2. order) :-0.5172152E+02  (-0.4681393E+02)
 number of electron     143.0000000 magnetization      13.0000000
 augmentation part      143.0000000 magnetization      13.0000000

 Free energy of the ion-electron system (eV)
  ---------------------------------------------------
  alpha Z        PSCENC =         8.52330359
  Ewald energy   TEWEN  =     24875.76819292
  -Hartree energ DENC   =    -41339.78916670
  -exchange      EXHF   =         0.00000000
  -V(xc)+E(xc)   XCENC  =       584.05182490
  PAW double counting   =     15965.26744864   -17340.97210982
  entropy T*S    EENTRO =         0.08519123
  eigenvalues    EBANDS =      -869.24110120
  atomic energy  EATOM  =     18082.44932260
  Solvation  Ediel_sol  =         0.00000000
  ---------------------------------------------------
  free energy    TOTEN  =       -33.85709385 eV

  energy without entropy =      -33.94228508  energy(sigma->0) =      -33.88549093


--------------------------------------------------------------------------------------------------------




--------------------------------------- Iteration      1(   5)  ---------------------------------------


     EDDAV:  cpu time   20.9298: real time   20.9940
       DOS:  cpu time    0.0054: real time    0.0054
    CHARGE:  cpu time    1.5886: real time    1.6189
    MIXING:  cpu time    0.0676: real time    0.0677
    --------------------------------------------
      LOOP:  cpu time   22.5915: real time   22.6861

 eigenvalue-minimisations  :   496
 total energy-change (2. order) :-0.2459802E+01  (-0.2437668E+01)
 number of electron     143.0000022 magnetization      12.0200252
 augmentation part       87.3842613 magnetization      10.9266405

 Broyden mixing:
  rms(total) = 0.27286E+01    rms(broyden)= 0.27284E+01
  rms(prec ) = 0.28044E+01
  weight for this iteration     100.00

 Free energy of the ion-electron system (eV)
  ---------------------------------------------------
  alpha Z        PSCENC =         8.52330359
  Ewald energy   TEWEN  =     24875.76819292
  -Hartree energ DENC   =    -41339.78916670
  -exchange      EXHF   =         0.00000000
  -V(xc)+E(xc)   XCENC  =       584.05182490
  PAW double counting   =     15965.26744864   -17340.97210982
  entropy T*S    EENTRO =         0.08607538
  eigenvalues    EBANDS =      -871.70178695
  atomic energy  EATOM  =     18082.44932260
  Solvation  Ediel_sol  =         0.00000000
  ---------------------------------------------------
  free energy    TOTEN  =       -36.31689545 eV

  energy without entropy =      -36.40297083  energy(sigma->0) =      -36.34558724


--------------------------------------------------------------------------------------------------------




--------------------------------------- Iteration      1(   6)  ---------------------------------------


    POTLOK:  cpu time    4.2544: real time    4.3068
    SETDIJ:  cpu time    0.0329: real time    0.0331
     EDDAV:  cpu time   18.5139: real time   18.7300
       DOS:  cpu time    0.0108: real time    0.0108
    CHARGE:  cpu time    1.5161: real time    1.5171
    MIXING:  cpu time    0.1386: real time    0.1428
    --------------------------------------------
      LOOP:  cpu time   24.4668: real time   26.9065

 eigenvalue-minimisations  :   404
 total energy-change (2. order) : 0.1634689E+02  (-0.1211335E+02)
 number of electron     143.0000020 magnetization      11.4465333
 augmentation part       94.9488891 magnetization       6.4991096

 Broyden mixing:
  rms(total) = 0.12343E+01    rms(broyden)= 0.12340E+01
  rms(prec ) = 0.13003E+01
  weight for this iteration     100.00

 eigenvalues of (default mixing * dielectric matrix)
  average eigenvalue GAMMA=   0.8379
  0.8379

 Free energy of the ion-electron system (eV)
  ---------------------------------------------------
  alpha Z        PSCENC =         8.52330359
  Ewald energy   TEWEN  =     24875.76819292
  -Hartree energ DENC   =    -41121.36266263
  -exchange      EXHF   =         0.00000000
  -V(xc)+E(xc)   XCENC  =       581.82766288
  PAW double counting   =     16100.79285837   -17430.82691894
  entropy T*S    EENTRO =        -0.04836892
  eigenvalues    EBANDS =     -1117.09339973
  atomic energy  EATOM  =     18082.44932260
  Solvation  Ediel_sol  =         0.00000000
  ---------------------------------------------------
  free energy    TOTEN  =       -19.97000986 eV

  energy without entropy =      -19.92164094  energy(sigma->0) =      -19.95388688


--------------------------------------------------------------------------------------------------------




--------------------------------------- Iteration      1(   7)  ---------------------------------------


    POTLOK:  cpu time    4.2844: real time    6.4642
    SETDIJ:  cpu time    0.0348: real time    0.0348
     EDDAV:  cpu time   18.9407: real time   19.0152
       DOS:  cpu time    0.0068: real time    0.0068
    CHARGE:  cpu time    1.6561: real time    1.6585
    MIXING:  cpu time    0.0888: real time    0.0890
    --------------------------------------------
      LOOP:  cpu time   25.0115: real time   25.1026

 eigenvalue-minimisations  :   448
 total energy-change (2. order) : 0.6931119E+01  (-0.3064117E+01)
 number of electron     143.0000024 magnetization      10.7637500
 augmentation part       92.3058694 magnetization       5.5718186

 Broyden mixing:
  rms(total) = 0.43807E+00    rms(broyden)= 0.43793E+00
  rms(prec ) = 0.45946E+00
  weight for this iteration     100.00

 eigenvalues of (default mixing * dielectric matrix)
  average eigenvalue GAMMA=   0.8451
  1.0111  0.6792

 Free energy of the ion-electron system (eV)
  ---------------------------------------------------
  alpha Z        PSCENC =         8.52330359
  Ewald energy   TEWEN  =     24875.76819292
  -Hartree energ DENC   =    -41275.84951609
  -exchange      EXHF   =         0.00000000
  -V(xc)+E(xc)   XCENC  =       590.76925878
  PAW double counting   =     16394.91202735   -17777.03006853
  entropy T*S    EENTRO =        -0.02867040
  eigenvalues    EBANDS =      -912.55274140
  atomic energy  EATOM  =     18082.44932260
  Solvation  Ediel_sol  =         0.00000000
  ---------------------------------------------------
  free energy    TOTEN  =       -13.03889118 eV

  energy without entropy =      -13.01022078  energy(sigma->0) =      -13.02933438


--------------------------------------------------------------------------------------------------------




--------------------------------------- Iteration      1(   8)  ---------------------------------------


    POTLOK:  cpu time    4.3950: real time    4.4114
    SETDIJ:  cpu time    0.0320: real time    0.0320
     EDDAV:  cpu time   19.8993: real time   20.4962
       DOS:  cpu time    0.0098: real time    0.0098
    CHARGE:  cpu time    1.5331: real time    1.5346
    MIXING:  cpu time    0.1251: real time    0.1252
    --------------------------------------------
      LOOP:  cpu time   25.9943: real time   26.6122

 eigenvalue-minimisations  :   452
 total energy-change (2. order) : 0.7096010E+00  (-0.6100864E+00)
 number of electron     143.0000021 magnetization      10.3048480
 augmentation part       91.5831938 magnetization       4.7439811

 Broyden mixing:
  rms(total) = 0.40033E+00    rms(broyden)= 0.40025E+00
  rms(prec ) = 0.41778E+00
  weight for this iteration     100.00

 eigenvalues of (default mixing * dielectric matrix)
  average eigenvalue GAMMA=   0.7729
  1.1124  0.6031  0.6031

 Free energy of the ion-electron system (eV)
  ---------------------------------------------------
  alpha Z        PSCENC =         8.52330359
  Ewald energy   TEWEN  =     24875.76819292
  -Hartree energ DENC   =    -41312.89808795
  -exchange      EXHF   =         0.00000000
  -V(xc)+E(xc)   XCENC  =       591.74430107
  PAW double counting   =     16586.86937371   -17980.94107303
  entropy T*S    EENTRO =        -0.00412970
  eigenvalues    EBANDS =      -863.84049335
  atomic energy  EATOM  =     18082.44932260
  Solvation  Ediel_sol  =         0.00000000
  ---------------------------------------------------
  free energy    TOTEN  =       -12.32929015 eV

  energy without entropy =      -12.32516045  energy(sigma->0) =      -12.32791358


--------------------------------------------------------------------------------------------------------




--------------------------------------- Iteration      1(   9)  ---------------------------------------


    POTLOK:  cpu time    4.3721: real time    4.4095
    SETDIJ:  cpu time    0.0423: real time    0.0423
     EDDAV:  cpu time   20.0803: real time   20.6813
       DOS:  cpu time    0.0108: real time    0.0108
    CHARGE:  cpu time    1.5400: real time    1.5410
    MIXING:  cpu time    0.1273: real time    0.1274
    --------------------------------------------
      LOOP:  cpu time   26.1729: real time   26.8094

 eigenvalue-minimisations  :   448
 total energy-change (2. order) :-0.1199130E+01  (-0.1411028E+00)
 number of electron     143.0000024 magnetization       9.4123057
 augmentation part       91.5922998 magnetization       4.1552308

 Broyden mixing:
  rms(total) = 0.26840E+00    rms(broyden)= 0.26837E+00
  rms(prec ) = 0.27649E+00
  weight for this iteration     100.00

 eigenvalues of (default mixing * dielectric matrix)
  average eigenvalue GAMMA=   0.8994
  1.2408  0.9428  0.9428  0.4711

 Free energy of the ion-electron system (eV)
  ---------------------------------------------------
  alpha Z        PSCENC =         8.52330359
  Ewald energy   TEWEN  =     24875.76819292
  -Hartree energ DENC   =    -41314.00160651
  -exchange      EXHF   =         0.00000000
  -V(xc)+E(xc)   XCENC  =       590.19457757
  PAW double counting   =     16659.09008642   -18053.92325181
  entropy T*S    EENTRO =        -0.02555906
  eigenvalues    EBANDS =      -861.60348576
  atomic energy  EATOM  =     18082.44932260
  Solvation  Ediel_sol  =         0.00000000
  ---------------------------------------------------
  free energy    TOTEN  =       -13.52842004 eV

  energy without entropy =      -13.50286099  energy(sigma->0) =      -13.51990036


--------------------------------------------------------------------------------------------------------




--------------------------------------- Iteration      1(  10)  ---------------------------------------


    POTLOK:  cpu time    4.3846: real time    4.4026
    SETDIJ:  cpu time    0.0425: real time    0.0426
     EDDAV:  cpu time   27.8849: real time   30.3263
       DOS:  cpu time    0.4750: real time    0.4753
    CHARGE:  cpu time    8.1524: real time    8.1686
    MIXING:  cpu time    0.1038: real time    0.1042
    --------------------------------------------
      LOOP:  cpu time   41.0432: real time   43.5195

 eigenvalue-minimisations  :   508
 total energy-change (2. order) :-0.2923135E+01  (-0.1656125E+00)
 number of electron     143.0000025 magnetization       8.8496874
 augmentation part       91.9753699 magnetization       4.4088198

 Broyden mixing:
  rms(total) = 0.21041E+00    rms(broyden)= 0.21032E+00
  rms(prec ) = 0.21718E+00
  weight for this iteration     100.00

 eigenvalues of (default mixing * dielectric matrix)
  average eigenvalue GAMMA=   0.9245
  1.6325  1.2192  0.7354  0.5177  0.5177

 Free energy of the ion-electron system (eV)
  ---------------------------------------------------
  alpha Z        PSCENC =         8.52330359
  Ewald energy   TEWEN  =     24875.76819292
  -Hartree energ DENC   =    -41308.52672495
  -exchange      EXHF   =         0.00000000
  -V(xc)+E(xc)   XCENC  =       586.97364612
  PAW double counting   =     16722.48020822   -18114.42081723
  entropy T*S    EENTRO =        -0.03702374
  eigenvalues    EBANDS =      -869.66166245
  atomic energy  EATOM  =     18082.44932260
  Solvation  Ediel_sol  =         0.00000000
  ---------------------------------------------------
  free energy    TOTEN  =       -16.45155492 eV

  energy without entropy =      -16.41453118  energy(sigma->0) =      -16.43921367


--------------------------------------------------------------------------------------------------------




--------------------------------------- Iteration      1(  11)  ---------------------------------------


    POTLOK:  cpu time    4.3328: real time    4.3978
    SETDIJ:  cpu time    0.0310: real time    0.0310
     EDDAV:  cpu time   19.8098: real time   20.0589
       DOS:  cpu time    0.0011: real time    0.0011
    CHARGE:  cpu time    1.5614: real time    1.5694
    MIXING:  cpu time    0.1120: real time    0.1122
    --------------------------------------------
      LOOP:  cpu time   25.8482: real time   26.1704

 eigenvalue-minimisations  :   472
 total energy-change (2. order) :-0.1665445E+01  (-0.6437495E-01)
 number of electron     143.0000024 magnetization       8.0428812
 augmentation part       92.0133817 magnetization       4.0210538

 Broyden mixing:
  rms(total) = 0.17351E+00    rms(broyden)= 0.17347E+00
  rms(prec ) = 0.17824E+00
  weight for this iteration     100.00

 eigenvalues of (default mixing * dielectric matrix)
  average eigenvalue GAMMA=   0.9785
  1.9847  1.3052  0.7895  0.7895  0.5326  0.4697

 Free energy of the ion-electron system (eV)
  ---------------------------------------------------
  alpha Z        PSCENC =         8.52330359
  Ewald energy   TEWEN  =     24875.76819292
  -Hartree energ DENC   =    -41313.86619003
  -exchange      EXHF   =         0.00000000
  -V(xc)+E(xc)   XCENC  =       585.60749966
  PAW double counting   =     16746.78562115   -18138.97163031
  entropy T*S    EENTRO =        -0.01514784
  eigenvalues    EBANDS =      -864.39797216
  atomic energy  EATOM  =     18082.44932260
  Solvation  Ediel_sol  =         0.00000000
  ---------------------------------------------------
  free energy    TOTEN  =       -18.11700042 eV

  energy without entropy =      -18.10185258  energy(sigma->0) =      -18.11195114


--------------------------------------------------------------------------------------------------------




--------------------------------------- Iteration      1(  12)  ---------------------------------------


    POTLOK:  cpu time    4.3421: real time    4.3890
    SETDIJ:  cpu time    0.0279: real time    0.0284
     EDDAV:  cpu time   20.4317: real time   20.5789
       DOS:  cpu time    0.0055: real time    0.0055
    CHARGE:  cpu time    1.5649: real time    1.5663
    MIXING:  cpu time    0.1528: real time    0.1529
    --------------------------------------------
      LOOP:  cpu time   26.5249: real time   26.7209

 eigenvalue-minimisations  :   496
 total energy-change (2. order) :-0.2354650E+01  (-0.8465178E-01)
 number of electron     143.0000024 magnetization       6.3903161
 augmentation part       91.8628576 magnetization       2.8072637

 Broyden mixing:
  rms(total) = 0.13788E+00    rms(broyden)= 0.13785E+00
  rms(prec ) = 0.14059E+00
  weight for this iteration     100.00

 eigenvalues of (default mixing * dielectric matrix)
  average eigenvalue GAMMA=   1.2220
  3.2463  1.9321  0.8289  0.8289  0.7721  0.4730  0.4730

 Free energy of the ion-electron system (eV)
  ---------------------------------------------------
  alpha Z        PSCENC =         8.52330359
  Ewald energy   TEWEN  =     24875.76819292
  -Hartree energ DENC   =    -41327.27349303
  -exchange      EXHF   =         0.00000000
  -V(xc)+E(xc)   XCENC  =       584.09519050
  PAW double counting   =     16763.55564278   -18157.95375919
  entropy T*S    EENTRO =         0.02470641
  eigenvalues    EBANDS =      -849.66075653
  atomic energy  EATOM  =     18082.44932260
  Solvation  Ediel_sol  =         0.00000000
  ---------------------------------------------------
  free energy    TOTEN  =       -20.47164994 eV

  energy without entropy =      -20.49635635  energy(sigma->0) =      -20.47988541


--------------------------------------------------------------------------------------------------------




--------------------------------------- Iteration      1(  13)  ---------------------------------------


    POTLOK:  cpu time    4.4036: real time    4.4116
    SETDIJ:  cpu time    0.0427: real time    0.0428
     EDDAV:  cpu time   33.1827: real time   40.2049
       DOS:  cpu time    0.0093: real time    0.0093
    CHARGE:  cpu time    1.5342: real time    1.5353
    MIXING:  cpu time    0.1617: real time    0.1619
    --------------------------------------------
      LOOP:  cpu time   39.3342: real time   46.3658

 eigenvalue-minimisations  :   456
 total energy-change (2. order) :-0.4401396E+01  (-0.2307641E+00)
 number of electron     143.0000024 magnetization       6.2320842
 augmentation part       91.7423977 magnetization       3.0926347

 Broyden mixing:
  rms(total) = 0.10543E+00    rms(broyden)= 0.10540E+00
  rms(prec ) = 0.10883E+00
  weight for this iteration     100.00

 eigenvalues of (default mixing * dielectric matrix)
  average eigenvalue GAMMA=   1.1854
  3.0314  2.1207  1.0085  1.0085  0.6886  0.6886  0.4684  0.4684

 Free energy of the ion-electron system (eV)
  ---------------------------------------------------
  alpha Z        PSCENC =         8.52330359
  Ewald energy   TEWEN  =     24875.76819292
  -Hartree energ DENC   =    -41335.95484813
  -exchange      EXHF   =         0.00000000
  -V(xc)+E(xc)   XCENC  =       580.70946005
  PAW double counting   =     16744.57692816   -18139.07497173
  entropy T*S    EENTRO =         0.04660871
  eigenvalues    EBANDS =      -841.91704248
  atomic energy  EATOM  =     18082.44932260
  Solvation  Ediel_sol  =         0.00000000
  ---------------------------------------------------
  free energy    TOTEN  =       -24.87304630 eV

  energy without entropy =      -24.91965502  energy(sigma->0) =      -24.88858254


--------------------------------------------------------------------------------------------------------




--------------------------------------- Iteration      1(  14)  ---------------------------------------


    POTLOK:  cpu time    4.4171: real time    4.4361
    SETDIJ:  cpu time    0.0408: real time    0.0409
     EDDAV:  cpu time   21.9379: real time   23.3010
       DOS:  cpu time    0.0024: real time    0.0024
    CHARGE:  cpu time    1.5742: real time    1.5752
    MIXING:  cpu time    0.1758: real time    0.1800
    --------------------------------------------
      LOOP:  cpu time   28.1482: real time   29.5356

 eigenvalue-minimisations  :   464
 total energy-change (2. order) :-0.1705426E+01  (-0.4672572E-01)
 number of electron     143.0000024 magnetization       5.8732129
 augmentation part       91.8691493 magnetization       2.8927513

 Broyden mixing:
  rms(total) = 0.91314E-01    rms(broyden)= 0.91303E-01
  rms(prec ) = 0.93510E-01
  weight for this iteration     100.00

 eigenvalues of (default mixing * dielectric matrix)
  average eigenvalue GAMMA=   1.1945
  2.8614  2.8614  1.0585  1.0585  0.7171  0.7171  0.4655  0.4655  0.5457

 Free energy of the ion-electron system (eV)
  ---------------------------------------------------
  alpha Z        PSCENC =         8.52330359
  Ewald energy   TEWEN  =     24875.76819292
  -Hartree energ DENC   =    -41323.62350078
  -exchange      EXHF   =         0.00000000
  -V(xc)+E(xc)   XCENC  =       579.01926790
  PAW double counting   =     16715.44281650   -18107.33856943
  entropy T*S    EENTRO =         0.04043363
  eigenvalues    EBANDS =      -856.85973883
  atomic energy  EATOM  =     18082.44932260
  Solvation  Ediel_sol  =         0.00000000
  ---------------------------------------------------
  free energy    TOTEN  =       -26.57847190 eV

  energy without entropy =      -26.61890553  energy(sigma->0) =      -26.59194978


--------------------------------------------------------------------------------------------------------




--------------------------------------- Iteration      1(  15)  ---------------------------------------


    POTLOK:  cpu time    4.3497: real time    4.3651
    SETDIJ:  cpu time    0.0397: real time    0.0398
     EDDAV:  cpu time   35.1047: real time   44.5879
       DOS:  cpu time    0.0062: real time    0.0062
    CHARGE:  cpu time    1.5601: real time    1.5703
    MIXING:  cpu time    0.1570: real time    0.1613
    --------------------------------------------
      LOOP:  cpu time   41.2174: real time   50.7305

 eigenvalue-minimisations  :   464
 total energy-change (2. order) :-0.1096585E+01  (-0.1967029E-01)
 number of electron     143.0000024 magnetization       5.0872513
 augmentation part       91.8985112 magnetization       2.2742942

 Broyden mixing:
  rms(total) = 0.76184E-01    rms(broyden)= 0.76173E-01
  rms(prec ) = 0.77875E-01
  weight for this iteration     100.00

 eigenvalues of (default mixing * dielectric matrix)
  average eigenvalue GAMMA=   1.2572
  3.3099  3.3099  1.0364  1.0364  0.9148  0.9148  0.6169  0.4988  0.4673  0.4673

 Free energy of the ion-electron system (eV)
  ---------------------------------------------------
  alpha Z        PSCENC =         8.52330359
  Ewald energy   TEWEN  =     24875.76819292
  -Hartree energ DENC   =    -41318.53295663
  -exchange      EXHF   =         0.00000000
  -V(xc)+E(xc)   XCENC  =       578.01703912
  PAW double counting   =     16693.22224750   -18084.73838580
  entropy T*S    EENTRO =         0.03047939
  eigenvalues    EBANDS =      -862.41429974
  atomic energy  EATOM  =     18082.44932260
  Solvation  Ediel_sol  =         0.00000000
  ---------------------------------------------------
  free energy    TOTEN  =       -27.67505705 eV

  energy without entropy =      -27.70553644  energy(sigma->0) =      -27.68521684


--------------------------------------------------------------------------------------------------------




--------------------------------------- Iteration      1(  16)  ---------------------------------------


    POTLOK:  cpu time    4.5005: real time    4.5510
    SETDIJ:  cpu time    0.0330: real time    0.0340
     EDDAV:  cpu time   22.1601: real time   23.3083
       DOS:  cpu time    0.0108: real time    0.0108
    CHARGE:  cpu time    1.5365: real time    1.5376
    MIXING:  cpu time    0.1921: real time    0.1922
    --------------------------------------------
      LOOP:  cpu time   28.4330: real time   29.6339

 eigenvalue-minimisations  :   480
 total energy-change (2. order) :-0.1527025E+01  (-0.3080010E-01)
 number of electron     143.0000024 magnetization       4.3276892
 augmentation part       91.8755792 magnetization       1.8379643

 Broyden mixing:
  rms(total) = 0.65503E-01    rms(broyden)= 0.65462E-01
  rms(prec ) = 0.67133E-01
  weight for this iteration     100.00

 eigenvalues of (default mixing * dielectric matrix)
  average eigenvalue GAMMA=   1.3171
  4.7103  2.1177  2.1177  1.0184  1.0184  0.7319  0.7319  0.6782  0.4680  0.4680
  0.4278

 Free energy of the ion-electron system (eV)
  ---------------------------------------------------
  alpha Z        PSCENC =         8.52330359
  Ewald energy   TEWEN  =     24875.76819292
  -Hartree energ DENC   =    -41312.44185209
  -exchange      EXHF   =         0.00000000
  -V(xc)+E(xc)   XCENC  =       576.66291208
  PAW double counting   =     16664.90978884   -18057.23320942
  entropy T*S    EENTRO =         0.00843721
  eigenvalues    EBANDS =      -867.84897781
  atomic energy  EATOM  =     18082.44932260
  Solvation  Ediel_sol  =         0.00000000
  ---------------------------------------------------
  free energy    TOTEN  =       -29.20208208 eV

  energy without entropy =      -29.21051929  energy(sigma->0) =      -29.20489448


--------------------------------------------------------------------------------------------------------




--------------------------------------- Iteration      1(  17)  ---------------------------------------


    POTLOK:  cpu time    4.3226: real time    4.3450
    SETDIJ:  cpu time    0.0393: real time    0.0394
     EDDAV:  cpu time   21.6641: real time   21.6911
       DOS:  cpu time    0.0096: real time    0.0096
    CHARGE:  cpu time    2.3943: real time    2.9759
    MIXING:  cpu time    0.2230: real time    0.2231
    --------------------------------------------
      LOOP:  cpu time   28.6530: real time   29.2841

 eigenvalue-minimisations  :   536
 total energy-change (2. order) :-0.5746161E+00  (-0.9771802E-02)
 number of electron     143.0000024 magnetization       3.5674113
 augmentation part       91.8082369 magnetization       1.3012911

 Broyden mixing:
  rms(total) = 0.46724E-01    rms(broyden)= 0.46686E-01
  rms(prec ) = 0.49131E-01
  weight for this iteration     100.00

 eigenvalues of (default mixing * dielectric matrix)
  average eigenvalue GAMMA=   1.4473
  6.3270  2.2508  2.2508  1.0144  1.0144  1.0470  0.7480  0.7480  0.5938  0.4712
  0.4712  0.4313

 Free energy of the ion-electron system (eV)
  ---------------------------------------------------
  alpha Z        PSCENC =         8.52330359
  Ewald energy   TEWEN  =     24875.76819292
  -Hartree energ DENC   =    -41313.33457478
  -exchange      EXHF   =         0.00000000
  -V(xc)+E(xc)   XCENC  =       576.17229206
  PAW double counting   =     16673.09624692   -18067.17617440
  entropy T*S    EENTRO =        -0.00134964
  eigenvalues    EBANDS =      -865.27395749
  atomic energy  EATOM  =     18082.44932260
  Solvation  Ediel_sol  =         0.00000000
  ---------------------------------------------------
  free energy    TOTEN  =       -29.77669821 eV

  energy without entropy =      -29.77534858  energy(sigma->0) =      -29.77624833


--------------------------------------------------------------------------------------------------------




--------------------------------------- Iteration      1(  18)  ---------------------------------------


    POTLOK:  cpu time    4.3661: real time    6.4095
    SETDIJ:  cpu time    0.0436: real time    0.0436
     EDDAV:  cpu time   23.9195: real time   25.6947
       DOS:  cpu time    0.0063: real time    0.0063
    CHARGE:  cpu time    1.5650: real time    1.5701
    MIXING:  cpu time    0.2380: real time    0.2382
    --------------------------------------------
      LOOP:  cpu time   30.1385: real time   33.9625

 eigenvalue-minimisations  :   504
 total energy-change (2. order) :-0.5032841E+00  (-0.9337261E-02)
 number of electron     143.0000024 magnetization       2.8462531
 augmentation part       91.8701338 magnetization       0.8481402

 Broyden mixing:
  rms(total) = 0.41428E-01    rms(broyden)= 0.41381E-01
  rms(prec ) = 0.43767E-01
  weight for this iteration     100.00

 eigenvalues of (default mixing * dielectric matrix)
  average eigenvalue GAMMA=   1.5739
  7.7762  2.5849  2.5849  1.3202  1.0198  1.0198  0.7963  0.7963  0.6329  0.5739
  0.4620  0.4620  0.4318

 Free energy of the ion-electron system (eV)
  ---------------------------------------------------
  alpha Z        PSCENC =         8.52330359
  Ewald energy   TEWEN  =     24875.76819292
  -Hartree energ DENC   =    -41306.90908309
  -exchange      EXHF   =         0.00000000
  -V(xc)+E(xc)   XCENC  =       575.52899868
  PAW double counting   =     16665.79834248   -18059.52551859
  entropy T*S    EENTRO =        -0.01419913
  eigenvalues    EBANDS =      -871.89934179
  atomic energy  EATOM  =     18082.44932260
  Solvation  Ediel_sol  =         0.00000000
  ---------------------------------------------------
  free energy    TOTEN  =       -30.27998232 eV

  energy without entropy =      -30.26578320  energy(sigma->0) =      -30.27524928


--------------------------------------------------------------------------------------------------------




--------------------------------------- Iteration      1(  19)  ---------------------------------------


    POTLOK:  cpu time    4.3387: real time    4.3506
    SETDIJ:  cpu time    0.0260: real time    0.6820
     EDDAV:  cpu time   22.8151: real time   24.1129
       DOS:  cpu time    0.0178: real time    0.0178
    CHARGE:  cpu time    1.5194: real time    1.5210
    MIXING:  cpu time    0.2495: real time    0.2499
    --------------------------------------------
      LOOP:  cpu time   28.9665: real time   30.9342

 eigenvalue-minimisations  :   516
 total energy-change (2. order) :-0.4873190E+00  (-0.5748320E-02)
 number of electron     143.0000023 magnetization       2.5836136
 augmentation part       91.8584028 magnetization       0.7979853

 Broyden mixing:
  rms(total) = 0.26358E-01    rms(broyden)= 0.26319E-01
  rms(prec ) = 0.28215E-01
  weight for this iteration     100.00

 eigenvalues of (default mixing * dielectric matrix)
  average eigenvalue GAMMA=   1.6075
  8.7296  2.6627  2.6627  1.3754  1.0166  1.0166  1.0724  0.7536  0.7536  0.5986
  0.5085  0.4577  0.4577  0.4394

 Free energy of the ion-electron system (eV)
  ---------------------------------------------------
  alpha Z        PSCENC =         8.52330359
  Ewald energy   TEWEN  =     24875.76819292
  -Hartree energ DENC   =    -41303.57235603
  -exchange      EXHF   =         0.00000000
  -V(xc)+E(xc)   XCENC  =       575.02311895
  PAW double counting   =     16665.72316020   -18059.79613590
  entropy T*S    EENTRO =        -0.02972537
  eigenvalues    EBANDS =      -874.85618233
  atomic energy  EATOM  =     18082.44932260
  Solvation  Ediel_sol  =         0.00000000
  ---------------------------------------------------
  free energy    TOTEN  =       -30.76730137 eV

  energy without entropy =      -30.73757600  energy(sigma->0) =      -30.75739291


--------------------------------------------------------------------------------------------------------




--------------------------------------- Iteration      1(  20)  ---------------------------------------


    POTLOK:  cpu time    4.3622: real time    4.3783
    SETDIJ:  cpu time    0.0436: real time    0.0436
     EDDAV:  cpu time   19.7706: real time   20.0217
       DOS:  cpu time    0.0066: real time    0.0066
    CHARGE:  cpu time    1.5181: real time    1.5196
    MIXING:  cpu time    0.2676: real time    0.2680
    --------------------------------------------
      LOOP:  cpu time   25.9688: real time   26.2378

 eigenvalue-minimisations  :   456
 total energy-change (2. order) :-0.2938086E+00  (-0.2079573E-02)
 number of electron     143.0000024 magnetization       2.3877413
 augmentation part       91.8248929 magnetization       0.6739603

 Broyden mixing:
  rms(total) = 0.20180E-01    rms(broyden)= 0.20169E-01
  rms(prec ) = 0.21632E-01
  weight for this iteration     100.00

 eigenvalues of (default mixing * dielectric matrix)
  average eigenvalue GAMMA=   1.6476
  9.8493  2.5653  2.5653  1.6290  1.3681  1.0378  1.0378  0.8037  0.8037  0.6411
  0.6411  0.4624  0.4624  0.4234  0.4234

 Free energy of the ion-electron system (eV)
  ---------------------------------------------------
  alpha Z        PSCENC =         8.52330359
  Ewald energy   TEWEN  =     24875.76819292
  -Hartree energ DENC   =    -41302.28544298
  -exchange      EXHF   =         0.00000000
  -V(xc)+E(xc)   XCENC  =       574.77250518
  PAW double counting   =     16665.79071399   -18060.13446178
  entropy T*S    EENTRO =        -0.03693754
  eigenvalues    EBANDS =      -875.90830597
  atomic energy  EATOM  =     18082.44932260
  Solvation  Ediel_sol  =         0.00000000
  ---------------------------------------------------
  free energy    TOTEN  =       -31.06110999 eV

  energy without entropy =      -31.02417245  energy(sigma->0) =      -31.04879748


--------------------------------------------------------------------------------------------------------




--------------------------------------- Iteration      1(  21)  ---------------------------------------


    POTLOK:  cpu time    4.3172: real time    4.3267
    SETDIJ:  cpu time    0.0412: real time    0.0412
     EDDAV:  cpu time   25.7927: real time   28.4276
       DOS:  cpu time    0.0063: real time    0.0063
    CHARGE:  cpu time    1.5397: real time    1.5558
    MIXING:  cpu time    0.2558: real time    0.2571
    --------------------------------------------
      LOOP:  cpu time   31.9530: real time   34.6147

 eigenvalue-minimisations  :   512
 total energy-change (2. order) :-0.1673258E+00  (-0.1200218E-02)
 number of electron     143.0000023 magnetization       2.0780490
 augmentation part       91.8372507 magnetization       0.4806962

 Broyden mixing:
  rms(total) = 0.20287E-01    rms(broyden)= 0.20275E-01
  rms(prec ) = 0.21529E-01
  weight for this iteration     100.00

 eigenvalues of (default mixing * dielectric matrix)
  average eigenvalue GAMMA=   1.6645
 10.6718  2.7873  2.7873  1.5878  1.5878  1.0291  1.0291  0.7858  0.7858  0.6468
  0.6468  0.5085  0.4372  0.4372  0.4521  0.4521

 Free energy of the ion-electron system (eV)
  ---------------------------------------------------
  alpha Z        PSCENC =         8.52330359
  Ewald energy   TEWEN  =     24875.76819292
  -Hartree energ DENC   =    -41300.01535092
  -exchange      EXHF   =         0.00000000
  -V(xc)+E(xc)   XCENC  =       574.58160086
  PAW double counting   =     16659.95595964   -18053.90412799
  entropy T*S    EENTRO =        -0.04298898
  eigenvalues    EBANDS =      -878.54434755
  atomic energy  EATOM  =     18082.44932260
  Solvation  Ediel_sol  =         0.00000000
  ---------------------------------------------------
  free energy    TOTEN  =       -31.22843583 eV

  energy without entropy =      -31.18544685  energy(sigma->0) =      -31.21410617


--------------------------------------------------------------------------------------------------------




--------------------------------------- Iteration      1(  22)  ---------------------------------------


    POTLOK:  cpu time    4.2733: real time    4.3204
    SETDIJ:  cpu time    0.0335: real time    0.0336
     EDDAV:  cpu time   21.9252: real time   23.0015
       DOS:  cpu time    0.0012: real time    0.0012
    CHARGE:  cpu time    1.5447: real time    1.5457
    MIXING:  cpu time    0.3116: real time    0.3119
    --------------------------------------------
      LOOP:  cpu time   28.0895: real time   29.2143

 eigenvalue-minimisations  :   496
 total energy-change (2. order) :-0.1882161E+00  (-0.5617795E-03)
 number of electron     143.0000023 magnetization       1.7846565
 augmentation part       91.8399799 magnetization       0.2944009

 Broyden mixing:
  rms(total) = 0.12386E-01    rms(broyden)= 0.12370E-01
  rms(prec ) = 0.13615E-01
  weight for this iteration     100.00

 eigenvalues of (default mixing * dielectric matrix)
  average eigenvalue GAMMA=   1.7468
 12.1069  3.0941  3.0941  1.5396  1.5396  1.0523  1.0523  0.8993  0.8993  0.6886
  0.6886  0.6762  0.5901  0.4608  0.4608  0.4264  0.4264

 Free energy of the ion-electron system (eV)
  ---------------------------------------------------
  alpha Z        PSCENC =         8.52330359
  Ewald energy   TEWEN  =     24875.76819292
  -Hartree energ DENC   =    -41298.48823972
  -exchange      EXHF   =         0.00000000
  -V(xc)+E(xc)   XCENC  =       574.37491435
  PAW double counting   =     16663.44419653   -18057.26117228
  entropy T*S    EENTRO =        -0.05097593
  eigenvalues    EBANDS =      -880.17619394
  atomic energy  EATOM  =     18082.44932260
  Solvation  Ediel_sol  =         0.00000000
  ---------------------------------------------------
  free energy    TOTEN  =       -31.41665190 eV

  energy without entropy =      -31.36567596  energy(sigma->0) =      -31.39965992


--------------------------------------------------------------------------------------------------------




--------------------------------------- Iteration      1(  23)  ---------------------------------------


    POTLOK:  cpu time    4.2680: real time    4.2865
    SETDIJ:  cpu time    0.0415: real time    0.0415
     EDDAV:  cpu time   33.2716: real time   40.8721
       DOS:  cpu time    0.0092: real time    0.0092
    CHARGE:  cpu time    1.5251: real time    1.5263
    MIXING:  cpu time    0.3207: real time    0.3209
    --------------------------------------------
      LOOP:  cpu time   39.4361: real time   47.0685

 eigenvalue-minimisations  :   528
 total energy-change (2. order) :-0.1444805E+00  (-0.3531495E-03)
 number of electron     143.0000023 magnetization       1.6084783
 augmentation part       91.8383368 magnetization       0.2216783

 Broyden mixing:
  rms(total) = 0.69523E-02    rms(broyden)= 0.69275E-02
  rms(prec ) = 0.81366E-02
  weight for this iteration     100.00

 eigenvalues of (default mixing * dielectric matrix)
  average eigenvalue GAMMA=   1.8085
 13.3752  3.2456  3.2456  1.5710  1.5710  1.5051  1.0274  1.0274  0.8703  0.8703
  0.7200  0.6415  0.6415  0.4599  0.4599  0.4739  0.4333  0.4133

 Free energy of the ion-electron system (eV)
  ---------------------------------------------------
  alpha Z        PSCENC =         8.52330359
  Ewald energy   TEWEN  =     24875.76819292
  -Hartree energ DENC   =    -41297.17254788
  -exchange      EXHF   =         0.00000000
  -V(xc)+E(xc)   XCENC  =       574.21631341
  PAW double counting   =     16667.45140561   -18061.22343604
  entropy T*S    EENTRO =        -0.05884779
  eigenvalues    EBANDS =      -881.51483876
  atomic energy  EATOM  =     18082.44932260
  Solvation  Ediel_sol  =         0.00000000
  ---------------------------------------------------
  free energy    TOTEN  =       -31.56113235 eV

  energy without entropy =      -31.50228456  energy(sigma->0) =      -31.54151642


--------------------------------------------------------------------------------------------------------




--------------------------------------- Iteration      1(  24)  ---------------------------------------


    POTLOK:  cpu time    4.8958: real time    6.3727
    SETDIJ:  cpu time    0.1331: real time    0.2572
     EDDAV:  cpu time   33.5526: real time   39.3569
       DOS:  cpu time    0.0030: real time    0.0030
    CHARGE:  cpu time    1.5578: real time    1.5759
    MIXING:  cpu time    0.2969: real time    0.2973
    --------------------------------------------
      LOOP:  cpu time   40.4391: real time   47.8511

 eigenvalue-minimisations  :   512
 total energy-change (2. order) :-0.6581759E-01  (-0.2183796E-03)
 number of electron     143.0000023 magnetization       1.4707955
 augmentation part       91.8418776 magnetization       0.1749692

 Broyden mixing:
  rms(total) = 0.56607E-02    rms(broyden)= 0.56383E-02
  rms(prec ) = 0.64910E-02
  weight for this iteration     100.00

 eigenvalues of (default mixing * dielectric matrix)
  average eigenvalue GAMMA=   1.8429
 14.2380  3.4603  3.4603  1.9223  1.9223  1.0335  1.0335  1.1427  0.9899  0.8627
  0.8627  0.6471  0.6471  0.5722  0.4629  0.4629  0.4433  0.4433  0.4081

 Free energy of the ion-electron system (eV)
  ---------------------------------------------------
  alpha Z        PSCENC =         8.52330359
  Ewald energy   TEWEN  =     24875.76819292
  -Hartree energ DENC   =    -41295.42464056
  -exchange      EXHF   =         0.00000000
  -V(xc)+E(xc)   XCENC  =       574.13672788
  PAW double counting   =     16665.92118386   -18059.57166503
  entropy T*S    EENTRO =        -0.06411340
  eigenvalues    EBANDS =      -883.36526179
  atomic energy  EATOM  =     18082.44932260
  Solvation  Ediel_sol  =         0.00000000
  ---------------------------------------------------
  free energy    TOTEN  =       -31.62694994 eV

  energy without entropy =      -31.56283654  energy(sigma->0) =      -31.60557881


--------------------------------------------------------------------------------------------------------




--------------------------------------- Iteration      1(  25)  ---------------------------------------


    POTLOK:  cpu time    4.3217: real time    4.3437
    SETDIJ:  cpu time    0.0349: real time    0.0350
     EDDAV:  cpu time   18.6743: real time   18.7741
       DOS:  cpu time    0.0096: real time    0.0097
    CHARGE:  cpu time    2.2569: real time    2.2592
    MIXING:  cpu time    0.3376: real time    0.3382
    --------------------------------------------
      LOOP:  cpu time   25.6350: real time   25.7599

 eigenvalue-minimisations  :   428
 total energy-change (2. order) :-0.3591961E-01  (-0.1055256E-03)
 number of electron     143.0000023 magnetization       1.4002451
 augmentation part       91.8382646 magnetization       0.1720937

 Broyden mixing:
  rms(total) = 0.38699E-02    rms(broyden)= 0.38496E-02
  rms(prec ) = 0.45693E-02
  weight for this iteration     100.00

 eigenvalues of (default mixing * dielectric matrix)
  average eigenvalue GAMMA=   1.8648
 14.9195  3.6687  3.6687  2.0536  2.0536  1.2331  1.2331  1.0276  1.0276  0.8151
  0.8151  0.6636  0.6636  0.6221  0.6221  0.4625  0.4625  0.4342  0.4342  0.4162

 Free energy of the ion-electron system (eV)
  ---------------------------------------------------
  alpha Z        PSCENC =         8.52330359
  Ewald energy   TEWEN  =     24875.76819292
  -Hartree energ DENC   =    -41294.49450283
  -exchange      EXHF   =         0.00000000
  -V(xc)+E(xc)   XCENC  =       574.09985303
  PAW double counting   =     16666.58901463   -18060.28393223
  entropy T*S    EENTRO =        -0.06762637
  eigenvalues    EBANDS =      -884.24649488
  atomic energy  EATOM  =     18082.44932260
  Solvation  Ediel_sol  =         0.00000000
  ---------------------------------------------------
  free energy    TOTEN  =       -31.66286955 eV

  energy without entropy =      -31.59524318  energy(sigma->0) =      -31.64032743


--------------------------------------------------------------------------------------------------------




--------------------------------------- Iteration      1(  26)  ---------------------------------------


    POTLOK:  cpu time    4.3860: real time    4.4403
    SETDIJ:  cpu time    0.0375: real time    0.0375
     EDDAV:  cpu time   36.5811: real time   39.5152
       DOS:  cpu time    0.0027: real time    0.0027
    CHARGE:  cpu time    1.5526: real time    1.5544
    MIXING:  cpu time    0.3513: real time    0.3518
    --------------------------------------------
      LOOP:  cpu time   42.9112: real time   45.9019

 eigenvalue-minimisations  :   348
 total energy-change (2. order) :-0.1105614E-01  (-0.4280551E-04)
 number of electron     143.0000023 magnetization       1.3386627
 augmentation part       91.8371903 magnetization       0.1491536

 Broyden mixing:
  rms(total) = 0.31334E-02    rms(broyden)= 0.31235E-02
  rms(prec ) = 0.37444E-02
  weight for this iteration     100.00

 eigenvalues of (default mixing * dielectric matrix)
  average eigenvalue GAMMA=   1.8802
 15.5275  3.8927  3.8927  2.2064  2.2064  1.3031  1.3031  1.0251  1.0251  0.8544
  0.8544  0.7591  0.7591  0.6118  0.6118  0.4634  0.4634  0.4549  0.4327  0.4327
  0.4031

 Free energy of the ion-electron system (eV)
  ---------------------------------------------------
  alpha Z        PSCENC =         8.52330359
  Ewald energy   TEWEN  =     24875.76819292
  -Hartree energ DENC   =    -41293.85658203
  -exchange      EXHF   =         0.00000000
  -V(xc)+E(xc)   XCENC  =       574.08487193
  PAW double counting   =     16666.62464461   -18060.32604191
  entropy T*S    EENTRO =        -0.06954519
  eigenvalues    EBANDS =      -884.87209220
  atomic energy  EATOM  =     18082.44932260
  Solvation  Ediel_sol  =         0.00000000
  ---------------------------------------------------
  free energy    TOTEN  =       -31.67392569 eV

  energy without entropy =      -31.60438049  energy(sigma->0) =      -31.65074396


--------------------------------------------------------------------------------------------------------




--------------------------------------- Iteration      1(  27)  ---------------------------------------


    POTLOK:  cpu time    4.2713: real time    4.3096
    SETDIJ:  cpu time    0.0349: real time    0.0350
     EDDAV:  cpu time   13.8372: real time   13.9383
       DOS:  cpu time    0.0090: real time    0.0090
    CHARGE:  cpu time    1.5426: real time    1.5524
    MIXING:  cpu time    0.3776: real time    0.3781
    --------------------------------------------
      LOOP:  cpu time   20.0726: real time   20.2225

 eigenvalue-minimisations  :   276
 total energy-change (2. order) :-0.2439101E-02  (-0.2416004E-04)
 number of electron     143.0000023 magnetization       1.2952249
 augmentation part       91.8387402 magnetization       0.1369537

 Broyden mixing:
  rms(total) = 0.20803E-02    rms(broyden)= 0.20721E-02
  rms(prec ) = 0.25516E-02
  weight for this iteration     100.00

 eigenvalues of (default mixing * dielectric matrix)
  average eigenvalue GAMMA=   1.8791
 15.7705  4.1081  4.1081  2.3404  2.3404  1.2801  1.2801  1.0278  1.0278  0.9755
  0.8913  0.8913  0.8007  0.6490  0.6490  0.5832  0.4653  0.4653  0.4504  0.4346
  0.4168  0.3844

 Free energy of the ion-electron system (eV)
  ---------------------------------------------------
  alpha Z        PSCENC =         8.52330359
  Ewald energy   TEWEN  =     24875.76819292
  -Hartree energ DENC   =    -41293.13612396
  -exchange      EXHF   =         0.00000000
  -V(xc)+E(xc)   XCENC  =       574.07419513
  PAW double counting   =     16666.73061953   -18060.41410612
  entropy T*S    EENTRO =        -0.07145538
  eigenvalues    EBANDS =      -885.60031309
  atomic energy  EATOM  =     18082.44932260
  Solvation  Ediel_sol  =         0.00000000
  ---------------------------------------------------
  free energy    TOTEN  =       -31.67636479 eV

  energy without entropy =      -31.60490941  energy(sigma->0) =      -31.65254633


--------------------------------------------------------------------------------------------------------




--------------------------------------- Iteration      1(  28)  ---------------------------------------


    POTLOK:  cpu time    4.2878: real time    6.0337
    SETDIJ:  cpu time    0.0330: real time    0.0331
     EDDAV:  cpu time   16.9786: real time   17.1762
       DOS:  cpu time    0.0012: real time    0.0012
    CHARGE:  cpu time    1.5581: real time    1.5646
    MIXING:  cpu time    0.4003: real time    0.4023
    --------------------------------------------
      LOOP:  cpu time   23.2590: real time   25.2110

 eigenvalue-minimisations  :   316
 total energy-change (2. order) :-0.4668569E-02  (-0.4031317E-04)
 number of electron     143.0000023 magnetization       1.2812644
 augmentation part       91.8389650 magnetization       0.1481735

 Broyden mixing:
  rms(total) = 0.19901E-02    rms(broyden)= 0.19853E-02
  rms(prec ) = 0.22816E-02
  weight for this iteration     100.00

 eigenvalues of (default mixing * dielectric matrix)
  average eigenvalue GAMMA=   1.8622
 15.9342  4.2443  4.2443  2.3801  2.3801  1.6736  1.1705  1.1705  1.0271  1.0271
  0.8822  0.8822  0.7445  0.7445  0.5908  0.5908  0.5764  0.4629  0.4629  0.4366
  0.4366  0.4132  0.3550

 Free energy of the ion-electron system (eV)
  ---------------------------------------------------
  alpha Z        PSCENC =         8.52330359
  Ewald energy   TEWEN  =     24875.76819292
  -Hartree energ DENC   =    -41292.47729687
  -exchange      EXHF   =         0.00000000
  -V(xc)+E(xc)   XCENC  =       574.06530668
  PAW double counting   =     16666.39109393   -18060.08392371
  entropy T*S    EENTRO =        -0.07303077
  eigenvalues    EBANDS =      -886.24400172
  atomic energy  EATOM  =     18082.44932260
  Solvation  Ediel_sol  =         0.00000000
  ---------------------------------------------------
  free energy    TOTEN  =       -31.68103336 eV

  energy without entropy =      -31.60800259  energy(sigma->0) =      -31.65668977


--------------------------------------------------------------------------------------------------------




--------------------------------------- Iteration      1(  29)  ---------------------------------------


    POTLOK:  cpu time    4.3080: real time    4.3515
    SETDIJ:  cpu time    0.0315: real time    0.0317
     EDDAV:  cpu time   13.7854: real time   14.0240
       DOS:  cpu time    0.0054: real time    0.0054
    CHARGE:  cpu time    1.5384: real time    1.5474
    MIXING:  cpu time    0.4045: real time    0.4209
    --------------------------------------------
      LOOP:  cpu time   20.0731: real time   20.3809

 eigenvalue-minimisations  :   280
 total energy-change (2. order) :-0.2785447E-02  (-0.1433177E-04)
 number of electron     143.0000023 magnetization       1.2532585
 augmentation part       91.8392377 magnetization       0.1312409

 Broyden mixing:
  rms(total) = 0.15239E-02    rms(broyden)= 0.15216E-02
  rms(prec ) = 0.17450E-02
  weight for this iteration     100.00

 eigenvalues of (default mixing * dielectric matrix)
  average eigenvalue GAMMA=   1.8586
 16.1706  4.4740  4.4740  2.4875  2.4875  1.8584  1.2435  1.2435  1.0270  1.0270
  0.8686  0.8686  0.7747  0.7747  0.6248  0.6248  0.6162  0.4618  0.4618  0.4373
  0.4373  0.4055  0.3995  0.3583

 Free energy of the ion-electron system (eV)
  ---------------------------------------------------
  alpha Z        PSCENC =         8.52330359
  Ewald energy   TEWEN  =     24875.76819292
  -Hartree energ DENC   =    -41292.15248201
  -exchange      EXHF   =         0.00000000
  -V(xc)+E(xc)   XCENC  =       574.06104301
  PAW double counting   =     16666.16284060   -18059.84137500
  entropy T*S    EENTRO =        -0.07343292
  eigenvalues    EBANDS =      -886.58123159
  atomic energy  EATOM  =     18082.44932260
  Solvation  Ediel_sol  =         0.00000000
  ---------------------------------------------------
  free energy    TOTEN  =       -31.68381881 eV

  energy without entropy =      -31.61038589  energy(sigma->0) =      -31.65934117


--------------------------------------------------------------------------------------------------------




--------------------------------------- Iteration      1(  30)  ---------------------------------------


    POTLOK:  cpu time    4.3391: real time    4.4000
    SETDIJ:  cpu time    0.0325: real time    0.0326
     EDDAV:  cpu time   13.4076: real time   13.5607
       DOS:  cpu time    0.0032: real time    0.0032
    CHARGE:  cpu time    1.5477: real time    1.5568
    MIXING:  cpu time    0.4200: real time    0.4491
    --------------------------------------------
      LOOP:  cpu time   19.7502: real time   20.0026

 eigenvalue-minimisations  :   272
 total energy-change (2. order) :-0.3089152E-02  (-0.1297797E-04)
[...]
     26      -6.3492      1.00000
     27      -6.2947      1.00000
     28      -6.2129      1.00000
     29      -6.2013      1.00000
     30      -6.1848      1.00000
     31      -6.1442      1.00000
     32      -6.1165      1.00000
     33      -6.0838      1.00000
     34      -6.0584      1.00000
     35      -6.0139      1.00000
     36      -5.9942      1.00000
     37      -5.9709      1.00000
     38      -5.9380      1.00000
     39      -5.8677      1.00000
     40      -5.8469      1.00000
     41      -5.8081      1.00000
     42      -5.8039      1.00000
     43      -5.7682      1.00000
     44      -5.7164      1.00000
     45      -5.7042      1.00000
     46      -5.6651      1.00000
     47      -5.6508      1.00000
     48      -5.5985      1.00000
     49      -5.5911      1.00000
     50      -5.5783      1.00000
     51      -5.5660      1.00000
     52      -5.5239      1.00000
     53      -5.5002      1.00000
     54      -5.4806      1.00000
     55      -5.4434      1.00000
     56      -5.4221      1.00000
     57      -5.3855      1.00000
     58      -5.3717      1.00000
     59      -5.3470      1.00000
     60      -5.3318      1.00000
     61      -5.3049      1.00000
     62      -5.2850      1.00000
     63      -5.2580      1.00000
     64      -5.2513      1.00000
     65      -5.2150      1.00000
     66      -5.1933      1.00000
     67      -5.1774      1.00000
     68      -5.1179      1.00000
     69      -5.0840      1.00000
     70      -4.5178      1.00012
     71      -4.1629      1.03508
     72      -3.9278      0.50073
     73      -3.6867     -0.03539
     74      -3.3740     -0.00032
     75      -3.0615     -0.00000
     76      -2.2711     -0.00000
     77      -2.0459     -0.00000
     78      -1.9703     -0.00000
     79      -1.6643     -0.00000
     80      -1.5022     -0.00000
     81      -1.3478     -0.00000
     82      -1.1715     -0.00000
     83      -1.0188     -0.00000
     84      -0.8514     -0.00000
     85      -0.5366     -0.00000
     86      -0.4328     -0.00000
     87      -0.2129     -0.00000
     88      -0.1007     -0.00000
     89       0.1277     -0.00000
     90       0.2116     -0.00000
     91       0.2993     -0.00000
     92       0.3090     -0.00000

 spin component 2

 k-point     1 :       0.0000    0.0000    0.0000
  band No.  band energies     occupation 
      1     -10.4541      1.00000
      2      -8.7693      1.00000
      3      -8.6801      1.00000
      4      -8.2852      1.00000
      5      -7.8603      1.00000
      6      -7.7070      1.00000
      7      -7.5021      1.00000
      8      -7.4315      1.00000
      9      -7.2835      1.00000
     10      -7.2519      1.00000
     11      -7.1936      1.00000
     12      -7.1255      1.00000
     13      -7.0730      1.00000
     14      -7.0294      1.00000
     15      -6.8836      1.00000
     16      -6.8673      1.00000
     17      -6.8364      1.00000
     18      -6.7739      1.00000
     19      -6.7146      1.00000
     20      -6.6642      1.00000
     21      -6.6286      1.00000
     22      -6.5978      1.00000
     23      -6.4866      1.00000
     24      -6.4063      1.00000
     25      -6.3791      1.00000
     26      -6.3492      1.00000
     27      -6.2947      1.00000
     28      -6.2129      1.00000
     29      -6.2013      1.00000
     30      -6.1848      1.00000
     31      -6.1441      1.00000
     32      -6.1165      1.00000
     33      -6.0838      1.00000
     34      -6.0584      1.00000
     35      -6.0139      1.00000
     36      -5.9941      1.00000
     37      -5.9709      1.00000
     38      -5.9380      1.00000
     39      -5.8676      1.00000
     40      -5.8468      1.00000
     41      -5.8081      1.00000
     42      -5.8039      1.00000
     43      -5.7682      1.00000
     44      -5.7164      1.00000
     45      -5.7042      1.00000
     46      -5.6651      1.00000
     47      -5.6508      1.00000
     48      -5.5985      1.00000
     49      -5.5911      1.00000
     50      -5.5783      1.00000
     51      -5.5660      1.00000
     52      -5.5239      1.00000
     53      -5.5002      1.00000
     54      -5.4806      1.00000
     55      -5.4434      1.00000
     56      -5.4221      1.00000
     57      -5.3855      1.00000
     58      -5.3717      1.00000
     59      -5.3470      1.00000
     60      -5.3318      1.00000
     61      -5.3048      1.00000
     62      -5.2850      1.00000
     63      -5.2580      1.00000
     64      -5.2513      1.00000
     65      -5.2150      1.00000
     66      -5.1933      1.00000
     67      -5.1774      1.00000
     68      -5.1179      1.00000
     69      -5.0840      1.00000
     70      -4.5178      1.00012
     71      -4.1629      1.03507
     72      -3.9277      0.50031
     73      -3.6866     -0.03539
     74      -3.3739     -0.00032
     75      -3.0614     -0.00000
     76      -2.2710     -0.00000
     77      -2.0458     -0.00000
     78      -1.9701     -0.00000
     79      -1.6641     -0.00000
     80      -1.5021     -0.00000
     81      -1.3476     -0.00000
     82      -1.1714     -0.00000
     83      -1.0186     -0.00000
     84      -0.8511     -0.00000
     85      -0.5359     -0.00000
     86      -0.4320     -0.00000
     87      -0.2112     -0.00000
     88      -0.0969     -0.00000
     89       0.1255     -0.00000
     90       0.2128     -0.00000
     91       0.3036     -0.00000
     92       0.3124     -0.00000


--------------------------------------------------------------------------------------------------------


 soft charge-density along one line, spin component            1
         0         1         2         3         4         5         6         7         8         9
 total charge-density along one line
 
 soft charge-density along one line, spin component            2
         0         1         2         3         4         5         6         7         8         9
 total charge-density along one line
 
 pseudopotential strength for first ion, spin component:            1
-10.964   0.022   0.032  -0.004  -0.003   1.364  -0.017  -0.024
  0.022 -10.941  -0.001  -0.020   0.004  -0.017   1.346   0.001
  0.032  -0.001 -10.983   0.019   0.029  -0.024   0.001   1.377
 -0.004  -0.020   0.019 -10.999   0.023   0.004   0.016  -0.015
 -0.003   0.004   0.029   0.023 -10.956   0.002  -0.004  -0.023
  1.364  -0.017  -0.024   0.004   0.002   6.041   0.012   0.017
 -0.017   1.346   0.001   0.016  -0.004   0.012   6.051  -0.002
 -0.024   0.001   1.377  -0.015  -0.023   0.017  -0.002   6.030
  0.004   0.016  -0.015   1.391  -0.018  -0.004  -0.011   0.010
  0.002  -0.004  -0.023  -0.018   1.358  -0.002   0.004   0.015
  0.007   0.003   0.001  -0.007   0.008  -0.002  -0.003  -0.003
  0.012   0.005   0.001  -0.013   0.015  -0.003  -0.006  -0.005
  0.009   0.009   0.004   0.000   0.008  -0.006  -0.007  -0.004
  0.000  -0.007   0.010   0.008   0.000  -0.001   0.008  -0.008
 -0.007   0.000  -0.004   0.010   0.007   0.007  -0.001   0.003
  0.010   0.011   0.005   0.000   0.009  -0.007  -0.007  -0.006
  0.000  -0.009   0.012   0.010   0.000  -0.001   0.011  -0.008
 -0.009   0.000  -0.005   0.011   0.009   0.009  -0.001   0.004
 pseudopotential strength for first ion, spin component:            2
-10.964   0.022   0.032  -0.004  -0.003   1.364  -0.017  -0.024
  0.022 -10.941  -0.001  -0.020   0.004  -0.017   1.346   0.001
  0.032  -0.001 -10.983   0.019   0.029  -0.024   0.001   1.377
 -0.004  -0.020   0.019 -10.999   0.023   0.004   0.016  -0.015
 -0.003   0.004   0.029   0.023 -10.956   0.002  -0.004  -0.023
  1.364  -0.017  -0.024   0.004   0.002   6.041   0.012   0.017
 -0.017   1.346   0.001   0.016  -0.004   0.012   6.051  -0.002
 -0.024   0.001   1.377  -0.015  -0.023   0.017  -0.002   6.030
  0.004   0.016  -0.015   1.391  -0.018  -0.004  -0.011   0.010
  0.002  -0.004  -0.023  -0.018   1.358  -0.002   0.004   0.015
  0.007   0.003   0.001  -0.007   0.008  -0.002  -0.003  -0.003
  0.012   0.005   0.001  -0.013   0.015  -0.003  -0.006  -0.005
  0.009   0.009   0.004   0.000   0.008  -0.006  -0.007  -0.004
  0.000  -0.007   0.010   0.008   0.000  -0.001   0.008  -0.008
 -0.007   0.000  -0.004   0.010   0.007   0.007  -0.001   0.003
  0.010   0.011   0.005   0.000   0.009  -0.007  -0.007  -0.006
  0.000  -0.009   0.012   0.010   0.000  -0.001   0.011  -0.008
 -0.009   0.000  -0.005   0.011   0.009   0.009  -0.001   0.004
 total augmentation occupancy for first ion, spin component:            1
  1.926   0.006   0.011  -0.004  -0.005  -0.011  -0.004  -0.010   0.001   0.002  -0.020  -0.002   0.003   0.001   0.010   0.007
  0.006   1.940  -0.004  -0.005   0.007  -0.004  -0.035  -0.002  -0.001  -0.001   0.007  -0.004  -0.018   0.024  -0.001   0.010
  0.011  -0.004   1.927   0.010   0.008  -0.010  -0.002  -0.015  -0.010  -0.008   0.018   0.007  -0.009  -0.032   0.002   0.004
 -0.004  -0.005   0.010   1.920   0.008   0.001  -0.001  -0.010  -0.013  -0.005   0.006   0.008   0.004  -0.008  -0.014  -0.000
 -0.005   0.007   0.008   0.008   1.936   0.002  -0.001  -0.008  -0.005  -0.021  -0.031  -0.010  -0.016   0.002  -0.016   0.009
 -0.011  -0.004  -0.010   0.001   0.002   0.014  -0.002  -0.001  -0.000  -0.000   0.024  -0.001  -0.002  -0.004   0.008  -0.000
 -0.004  -0.035  -0.002  -0.001  -0.001  -0.002   0.009  -0.001  -0.001   0.001  -0.003   0.002  -0.004   0.020  -0.003   0.000
 -0.010  -0.002  -0.015  -0.010  -0.008  -0.001  -0.001   0.012  -0.000  -0.002  -0.022   0.002  -0.005  -0.011  -0.003   0.000
  0.001  -0.001  -0.010  -0.013  -0.005  -0.000  -0.001  -0.000   0.015  -0.003  -0.041   0.004  -0.003  -0.011  -0.016   0.000
  0.002  -0.001  -0.008  -0.005  -0.021  -0.000   0.001  -0.002  -0.003   0.017   0.060  -0.004  -0.025  -0.006  -0.003   0.001
 -0.020   0.007   0.018   0.006  -0.031   0.024  -0.003  -0.022  -0.041   0.060   1.658  -0.142   0.108  -0.101  -0.040  -0.016
 -0.002  -0.004   0.007   0.008  -0.010  -0.001   0.002   0.002   0.004  -0.004  -0.142   0.015  -0.021   0.011   0.001   0.002
  0.003  -0.018  -0.009   0.004  -0.016  -0.002  -0.004  -0.005  -0.003  -0.025   0.108  -0.021   0.159   0.015   0.020  -0.009
  0.001   0.024  -0.032  -0.008   0.002  -0.004   0.020  -0.011  -0.011  -0.006  -0.101   0.011   0.015   0.161  -0.040   0.000
  0.010  -0.001   0.002  -0.014  -0.016   0.008  -0.003  -0.003  -0.016  -0.003  -0.040   0.001   0.020  -0.040   0.247  -0.001
  0.007   0.010   0.004  -0.000   0.009  -0.000   0.000   0.000   0.000   0.001  -0.016   0.002  -0.009   0.000  -0.001   0.001
 -0.000  -0.008   0.014   0.009   0.001   0.000  -0.001   0.001   0.000   0.000   0.013  -0.001   0.000  -0.010   0.003  -0.000
 -0.006  -0.000  -0.003   0.012   0.006  -0.001   0.000  -0.000   0.001   0.000   0.004  -0.000  -0.001   0.003  -0.015  -0.000
 total augmentation occupancy for first ion, spin component:            2
 -0.000  -0.000   0.000   0.000  -0.000   0.000   0.000   0.000  -0.000   0.000  -0.000  -0.000  -0.000   0.000   0.000  -0.000
 -0.000   0.000   0.000  -0.000   0.000   0.000   0.000  -0.000   0.000  -0.000   0.000   0.000   0.000  -0.000  -0.000   0.000
  0.000   0.000  -0.000  -0.000   0.000   0.000  -0.000   0.000   0.000  -0.000   0.000  -0.000   0.000  -0.000   0.000   0.000
  0.000  -0.000  -0.000   0.000  -0.000  -0.000   0.000   0.000  -0.000   0.000  -0.000  -0.000  -0.000   0.000   0.000  -0.000
 -0.000   0.000   0.000  -0.000   0.000   0.000  -0.000  -0.000   0.000  -0.000   0.000   0.000   0.000  -0.000  -0.000   0.000
  0.000   0.000   0.000  -0.000   0.000   0.000  -0.000   0.000   0.000  -0.000   0.000   0.000   0.000  -0.000   0.000  -0.000
  0.000   0.000  -0.000   0.000  -0.000  -0.000   0.000   0.000  -0.000   0.000  -0.000   0.000  -0.000   0.000   0.000   0.000
  0.000  -0.000   0.000   0.000  -0.000   0.000   0.000  -0.000  -0.000   0.000   0.000   0.000  -0.000   0.000   0.000   0.000
 -0.000   0.000   0.000  -0.000   0.000   0.000  -0.000  -0.000   0.000  -0.000   0.000   0.000   0.000  -0.000  -0.000  -0.000
  0.000  -0.000  -0.000   0.000  -0.000  -0.000   0.000   0.000  -0.000   0.000  -0.000  -0.000  -0.000   0.000   0.000   0.000
 -0.000   0.000   0.000  -0.000   0.000   0.000  -0.000   0.000   0.000  -0.000   0.000   0.000   0.000  -0.000  -0.000  -0.000
 -0.000   0.000  -0.000  -0.000   0.000   0.000   0.000   0.000   0.000  -0.000   0.000   0.000   0.000  -0.000  -0.000   0.000
 -0.000   0.000   0.000  -0.000   0.000   0.000  -0.000  -0.000   0.000  -0.000   0.000   0.000   0.000  -0.000  -0.000  -0.000
  0.000  -0.000  -0.000   0.000  -0.000  -0.000   0.000   0.000  -0.000   0.000  -0.000  -0.000  -0.000   0.000   0.000   0.000
  0.000  -0.000   0.000   0.000  -0.000   0.000   0.000   0.000  -0.000   0.000  -0.000  -0.000  -0.000   0.000  -0.000  -0.000
 -0.000   0.000   0.000  -0.000   0.000  -0.000   0.000   0.000  -0.000   0.000  -0.000   0.000  -0.000   0.000  -0.000   0.000
 -0.000  -0.000  -0.000   0.000  -0.000  -0.000  -0.000   0.000   0.000  -0.000   0.000  -0.000   0.000  -0.000  -0.000  -0.000
  0.000  -0.000   0.000  -0.000   0.000  -0.000  -0.000  -0.000   0.000   0.000   0.000  -0.000   0.000  -0.000   0.000  -0.000


------------------------ aborting loop because EDIFF is reached ----------------------------------------


    CHARGE:  cpu time    2.4407: real time    2.4625
    FORLOC:  cpu time    0.1688: real time    0.1690
    FORNL :  cpu time    7.3953: real time    7.4167
    FORCOR:  cpu time    5.6311: real time    5.6697
    FORHAR:  cpu time    0.7976: real time    0.8099
    MIXING:  cpu time    0.1226: real time    0.1242
    OFIELD:  cpu time    0.0000: real time    0.0000

 VOLUME and BASIS-vectors are now :
 -----------------------------------------------------------------------------
  energy-cutoff  :      400.00
  volume of cell :    14500.77
      direct lattice vectors                 reciprocal lattice vectors
    24.509767166  0.000000000  0.000000000     0.040800061  0.000000000  0.000000000
     0.000000000 24.283156960  0.000000000     0.000000000  0.041180807  0.000000000
     0.000000000  0.000000000 24.363890426     0.000000000  0.000000000  0.041044348

  length of vectors
    24.509767166 24.283156960 24.363890426     0.040800061  0.041180807  0.041044348


 FORCES acting on ions
    electron-ion (+dipol)            ewald-force                    non-local-force                 convergence-correction
 -----------------------------------------------------------------------------------------------
   -.312E+03 0.934E+03 -.562E+03   0.310E+03 -.933E+03 0.559E+03   0.166E+01 -.123E+01 0.288E+01   0.218E-01 -.356E-03 -.273E-01
   -.689E+03 0.648E+03 0.853E+03   0.686E+03 -.644E+03 -.850E+03   0.220E+01 -.341E+01 -.325E+01   0.430E-01 0.640E-01 -.833E-02
   -.120E+04 -.401E+03 -.496E+03   0.119E+04 0.397E+03 0.493E+03   0.790E+01 0.471E+01 0.237E+01   0.599E-01 -.378E-01 -.720E-01
   -.509E+03 -.785E+03 0.758E+03   0.508E+03 0.784E+03 -.756E+03   0.156E+01 0.158E+01 -.242E+01   -.113E+00 0.396E-01 -.530E-01
   0.764E+03 0.115E+04 -.672E+02   -.756E+03 -.115E+04 0.670E+02   -.750E+01 -.656E+01 0.187E+00   -.686E-03 0.901E-02 0.911E-02
   -.538E+02 -.639E+03 -.956E+03   0.544E+02 0.636E+03 0.955E+03   -.730E+00 0.332E+01 0.109E+01   0.878E-01 0.738E-02 0.254E-01
   0.737E+03 0.416E+03 0.764E+03   -.735E+03 -.416E+03 -.761E+03   -.146E+01 -.272E+00 -.226E+01   -.109E-01 -.627E-01 -.122E+00
   -.105E+04 0.772E+03 -.148E+03   0.104E+04 -.765E+03 0.145E+03   0.872E+01 -.702E+01 0.294E+01   -.722E-01 -.893E-01 0.426E-01
   -.322E+03 -.130E+04 -.189E+03   0.319E+03 0.129E+04 0.184E+03   0.320E+01 0.940E+01 0.515E+01   -.268E-01 0.135E-01 -.746E-02
   0.134E+04 -.138E+03 -.349E+03   -.133E+04 0.142E+03 0.346E+03   -.833E+01 -.349E+01 0.253E+01   0.727E-01 0.147E-03 0.167E-01
   0.931E+03 -.972E+03 0.365E+03   -.928E+03 0.966E+03 -.360E+03   -.352E+01 0.593E+01 -.488E+01   -.320E-01 -.880E-02 0.244E-01
   0.507E+02 0.146E+02 0.135E+04   -.464E+02 -.148E+02 -.134E+04   -.435E+01 0.163E+00 -.119E+02   0.638E-01 -.176E-01 -.132E-01
   0.311E+03 0.293E+03 -.133E+04   -.310E+03 -.290E+03 0.132E+04   -.125E+01 -.325E+01 0.853E+01   0.350E-01 0.279E-01 0.781E-01
 -----------------------------------------------------------------------------------------------
   0.170E+01 0.203E+00 -.903E+00   0.171E-12 0.000E+00 0.000E+00   -.189E+01 -.139E+00 0.995E+00   0.128E+00 -.551E-01 -.107E+00
 
 
 POSITION                                       TOTAL-FORCE (eV/Angst)
 -----------------------------------------------------------------------------------
     12.53824     10.32239     13.32468        -0.028053      0.006181      0.002269
     13.39835     10.78713     11.10931         0.011565     -0.006967      0.008257
     14.07643     12.14017     13.08720         0.004993      0.007834     -0.004491
     12.68222     13.15600     11.28940         0.000389      0.011211      0.009574
     10.32900      9.56724     13.08036         0.007724      0.008660      0.000615
     11.85081     12.83448     13.67640         0.003767     -0.002613      0.002204
     11.03801     11.34972     11.53394        -0.005684     -0.001985      0.000300
     14.85035      9.84425     12.72394        -0.014607     -0.013121     -0.000510
     12.48989     15.01455     12.67396        -0.008831     -0.010521     -0.010734
      9.59034     12.00801     13.33018         0.012323     -0.005706     -0.006149
     10.42760     13.83940     12.02682        -0.008350      0.007942      0.009292
     12.19912     11.84888      9.37014         0.005858     -0.000077     -0.008170
     10.96506     11.02754     15.02909         0.018905     -0.000837     -0.002458
 -----------------------------------------------------------------------------------
    total drift:                               -0.057101      0.009174     -0.015518


--------------------------------------------------------------------------------------------------------



  FREE ENERGIE OF THE ION-ELECTRON SYSTEM (eV)
  ---------------------------------------------------
  free  energy   TOTEN  =       -31.97237697 eV

  energy  without entropy=      -31.96663274  energy(sigma->0) =      -31.97046223
 
 d Force = 0.1757504E-04[ 0.180E-04, 0.172E-04]  d Energy = 0.4091149E-04-0.233E-04
 d Force = 0.1434984E+01[ 0.144E+01, 0.143E+01]  d Ewald  = 0.1434985E+01-0.498E-06


--------------------------------------------------------------------------------------------------------


    POTLOK:  cpu time    5.9367: real time    5.9741


--------------------------------------------------------------------------------------------------------




--------------------------------------------------------------------------------------------------------


  
 reached required accuracy - stopping structural energy minimisation
     LOOP+:  cpu time   87.0242: real time   88.3122
    4ORBIT:  cpu time    0.0000: real time    0.0000

 total amount of memory used by VASP MPI-rank0   289949. kBytes
=======================================================================

   base      :      30000. kBytes
   nonl-proj :       5794. kBytes
   fftplans  :      63044. kBytes
   grid      :     142560. kBytes
   one-center:         31. kBytes
   wavefun   :      48520. kBytes
 
  
  
 General timing and accounting informations for this job:
 ========================================================
  
                  Total CPU time used (sec):     8282.855
                            User time (sec):     8152.396
                          System time (sec):      130.460
                         Elapsed time (sec):     8730.054
  
                   Maximum memory used (kb):      586632.
                   Average memory used (kb):           0.
  
                          Minor page faults:      7606458
                          Major page faults:        39964
                 Voluntary context switches:         2256
