unknown system                          
            1
    24.509767    0.000000    0.000000
     0.000000   24.283157    0.000000
     0.000000    0.000000   24.363890
   Cu
    13
Direct configuration=     1
   0.51327253  0.42366668  0.54745372
   0.54956729  0.44465345  0.45332552
   0.57866571  0.50297200  0.53530752
   0.52494226  0.54322248  0.46088223
   0.41455210  0.39962586  0.54024032
   0.48368713  0.52252589  0.55802445
   0.45357577  0.46679639  0.47677588
   0.60933594  0.40996752  0.52416055
   0.50644116  0.61351034  0.52789841
   0.38701215  0.49662901  0.54730625
   0.42923301  0.56567150  0.48366759
   0.48704627  0.48970014  0.38705553
   0.44524422  0.45218582  0.61756948
Direct configuration=     2
   0.51311409  0.42367639  0.54726904
   0.54929064  0.44511249  0.45392600
   0.57807802  0.50271747  0.53509968
   0.52449792  0.54318337  0.46120392
   0.41521896  0.39946373  0.54003245
   0.48342484  0.52256630  0.55815579
   0.45320078  0.46659916  0.47679918
   0.60915911  0.40986019  0.52393340
   0.50675729  0.61324995  0.52720497
   0.38758676  0.49690684  0.54701629
   0.42914216  0.56543530  0.48421467
   0.48773540  0.48985621  0.38742028
   0.44536958  0.45249969  0.61739176
Direct configuration=     3
   0.51263877  0.42370551  0.54671502
   0.54846069  0.44648961  0.45572741
   0.57631494  0.50195387  0.53447619
   0.52316487  0.54306602  0.46216900
   0.41721955  0.39897735  0.53940886
   0.48263798  0.52268753  0.55854981
   0.45207581  0.46600747  0.47686906
   0.60862859  0.40953818  0.52325194
   0.50770569  0.61246877  0.52512467
   0.38931060  0.49774035  0.54614642
   0.42886960  0.56472670  0.48585590
   0.48980278  0.49032443  0.38851456
   0.44574567  0.45344129  0.61685860
Direct configuration=     4
   0.51246896  0.42337148  0.54664877
   0.54802746  0.44652376  0.45598448
   0.57568316  0.50175080  0.53497698
   0.52239547  0.54309583  0.46206386
   0.41825453  0.39798570  0.53910382
   0.48288982  0.52337872  0.55910371
   0.45159950  0.46565836  0.47603181
   0.60843796  0.40905408  0.52294555
   0.50845616  0.61294127  0.52433273
   0.38915799  0.49781689  0.54641948
   0.42838655  0.56513238  0.48641960
   0.49102305  0.49049152  0.38858664
   0.44579492  0.45392633  0.61705002
Direct configuration=     5
   0.51215459  0.42275309  0.54652610
   0.54722542  0.44658697  0.45646039
   0.57451355  0.50137484  0.53590410
   0.52097108  0.54315102  0.46186920
   0.42017059  0.39614985  0.53853911
   0.48335606  0.52465832  0.56012916
   0.45071770  0.46501205  0.47448182
   0.60808505  0.40815786  0.52237835
   0.50984549  0.61381599  0.52286659
   0.38887546  0.49795858  0.54692500
   0.42749229  0.56588340  0.48746319
   0.49328214  0.49080085  0.38872007
   0.44588611  0.45482427  0.61740437
Direct configuration=     6
   0.51212310  0.42265961  0.54662873
   0.54711066  0.44578975  0.45659841
   0.57430505  0.50099279  0.53689503
   0.52025367  0.54327847  0.46228250
   0.42113762  0.39497666  0.53826178
   0.48298640  0.52580220  0.56028407
   0.44994756  0.46519102  0.47425909
   0.60771359  0.40770668  0.52202409
   0.51053841  0.61497103  0.52234503
   0.38917303  0.49740476  0.54743125
   0.42713369  0.56665075  0.48835792
   0.49433148  0.49059665  0.38698595
   0.44582129  0.45510673  0.61731358
Direct configuration=     7
   0.51210850  0.42261626  0.54667632
   0.54705744  0.44542008  0.45666242
   0.57420837  0.50081564  0.53735451
   0.51992101  0.54333756  0.46247415
   0.42158602  0.39443266  0.53813319
   0.48281499  0.52633261  0.56035590
   0.44959046  0.46527401  0.47415582
   0.60754134  0.40749747  0.52185982
   0.51085971  0.61550660  0.52210318
   0.38931101  0.49714796  0.54766600
   0.42696742  0.56700656  0.48877280
   0.49481805  0.49050197  0.38618186
   0.44579123  0.45523771  0.61727148
Direct configuration=     8
   0.51219579  0.42320419  0.54689458
   0.54644912  0.44536163  0.45625034
   0.57407067  0.50041100  0.53781707
   0.51953439  0.54228955  0.46256174
   0.42155414  0.39394098  0.53810230
   0.48249903  0.52696025  0.56004614
   0.44986044  0.46615584  0.47423894
   0.60742840  0.40721069  0.52187423
   0.51089147  0.61653152  0.52209479
   0.38978487  0.49644679  0.54779918
   0.42681500  0.56752872  0.48950525
   0.49556669  0.49011800  0.38556987
   0.44592553  0.45496793  0.61691301
Direct configuration=     9
   0.51223420  0.42346290  0.54699062
   0.54618144  0.44533591  0.45606901
   0.57401007  0.50023295  0.53802061
   0.51936426  0.54182839  0.46260029
   0.42154012  0.39372463  0.53808871
   0.48235999  0.52723643  0.55990983
   0.44997924  0.46654388  0.47427552
   0.60737871  0.40708450  0.52188057
   0.51090544  0.61698251  0.52209110
   0.38999339  0.49613826  0.54785778
   0.42674793  0.56775848  0.48982755
   0.49589612  0.48994905  0.38530058
   0.44598463  0.45484922  0.61675527
Direct configuration=    10
   0.51198204  0.42424104  0.54712138
   0.54602511  0.44486316  0.45592945
   0.57388221  0.49990819  0.53820479
   0.51898424  0.54172697  0.46340635
   0.42152622  0.39358614  0.53792089
   0.48256525  0.52779484  0.55978632
   0.45027532  0.46728784  0.47451623
   0.60706509  0.40693322  0.52177701
   0.51068291  0.61717912  0.52152244
   0.39021949  0.49539477  0.54766726
   0.42649969  0.56850699  0.49069869
   0.49647338  0.48935845  0.38461146
   0.44639460  0.45434636  0.61650518
Direct configuration=    11
   0.51193649  0.42438161  0.54714500
   0.54599686  0.44477776  0.45590424
   0.57385911  0.49984952  0.53823806
   0.51891559  0.54170865  0.46355196
   0.42152371  0.39356112  0.53789058
   0.48260233  0.52789571  0.55976401
   0.45032880  0.46742223  0.47455971
   0.60700844  0.40690590  0.52175830
   0.51064272  0.61721464  0.52141972
   0.39026033  0.49526046  0.54763284
   0.42645484  0.56864221  0.49085606
   0.49657766  0.48925176  0.38448698
   0.44646865  0.45425552  0.61646000
Direct configuration=    12
   0.51165363  0.42463735  0.54708407
   0.54620314  0.44440931  0.45593571
   0.57405774  0.49988498  0.53814264
   0.51873038  0.54178089  0.46343965
   0.42154302  0.39362491  0.53761393
   0.48285186  0.52794726  0.56034156
   0.45038560  0.46746908  0.47444412
   0.60669764  0.40674858  0.52167633
   0.51041289  0.61735680  0.52094183
   0.39031004  0.49506293  0.54732021
   0.42598636  0.56917297  0.49151999
   0.49690295  0.48894479  0.38468678
   0.44684029  0.45408725  0.61652063
Direct configuration=    13
   0.51130277  0.42495457  0.54700849
   0.54645901  0.44395229  0.45597473
   0.57430412  0.49992895  0.53802427
   0.51850064  0.54187049  0.46330034
   0.42156697  0.39370404  0.53727079
   0.48316138  0.52801120  0.56105794
   0.45045605  0.46752719  0.47430074
   0.60631212  0.40655344  0.52157465
   0.51012782  0.61753313  0.52034908
   0.39037170  0.49481791  0.54693242
   0.42540525  0.56983133  0.49234353
   0.49730645  0.48856403  0.38493462
   0.44730127  0.45387853  0.61659583
Direct configuration=    14
   0.51150351  0.42520796  0.54683233
   0.54649889  0.44386719  0.45594943
   0.57437384  0.50004273  0.53762695
   0.51801889  0.54170887  0.46324520
   0.42134662  0.39374959  0.53689343
   0.48327337  0.52829397  0.56147438
   0.45057914  0.46762286  0.47387915
   0.60606679  0.40601023  0.52177838
   0.50972014  0.61785823  0.51995193
   0.39079436  0.49466687  0.54671895
   0.42526356  0.57013340  0.49337444
   0.49766368  0.48809447  0.38516539
   0.44747275  0.45387072  0.61677749
Direct configuration=    15
   0.51155256  0.42526988  0.54678928
   0.54650863  0.44384640  0.45594325
   0.57439087  0.50007054  0.53752985
   0.51790116  0.54166938  0.46323172
   0.42129278  0.39376072  0.53680121
   0.48330074  0.52836307  0.56157615
   0.45060922  0.46764623  0.47377612
   0.60600684  0.40587748  0.52182817
   0.50962052  0.61793767  0.51985489
   0.39089765  0.49462997  0.54666679
   0.42522894  0.57020721  0.49362636
   0.49775097  0.48797973  0.38522178
   0.44751466  0.45386881  0.61682188
Direct configuration=    16
   0.51133750  0.42511064  0.54693672
   0.54668239  0.44393688  0.45603157
   0.57424669  0.50007268  0.53736742
   0.51776430  0.54188363  0.46359703
   0.42150704  0.39397113  0.53689522
   0.48335036  0.52845974  0.56126955
   0.45036804  0.46751379  0.47378720
   0.60609378  0.40571308  0.52197402
   0.50966305  0.61801956  0.52003808
   0.39110381  0.49448894  0.54698885
   0.42549866  0.56999119  0.49354809
   0.49760448  0.48799112  0.38461697
   0.44735542  0.45397472  0.61661672
Direct configuration=    17
   0.51139656  0.42515437  0.54689623
   0.54663467  0.44391203  0.45600732
   0.57428629  0.50007209  0.53741203
   0.51780189  0.54182479  0.46349670
   0.42144820  0.39391335  0.53686940
   0.48333674  0.52843319  0.56135375
   0.45043428  0.46755016  0.47378416
   0.60606991  0.40575823  0.52193397
   0.50965137  0.61799707  0.51998777
   0.39104720  0.49452767  0.54690041
   0.42542459  0.57005052  0.49356958
   0.49764471  0.48798799  0.38478306
   0.44739915  0.45394563  0.61667307
Direct configuration=    18
   0.51152693  0.42509770  0.54692058
   0.54662605  0.44414386  0.45600053
   0.57422621  0.49999605  0.53723211
   0.51759944  0.54167513  0.46344204
   0.42144440  0.39397002  0.53689118
   0.48341909  0.52851127  0.56126654
   0.45039681  0.46748077  0.47356228
   0.60603231  0.40553526  0.52214790
   0.50963534  0.61827871  0.52020330
   0.39120220  0.49447679  0.54712659
   0.42551680  0.56991961  0.49358679
   0.49764500  0.48797395  0.38457926
   0.44730496  0.45406798  0.61670834
Direct configuration=    19
   0.51151341  0.42510358  0.54691806
   0.54662694  0.44411982  0.45600123
   0.57423244  0.50000394  0.53725077
   0.51762044  0.54169065  0.46344771
   0.42144479  0.39396414  0.53688892
   0.48341055  0.52850318  0.56127559
   0.45040070  0.46748796  0.47358529
   0.60603621  0.40555839  0.52212571
   0.50963700  0.61824950  0.52018095
   0.39118613  0.49448207  0.54710313
   0.42550724  0.56993319  0.49358501
   0.49764497  0.48797540  0.38460039
   0.44731473  0.45405529  0.61670468
Direct configuration=    20
   0.51155516  0.42508684  0.54690477
   0.54665045  0.44421022  0.45597759
   0.57430884  0.49994932  0.53716713
   0.51745770  0.54176471  0.46337587
   0.42142641  0.39398395  0.53687642
   0.48350138  0.52853042  0.56133133
   0.45035758  0.46740234  0.47342486
   0.60591216  0.40541395  0.52223125
   0.50959403  0.61830371  0.52019281
   0.39127449  0.49449731  0.54712538
   0.42545418  0.56991946  0.49362710
   0.49771515  0.48794993  0.38459247
   0.44736803  0.45411493  0.61684045
Direct configuration=    21
   0.51156087  0.42508455  0.54690296
   0.54665367  0.44422259  0.45597435
   0.57431930  0.49994185  0.53715569
   0.51743543  0.54177484  0.46336604
   0.42142390  0.39398666  0.53687471
   0.48351381  0.52853415  0.56133896
   0.45035167  0.46739062  0.47340291
   0.60589518  0.40539418  0.52224570
   0.50958814  0.61831112  0.52019443
   0.39128658  0.49449940  0.54712842
   0.42544692  0.56991759  0.49363286
   0.49772476  0.48794645  0.38459138
   0.44737532  0.45412309  0.61685903
