  10  10   0   0
  0.1159636E+04  0.2208998E-08  0.2168724E-08  0.2420596E-08  0.5000000E-15
   1.0000000000000000E-004
  CAR 
 unknown system                          
      2.02265962    -11.89099421  301     -4.11229598      1.00000000
    -11.891  0.0000E+00  0.0000E+00  0.0000E+00  0.0000E+00
    -11.845  0.0000E+00  0.0000E+00  0.0000E+00  0.0000E+00
    -11.798  0.0000E+00  0.0000E+00  0.0000E+00  0.0000E+00
    -11.752  0.0000E+00  0.0000E+00  0.0000E+00  0.0000E+00
    -11.705  0.0000E+00  0.0000E+00  0.0000E+00  0.0000E+00
    -11.659  0.0000E+00  0.0000E+00  0.0000E+00  0.0000E+00
    -11.613  0.0000E+00  0.0000E+00  0.0000E+00  0.0000E+00
    -11.566  0.0000E+00  0.0000E+00  0.0000E+00  0.0000E+00
    -11.520 -0.7665E-27  0.0000E+00 -0.3555E-28  0.0000E+00
    -11.474 -0.3008E-25 -0.1865E-27 -0.1430E-26 -0.8648E-29
    -11.427 -0.1083E-23 -0.7628E-26 -0.5165E-25 -0.3624E-27
    -11.381 -0.3496E-22 -0.2860E-24 -0.1673E-23 -0.1363E-25
    -11.334 -0.1012E-20 -0.9620E-23 -0.4862E-22 -0.4598E-24
    -11.288 -0.2628E-19 -0.2902E-21 -0.1268E-20 -0.1392E-22
    -11.242 -0.6119E-18 -0.7849E-20 -0.2965E-19 -0.3779E-21
    -11.195 -0.1277E-16 -0.1904E-18 -0.6219E-18 -0.9207E-20
    -11.149 -0.2389E-15 -0.4139E-17 -0.1170E-16 -0.2012E-18
    -11.103 -0.4005E-14 -0.8068E-16 -0.1974E-15 -0.3943E-17
    -11.056 -0.5776E-13 -0.1409E-14 -0.2876E-14 -0.6931E-16
    -11.010 -0.7843E-12 -0.2086E-13 -0.3925E-13 -0.1037E-14
    -10.963 -0.9418E-11 -0.3010E-12 -0.4760E-12 -0.1500E-13
    -10.917 -0.1013E-09 -0.3755E-11 -0.5173E-11 -0.1891E-12
    -10.871 -0.9742E-09 -0.4210E-10 -0.5035E-10 -0.2142E-11
    -10.824 -0.8378E-08 -0.4223E-09 -0.4389E-09 -0.2173E-10
    -10.778 -0.6439E-07 -0.3788E-08 -0.3425E-08 -0.1974E-09
    -10.732 -0.4418E-06 -0.3037E-07 -0.2392E-07 -0.1606E-08
    -10.685 -0.2705E-05 -0.2174E-06 -0.1494E-06 -0.1169E-07
    -10.639 -0.1475E-04 -0.1389E-05 -0.8336E-06 -0.7613E-07
    -10.592 -0.7162E-04 -0.7916E-05 -0.4155E-05 -0.4433E-06
    -10.546 -0.3088E-03 -0.4015E-04 -0.1848E-04 -0.2305E-05
    -10.500 -0.1180E-02 -0.1811E-03 -0.7322E-04 -0.1070E-04
    -10.453 -0.3984E-02 -0.7242E-03 -0.2580E-03 -0.4429E-04
    -10.407 -0.1182E-01 -0.2562E-02 -0.8063E-03 -0.1631E-03
    -10.360 -0.3064E-01 -0.7985E-02 -0.2227E-02 -0.5334E-03
    -10.314 -0.6855E-01 -0.2179E-01 -0.5406E-02 -0.1544E-02
    -10.268 -0.1298E+00 -0.5161E-01 -0.1143E-01 -0.3938E-02
    -10.221 -0.1997E+00 -0.1044E+00 -0.2069E-01 -0.8779E-02
    -10.175 -0.2227E+00 -0.1749E+00 -0.3102E-01 -0.1689E-01
    -10.129 -0.9094E-01 -0.2254E+00 -0.3524E-01 -0.2734E-01
    -10.082  0.3296E+00 -0.1671E+00 -0.1995E-01 -0.3509E-01
    -10.036  0.1119E+01  0.1305E+00  0.3195E-01 -0.2904E-01
     -9.989  0.2203E+01  0.7802E+00  0.1341E+00  0.7143E-02
     -9.943  0.3310E+01  0.1776E+01  0.2877E+00  0.8949E-01
     -9.897  0.4058E+01  0.2916E+01  0.4759E+00  0.2247E+00
     -9.850  0.4147E+01  0.3843E+01  0.6682E+00  0.4030E+00
     -9.804  0.3542E+01  0.4200E+01  0.8325E+00  0.5978E+00
     -9.758  0.2488E+01  0.3840E+01  0.9479E+00  0.7759E+00
     -9.711  0.1366E+01  0.2912E+01  0.1011E+01  0.9109E+00
     -9.665  0.4893E+00  0.1771E+01  0.1034E+01  0.9931E+00
     -9.618 -0.1900E-01  0.7770E+00  0.1033E+01  0.1029E+01
     -9.572 -0.2098E+00  0.1288E+00  0.1023E+01  0.1035E+01
     -9.526 -0.2130E+00 -0.1677E+00  0.1013E+01  0.1027E+01
     -9.479 -0.1475E+00 -0.2253E+00  0.1007E+01  0.1017E+01
     -9.433 -0.8156E-01 -0.1746E+00  0.1003E+01  0.1009E+01
     -9.387 -0.3789E-01 -0.1041E+00  0.1001E+01  0.1004E+01
     -9.340 -0.1514E-01 -0.5146E-01  0.1000E+01  0.1002E+01
     -9.294 -0.5271E-02 -0.2172E-01  0.1000E+01  0.1001E+01
     -9.247 -0.1611E-02 -0.7953E-02  0.1000E+01  0.1000E+01
     -9.201 -0.4362E-03 -0.2550E-02  0.1000E+01  0.1000E+01
     -9.155 -0.1136E-03 -0.7206E-03  0.1000E+01  0.1000E+01
     -9.108 -0.7126E-04 -0.1801E-03  0.1000E+01  0.1000E+01
     -9.062 -0.2252E-03 -0.3992E-04  0.1000E+01  0.1000E+01
     -9.016 -0.8829E-03 -0.7896E-05  0.9999E+00  0.1000E+01
     -8.969 -0.3122E-02 -0.1594E-05  0.9998E+00  0.1000E+01
     -8.923 -0.9771E-02 -0.1585E-05  0.9993E+00  0.1000E+01
     -8.876 -0.2692E-01 -0.7837E-05  0.9981E+00  0.1000E+01
     -8.830 -0.6481E-01 -0.3965E-04  0.9951E+00  0.1000E+01
     -8.784 -0.1348E+00 -0.1791E-03  0.9888E+00  0.1000E+01
     -8.737 -0.2370E+00 -0.7175E-03  0.9779E+00  0.1000E+01
     -8.691 -0.3352E+00 -0.2544E-02  0.9623E+00  0.9998E+00
     -8.644 -0.3282E+00 -0.7956E-02  0.9471E+00  0.9995E+00
     -8.598 -0.4259E-01 -0.2182E-01  0.9451E+00  0.9985E+00
     -8.552  0.7183E+00 -0.5205E-01  0.9784E+00  0.9960E+00
     -8.505  0.2061E+01 -0.1066E+00  0.1074E+01  0.9911E+00
     -8.459  0.3869E+01 -0.1828E+00  0.1253E+01  0.9826E+00
     -8.413  0.5752E+01 -0.2483E+00  0.1520E+01  0.9711E+00
     -8.366  0.7150E+01 -0.2225E+00  0.1852E+01  0.9608E+00
     -8.320  0.7570E+01  0.1835E-01  0.2203E+01  0.9616E+00
     -8.273  0.6840E+01  0.5939E+00  0.2520E+01  0.9892E+00
     -8.227  0.5210E+01  0.1540E+01  0.2762E+01  0.1061E+01
     -8.181  0.3245E+01  0.2749E+01  0.2912E+01  0.1188E+01
     -8.134  0.1581E+01  0.3995E+01  0.2986E+01  0.1373E+01
     -8.088  0.6738E+00  0.5030E+01  0.3017E+01  0.1607E+01
     -8.042  0.6707E+00  0.5687E+01  0.3048E+01  0.1870E+01
     -7.995  0.1423E+01  0.5898E+01  0.3114E+01  0.2144E+01
     -7.949  0.2631E+01  0.5650E+01  0.3236E+01  0.2406E+01
     -7.902  0.4030E+01  0.4948E+01  0.3423E+01  0.2635E+01
     -7.856  0.5523E+01  0.3854E+01  0.3679E+01  0.2814E+01
     -7.810  0.7169E+01  0.2537E+01  0.4012E+01  0.2932E+01
     -7.763  0.9037E+01  0.1263E+01  0.4431E+01  0.2990E+01
     -7.717  0.1107E+02  0.3138E+00  0.4944E+01  0.3005E+01
     -7.671  0.1306E+02 -0.1086E+00  0.5550E+01  0.3000E+01
     -7.624  0.1475E+02  0.7177E-01  0.6233E+01  0.3003E+01
     -7.578  0.1589E+02  0.7871E+00  0.6970E+01  0.3040E+01
     -7.531  0.1631E+02  0.1828E+01  0.7727E+01  0.3125E+01
     -7.485  0.1593E+02  0.2899E+01  0.8466E+01  0.3259E+01
     -7.439  0.1491E+02  0.3751E+01  0.9157E+01  0.3433E+01
     -7.392  0.1369E+02  0.4356E+01  0.9792E+01  0.3635E+01
     -7.346  0.1286E+02  0.4959E+01  0.1039E+02  0.3865E+01
     -7.299  0.1282E+02  0.5918E+01  0.1098E+02  0.4140E+01
     -7.253  0.1344E+02  0.7386E+01  0.1161E+02  0.4482E+01
     -7.207  0.1409E+02  0.9079E+01  0.1226E+02  0.4903E+01
     -7.160  0.1402E+02  0.1033E+02  0.1291E+02  0.5382E+01
     -7.114  0.1287E+02  0.1048E+02  0.1351E+02  0.5869E+01
     -7.068  0.1084E+02  0.9317E+01  0.1401E+02  0.6301E+01
     -7.021  0.8566E+01  0.7293E+01  0.1441E+02  0.6639E+01
     -6.975  0.6660E+01  0.5369E+01  0.1472E+02  0.6888E+01
     -6.928  0.5424E+01  0.4498E+01  0.1497E+02  0.7097E+01
     -6.882  0.4770E+01  0.5147E+01  0.1519E+02  0.7335E+01
     -6.836  0.4362E+01  0.7113E+01  0.1539E+02  0.7665E+01
     -6.789  0.3846E+01  0.9710E+01  0.1557E+02  0.8116E+01
     -6.743  0.3088E+01  0.1216E+02  0.1571E+02  0.8680E+01
     -6.697  0.2300E+01  0.1391E+02  0.1582E+02  0.9324E+01
     -6.650  0.1980E+01  0.1473E+02  0.1591E+02  0.1001E+02
     -6.604  0.2692E+01  0.1470E+02  0.1604E+02  0.1069E+02
     -6.557  0.4793E+01  0.1403E+02  0.1626E+02  0.1134E+02
     -6.511  0.8232E+01  0.1292E+02  0.1664E+02  0.1194E+02
     -6.465  0.1251E+02  0.1153E+02  0.1722E+02  0.1247E+02
     -6.418  0.1683E+02  0.9986E+01  0.1800E+02  0.1294E+02
     -6.372  0.2033E+02  0.8494E+01  0.1894E+02  0.1333E+02
     -6.326  0.2244E+02  0.7481E+01  0.1998E+02  0.1368E+02
     -6.279  0.2302E+02  0.7455E+01  0.2105E+02  0.1402E+02
     -6.233  0.2231E+02  0.8663E+01  0.2209E+02  0.1443E+02
     -6.186  0.2068E+02  0.1078E+02  0.2305E+02  0.1493E+02
     -6.140  0.1842E+02  0.1296E+02  0.2390E+02  0.1553E+02
     -6.094  0.1574E+02  0.1431E+02  0.2463E+02  0.1619E+02
     -6.047  0.1296E+02  0.1445E+02  0.2523E+02  0.1686E+02
     -6.001  0.1058E+02  0.1376E+02  0.2572E+02  0.1750E+02
     -5.955  0.9100E+01  0.1305E+02  0.2614E+02  0.1810E+02
     -5.908  0.8746E+01  0.1292E+02  0.2655E+02  0.1870E+02
     -5.862  0.9292E+01  0.1342E+02  0.2698E+02  0.1933E+02
     -5.815  0.1029E+02  0.1407E+02  0.2746E+02  0.1998E+02
     -5.769  0.1144E+02  0.1429E+02  0.2799E+02  0.2064E+02
     -5.723  0.1275E+02  0.1376E+02  0.2858E+02  0.2128E+02
     -5.676  0.1430E+02  0.1261E+02  0.2924E+02  0.2186E+02
     -5.630  0.1595E+02  0.1132E+02  0.2998E+02  0.2239E+02
     -5.583  0.1722E+02  0.1057E+02  0.3078E+02  0.2288E+02
     -5.537  0.1767E+02  0.1092E+02  0.3160E+02  0.2339E+02
     -5.491  0.1729E+02  0.1253E+02  0.3240E+02  0.2397E+02
     -5.444  0.1674E+02  0.1492E+02  0.3318E+02  0.2466E+02
     -5.398  0.1701E+02  0.1709E+02  0.3397E+02  0.2545E+02
     -5.352  0.1887E+02  0.1802E+02  0.3484E+02  0.2629E+02
     -5.305  0.2246E+02  0.1726E+02  0.3588E+02  0.2709E+02
     -5.259  0.2715E+02  0.1524E+02  0.3714E+02  0.2779E+02
     -5.212  0.3181E+02  0.1295E+02  0.3862E+02  0.2840E+02
     -5.166  0.3514E+02  0.1140E+02  0.4025E+02  0.2892E+02
     -5.120  0.3608E+02  0.1102E+02  0.4192E+02  0.2944E+02
     -5.073  0.3424E+02  0.1163E+02  0.4351E+02  0.2997E+02
     -5.027  0.3019E+02  0.1264E+02  0.4491E+02  0.3056E+02
     -4.981  0.2539E+02  0.1355E+02  0.4609E+02  0.3119E+02
     -4.934  0.2147E+02  0.1414E+02  0.4708E+02  0.3185E+02
     -4.888  0.1941E+02  0.1446E+02  0.4798E+02  0.3252E+02
     -4.841  0.1903E+02  0.1464E+02  0.4887E+02  0.3319E+02
     -4.795  0.1919E+02  0.1486E+02  0.4976E+02  0.3388E+02
     -4.749  0.1863E+02  0.1532E+02  0.5062E+02  0.3459E+02
     -4.702  0.1666E+02  0.1625E+02  0.5139E+02  0.3535E+02
     -4.656  0.1348E+02  0.1774E+02  0.5202E+02  0.3617E+02
     -4.610  0.9786E+01  0.1957E+02  0.5247E+02  0.3708E+02
     -4.563  0.6321E+01  0.2119E+02  0.5277E+02  0.3806E+02
     -4.517  0.3582E+01  0.2190E+02  0.5293E+02  0.3908E+02
     -4.470  0.1808E+01  0.2129E+02  0.5302E+02  0.4006E+02
     -4.424  0.1069E+01  0.1952E+02  0.5307E+02  0.4097E+02
     -4.378  0.1277E+01  0.1733E+02  0.5312E+02  0.4177E+02
     -4.331  0.2141E+01  0.1562E+02  0.5322E+02  0.4250E+02
     -4.285  0.3174E+01  0.1496E+02  0.5337E+02  0.4319E+02
     -4.238  0.3854E+01  0.1532E+02  0.5355E+02  0.4390E+02
     -4.192  0.3849E+01  0.1622E+02  0.5373E+02  0.4466E+02
     -4.146  0.3166E+01  0.1718E+02  0.5388E+02  0.4545E+02
     -4.099  0.2105E+01  0.1796E+02  0.5397E+02  0.4628E+02
     -4.053  0.1057E+01  0.1855E+02  0.5402E+02  0.4715E+02
     -4.007  0.2959E+00  0.1902E+02  0.5404E+02  0.4803E+02
     -3.960 -0.1044E+00  0.1934E+02  0.5403E+02  0.4892E+02
     -3.914 -0.2246E+00  0.1939E+02  0.5402E+02  0.4982E+02
     -3.867 -0.1970E+00  0.1900E+02  0.5401E+02  0.5070E+02
     -3.821 -0.1266E+00  0.1800E+02  0.5401E+02  0.5154E+02
     -3.775 -0.6625E-01  0.1622E+02  0.5400E+02  0.5229E+02
     -3.728 -0.2940E-01  0.1368E+02  0.5400E+02  0.5293E+02
     -3.682 -0.1127E-01  0.1060E+02  0.5400E+02  0.5342E+02
     -3.636 -0.3798E-02  0.7354E+01  0.5400E+02  0.5376E+02
     -3.589 -0.1225E-02  0.4405E+01  0.5400E+02  0.5396E+02
     -3.543 -0.7629E-03  0.2095E+01  0.5400E+02  0.5406E+02
     -3.496 -0.1827E-02  0.5701E+00  0.5400E+02  0.5409E+02
     -3.450 -0.5806E-02 -0.2288E+00  0.5400E+02  0.5408E+02
     -3.404 -0.1682E-01 -0.4976E+00  0.5400E+02  0.5405E+02
     -3.357 -0.4286E-01 -0.4686E+00  0.5400E+02  0.5403E+02
     -3.311 -0.9516E-01 -0.3303E+00  0.5399E+02  0.5402E+02
     -3.265 -0.1816E+00 -0.1937E+00  0.5398E+02  0.5401E+02
     -3.218 -0.2902E+00 -0.1017E+00  0.5397E+02  0.5400E+02
     -3.172 -0.3646E+00 -0.5940E-01  0.5395E+02  0.5400E+02
     -3.125 -0.2866E+00 -0.6115E-01  0.5394E+02  0.5400E+02
     -3.079  0.1132E+00 -0.1043E+00  0.5395E+02  0.5399E+02
     -3.033  0.9988E+00 -0.1859E+00  0.5399E+02  0.5398E+02
     -2.986  0.2445E+01 -0.2836E+00  0.5411E+02  0.5397E+02
     -2.940  0.4367E+01 -0.3296E+00  0.5431E+02  0.5396E+02
     -2.893  0.6506E+01 -0.1958E+00  0.5461E+02  0.5395E+02
     -2.847  0.8491E+01  0.2822E+00  0.5500E+02  0.5396E+02
     -2.801  0.9944E+01  0.1232E+01  0.5546E+02  0.5402E+02
     -2.754  0.1061E+02  0.2650E+01  0.5596E+02  0.5414E+02
     -2.708  0.1042E+02  0.4354E+01  0.5644E+02  0.5434E+02
     -2.662  0.9504E+01  0.6025E+01  0.5688E+02  0.5462E+02
     -2.615  0.8104E+01  0.7340E+01  0.5726E+02  0.5496E+02
     -2.569  0.6436E+01  0.8096E+01  0.5755E+02  0.5534E+02
     -2.522  0.4670E+01  0.8275E+01  0.5777E+02  0.5572E+02
     -2.476  0.2972E+01  0.8005E+01  0.5791E+02  0.5609E+02
     -2.430  0.1556E+01  0.7486E+01  0.5798E+02  0.5644E+02
     -2.383  0.6765E+00  0.6902E+01  0.5801E+02  0.5676E+02
     -2.337  0.5219E+00  0.6340E+01  0.5804E+02  0.5705E+02
     -2.291  0.1098E+01  0.5759E+01  0.5809E+02  0.5732E+02
     -2.244  0.2160E+01  0.5028E+01  0.5819E+02  0.5755E+02
     -2.198  0.3258E+01  0.4045E+01  0.5834E+02  0.5774E+02
     -2.151  0.3909E+01  0.2881E+01  0.5852E+02  0.5787E+02
     -2.105  0.3825E+01  0.1812E+01  0.5870E+02  0.5796E+02
     -2.059  0.3065E+01  0.1201E+01  0.5884E+02  0.5801E+02
     -2.012  0.2013E+01  0.1289E+01  0.5893E+02  0.5807E+02
     -1.966  0.1187E+01  0.2017E+01  0.5899E+02  0.5817E+02
     -1.920  0.9889E+00  0.3012E+01  0.5903E+02  0.5831E+02
     -1.873  0.1516E+01  0.3759E+01  0.5910E+02  0.5848E+02
     -1.827  0.2522E+01  0.3860E+01  0.5922E+02  0.5866E+02
     -1.780  0.3530E+01  0.3254E+01  0.5939E+02  0.5881E+02
     -1.734  0.4061E+01  0.2247E+01  0.5957E+02  0.5892E+02
     -1.688  0.3870E+01  0.1348E+01  0.5975E+02  0.5898E+02
     -1.641  0.3048E+01  0.1006E+01  0.5989E+02  0.5902E+02
     -1.595  0.1933E+01  0.1395E+01  0.5998E+02  0.5909E+02
     -1.549  0.9054E+00  0.2333E+01  0.6003E+02  0.5920E+02
     -1.502  0.2003E+00  0.3371E+01  0.6004E+02  0.5935E+02
     -1.456 -0.1495E+00  0.4012E+01  0.6003E+02  0.5954E+02
     -1.409 -0.2496E+00  0.3953E+01  0.6002E+02  0.5972E+02
     -1.363 -0.2433E+00  0.3220E+01  0.6001E+02  0.5987E+02
     -1.317 -0.2403E+00  0.2121E+01  0.5999E+02  0.5997E+02
     -1.270 -0.2909E+00  0.1036E+01  0.5998E+02  0.6002E+02
     -1.224 -0.3767E+00  0.2262E+00  0.5996E+02  0.6003E+02
     -1.177 -0.3984E+00 -0.2470E+00  0.5994E+02  0.6002E+02
     -1.131 -0.1715E+00 -0.4594E+00  0.5994E+02  0.6000E+02
     -1.085  0.5274E+00 -0.4976E+00  0.5996E+02  0.5997E+02
     -1.038  0.1841E+01 -0.3630E+00  0.6005E+02  0.5996E+02
     -0.992  0.3677E+01  0.4164E-01  0.6022E+02  0.5996E+02
     -0.946  0.5649E+01  0.8404E+00  0.6048E+02  0.6000E+02
     -0.899  0.7193E+01  0.2068E+01  0.6081E+02  0.6009E+02
     -0.853  0.7866E+01  0.3582E+01  0.6118E+02  0.6026E+02
     -0.806  0.7610E+01  0.5072E+01  0.6153E+02  0.6050E+02
     -0.760  0.6788E+01  0.6185E+01  0.6185E+02  0.6078E+02
     -0.714  0.5949E+01  0.6698E+01  0.6212E+02  0.6109E+02
     -0.667  0.5498E+01  0.6653E+01  0.6238E+02  0.6140E+02
     -0.621  0.5526E+01  0.6347E+01  0.6263E+02  0.6170E+02
     -0.575  0.5873E+01  0.6169E+01  0.6291E+02  0.6198E+02
     -0.528  0.6323E+01  0.6365E+01  0.6320E+02  0.6228E+02
     -0.482  0.6747E+01  0.6888E+01  0.6351E+02  0.6260E+02
     -0.435  0.7121E+01  0.7436E+01  0.6384E+02  0.6294E+02
     -0.389  0.7450E+01  0.7676E+01  0.6419E+02  0.6330E+02
     -0.343  0.7686E+01  0.7459E+01  0.6454E+02  0.6364E+02
     -0.296  0.7692E+01  0.6876E+01  0.6490E+02  0.6396E+02
     -0.250  0.7296E+01  0.6144E+01  0.6524E+02  0.6425E+02
     -0.204  0.6387E+01  0.5455E+01  0.6553E+02  0.6450E+02
     -0.157  0.5017E+01  0.4930E+01  0.6577E+02  0.6473E+02
     -0.111  0.3414E+01  0.4624E+01  0.6593E+02  0.6494E+02
     -0.064  0.1897E+01  0.4530E+01  0.6601E+02  0.6515E+02
     -0.018  0.7318E+00  0.4527E+01  0.6605E+02  0.6536E+02
      0.028  0.2736E-01  0.4391E+01  0.6605E+02  0.6557E+02
      0.075 -0.2704E+00  0.3911E+01  0.6604E+02  0.6575E+02
      0.121 -0.3071E+00  0.3049E+01  0.6602E+02  0.6589E+02
      0.168 -0.2303E+00  0.1976E+01  0.6601E+02  0.6598E+02
      0.214 -0.1371E+00  0.9708E+00  0.6601E+02  0.6603E+02
      0.260 -0.6855E-01  0.2503E+00  0.6600E+02  0.6604E+02
      0.307 -0.2948E-01 -0.1270E+00  0.6600E+02  0.6603E+02
      0.353 -0.1105E-01 -0.2369E+00  0.6600E+02  0.6602E+02
      0.399 -0.3636E-02 -0.2046E+00  0.6600E+02  0.6601E+02
      0.446 -0.1056E-02 -0.1313E+00  0.6600E+02  0.6601E+02
      0.492 -0.2715E-03 -0.6894E-01  0.6600E+02  0.6600E+02
      0.539 -0.6198E-04 -0.3073E-01  0.6600E+02  0.6600E+02
      0.585 -0.1258E-04 -0.1184E-01  0.6600E+02  0.6600E+02
      0.631 -0.2275E-05 -0.3987E-02  0.6600E+02  0.6600E+02
      0.678 -0.3669E-06 -0.1181E-02  0.6600E+02  0.6600E+02
      0.724 -0.5281E-07 -0.3089E-03  0.6600E+02  0.6600E+02
      0.770 -0.6788E-08 -0.7163E-04  0.6600E+02  0.6600E+02
      0.817 -0.7800E-09 -0.1476E-04  0.6600E+02  0.6600E+02
      0.863 -0.8015E-10 -0.2705E-05  0.6600E+02  0.6600E+02
      0.910 -0.7368E-11 -0.4418E-06  0.6600E+02  0.6600E+02
      0.956 -0.6032E-12 -0.6439E-07  0.6600E+02  0.6600E+02
      1.002 -0.4309E-13 -0.8378E-08  0.6600E+02  0.6600E+02
      1.049 -0.4788E-14 -0.9742E-09  0.6600E+02  0.6600E+02
      1.095  0.0000E+00 -0.1013E-09  0.6600E+02  0.6600E+02
      1.141  0.0000E+00 -0.9417E-11  0.6600E+02  0.6600E+02
      1.188  0.0000E+00 -0.7852E-12  0.6600E+02  0.6600E+02
      1.234  0.0000E+00 -0.5745E-13  0.6600E+02  0.6600E+02
      1.281  0.0000E+00 -0.4788E-14  0.6600E+02  0.6600E+02
      1.327  0.0000E+00  0.0000E+00  0.6600E+02  0.6600E+02
      1.373  0.0000E+00  0.0000E+00  0.6600E+02  0.6600E+02
      1.420  0.0000E+00  0.0000E+00  0.6600E+02  0.6600E+02
      1.466  0.0000E+00  0.0000E+00  0.6600E+02  0.6600E+02
      1.512  0.0000E+00  0.0000E+00  0.6600E+02  0.6600E+02
      1.559  0.0000E+00  0.0000E+00  0.6600E+02  0.6600E+02
      1.605  0.0000E+00  0.0000E+00  0.6600E+02  0.6600E+02
      1.652  0.0000E+00  0.0000E+00  0.6600E+02  0.6600E+02
      1.698  0.0000E+00  0.0000E+00  0.6600E+02  0.6600E+02
      1.744  0.0000E+00  0.0000E+00  0.6600E+02  0.6600E+02
      1.791  0.0000E+00  0.0000E+00  0.6600E+02  0.6600E+02
      1.837  0.0000E+00  0.0000E+00  0.6600E+02  0.6600E+02
      1.884  0.0000E+00  0.0000E+00  0.6600E+02  0.6600E+02
      1.930  0.0000E+00  0.0000E+00  0.6600E+02  0.6600E+02
      1.976  0.0000E+00  0.0000E+00  0.6600E+02  0.6600E+02
      2.023  0.0000E+00  0.0000E+00  0.6600E+02  0.6600E+02
