   10   10    1    2
  0.1159636E+04  0.2208998E-08  0.2168723E-08  0.2420596E-08  0.5000000E-15
   1.0000000000000000E-004
  CAR 
 unknown system                          
    100      1     66
 
  0.1262379E-14  0.1262379E-14  0.1262379E-14  0.1000000E+01
    1       -9.890994     -9.827223   1.000000   1.000000
    2       -8.394596     -8.110807   1.000000   1.000000
    3       -8.299832     -7.928443   1.000000   1.000000
    4       -7.903114     -7.440022   1.000000   1.000000
    5       -7.725236     -7.226264   1.000000   1.000000
    6       -7.689060     -7.122517   1.000000   1.000000
    7       -7.608517     -7.104650   1.000000   1.000000
    8       -7.526875     -6.819851   1.000000   1.000000
    9       -7.488950     -6.766590   1.000000   1.000000
   10       -7.447376     -6.675059   1.000000   1.000000
   11       -7.333828     -6.622484   1.000000   1.000000
   12       -7.205195     -6.562060   1.000000   1.000000
   13       -7.184752     -6.448087   1.000000   1.000000
   14       -7.172869     -6.384755   1.000000   1.000000
   15       -7.001788     -6.166603   1.000000   1.000000
   16       -6.806403     -6.148751   1.000000   1.000000
   17       -6.512861     -6.073745   1.000000   1.000000
   18       -6.407654     -6.051288   1.000000   1.000000
   19       -6.376960     -5.871969   1.000000   1.000000
   20       -6.373726     -5.854855   1.000000   1.000000
   21       -6.315620     -5.802649   1.000000   1.000000
   22       -6.248817     -5.685518   1.000000   1.000000
   23       -6.238405     -5.660526   1.000000   1.000000
   24       -6.129831     -5.512991   1.000000   1.000000
   25       -6.128112     -5.402600   1.000000   1.000000
   26       -6.057151     -5.375803   1.000000   1.000000
   27       -5.856218     -5.372486   1.000000   1.000000
   28       -5.846833     -5.323707   1.000000   1.000000
   29       -5.738583     -5.208993   1.000000   1.000000
   30       -5.598927     -5.065936   1.000000   1.000000
   31       -5.594645     -5.055560   1.000000   1.000000
   32       -5.591823     -4.966332   1.000000   1.000000
   33       -5.479892     -4.882147   1.000000   1.000000
   34       -5.473257     -4.809701   1.000000   1.000005
   35       -5.327808     -4.784587   1.000000   1.000011
   36       -5.301794     -4.680690   1.000000   1.000220
   37       -5.281875     -4.604591   1.000000   1.001373
   38       -5.249984     -4.603985   1.000000   1.001391
   39       -5.217542     -4.535445   1.000000   1.005404
   40       -5.140212     -4.483994   1.000000   1.012287
   41       -5.134490     -4.455973   1.000000   1.017753
   42       -5.129757     -4.450805   1.000000   1.018873
   43       -5.129195     -4.321087   1.000000   1.029108
   44       -5.104885     -4.215080   1.000000   0.877647
   45       -5.052348     -4.202915   1.000000   0.843259
   46       -5.042807     -4.189900   1.000000   0.802570
   47       -4.989156     -4.043118   1.000000   0.225793
   48       -4.871265     -4.037587   1.000001   0.207005
   49       -4.824093     -4.007165   1.000003   0.116140
   50       -4.798668     -3.918791   1.000007  -0.021420
   51       -4.766363     -3.876178   1.000019  -0.035139
   52       -4.735383     -3.802219   1.000048  -0.025361
   53       -4.600109     -3.792269   1.001514  -0.023059
   54       -4.246365     -3.679473   0.949091  -0.004541
   55       -2.901401     -2.673170  -0.000000  -0.000000
   56       -2.780974     -2.555400  -0.000000  -0.000000
   57       -2.726877     -2.425647  -0.000000  -0.000000
   58       -2.574324     -2.249388  -0.000000  -0.000000
   59       -2.156760     -1.867587  -0.000000  -0.000000
   60       -1.750164     -1.463691  -0.000000  -0.000000
   61       -0.916545     -0.800690  -0.000000  -0.000000
   62       -0.845256     -0.669060  -0.000000  -0.000000
   63       -0.636374     -0.473842  -0.000000  -0.000000
   64       -0.483252     -0.378949  -0.000000  -0.000000
   65       -0.340530     -0.201349  -0.000000  -0.000000
   66       -0.213926      0.022660  -0.000000  -0.000000
