       N       E                     dE             d eps       ncg     rms          rms(c)
DAV:   1     0.728856790717E+03    0.72886E+03   -0.15996E+04   264   0.691E+02
DAV:   2     0.248481582580E+03   -0.48038E+03   -0.44708E+03   472   0.125E+02
DAV:   3     0.234027461500E+02   -0.22508E+03   -0.21135E+03   384   0.127E+02
DAV:   4    -0.371238346504E+02   -0.60527E+02   -0.51205E+02   416   0.547E+01
DAV:   5    -0.442971758404E+02   -0.71733E+01   -0.66221E+01   296   0.245E+01    0.274E+01
DAV:   6    -0.587399335137E+02   -0.14443E+02   -0.98720E+01   272   0.169E+02    0.557E+01
DAV:   7    -0.401006815068E+02    0.18639E+02   -0.35987E+01   336   0.698E+01    0.274E+01
DAV:   8    -0.384453362693E+02    0.16553E+01   -0.22975E+01   344   0.682E+01    0.278E+01
DAV:   9    -0.394895215050E+02   -0.10442E+01   -0.26823E+01   374   0.731E+01    0.390E+01
DAV:  10    -0.353093884628E+02    0.41801E+01   -0.16574E+01   360   0.537E+01    0.117E+01
DAV:  11    -0.363982795159E+02   -0.10889E+01   -0.47599E+00   358   0.293E+01    0.244E+01
DAV:  12    -0.360094154117E+02    0.38886E+00   -0.76775E+00   318   0.247E+01    0.161E+01
DAV:  13    -0.361299162553E+02   -0.12050E+00   -0.37770E+00   302   0.217E+01    0.117E+01
DAV:  14    -0.360642968725E+02    0.65619E-01   -0.15298E+00   318   0.175E+01    0.756E+00
DAV:  15    -0.361084112656E+02   -0.44114E-01   -0.39634E-01   344   0.757E+00    0.532E+00
DAV:  16    -0.362107355163E+02   -0.10232E+00   -0.80364E-02   358   0.471E+00    0.451E+00
DAV:  17    -0.364996147392E+02   -0.28888E+00   -0.71335E-01   318   0.910E+00    0.528E+00
DAV:  18    -0.367398254367E+02   -0.24021E+00   -0.93325E-02   300   0.420E+00    0.479E+00
DAV:  19    -0.369620144800E+02   -0.22219E+00   -0.97277E-02   396   0.421E+00    0.150E+00
DAV:  20    -0.371538912274E+02   -0.19188E+00   -0.33013E-02   320   0.213E+00    0.117E+00
DAV:  21    -0.373421598093E+02   -0.18827E+00   -0.16048E-02   296   0.889E-01    0.130E+00
DAV:  22    -0.374964799662E+02   -0.15432E+00   -0.12169E-02   358   0.106E+00    0.605E-01
DAV:  23    -0.376369614976E+02   -0.14048E+00   -0.81120E-03   328   0.613E-01    0.263E-01
DAV:  24    -0.377255080036E+02   -0.88547E-01   -0.27979E-03   274   0.344E-01    0.246E-01
DAV:  25    -0.378094138451E+02   -0.83906E-01   -0.20201E-03   280   0.301E-01    0.119E-01
DAV:  26    -0.378930510561E+02   -0.83637E-01   -0.21369E-03   266   0.232E-01    0.265E-01
DAV:  27    -0.379487211115E+02   -0.55670E-01   -0.10890E-03   308   0.259E-01    0.117E-01
DAV:  28    -0.379915227503E+02   -0.42802E-01   -0.65886E-04   238   0.112E-01    0.152E-01
DAV:  29    -0.380164582173E+02   -0.24935E-01   -0.34814E-04   238   0.121E-01    0.753E-02
DAV:  30    -0.380345906268E+02   -0.18132E-01   -0.25968E-04   218   0.645E-02    0.554E-02
DAV:  31    -0.380522859566E+02   -0.17695E-01   -0.33913E-04   236   0.757E-02    0.200E-02
DAV:  32    -0.380598128336E+02   -0.75269E-02   -0.19290E-04   214   0.458E-02    0.317E-02
DAV:  33    -0.380621648018E+02   -0.23520E-02   -0.45572E-05   192   0.358E-02    0.192E-02
DAV:  34    -0.380643158696E+02   -0.21511E-02   -0.60520E-05   184   0.342E-02    0.186E-02
DAV:  35    -0.380657219038E+02   -0.14060E-02   -0.35222E-05   180   0.364E-02    0.101E-02
DAV:  36    -0.380664316782E+02   -0.70977E-03   -0.26020E-05   184   0.228E-02    0.759E-03
DAV:  37    -0.380669676604E+02   -0.53598E-03   -0.17080E-05   168   0.151E-02    0.826E-03
DAV:  38    -0.380676077897E+02   -0.64013E-03   -0.19286E-05   170   0.173E-02    0.673E-03
DAV:  39    -0.380682404173E+02   -0.63263E-03   -0.21745E-05   182   0.170E-02    0.619E-03
DAV:  40    -0.380686710100E+02   -0.43059E-03   -0.17543E-05   192   0.117E-02    0.434E-03
DAV:  41    -0.380689099263E+02   -0.23892E-03   -0.96244E-06   180   0.102E-02    0.550E-03
DAV:  42    -0.380691470862E+02   -0.23716E-03   -0.91140E-06   182   0.906E-03    0.318E-03
DAV:  43    -0.380692068781E+02   -0.59792E-04   -0.36508E-06   168   0.733E-03
   1 F= -.38069207E+02 E0= -.38066041E+02  d E =-.949802E-02  mag=     7.9030
