 vasp.6.1.2 22Jul20 (build Aug  2 2021 21:04:21) gamma-only                      
 executed on             LinuxPGI date 2022.01.19  23:05:47
 running on   16 total cores
 distrk:  each k-point on   16 cores,    1 groups
 distr:  one band on NCORE=   8 cores,    2 groups


--------------------------------------------------------------------------------------------------------


 INCAR:
 POTCAR:    PAW_PBE Ni 02Aug2007                  
 POTCAR:    PAW_PBE Pd 04Jan2005                  
 -----------------------------------------------------------------------------
|                                                                             |
|           W    W    AA    RRRRR   N    N  II  N    N   GGGG   !!!           |
|           W    W   A  A   R    R  NN   N  II  NN   N  G    G  !!!           |
|           W    W  A    A  R    R  N N  N  II  N N  N  G       !!!           |
|           W WW W  AAAAAA  RRRRR   N  N N  II  N  N N  G  GGG   !            |
|           WW  WW  A    A  R   R   N   NN  II  N   NN  G    G                |
|           W    W  A    A  R    R  N    N  II  N    N   GGGG   !!!           |
|                                                                             |
|     You use a magnetic or noncollinear calculation, but did not specify     |
|     the initial magnetic moment with the MAGMOM tag. Note that a            |
|     default of 1 will be used for all atoms. This ferromagnetic setup       |
|     may break the symmetry of the crystal, in particular it may rule        |
|     out finding an antiferromagnetic solution. Thence, we recommend         |
|     setting the initial magnetic moment manually or verifying carefully     |
|     that this magnetic setup is desired.                                    |
|                                                                             |
 -----------------------------------------------------------------------------

 POTCAR:    PAW_PBE Ni 02Aug2007                  
   SHA256 =  0534bc51ca8003dfef23f56753fef9fdd3e22eac8d719fccacb59f3e6b7a69c7 Ni/POTCAR             
   COPYR  = (c) Copyright 02Aug2007 Georg Kresse                                                    
   COPYR  = This file is part of the software VASP. Any use, copying, and all other rights are regul
   COPYR  = If you do not have a valid VASP license, you may not use, copy or distribute this file. 
   VRHFIN =Ni:                                                                                      
   LEXCH  = PE                                                                                      
   EATOM  =  1077.6739 eV,   79.2068 Ry                                                             
                                                                                                    
   TITEL  = PAW_PBE Ni 02Aug2007                                                                    
   LULTRA =        F    use ultrasoft PP ?                                                          
   IUNSCR =        1    unscreen: 0-lin 1-nonlin 2-no                                               
   RPACOR =    2.000    partial core radius                                                         
   POMASS =   58.690; ZVAL   =   10.000    mass and valenz                                          
   RCORE  =    2.300    outmost cutoff radius                                                       
   RWIGS  =    2.430; RWIGS  =    1.286    wigner-seitz radius (au A)                               
   ENMAX  =  269.532; ENMIN  =  202.149 eV                                                          
   RCLOC  =    1.201    cutoff for local pot                                                        
   LCOR   =        T    correct aug charges                                                         
   LPAW   =        T    paw PP                                                                      
   EAUG   =  544.565                                                                                
   DEXC   =    0.000                                                                                
   RMAX   =    2.357    core radius for proj-oper                                                   
   RAUG   =    1.300    factor for augmentation sphere                                              
   RDEP   =    2.390    radius for radial grids                                                     
   RDEPT  =    1.838    core radius for aug-charge                                                  
                                                                                                    
   Atomic configuration                                                                             
    9 entries                                                                                       
     n  l   j            E        occ.                                                              
     1  0  0.50     -8206.4253   2.0000                                                             
     2  0  0.50      -976.1748   2.0000                                                             
     2  1  1.50      -839.0571   6.0000                                                             
     3  0  0.50      -105.9991   2.0000                                                             
     3  1  1.50       -66.4603   6.0000                                                             
     3  2  2.50        -4.6458   9.0000                                                             
     4  0  0.50        -4.4926   1.0000                                                             
     4  1  1.50        -4.0817   0.0000                                                             
     4  3  2.50        -1.3606   0.0000                                                             
   Description                                                                                      
     l       E           TYP  RCUT    TYP  RCUT                                                     
     2     -4.6457903     23  2.300                                                                 
     2     -6.0063729     23  2.300                                                                 
     0     -4.4925590     23  2.300                                                                 
     0      5.0102601     23  2.300                                                                 
     1     -2.7211652     23  2.300                                                                 
     1     16.5183231     23  2.300                                                                 
  local pseudopotential read in
  partial core-charges read in
  partial kinetic energy density read in
  atomic valenz-charges read in
  non local Contribution for L=            2  read in
    real space projection operators read in
  non local Contribution for L=            2  read in
    real space projection operators read in
  non local Contribution for L=            0  read in
    real space projection operators read in
  non local Contribution for L=            0  read in
    real space projection operators read in
  non local Contribution for L=            1  read in
    real space projection operators read in
  non local Contribution for L=            1  read in
    real space projection operators read in
    PAW grid and wavefunctions read in
 
   number of l-projection  operators is LMAX  =            6
   number of lm-projection operators is LMMAX =           18
 
 POTCAR:    PAW_PBE Pd 04Jan2005                  
   SHA256 =  dd6f6f02930356371984e2b707ff5e456046761dc76b07c1eba30abd15eb3c39 Pd/POTCAR             
   COPYR  = (c) Copyright 04Jan2005 Georg Kresse                                                    
   COPYR  = This file is part of the software VASP. Any use, copying, and all other rights are regul
   COPYR  = If you do not have a valid VASP license, you may not use, copy or distribute this file. 
   VRHFIN =Pd : s1 d9                                                                               
   LEXCH  = PE                                                                                      
   EATOM  =   809.7530 eV,   59.5152 Ry                                                             
                                                                                                    
   TITEL  = PAW_PBE Pd 04Jan2005                                                                    
   LULTRA =        F    use ultrasoft PP ?                                                          
   IUNSCR =        1    unscreen: 0-lin 1-nonlin 2-no                                               
   RPACOR =    2.000    partial core radius                                                         
   POMASS =  106.420; ZVAL   =   10.000    mass and valenz                                          
   RCORE  =    2.600    outmost cutoff radius                                                       
   RWIGS  =    2.710; RWIGS  =    1.434    wigner-seitz radius (au A)                               
   ENMAX  =  250.925; ENMIN  =  188.194 eV                                                          
   ICORE  =        3    local potential                                                             
   LCOR   =        T    correct aug charges                                                         
   LPAW   =        T    paw PP                                                                      
   EAUG   =  416.230                                                                                
   DEXC   =    0.000                                                                                
   RMAX   =    2.653    core radius for proj-oper                                                   
   RAUG   =    1.300    factor for augmentation sphere                                              
   RDEP   =    2.734    radius for radial grids                                                     
   RDEPT  =    2.103    core radius for aug-charge                                                  
                                                                                                    
   Atomic configuration                                                                             
   12 entries                                                                                       
     n  l   j            E        occ.                                                              
     1  0  0.50    -24164.6631   2.0000                                                             
     2  0  0.50     -3530.9218   2.0000                                                             
     2  1  1.50     -3165.6822   6.0000                                                             
     3  0  0.50      -639.4577   2.0000                                                             
     3  1  1.50      -519.4532   6.0000                                                             
     3  2  2.50      -328.9757  10.0000                                                             
     4  0  0.50       -88.7014   2.0000                                                             
     4  1  1.50       -54.4540   6.0000                                                             
     4  2  2.50        -6.6878   9.0000                                                             
     5  0  0.50        -4.3543   1.0000                                                             
     5  1  0.50        -1.3606   0.0000                                                             
     4  3  2.50        -1.3606   0.0000                                                             
   Description                                                                                      
     l       E           TYP  RCUT    TYP  RCUT                                                     
     2     -6.6878251     23  2.400                                                                 
     2     -8.0484077     23  2.400                                                                 
     0     -4.3542939     23  2.400                                                                 
     0      4.3406793     23  2.400                                                                 
     1     -4.0817478     23  2.600                                                                 
     1     15.8380318     23  2.600                                                                 
     3     -4.0817478     23  2.400                                                                 
  local pseudopotential read in
  partial core-charges read in
  partial kinetic energy density read in
  atomic valenz-charges read in
  non local Contribution for L=            2  read in
    real space projection operators read in
  non local Contribution for L=            2  read in
    real space projection operators read in
  non local Contribution for L=            0  read in
    real space projection operators read in
  non local Contribution for L=            0  read in
    real space projection operators read in
  non local Contribution for L=            1  read in
    real space projection operators read in
  non local Contribution for L=            1  read in
    real space projection operators read in
    PAW grid and wavefunctions read in
 
   number of l-projection  operators is LMAX  =            6
   number of lm-projection operators is LMMAX =           18
 
  PAW_PBE Ni 02Aug2007                  :
 energy of atom  1       EATOM=-1077.6739
 kinetic energy error for atom=    0.0101 (will be added to EATOM!!)
  PAW_PBE Pd 04Jan2005                  :
 energy of atom  2       EATOM= -809.7530
 kinetic energy error for atom=    0.0091 (will be added to EATOM!!)
 
 
 POSCAR: Ni Pd
  positions in cartesian coordinates
  No initial velocities read in
 exchange correlation table for  LEXCH =        8
   RHO(1)=    0.500       N(1)  =     2000
   RHO(2)=  100.500       N(2)  =     4000
 


--------------------------------------------------------------------------------------------------------


 ion  position               nearest neighbor table
   1  0.549  0.536  0.505-   3 2.31   6 2.32  10 2.47   8 2.47   9 2.47   7 2.47   5 3.04   2 3.04

   2  0.494  0.525  0.620-   3 2.31   6 2.32   4 2.32   8 2.48   7 2.48   1 3.04
   3  0.508  0.452  0.551-   2 2.31   1 2.31   5 2.32   4 2.38   9 2.54   8 2.54   6 2.65
   4  0.409  0.475  0.586-   2 2.32   5 2.32   3 2.38   6 2.39
   5  0.428  0.470  0.492-   6 2.31   3 2.32   4 2.32   9 2.48  10 2.48   1 3.04
   6  0.453  0.560  0.538-   5 2.31   2 2.32   1 2.32   4 2.39  10 2.53   7 2.54   3 2.65
   7  0.544  0.615  0.578-   1 2.47   2 2.48   6 2.54   8 2.72
   8  0.600  0.505  0.592-   1 2.47   2 2.48   3 2.54   7 2.72
   9  0.526  0.444  0.448-   1 2.47   5 2.48   3 2.54  10 2.72
  10  0.470  0.555  0.435-   1 2.47   5 2.48   6 2.53   9 2.72
 

IMPORTANT INFORMATION: All symmetrisations will be switched off!
NOSYMM: (Re-)initialisation of all symmetry stuff for point group C_1.


----------------------------------------------------------------------------------------

                                     Primitive cell                                     

  volume of cell :   11596.3626

  direct lattice vectors                    reciprocal lattice vectors
    22.089981303  0.000000000  0.000000000     0.045269391  0.000000000  0.000000000
     0.000000000 21.687234848  0.000000000     0.000000000  0.046110074  0.000000000
     0.000000000  0.000000000 24.205956978     0.000000000  0.000000000  0.041312145

  length of vectors
    22.089981303 21.687234848 24.205956978     0.045269391  0.046110074  0.041312145

  position of ions in fractional coordinates (direct lattice)
     0.548784360  0.535622684  0.505335234
     0.494465324  0.524534801  0.620473378
     0.507713399  0.451990671  0.551422966
     0.409198681  0.474766245  0.586138573
     0.427800403  0.470384726  0.491701126
     0.453282151  0.559845987  0.538376150
     0.544430630  0.615336455  0.578133610
     0.600258982  0.504738440  0.591525575
     0.525989450  0.444111230  0.448247500
     0.470258987  0.555019788  0.434953712

  ion indices of the primitive-cell ions
   primitive index   ion index
                 1           1
                 2           2
                 3           3
                 4           4
                 5           5
                 6           6
                 7           7
                 8           8
                 9           9
                10          10

----------------------------------------------------------------------------------------

 
 
 KPOINTS: KPOINTS created by Atomic Simulation Env

Automatic generation of k-mesh.
Space group operators:
 irot       det(A)        alpha          n_x          n_y          n_z        tau_x        tau_y        tau_z
    1     1.000000     0.000000     1.000000     0.000000     0.000000     0.000000     0.000000     0.000000
 
 Subroutine IBZKPT returns following result:
 ===========================================
 
 Found      1 irreducible k-points:
 
 Following reciprocal coordinates:
            Coordinates               Weight
  0.000000  0.000000  0.000000      1.000000
 
 Following cartesian coordinates:
            Coordinates               Weight
  0.000000  0.000000  0.000000      1.000000
 


--------------------------------------------------------------------------------------------------------




 Dimension of arrays:
   k-points           NKPTS =      1   k-points in BZ     NKDIM =      1   number of bands    NBANDS=     66
   number of dos      NEDOS =    301   number of ions     NIONS =     10
   non local maximal  LDIM  =      6   non local SUM 2l+1 LMDIM =     18
   total plane-waves  NPLWV = ******
   max r-space proj   IRMAX =      1   max aug-charges    IRDMAX=   6054
   dimension x,y,z NGX =   108 NGY =  108 NGZ =  120
   dimension x,y,z NGXF=   216 NGYF=  216 NGZF=  240
   support grid    NGXF=   216 NGYF=  216 NGZF=  240
   ions per type =               6   4
   NGX,Y,Z   is equivalent  to a cutoff of   8.13,  8.28,  8.24 a.u.
   NGXF,Y,Z  is equivalent  to a cutoff of  16.26, 16.56, 16.48 a.u.

 SYSTEM =  unknown system                          
 POSCAR =  Ni Pd                                   

 Startparameter for this run:
   NWRITE =      2    write-flag & timer
   PREC   = normal    normal or accurate (medium, high low for compatibility)
   ISTART =      0    job   : 0-new  1-cont  2-samecut
   ICHARG =      2    charge: 1-file 2-atom 10-const
   ISPIN  =      2    spin polarized calculation?
   LNONCOLLINEAR =      F non collinear calculations
   LSORBIT =      F    spin-orbit coupling
   INIWAV =      1    electr: 0-lowe 1-rand  2-diag
   LASPH  =      F    aspherical Exc in radial PAW
   METAGGA=      F    non-selfconsistent MetaGGA calc.

 Electronic Relaxation 1
   ENCUT  =  400.0 eV  29.40 Ry    5.42 a.u.  36.02 35.37 39.47*2*pi/ulx,y,z
   ENINI  =  400.0     initial cutoff
   ENAUG  =  544.6 eV  augmentation charge cutoff
   NELM   =     60;   NELMIN=  2; NELMDL=  0     # of ELM steps 
   EDIFF  = 0.1E-03   stopping-criterion for ELM
   LREAL  =      F    real-space projection
   NLSPLINE    = F    spline interpolate recip. space projectors
   LCOMPAT=      F    compatible to vasp.4.4
   GGA_COMPAT  = T    GGA compatible to vasp.4.4-vasp.4.6
   LMAXPAW     = -100 max onsite density
   LMAXMIX     =    2 max onsite mixed and CHGCAR
   VOSKOWN=      0    Vosko Wilk Nusair interpolation
   ROPT   =    0.00000   0.00000
 Ionic relaxation
   EDIFFG = 0.1E-02   stopping-criterion for IOM
   NSW    =      0    number of steps for IOM
   NBLOCK =      1;   KBLOCK =      1    inner block; outer block 
   IBRION =     -1    ionic relax: 0-MD 1-quasi-New 2-CG
   NFREE  =      0    steps in history (QN), initial steepest desc. (CG)
   ISIF   =      0    stress and relaxation
   IWAVPR =     10    prediction:  0-non 1-charg 2-wave 3-comb
   ISYM   =      0    0-nonsym 1-usesym 2-fastsym
   LCORR  =      T    Harris-Foulkes like correction to forces

   POTIM  = 0.5000    time-step for ionic-motion
   TEIN   =    0.0    initial temperature
   TEBEG  =    0.0;   TEEND  =   0.0 temperature during run
   SMASS  =  -3.00    Nose mass-parameter (am)
   estimated Nose-frequenzy (Omega)   =  0.10E-29 period in steps = 0.13E+47 mass=  -0.112E-25a.u.
   SCALEE = 1.0000    scale energy and forces
   NPACO  =    256;   APACO  = 16.0  distance and # of slots for P.C.
   PSTRESS=    0.0 pullay stress

  Mass of Ions in am
   POMASS =  58.69106.42
  Ionic Valenz
   ZVAL   =  10.00 10.00
  Atomic Wigner-Seitz radii
   RWIGS  =  -1.00 -1.00
  virtual crystal weights 
   VCA    =   1.00  1.00
   NELECT =     100.0000    total number of electrons
   NUPDOWN=      -1.0000    fix difference up-down

 DOS related values:
   EMIN   =  10.00;   EMAX   =-10.00  energy-range for DOS
   EFERMI =   0.00
   ISMEAR =     1;   SIGMA  =   0.20  broadening in eV -4-tet -1-fermi 0-gaus

 Electronic relaxation 2 (details)
   IALGO  =     38    algorithm
   LDIAG  =      T    sub-space diagonalisation (order eigenvalues)
   LSUBROT=      F    optimize rotation matrix (better conditioning)
   TURBO    =      0    0=normal 1=particle mesh
   IRESTART =      0    0=no restart 2=restart with 2 vectors
   NREBOOT  =      0    no. of reboots
   NMIN     =      0    reboot dimension
   EREF     =   0.00    reference energy to select bands
   IMIX   =      4    mixing-type and parameters
     AMIX     =   0.40;   BMIX     =  1.00
     AMIX_MAG =   1.60;   BMIX_MAG =  1.00
     AMIN     =   0.10
     WC   =   100.;   INIMIX=   1;  MIXPRE=   1;  MAXMIX= -45

 Intra band minimization:
   WEIMIN = 0.0000     energy-eigenvalue tresh-hold
   EBREAK =  0.38E-06  absolut break condition
   DEPER  =   0.30     relativ break condition  

   TIME   =   0.40     timestep for ELM

  volume/ion in A,a.u.               =    1159.64      7825.61
  Fermi-wavevector in a.u.,A,eV,Ry     =   0.335713  0.634405  1.533416  0.112703
  Thomas-Fermi vector in A             =   1.235486
 
 Write flags
   LWAVE        =      F    write WAVECAR
   LDOWNSAMPLE  =      F    k-point downsampling of WAVECAR
   LCHARG       =      F    write CHGCAR
   LVTOT        =      F    write LOCPOT, total local potential
   LVHAR        =      F    write LOCPOT, Hartree potential only
   LELF         =      F    write electronic localiz. function (ELF)
   LORBIT       =      0    0 simple, 1 ext, 2 COOP (PROOUT), +10 PAW based schemes


 Dipole corrections
   LMONO  =      F    monopole corrections only (constant potential shift)
   LDIPOL =      F    correct potential (dipole corrections)
   IDIPOL =      0    1-x, 2-y, 3-z, 4-all directions 
   EPSILON=  1.0000000 bulk dielectric constant

 Exchange correlation treatment:
   GGA     =    PE    GGA type
   LEXCH   =     8    internal setting for exchange type
   VOSKOWN=      0    Vosko Wilk Nusair interpolation
   LHFCALC =     F    Hartree Fock is set to
   LHFONE  =     F    Hartree Fock one center treatment
   AEXX    =    0.0000 exact exchange contribution

 Linear response parameters
   LEPSILON=     F    determine dielectric tensor
   LRPA    =     F    only Hartree local field effects (RPA)
   LNABLA  =     F    use nabla operator in PAW spheres
   LVEL    =     F    velocity operator in full k-point grid
   LINTERFAST=   F  fast interpolation
   KINTER  =     0    interpolate to denser k-point grid
   CSHIFT  =0.1000    complex shift for real part using Kramers Kronig
   OMEGAMAX=  -1.0    maximum frequency
   DEG_THRESHOLD= 0.2000000E-02 threshold for treating states as degnerate
   RTIME   =   -0.100 relaxation time in fs
  (WPLASMAI=    0.000 imaginary part of plasma frequency in eV, 0.658/RTIME)
   DFIELD  = 0.0000000 0.0000000 0.0000000 field for delta impulse in time
 
 Orbital magnetization related:
   ORBITALMAG=     F  switch on orbital magnetization
   LCHIMAG   =     F  perturbation theory with respect to B field
   DQ        =  0.001000  dq finite difference perturbation B field
   LLRAUG    =     F  two centre corrections for induced B field



--------------------------------------------------------------------------------------------------------


 Static calculation
 charge density and potential will be updated during run
 spin polarized calculation
 Variant of blocked Davidson
 Davidson routine will perform the subspace rotation
 perform sub-space diagonalisation
    after iterative eigenvector-optimisation
 modified Broyden-mixing scheme, WC =      100.0
 initial mixing is a Kerker type mixing with AMIX =  0.4000 and BMIX =      1.0000
 Hartree-type preconditioning will be used
 using additional bands            16
 reciprocal scheme for non local part
 use partial core corrections
 calculate Harris-corrections to forces 
   (improved forces if not selfconsistent)
 use gradient corrections 
 use of overlap-Matrix (Vanderbilt PP)
 Methfessel and Paxton  Order N= 1 SIGMA  =   0.20


--------------------------------------------------------------------------------------------------------


  energy-cutoff  :      400.00
  volume of cell :    11596.36
      direct lattice vectors                 reciprocal lattice vectors
    22.089981303  0.000000000  0.000000000     0.045269391  0.000000000  0.000000000
     0.000000000 21.687234848  0.000000000     0.000000000  0.046110074  0.000000000
     0.000000000  0.000000000 24.205956978     0.000000000  0.000000000  0.041312145

  length of vectors
    22.089981303 21.687234848 24.205956978     0.045269391  0.046110074  0.041312145


 
 k-points in units of 2pi/SCALE and weight: KPOINTS created by Atomic Simulation Env
   0.00000000  0.00000000  0.00000000       1.000
 
 k-points in reciprocal lattice and weights: KPOINTS created by Atomic Simulation Env
   0.00000000  0.00000000  0.00000000       1.000
 
 position of ions in fractional coordinates (direct lattice) 
   0.54878436  0.53562268  0.50533523
   0.49446532  0.52453480  0.62047338
   0.50771340  0.45199067  0.55142297
   0.40919868  0.47476624  0.58613857
   0.42780040  0.47038473  0.49170113
   0.45328215  0.55984599  0.53837615
   0.54443063  0.61533646  0.57813361
   0.60025898  0.50473844  0.59152557
   0.52598945  0.44411123  0.44824750
   0.47025899  0.55501979  0.43495371
 
 position of ions in cartesian coordinates  (Angst):
  12.12263625 11.61617493 12.23212293
  10.92272976 11.37570942 15.01915190
  11.21537948  9.80242782 13.34772059
   9.03919121 10.29636704 14.18804507
   9.45010290 10.20134403 11.90209631
  10.01299425 12.14151141 13.03190992
  12.02646244 13.34494621 13.99427728
  13.25970968 10.94638109 14.31844261
  11.61909711  9.63154454 10.85025970
  10.38801223 12.03684448 10.52847084
 


--------------------------------------------------------------------------------------------------------


 use parallel FFT for orbitals z direction half grid
 k-point   1 :   0.0000 0.0000 0.0000  plane waves:  105303

 maximum and minimum number of plane-waves per node :     13168    13154

 maximum number of plane-waves:    105303
 maximum index in each direction: 
   IXMAX=   36   IYMAX=   35   IZMAX=   39
   IXMIN=  -36   IYMIN=  -35   IZMIN=    0


 parallel 3D FFT for wavefunctions:
    minimum data exchange during FFTs selected (reduces bandwidth)
 parallel 3D FFT for charge:
    minimum data exchange during FFTs selected (reduces bandwidth)


 total amount of memory used by VASP MPI-rank0   151052. kBytes
=======================================================================

   base      :      30000. kBytes
   nonl-proj :       5898. kBytes
   fftplans  :      28190. kBytes
   grid      :      73011. kBytes
   one-center:         31. kBytes
   wavefun   :      13922. kBytes
 
     INWAV:  cpu time    0.0000: real time    0.0000
 Broyden mixing: mesh for mixing (old mesh)
   NGX = 73   NGY = 71   NGZ = 79
  (NGX  =216   NGY  =216   NGZ  =240)
  gives a total of 409457 points

 initial charge density was supplied:
 charge density of overlapping atoms calculated
 number of electron     100.0000000 magnetization      10.0000000
 keeping initial charge density in first step


--------------------------------------------------------------------------------------------------------


 Maximum index for augmentation-charges           381 (set IRDMAX)


--------------------------------------------------------------------------------------------------------


 First call to EWALD:  gamma=   0.078
 Maximum number of real-space cells 3x 3x 3
 Maximum number of reciprocal cells 3x 3x 3

    FEWALD:  cpu time    0.0053: real time    0.0053


--------------------------------------- Iteration      1(   1)  ---------------------------------------


    POTLOK:  cpu time    2.4304: real time    2.4382
    SETDIJ:  cpu time    0.0221: real time    0.0221
     EDDAV:  cpu time    6.5360: real time    6.5484
       DOS:  cpu time    0.0045: real time    0.0045
    --------------------------------------------
      LOOP:  cpu time    8.9929: real time    9.0132

 eigenvalue-minimisations  :   264
 total energy-change (2. order) : 0.7288568E+03  (-0.1599607E+04)
 number of electron     100.0000000 magnetization      10.0000000
 augmentation part      100.0000000 magnetization      10.0000000

 Free energy of the ion-electron system (eV)
  ---------------------------------------------------
  alpha Z        PSCENC =         4.88685396
  Ewald energy   TEWEN  =     13020.93562624
  -Hartree energ DENC   =    -21991.61012070
  -exchange      EXHF   =         0.00000000
  -V(xc)+E(xc)   XCENC  =        63.26326411
  PAW double counting   =      9003.59075477    -9155.75339974
  entropy T*S    EENTRO =         0.04998666
  eigenvalues    EBANDS =        78.53523232
  atomic energy  EATOM  =      9704.95859309
  Solvation  Ediel_sol  =         0.00000000
  ---------------------------------------------------
  free energy    TOTEN  =       728.85679072 eV

  energy without entropy =      728.80680405  energy(sigma->0) =      728.84012850


--------------------------------------------------------------------------------------------------------




--------------------------------------- Iteration      1(   2)  ---------------------------------------


     EDDAV:  cpu time    9.8357: real time    9.8491
       DOS:  cpu time    0.0033: real time    0.0033
    --------------------------------------------
      LOOP:  cpu time    9.8389: real time    9.8523

 eigenvalue-minimisations  :   472
 total energy-change (2. order) :-0.4803752E+03  (-0.4470834E+03)
 number of electron     100.0000000 magnetization      10.0000000
 augmentation part      100.0000000 magnetization      10.0000000

 Free energy of the ion-electron system (eV)
  ---------------------------------------------------
  alpha Z        PSCENC =         4.88685396
  Ewald energy   TEWEN  =     13020.93562624
  -Hartree energ DENC   =    -21991.61012070
  -exchange      EXHF   =         0.00000000
  -V(xc)+E(xc)   XCENC  =        63.26326411
  PAW double counting   =      9003.59075477    -9155.75339974
  entropy T*S    EENTRO =         0.05168245
  eigenvalues    EBANDS =      -401.84167160
  atomic energy  EATOM  =      9704.95859309
  Solvation  Ediel_sol  =         0.00000000
  ---------------------------------------------------
  free energy    TOTEN  =       248.48158258 eV

  energy without entropy =      248.42990013  energy(sigma->0) =      248.46435510


--------------------------------------------------------------------------------------------------------




--------------------------------------- Iteration      1(   3)  ---------------------------------------


     EDDAV:  cpu time    9.3478: real time    9.3586
       DOS:  cpu time    0.0041: real time    0.0041
    --------------------------------------------
      LOOP:  cpu time    9.3519: real time    9.3627

 eigenvalue-minimisations  :   384
 total energy-change (2. order) :-0.2250788E+03  (-0.2113528E+03)
 number of electron     100.0000000 magnetization      10.0000000
 augmentation part      100.0000000 magnetization      10.0000000

 Free energy of the ion-electron system (eV)
  ---------------------------------------------------
  alpha Z        PSCENC =         4.88685396
  Ewald energy   TEWEN  =     13020.93562624
  -Hartree energ DENC   =    -21991.61012070
  -exchange      EXHF   =         0.00000000
  -V(xc)+E(xc)   XCENC  =        63.26326411
  PAW double counting   =      9003.59075477    -9155.75339974
  entropy T*S    EENTRO =        -0.01987814
  eigenvalues    EBANDS =      -626.84894744
  atomic energy  EATOM  =      9704.95859309
  Solvation  Ediel_sol  =         0.00000000
  ---------------------------------------------------
  free energy    TOTEN  =        23.40274615 eV

  energy without entropy =       23.42262429  energy(sigma->0) =       23.40937220


--------------------------------------------------------------------------------------------------------




--------------------------------------- Iteration      1(   4)  ---------------------------------------


     EDDAV:  cpu time    9.4251: real time    9.4376
       DOS:  cpu time    0.0043: real time    0.0043
    --------------------------------------------
      LOOP:  cpu time    9.4293: real time    9.4418

 eigenvalue-minimisations  :   416
 total energy-change (2. order) :-0.6052658E+02  (-0.5120502E+02)
 number of electron     100.0000000 magnetization      10.0000000
 augmentation part      100.0000000 magnetization      10.0000000

 Free energy of the ion-electron system (eV)
  ---------------------------------------------------
  alpha Z        PSCENC =         4.88685396
  Ewald energy   TEWEN  =     13020.93562624
  -Hartree energ DENC   =    -21991.61012070
  -exchange      EXHF   =         0.00000000
  -V(xc)+E(xc)   XCENC  =        63.26326411
  PAW double counting   =      9003.59075477    -9155.75339974
  entropy T*S    EENTRO =        -0.01269726
  eigenvalues    EBANDS =      -687.38270912
  atomic energy  EATOM  =      9704.95859309
  Solvation  Ediel_sol  =         0.00000000
  ---------------------------------------------------
  free energy    TOTEN  =       -37.12383465 eV

  energy without entropy =      -37.11113739  energy(sigma->0) =      -37.11960223


--------------------------------------------------------------------------------------------------------




--------------------------------------- Iteration      1(   5)  ---------------------------------------


     EDDAV:  cpu time    6.7309: real time    6.7390
       DOS:  cpu time    0.0045: real time    0.0045
    CHARGE:  cpu time    0.7322: real time    0.7329
    MIXING:  cpu time    0.0415: real time    0.0416
    --------------------------------------------
      LOOP:  cpu time    7.5091: real time    7.5180

 eigenvalue-minimisations  :   296
 total energy-change (2. order) :-0.7173341E+01  (-0.6622115E+01)
 number of electron     100.0000156 magnetization       9.7995290
 augmentation part       52.0947698 magnetization       7.9783203

 Broyden mixing:
  rms(total) = 0.27434E+01    rms(broyden)= 0.27424E+01
  rms(prec ) = 0.28753E+01
  weight for this iteration     100.00

 Free energy of the ion-electron system (eV)
  ---------------------------------------------------
  alpha Z        PSCENC =         4.88685396
  Ewald energy   TEWEN  =     13020.93562624
  -Hartree energ DENC   =    -21991.61012070
  -exchange      EXHF   =         0.00000000
  -V(xc)+E(xc)   XCENC  =        63.26326411
  PAW double counting   =      9003.59075477    -9155.75339974
  entropy T*S    EENTRO =         0.00938914
  eigenvalues    EBANDS =      -694.57813672
  atomic energy  EATOM  =      9704.95859309
  Solvation  Ediel_sol  =         0.00000000
  ---------------------------------------------------
  free energy    TOTEN  =       -44.29717584 eV

  energy without entropy =      -44.30656498  energy(sigma->0) =      -44.30030555


--------------------------------------------------------------------------------------------------------




--------------------------------------- Iteration      1(   6)  ---------------------------------------


    POTLOK:  cpu time    2.4703: real time    2.4751
    SETDIJ:  cpu time    0.0236: real time    0.0237
     EDDAV:  cpu time    6.4443: real time    6.4513
       DOS:  cpu time    0.0069: real time    0.0069
    CHARGE:  cpu time    0.7112: real time    0.7119
    MIXING:  cpu time    0.0495: real time    0.0495
    --------------------------------------------
      LOOP:  cpu time    9.7058: real time    9.7184

 eigenvalue-minimisations  :   272
 total energy-change (2. order) :-0.1444276E+02  (-0.9871986E+01)
 number of electron     100.0000153 magnetization       9.5921261
 augmentation part       56.4719511 magnetization       8.8176512

 Broyden mixing:
  rms(total) = 0.55660E+01    rms(broyden)= 0.55656E+01
  rms(prec ) = 0.58585E+01
  weight for this iteration     100.00

 eigenvalues of (default mixing * dielectric matrix)
  average eigenvalue GAMMA=   0.2920
  0.2920

 Free energy of the ion-electron system (eV)
  ---------------------------------------------------
  alpha Z        PSCENC =         4.88685396
  Ewald energy   TEWEN  =     13020.93562624
  -Hartree energ DENC   =    -21911.89458618
  -exchange      EXHF   =         0.00000000
  -V(xc)+E(xc)   XCENC  =        60.60151749
  PAW double counting   =      9482.54660513    -9609.55419052
  entropy T*S    EENTRO =        -0.04391461
  eigenvalues    EBANDS =      -811.17643811
  atomic energy  EATOM  =      9704.95859309
  Solvation  Ediel_sol  =         0.00000000
  ---------------------------------------------------
  free energy    TOTEN  =       -58.73993351 eV

  energy without entropy =      -58.69601891  energy(sigma->0) =      -58.72529531


--------------------------------------------------------------------------------------------------------




--------------------------------------- Iteration      1(   7)  ---------------------------------------


    POTLOK:  cpu time    2.5666: real time    2.5729
    SETDIJ:  cpu time    0.0264: real time    0.0264
     EDDAV:  cpu time    8.3294: real time    8.3443
       DOS:  cpu time    0.0068: real time    0.0068
    CHARGE:  cpu time    0.7032: real time    0.7067
    MIXING:  cpu time    0.0491: real time    0.0492
    --------------------------------------------
      LOOP:  cpu time   11.6815: real time   11.7063

 eigenvalue-minimisations  :   336
 total energy-change (2. order) : 0.1863925E+02  (-0.3598703E+01)
 number of electron     100.0000182 magnetization       9.5547159
 augmentation part       54.6568148 magnetization       7.3258375

 Broyden mixing:
  rms(total) = 0.27389E+01    rms(broyden)= 0.27383E+01
  rms(prec ) = 0.28733E+01
  weight for this iteration     100.00

 eigenvalues of (default mixing * dielectric matrix)
  average eigenvalue GAMMA=   0.2528
  0.2528  0.2528

 Free energy of the ion-electron system (eV)
  ---------------------------------------------------
  alpha Z        PSCENC =         4.88685396
  Ewald energy   TEWEN  =     13020.93562624
  -Hartree energ DENC   =    -21971.38567689
  -exchange      EXHF   =         0.00000000
  -V(xc)+E(xc)   XCENC  =        61.30043266
  PAW double counting   =      9639.62110024    -9789.41348697
  entropy T*S    EENTRO =        -0.02082749
  eigenvalues    EBANDS =      -710.98329635
  atomic energy  EATOM  =      9704.95859309
  Solvation  Ediel_sol  =         0.00000000
  ---------------------------------------------------
  free energy    TOTEN  =       -40.10068151 eV

  energy without entropy =      -40.07985402  energy(sigma->0) =      -40.09373901


--------------------------------------------------------------------------------------------------------




--------------------------------------- Iteration      1(   8)  ---------------------------------------


    POTLOK:  cpu time    2.5465: real time    2.5500
    SETDIJ:  cpu time    0.0255: real time    0.0256
     EDDAV:  cpu time    7.5283: real time    7.5395
       DOS:  cpu time    0.0096: real time    0.0096
    CHARGE:  cpu time    0.7573: real time    0.7581
    MIXING:  cpu time    0.0526: real time    0.0527
    --------------------------------------------
      LOOP:  cpu time   10.9198: real time   10.9353

 eigenvalue-minimisations  :   344
 total energy-change (2. order) : 0.1655345E+01  (-0.2297534E+01)
 number of electron     100.0000173 magnetization       9.4540456
 augmentation part       55.7251676 magnetization       7.6306300

 Broyden mixing:
  rms(total) = 0.27829E+01    rms(broyden)= 0.27822E+01
  rms(prec ) = 0.29131E+01
  weight for this iteration     100.00

 eigenvalues of (default mixing * dielectric matrix)
  average eigenvalue GAMMA=   0.2862
  0.3356  0.3356  0.1874

 Free energy of the ion-electron system (eV)
  ---------------------------------------------------
  alpha Z        PSCENC =         4.88685396
  Ewald energy   TEWEN  =     13020.93562624
  -Hartree energ DENC   =    -21969.56065484
  -exchange      EXHF   =         0.00000000
  -V(xc)+E(xc)   XCENC  =        61.26660322
  PAW double counting   =      9710.05672032    -9858.62003367
  entropy T*S    EENTRO =        -0.03171008
  eigenvalues    EBANDS =      -712.33733452
  atomic energy  EATOM  =      9704.95859309
  Solvation  Ediel_sol  =         0.00000000
  ---------------------------------------------------
  free energy    TOTEN  =       -38.44533627 eV

  energy without entropy =      -38.41362619  energy(sigma->0) =      -38.43476624


--------------------------------------------------------------------------------------------------------




--------------------------------------- Iteration      1(   9)  ---------------------------------------


    POTLOK:  cpu time    2.5176: real time    2.5237
    SETDIJ:  cpu time    0.0252: real time    0.0252
     EDDAV:  cpu time    8.1419: real time    8.1570
       DOS:  cpu time    0.0085: real time    0.0086
    CHARGE:  cpu time    0.7214: real time    0.7224
    MIXING:  cpu time    0.0502: real time    0.0502
    --------------------------------------------
      LOOP:  cpu time   11.4648: real time   11.4871

 eigenvalue-minimisations  :   374
 total energy-change (2. order) :-0.1044185E+01  (-0.2682305E+01)
 number of electron     100.0000129 magnetization       9.3107719
 augmentation part       54.7641655 magnetization       7.1747657

 Broyden mixing:
  rms(total) = 0.38963E+01    rms(broyden)= 0.38955E+01
  rms(prec ) = 0.40933E+01
  weight for this iteration     100.00

 eigenvalues of (default mixing * dielectric matrix)
  average eigenvalue GAMMA=   0.3702
  0.9071  0.2101  0.1817  0.1817

 Free energy of the ion-electron system (eV)
  ---------------------------------------------------
  alpha Z        PSCENC =         4.88685396
  Ewald energy   TEWEN  =     13020.93562624
  -Hartree energ DENC   =    -21998.18262920
  -exchange      EXHF   =         0.00000000
  -V(xc)+E(xc)   XCENC  =        62.09948792
  PAW double counting   =      9828.07262819    -9981.94874162
  entropy T*S    EENTRO =         0.00625476
  eigenvalues    EBANDS =      -680.31759484
  atomic energy  EATOM  =      9704.95859309
  Solvation  Ediel_sol  =         0.00000000
  ---------------------------------------------------
  free energy    TOTEN  =       -39.48952151 eV

  energy without entropy =      -39.49577627  energy(sigma->0) =      -39.49160643


--------------------------------------------------------------------------------------------------------




--------------------------------------- Iteration      1(  10)  ---------------------------------------


    POTLOK:  cpu time    2.5304: real time    2.5363
    SETDIJ:  cpu time    0.0297: real time    0.0298
     EDDAV:  cpu time    8.3051: real time    8.3172
       DOS:  cpu time    0.0077: real time    0.0077
    CHARGE:  cpu time    0.7077: real time    0.7084
    MIXING:  cpu time    0.0627: real time    0.0628
    --------------------------------------------
      LOOP:  cpu time   11.6432: real time   11.6622

 eigenvalue-minimisations  :   360
 total energy-change (2. order) : 0.4180133E+01  (-0.1657410E+01)
 number of electron     100.0000169 magnetization       9.2285227
 augmentation part       54.5139326 magnetization       7.1135974

 Broyden mixing:
  rms(total) = 0.11699E+01    rms(broyden)= 0.11680E+01
  rms(prec ) = 0.12272E+01
  weight for this iteration     100.00

 eigenvalues of (default mixing * dielectric matrix)
  average eigenvalue GAMMA=   0.4004
  0.8869  0.5581  0.2500  0.1537  0.1537

 Free energy of the ion-electron system (eV)
  ---------------------------------------------------
  alpha Z        PSCENC =         4.88685396
  Ewald energy   TEWEN  =     13020.93562624
  -Hartree energ DENC   =    -22028.26568749
  -exchange      EXHF   =         0.00000000
  -V(xc)+E(xc)   XCENC  =        62.95039987
  PAW double counting   =      9995.94155204   -10156.62303770
  entropy T*S    EENTRO =        -0.02621671
  eigenvalues    EBANDS =      -640.06747176
  atomic energy  EATOM  =      9704.95859309
  Solvation  Ediel_sol  =         0.00000000
  ---------------------------------------------------
  free energy    TOTEN  =       -35.30938846 eV

  energy without entropy =      -35.28317175  energy(sigma->0) =      -35.30064956


--------------------------------------------------------------------------------------------------------




--------------------------------------- Iteration      1(  11)  ---------------------------------------


    POTLOK:  cpu time    2.4374: real time    2.4482
    SETDIJ:  cpu time    0.0256: real time    0.0256
     EDDAV:  cpu time    7.9394: real time    7.9520
       DOS:  cpu time    0.0008: real time    0.0008
    CHARGE:  cpu time    0.7165: real time    0.7172
    MIXING:  cpu time    0.0621: real time    0.0622
    --------------------------------------------
      LOOP:  cpu time   11.1818: real time   11.2059

 eigenvalue-minimisations  :   358
 total energy-change (2. order) :-0.1088891E+01  (-0.4759935E+00)
 number of electron     100.0000167 magnetization       9.1879873
 augmentation part       54.0791476 magnetization       6.9656058

 Broyden mixing:
  rms(total) = 0.24353E+01    rms(broyden)= 0.24348E+01
  rms(prec ) = 0.25702E+01
  weight for this iteration     100.00

 eigenvalues of (default mixing * dielectric matrix)
  average eigenvalue GAMMA=   0.3753
  0.8061  0.8061  0.2524  0.1524  0.1524  0.0823

 Free energy of the ion-electron system (eV)
  ---------------------------------------------------
  alpha Z        PSCENC =         4.88685396
  Ewald energy   TEWEN  =     13020.93562624
  -Hartree energ DENC   =    -22035.48453526
  -exchange      EXHF   =         0.00000000
  -V(xc)+E(xc)   XCENC  =        62.65565624
  PAW double counting   =     10047.77410808   -10210.80937411
  entropy T*S    EENTRO =         0.05976552
  eigenvalues    EBANDS =      -631.37497329
  atomic energy  EATOM  =      9704.95859309
  Solvation  Ediel_sol  =         0.00000000
  ---------------------------------------------------
  free energy    TOTEN  =       -36.39827952 eV

  energy without entropy =      -36.45804504  energy(sigma->0) =      -36.41820136


--------------------------------------------------------------------------------------------------------




--------------------------------------- Iteration      1(  12)  ---------------------------------------


    POTLOK:  cpu time    2.3893: real time    2.3972
    SETDIJ:  cpu time    0.0254: real time    0.0254
     EDDAV:  cpu time    7.3455: real time    7.3566
       DOS:  cpu time    0.0016: real time    0.0016
    CHARGE:  cpu time    0.6878: real time    0.6912
    MIXING:  cpu time    0.0882: real time    0.0883
    --------------------------------------------
      LOOP:  cpu time   10.5377: real time   10.5604

 eigenvalue-minimisations  :   318
 total energy-change (2. order) : 0.3888641E+00  (-0.7677493E+00)
 number of electron     100.0000171 magnetization       9.1341485
 augmentation part       54.1119152 magnetization       6.9462410

 Broyden mixing:
  rms(total) = 0.16069E+01    rms(broyden)= 0.16063E+01
  rms(prec ) = 0.16961E+01
  weight for this iteration     100.00

 eigenvalues of (default mixing * dielectric matrix)
  average eigenvalue GAMMA=   0.3673
  0.8675  0.8675  0.2871  0.1817  0.1528  0.1528  0.0614

 Free energy of the ion-electron system (eV)
  ---------------------------------------------------
  alpha Z        PSCENC =         4.88685396
  Ewald energy   TEWEN  =     13020.93562624
  -Hartree energ DENC   =    -22035.75196912
  -exchange      EXHF   =         0.00000000
  -V(xc)+E(xc)   XCENC  =        62.50094941
  PAW double counting   =     10071.28187709   -10234.71346868
  entropy T*S    EENTRO =         0.01744272
  eigenvalues    EBANDS =      -630.12532013
  atomic energy  EATOM  =      9704.95859309
  Solvation  Ediel_sol  =         0.00000000
  ---------------------------------------------------
  free energy    TOTEN  =       -36.00941541 eV

  energy without entropy =      -36.02685813  energy(sigma->0) =      -36.01522965


--------------------------------------------------------------------------------------------------------




--------------------------------------- Iteration      1(  13)  ---------------------------------------


    POTLOK:  cpu time    2.5064: real time    2.5130
    SETDIJ:  cpu time    0.0230: real time    0.0231
     EDDAV:  cpu time    8.0709: real time    8.0797
       DOS:  cpu time    0.0008: real time    0.0008
    CHARGE:  cpu time    0.6533: real time    0.6545
    MIXING:  cpu time    0.0784: real time    0.0785
    --------------------------------------------
      LOOP:  cpu time   11.3329: real time   11.3496

 eigenvalue-minimisations  :   302
 total energy-change (2. order) :-0.1205008E+00  (-0.3777016E+00)
 number of electron     100.0000160 magnetization       9.0091461
 augmentation part       54.1880402 magnetization       6.8450065

 Broyden mixing:
  rms(total) = 0.11653E+01    rms(broyden)= 0.11644E+01
  rms(prec ) = 0.12210E+01
  weight for this iteration     100.00

 eigenvalues of (default mixing * dielectric matrix)
  average eigenvalue GAMMA=   0.4424
  1.5036  0.6585  0.6585  0.2228  0.1557  0.1557  0.1240  0.0606

 Free energy of the ion-electron system (eV)
  ---------------------------------------------------
  alpha Z        PSCENC =         4.88685396
  Ewald energy   TEWEN  =     13020.93562624
  -Hartree energ DENC   =    -22034.67638736
  -exchange      EXHF   =         0.00000000
  -V(xc)+E(xc)   XCENC  =        62.23618012
  PAW double counting   =     10100.78853082   -10264.18304347
  entropy T*S    EENTRO =         0.00807151
  eigenvalues    EBANDS =      -631.08434117
  atomic energy  EATOM  =      9704.95859309
  Solvation  Ediel_sol  =         0.00000000
  ---------------------------------------------------
  free energy    TOTEN  =       -36.12991626 eV

  energy without entropy =      -36.13798776  energy(sigma->0) =      -36.13260676


--------------------------------------------------------------------------------------------------------




--------------------------------------- Iteration      1(  14)  ---------------------------------------


    POTLOK:  cpu time    2.5150: real time    2.5228
    SETDIJ:  cpu time    0.0291: real time    0.0291
     EDDAV:  cpu time    7.2296: real time    7.2411
       DOS:  cpu time    0.0008: real time    0.0008
    CHARGE:  cpu time    0.6230: real time    0.6236
    MIXING:  cpu time    0.0779: real time    0.0780
    --------------------------------------------
      LOOP:  cpu time   10.4755: real time   10.4955

 eigenvalue-minimisations  :   318
 total energy-change (2. order) : 0.6561938E-01  (-0.1529818E+00)
 number of electron     100.0000169 magnetization       8.9810989
 augmentation part       54.6031654 magnetization       6.9902691

 Broyden mixing:
  rms(total) = 0.75582E+00    rms(broyden)= 0.75529E+00
  rms(prec ) = 0.79351E+00
  weight for this iteration     100.00

 eigenvalues of (default mixing * dielectric matrix)
  average eigenvalue GAMMA=   0.4188
  1.5284  0.6921  0.6921  0.2278  0.1501  0.1501  0.1547  0.1137  0.0605

 Free energy of the ion-electron system (eV)
  ---------------------------------------------------
  alpha Z        PSCENC =         4.88685396
  Ewald energy   TEWEN  =     13020.93562624
  -Hartree energ DENC   =    -22036.09798382
  -exchange      EXHF   =         0.00000000
  -V(xc)+E(xc)   XCENC  =        61.91055955
  PAW double counting   =     10167.12339909   -10330.84642068
  entropy T*S    EENTRO =        -0.04557671
  eigenvalues    EBANDS =      -628.88934759
  atomic energy  EATOM  =      9704.95859309
  Solvation  Ediel_sol  =         0.00000000
  ---------------------------------------------------
  free energy    TOTEN  =       -36.06429687 eV

  energy without entropy =      -36.01872016  energy(sigma->0) =      -36.04910464


--------------------------------------------------------------------------------------------------------




--------------------------------------- Iteration      1(  15)  ---------------------------------------


    POTLOK:  cpu time    2.5187: real time    2.5258
    SETDIJ:  cpu time    0.0230: real time    0.0231
     EDDAV:  cpu time    7.4369: real time    7.4485
       DOS:  cpu time    0.0023: real time    0.0023
    CHARGE:  cpu time    0.7064: real time    0.7072
    MIXING:  cpu time    0.0921: real time    0.0922
    --------------------------------------------
      LOOP:  cpu time   10.7794: real time   10.7991

 eigenvalue-minimisations  :   344
 total energy-change (2. order) :-0.4411439E-01  (-0.3963355E-01)
 number of electron     100.0000159 magnetization       8.9464640
 augmentation part       54.5853844 magnetization       6.9458055

 Broyden mixing:
  rms(total) = 0.53221E+00    rms(broyden)= 0.53199E+00
  rms(prec ) = 0.55650E+00
  weight for this iteration     100.00

 eigenvalues of (default mixing * dielectric matrix)
  average eigenvalue GAMMA=   0.4061
  1.5374  0.7330  0.7330  0.2582  0.1946  0.1564  0.1564  0.1205  0.1107  0.0605

 Free energy of the ion-electron system (eV)
  ---------------------------------------------------
  alpha Z        PSCENC =         4.88685396
  Ewald energy   TEWEN  =     13020.93562624
  -Hartree energ DENC   =    -22037.56188116
  -exchange      EXHF   =         0.00000000
  -V(xc)+E(xc)   XCENC  =        61.83699795
  PAW double counting   =     10171.96403280   -10335.82678709
  entropy T*S    EENTRO =        -0.03352226
  eigenvalues    EBANDS =      -627.26832479
  atomic energy  EATOM  =      9704.95859309
  Solvation  Ediel_sol  =         0.00000000
  ---------------------------------------------------
  free energy    TOTEN  =       -36.10841127 eV

  energy without entropy =      -36.07488900  energy(sigma->0) =      -36.09723718


--------------------------------------------------------------------------------------------------------




--------------------------------------- Iteration      1(  16)  ---------------------------------------


    POTLOK:  cpu time    2.5356: real time    2.5406
    SETDIJ:  cpu time    0.0251: real time    0.0251
     EDDAV:  cpu time    8.7176: real time    8.7280
       DOS:  cpu time    0.0008: real time    0.0008
    CHARGE:  cpu time    0.8061: real time    0.8071
    MIXING:  cpu time    0.1050: real time    0.1052
    --------------------------------------------
      LOOP:  cpu time   12.1903: real time   12.2068

 eigenvalue-minimisations  :   358
 total energy-change (2. order) :-0.1023243E+00  (-0.8036407E-02)
 number of electron     100.0000162 magnetization       8.8668978
 augmentation part       54.5199621 magnetization       6.8278694

 Broyden mixing:
  rms(total) = 0.45069E+00    rms(broyden)= 0.45060E+00
  rms(prec ) = 0.46886E+00
  weight for this iteration     100.00

 eigenvalues of (default mixing * dielectric matrix)
  average eigenvalue GAMMA=   0.4784
  1.7264  0.9069  0.9069  0.4580  0.4580  0.2192  0.1554  0.1554  0.1201  0.0605
  0.0950

 Free energy of the ion-electron system (eV)
  ---------------------------------------------------
  alpha Z        PSCENC =         4.88685396
  Ewald energy   TEWEN  =     13020.93562624
  -Hartree energ DENC   =    -22039.55130081
  -exchange      EXHF   =         0.00000000
  -V(xc)+E(xc)   XCENC  =        61.75786885
  PAW double counting   =     10174.23402007   -10338.26048602
  entropy T*S    EENTRO =        -0.01883571
  eigenvalues    EBANDS =      -625.15307519
  atomic energy  EATOM  =      9704.95859309
  Solvation  Ediel_sol  =         0.00000000
  ---------------------------------------------------
  free energy    TOTEN  =       -36.21073552 eV

  energy without entropy =      -36.19189981  energy(sigma->0) =      -36.20445695


--------------------------------------------------------------------------------------------------------




--------------------------------------- Iteration      1(  17)  ---------------------------------------


    POTLOK:  cpu time    2.5358: real time    2.5438
    SETDIJ:  cpu time    0.0236: real time    0.0236
     EDDAV:  cpu time    7.7617: real time    7.7730
       DOS:  cpu time    0.0008: real time    0.0008
    CHARGE:  cpu time    0.6158: real time    0.6191
    MIXING:  cpu time    0.0999: real time    0.1000
    --------------------------------------------
      LOOP:  cpu time   11.0375: real time   11.0603

 eigenvalue-minimisations  :   318
 total energy-change (2. order) :-0.2888792E+00  (-0.7133521E-01)
 number of electron     100.0000167 magnetization       8.7674605
 augmentation part       54.4825263 magnetization       6.7755564

 Broyden mixing:
  rms(total) = 0.52845E+00    rms(broyden)= 0.52795E+00
  rms(prec ) = 0.55382E+00
  weight for this iteration     100.00

 eigenvalues of (default mixing * dielectric matrix)
  average eigenvalue GAMMA=   0.4961
  2.0415  0.7719  0.7719  0.6022  0.6022  0.3564  0.2200  0.1550  0.1550  0.1206
  0.0605  0.0954

 Free energy of the ion-electron system (eV)
  ---------------------------------------------------
  alpha Z        PSCENC =         4.88685396
  Ewald energy   TEWEN  =     13020.93562624
  -Hartree energ DENC   =    -22044.03131894
  -exchange      EXHF   =         0.00000000
  -V(xc)+E(xc)   XCENC  =        61.61844437
  PAW double counting   =     10171.55497493   -10335.89724715
  entropy T*S    EENTRO =        -0.03137902
  eigenvalues    EBANDS =      -620.49416221
  atomic energy  EATOM  =      9704.95859309
  Solvation  Ediel_sol  =         0.00000000
  ---------------------------------------------------
  free energy    TOTEN  =       -36.49961474 eV

  energy without entropy =      -36.46823572  energy(sigma->0) =      -36.48915507


--------------------------------------------------------------------------------------------------------




--------------------------------------- Iteration      1(  18)  ---------------------------------------


    POTLOK:  cpu time    2.3862: real time    2.3919
    SETDIJ:  cpu time    0.0237: real time    0.0237
     EDDAV:  cpu time    7.1982: real time    7.2061
       DOS:  cpu time    0.0008: real time    0.0008
    CHARGE:  cpu time    0.6290: real time    0.6296
    MIXING:  cpu time    0.1040: real time    0.1041
    --------------------------------------------
      LOOP:  cpu time   10.3418: real time   10.3562

 eigenvalue-minimisations  :   300
 total energy-change (2. order) :-0.2402107E+00  (-0.9332515E-02)
 number of electron     100.0000166 magnetization       8.6555264
 augmentation part       54.5487267 magnetization       6.7048222

 Broyden mixing:
  rms(total) = 0.47884E+00    rms(broyden)= 0.47876E+00
  rms(prec ) = 0.50610E+00
  weight for this iteration     100.00

 eigenvalues of (default mixing * dielectric matrix)
  average eigenvalue GAMMA=   0.5462
  2.1682  1.1382  0.7303  0.6728  0.6728  0.4559  0.4559  0.2201  0.1552  0.1552
  0.1205  0.0605  0.0954

 Free energy of the ion-electron system (eV)
  ---------------------------------------------------
  alpha Z        PSCENC =         4.88685396
  Ewald energy   TEWEN  =     13020.93562624
  -Hartree energ DENC   =    -22047.34263821
  -exchange      EXHF   =         0.00000000
  -V(xc)+E(xc)   XCENC  =        61.39782195
  PAW double counting   =     10181.22101395   -10345.73563679
  entropy T*S    EENTRO =        -0.03043044
  eigenvalues    EBANDS =      -617.03102917
  atomic energy  EATOM  =      9704.95859309
  Solvation  Ediel_sol  =         0.00000000
  ---------------------------------------------------
  free energy    TOTEN  =       -36.73982544 eV

  energy without entropy =      -36.70939499  energy(sigma->0) =      -36.72968196


--------------------------------------------------------------------------------------------------------




--------------------------------------- Iteration      1(  19)  ---------------------------------------


    POTLOK:  cpu time    2.4704: real time    2.4738
    SETDIJ:  cpu time    0.0248: real time    0.0248
     EDDAV:  cpu time    9.5180: real time    9.5352
       DOS:  cpu time    0.0008: real time    0.0007
    CHARGE:  cpu time    0.7502: real time    0.7510
    MIXING:  cpu time    0.1321: real time    0.1323
    --------------------------------------------
      LOOP:  cpu time   12.8962: real time   12.9179

 eigenvalue-minimisations  :   396
 total energy-change (2. order) :-0.2221890E+00  (-0.9727655E-02)
 number of electron     100.0000163 magnetization       8.5788753
 augmentation part       54.4352663 magnetization       6.5762466

 Broyden mixing:
  rms(total) = 0.15040E+00    rms(broyden)= 0.15005E+00
  rms(prec ) = 0.15742E+00
  weight for this iteration     100.00

 eigenvalues of (default mixing * dielectric matrix)
  average eigenvalue GAMMA=   0.5862
  2.2655  1.2860  0.9515  0.7002  0.7002  0.5517  0.4724  0.4724  0.2202  0.1552
  0.1552  0.1206  0.0605  0.0954

 Free energy of the ion-electron system (eV)
  ---------------------------------------------------
  alpha Z        PSCENC =         4.88685396
  Ewald energy   TEWEN  =     13020.93562624
  -Hartree energ DENC   =    -22053.25928925
  -exchange      EXHF   =         0.00000000
  -V(xc)+E(xc)   XCENC  =        61.25889460
  PAW double counting   =     10175.94444041   -10340.70737841
  entropy T*S    EENTRO =        -0.00897904
  eigenvalues    EBANDS =      -610.97077607
  atomic energy  EATOM  =      9704.95859309
  Solvation  Ediel_sol  =         0.00000000
  ---------------------------------------------------
  free energy    TOTEN  =       -36.96201448 eV

  energy without entropy =      -36.95303544  energy(sigma->0) =      -36.95902147


--------------------------------------------------------------------------------------------------------




--------------------------------------- Iteration      1(  20)  ---------------------------------------


    POTLOK:  cpu time    2.5449: real time    2.5596
    SETDIJ:  cpu time    0.0298: real time    0.0298
     EDDAV:  cpu time    7.8887: real time    7.9008
       DOS:  cpu time    0.0008: real time    0.0008
    CHARGE:  cpu time    0.6791: real time    0.6798
    MIXING:  cpu time    0.1208: real time    0.1209
    --------------------------------------------
      LOOP:  cpu time   11.2642: real time   11.2916

 eigenvalue-minimisations  :   320
 total energy-change (2. order) :-0.1918767E+00  (-0.3301323E-02)
 number of electron     100.0000162 magnetization       8.5064765
 augmentation part       54.4398251 magnetization       6.5307184

 Broyden mixing:
  rms(total) = 0.11737E+00    rms(broyden)= 0.11728E+00
  rms(prec ) = 0.12346E+00
  weight for this iteration     100.00

 eigenvalues of (default mixing * dielectric matrix)
  average eigenvalue GAMMA=   0.6093
  2.2940  1.4807  1.0252  0.6825  0.6825  0.6288  0.6288  0.4550  0.4550  0.2202
  0.1552  0.1552  0.1206  0.0605  0.0954

 Free energy of the ion-electron system (eV)
  ---------------------------------------------------
  alpha Z        PSCENC =         4.88685396
  Ewald energy   TEWEN  =     13020.93562624
  -Hartree energ DENC   =    -22056.20961096
  -exchange      EXHF   =         0.00000000
  -V(xc)+E(xc)   XCENC  =        61.12789569
  PAW double counting   =     10170.04492266   -10334.74065508
  entropy T*S    EENTRO =        -0.01560639
  eigenvalues    EBANDS =      -608.14191043
  atomic energy  EATOM  =      9704.95859309
  Solvation  Ediel_sol  =         0.00000000
  ---------------------------------------------------
  free energy    TOTEN  =       -37.15389123 eV

  energy without entropy =      -37.13828484  energy(sigma->0) =      -37.14868910


--------------------------------------------------------------------------------------------------------




--------------------------------------- Iteration      1(  21)  ---------------------------------------


    POTLOK:  cpu time    2.3566: real time    2.3632
    SETDIJ:  cpu time    0.0231: real time    0.0232
     EDDAV:  cpu time    7.1542: real time    7.1620
       DOS:  cpu time    0.0009: real time    0.0009
    CHARGE:  cpu time    0.6137: real time    0.6143
    MIXING:  cpu time    0.1315: real time    0.1317
    --------------------------------------------
      LOOP:  cpu time   10.2802: real time   10.2954

 eigenvalue-minimisations  :   296
 total energy-change (2. order) :-0.1882686E+00  (-0.1604803E-02)
 number of electron     100.0000162 magnetization       8.4370310
 augmentation part       54.4466669 magnetization       6.4751072

 Broyden mixing:
  rms(total) = 0.12951E+00    rms(broyden)= 0.12950E+00
  rms(prec ) = 0.13768E+00
  weight for this iteration     100.00

 eigenvalues of (default mixing * dielectric matrix)
  average eigenvalue GAMMA=   0.6314
  2.4090  1.7712  0.8778  0.8778  0.7499  0.6570  0.6570  0.4448  0.4448  0.4065
  0.2202  0.1552  0.1552  0.1206  0.0605  0.0954

 Free energy of the ion-electron system (eV)
  ---------------------------------------------------
  alpha Z        PSCENC =         4.88685396
  Ewald energy   TEWEN  =     13020.93562624
  -Hartree energ DENC   =    -22058.46069258
  -exchange      EXHF   =         0.00000000
  -V(xc)+E(xc)   XCENC  =        60.97762175
  PAW double counting   =     10164.49632313   -10329.08068312
  entropy T*S    EENTRO =        -0.01926770
  eigenvalues    EBANDS =      -606.03653458
  atomic energy  EATOM  =      9704.95859309
  Solvation  Ediel_sol  =         0.00000000
  ---------------------------------------------------
  free energy    TOTEN  =       -37.34215981 eV

  energy without entropy =      -37.32289211  energy(sigma->0) =      -37.33573724


--------------------------------------------------------------------------------------------------------




--------------------------------------- Iteration      1(  22)  ---------------------------------------


    POTLOK:  cpu time    2.4273: real time    2.4352
    SETDIJ:  cpu time    0.0250: real time    0.0251
     EDDAV:  cpu time    8.5760: real time    8.5862
       DOS:  cpu time    0.0008: real time    0.0008
    CHARGE:  cpu time    0.6297: real time    0.6304
    MIXING:  cpu time    0.1416: real time    0.1418
    --------------------------------------------
      LOOP:  cpu time   11.8005: real time   11.8194

 eigenvalue-minimisations  :   358
 total energy-change (2. order) :-0.1543202E+00  (-0.1216938E-02)
 number of electron     100.0000162 magnetization       8.3684442
 augmentation part       54.4245790 magnetization       6.4048993

 Broyden mixing:
  rms(total) = 0.60521E-01    rms(broyden)= 0.60479E-01
  rms(prec ) = 0.64681E-01
  weight for this iteration     100.00

 eigenvalues of (default mixing * dielectric matrix)
  average eigenvalue GAMMA=   0.6699
  2.5663  2.0052  0.9914  0.9914  0.8405  0.6763  0.6763  0.6012  0.4610  0.4610
  0.3102  0.2202  0.1552  0.1552  0.1206  0.0605  0.0954

 Free energy of the ion-electron system (eV)
  ---------------------------------------------------
  alpha Z        PSCENC =         4.88685396
  Ewald energy   TEWEN  =     13020.93562624
  -Hartree energ DENC   =    -22060.73449065
  -exchange      EXHF   =         0.00000000
  -V(xc)+E(xc)   XCENC  =        60.85876017
  PAW double counting   =     10159.46970368   -10324.03809193
  entropy T*S    EENTRO =        -0.01467987
  eigenvalues    EBANDS =      -603.81875466
  atomic energy  EATOM  =      9704.95859309
  Solvation  Ediel_sol  =         0.00000000
  ---------------------------------------------------
  free energy    TOTEN  =       -37.49647997 eV

  energy without entropy =      -37.48180009  energy(sigma->0) =      -37.49158668


--------------------------------------------------------------------------------------------------------




--------------------------------------- Iteration      1(  23)  ---------------------------------------


    POTLOK:  cpu time    2.4818: real time    2.4873
    SETDIJ:  cpu time    0.0234: real time    0.0235
     EDDAV:  cpu time    7.5739: real time    7.5834
       DOS:  cpu time    0.0008: real time    0.0008
    CHARGE:  cpu time    0.6736: real time    0.6743
    MIXING:  cpu time    0.1558: real time    0.1587
    --------------------------------------------
      LOOP:  cpu time   10.9094: real time   10.9280

 eigenvalue-minimisations  :   328
 total energy-change (2. order) :-0.1404815E+00  (-0.8111953E-03)
 number of electron     100.0000162 magnetization       8.3205033
 augmentation part       54.4118378 magnetization       6.3621016

 Broyden mixing:
  rms(total) = 0.26290E-01    rms(broyden)= 0.26254E-01
  rms(prec ) = 0.28194E-01
  weight for this iteration     100.00

 eigenvalues of (default mixing * dielectric matrix)
  average eigenvalue GAMMA=   0.6946
  2.4366  2.4366  1.2037  0.8809  0.8809  0.6740  0.6740  0.6401  0.6401  0.4634
  0.4634  0.3028  0.2202  0.1552  0.1552  0.1206  0.0605  0.0954

 Free energy of the ion-electron system (eV)
  ---------------------------------------------------
  alpha Z        PSCENC =         4.88685396
  Ewald energy   TEWEN  =     13020.93562624
  -Hartree energ DENC   =    -22062.62987447
  -exchange      EXHF   =         0.00000000
  -V(xc)+E(xc)   XCENC  =        60.74528715
  PAW double counting   =     10155.21284115   -10319.77371576
  entropy T*S    EENTRO =        -0.01091193
  eigenvalues    EBANDS =      -601.96166092
  atomic energy  EATOM  =      9704.95859309
  Solvation  Ediel_sol  =         0.00000000
  ---------------------------------------------------
  free energy    TOTEN  =       -37.63696150 eV

  energy without entropy =      -37.62604956  energy(sigma->0) =      -37.63332419


--------------------------------------------------------------------------------------------------------




--------------------------------------- Iteration      1(  24)  ---------------------------------------


    POTLOK:  cpu time    2.3957: real time    2.4002
    SETDIJ:  cpu time    0.0251: real time    0.0252
     EDDAV:  cpu time    6.4398: real time    6.4466
       DOS:  cpu time    0.0008: real time    0.0008
    CHARGE:  cpu time    0.6179: real time    0.6189
    MIXING:  cpu time    0.1610: real time    0.1612
    --------------------------------------------
      LOOP:  cpu time    9.6403: real time    9.6529

 eigenvalue-minimisations  :   274
 total energy-change (2. order) :-0.8854651E-01  (-0.2797863E-03)
 number of electron     100.0000162 magnetization       8.2657687
 augmentation part       54.4118388 magnetization       6.3132204

 Broyden mixing:
  rms(total) = 0.24634E-01    rms(broyden)= 0.24626E-01
  rms(prec ) = 0.26524E-01
  weight for this iteration     100.00

 eigenvalues of (default mixing * dielectric matrix)
  average eigenvalue GAMMA=   0.7140
  2.6839  2.4742  1.2830  0.9071  0.9071  0.6666  0.6666  0.7243  0.7243  0.4592
  0.4592  0.4958  0.3076  0.2202  0.1552  0.1552  0.1206  0.0605  0.0954

 Free energy of the ion-electron system (eV)
  ---------------------------------------------------
  alpha Z        PSCENC =         4.88685396
  Ewald energy   TEWEN  =     13020.93562624
  -Hartree energ DENC   =    -22063.73091569
  -exchange      EXHF   =         0.00000000
  -V(xc)+E(xc)   XCENC  =        60.66790286
  PAW double counting   =     10152.97696919   -10317.51219103
  entropy T*S    EENTRO =        -0.01058461
  eigenvalues    EBANDS =      -600.89776201
  atomic energy  EATOM  =      9704.95859309
  Solvation  Ediel_sol  =         0.00000000
  ---------------------------------------------------
  free energy    TOTEN  =       -37.72550800 eV

  energy without entropy =      -37.71492339  energy(sigma->0) =      -37.72197980


--------------------------------------------------------------------------------------------------------




--------------------------------------- Iteration      1(  25)  ---------------------------------------


    POTLOK:  cpu time    2.4633: real time    2.4673
    SETDIJ:  cpu time    0.0250: real time    0.0250
     EDDAV:  cpu time    7.1125: real time    7.1209
       DOS:  cpu time    0.0012: real time    0.0012
    CHARGE:  cpu time    0.7234: real time    0.7243
    MIXING:  cpu time    0.1825: real time    0.1828
    --------------------------------------------
      LOOP:  cpu time   10.5081: real time   10.5216

 eigenvalue-minimisations  :   280
 total energy-change (2. order) :-0.8390584E-01  (-0.2020129E-03)
 number of electron     100.0000162 magnetization       8.1974750
 augmentation part       54.4062981 magnetization       6.2496294

 Broyden mixing:
  rms(total) = 0.11916E-01    rms(broyden)= 0.11885E-01
  rms(prec ) = 0.13091E-01
  weight for this iteration     100.00

 eigenvalues of (default mixing * dielectric matrix)
  average eigenvalue GAMMA=   0.7412
  3.1866  2.3242  1.2419  1.1170  0.9255  0.9255  0.6691  0.6691  0.6463  0.6463
  0.4608  0.4608  0.4366  0.3083  0.2202  0.1552  0.1552  0.1206  0.0605  0.0954

 Free energy of the ion-electron system (eV)
  ---------------------------------------------------
  alpha Z        PSCENC =         4.88685396
  Ewald energy   TEWEN  =     13020.93562624
  -Hartree energ DENC   =    -22065.00745646
  -exchange      EXHF   =         0.00000000
  -V(xc)+E(xc)   XCENC  =        60.59862745
  PAW double counting   =     10151.04751833   -10315.57521284
  entropy T*S    EENTRO =        -0.00948329
  eigenvalues    EBANDS =      -599.64448032
  atomic energy  EATOM  =      9704.95859309
  Solvation  Ediel_sol  =         0.00000000
  ---------------------------------------------------
  free energy    TOTEN  =       -37.80941385 eV

  energy without entropy =      -37.79993055  energy(sigma->0) =      -37.80625275


--------------------------------------------------------------------------------------------------------




--------------------------------------- Iteration      1(  26)  ---------------------------------------


    POTLOK:  cpu time    2.6418: real time    2.6488
    SETDIJ:  cpu time    0.0255: real time    0.0256
     EDDAV:  cpu time    6.8382: real time    6.8468
       DOS:  cpu time    0.0011: real time    0.0011
    CHARGE:  cpu time    0.7164: real time    0.7171
    MIXING:  cpu time    0.2139: real time    0.2141
    --------------------------------------------
      LOOP:  cpu time   10.4369: real time   10.4536

 eigenvalue-minimisations  :   266
 total energy-change (2. order) :-0.8363721E-01  (-0.2136935E-03)
 number of electron     100.0000162 magnetization       8.1423449
 augmentation part       54.4015410 magnetization       6.2011628

 Broyden mixing:
  rms(total) = 0.26503E-01    rms(broyden)= 0.26478E-01
  rms(prec ) = 0.28148E-01
  weight for this iteration     100.00

 eigenvalues of (default mixing * dielectric matrix)
  average eigenvalue GAMMA=   0.7785
  3.3439  2.4843  1.6788  1.0326  1.0326  0.6740  0.6740  0.8031  0.8031  0.7196
  0.6272  0.4609  0.4609  0.4399  0.3074  0.2202  0.1552  0.1552  0.1206  0.0605
  0.0954

 Free energy of the ion-electron system (eV)
  ---------------------------------------------------
  alpha Z        PSCENC =         4.88685396
  Ewald energy   TEWEN  =     13020.93562624
  -Hartree energ DENC   =    -22066.41765072
  -exchange      EXHF   =         0.00000000
  -V(xc)+E(xc)   XCENC  =        60.52869116
  PAW double counting   =     10149.05726279   -10313.58210769
  entropy T*S    EENTRO =        -0.00835978
  eigenvalues    EBANDS =      -598.25196012
  atomic energy  EATOM  =      9704.95859309
  Solvation  Ediel_sol  =         0.00000000
  ---------------------------------------------------
  free energy    TOTEN  =       -37.89305106 eV

  energy without entropy =      -37.88469128  energy(sigma->0) =      -37.89026446


--------------------------------------------------------------------------------------------------------




--------------------------------------- Iteration      1(  27)  ---------------------------------------


    POTLOK:  cpu time    2.5179: real time    2.5242
    SETDIJ:  cpu time    0.0252: real time    0.0266
     EDDAV:  cpu time    6.9246: real time    6.9351
       DOS:  cpu time    0.0009: real time    0.0009
    CHARGE:  cpu time    0.7008: real time    0.7015
    MIXING:  cpu time    0.1877: real time    0.1879
    --------------------------------------------
      LOOP:  cpu time   10.3569: real time   10.3762

 eigenvalue-minimisations  :   308
 total energy-change (2. order) :-0.5567006E-01  (-0.1089038E-03)
 number of electron     100.0000162 magnetization       8.0889050
 augmentation part       54.4035630 magnetization       6.1539988

 Broyden mixing:
  rms(total) = 0.11709E-01    rms(broyden)= 0.11702E-01
  rms(prec ) = 0.12501E-01
  weight for this iteration     100.00

 eigenvalues of (default mixing * dielectric matrix)
  average eigenvalue GAMMA=   0.8164
  3.8740  2.2039  2.2039  1.0156  1.0156  0.8877  0.8241  0.8241  0.6728  0.6728
  0.6393  0.6393  0.4611  0.4611  0.4504  0.3073  0.2202  0.1552  0.1552  0.1206
  0.0605  0.0954

 Free energy of the ion-electron system (eV)
  ---------------------------------------------------
  alpha Z        PSCENC =         4.88685396
  Ewald energy   TEWEN  =     13020.93562624
  -Hartree energ DENC   =    -22067.28418737
  -exchange      EXHF   =         0.00000000
  -V(xc)+E(xc)   XCENC  =        60.47574098
  PAW double counting   =     10148.24609904   -10312.76660334
  entropy T*S    EENTRO =        -0.00883612
  eigenvalues    EBANDS =      -597.39200759
  atomic energy  EATOM  =      9704.95859309
  Solvation  Ediel_sol  =         0.00000000
  ---------------------------------------------------
  free energy    TOTEN  =       -37.94872111 eV

  energy without entropy =      -37.93988500  energy(sigma->0) =      -37.94577574


--------------------------------------------------------------------------------------------------------




--------------------------------------- Iteration      1(  28)  ---------------------------------------


    POTLOK:  cpu time    2.4898: real time    2.4978
    SETDIJ:  cpu time    0.0231: real time    0.0231
     EDDAV:  cpu time    5.6030: real time    5.6084
       DOS:  cpu time    0.0008: real time    0.0008
    CHARGE:  cpu time    0.7069: real time    0.7077
    MIXING:  cpu time    0.2447: real time    0.2477
    --------------------------------------------
      LOOP:  cpu time    9.0681: real time    9.0854

 eigenvalue-minimisations  :   238
 total energy-change (2. order) :-0.4280164E-01  (-0.6588595E-04)
 number of electron     100.0000162 magnetization       8.0508042
 augmentation part       54.4023687 magnetization       6.1207212

 Broyden mixing:
  rms(total) = 0.15153E-01    rms(broyden)= 0.15150E-01
  rms(prec ) = 0.16084E-01
  weight for this iteration     100.00

 eigenvalues of (default mixing * dielectric matrix)
[...]


    POTLOK:  cpu time    2.4229: real time    2.4277
    SETDIJ:  cpu time    0.0237: real time    0.0264
     EDDAV:  cpu time    4.5632: real time    4.5712
       DOS:  cpu time    0.0008: real time    0.0008
    --------------------------------------------
      LOOP:  cpu time    7.0106: real time    7.0261

 eigenvalue-minimisations  :   168
 total energy-change (2. order) :-0.5979183E-04  (-0.3650845E-06)
 number of electron     100.0000162 magnetization       7.9035541
 augmentation part       54.4055517 magnetization       5.9935049

 Free energy of the ion-electron system (eV)
  ---------------------------------------------------
  alpha Z        PSCENC =         4.88685396
  Ewald energy   TEWEN  =     13020.93562624
  -Hartree energ DENC   =    -22069.24747302
  -exchange      EXHF   =         0.00000000
  -V(xc)+E(xc)   XCENC  =        60.36036691
  PAW double counting   =     10147.69349857   -10312.22921394
  entropy T*S    EENTRO =        -0.00949802
  eigenvalues    EBANDS =      -595.41796068
  atomic energy  EATOM  =      9704.95859309
  Solvation  Ediel_sol  =         0.00000000
  ---------------------------------------------------
  free energy    TOTEN  =       -38.06920688 eV

  energy without entropy =      -38.05970886  energy(sigma->0) =      -38.06604087


--------------------------------------------------------------------------------------------------------




 average (electrostatic) potential at core
  the test charge radii are     0.9791  1.1199
  (the norm of the test charge is              1.0000)
       1 -95.4852       2 -95.2337       3 -95.4260       4 -95.2158       5 -95.2351
       6 -95.4256       7 -83.5747       8 -83.5769       9 -83.5722      10 -83.5750
 
 
 
 E-fermi :  -4.1123     XC(G=0):  -0.3427     alpha+bet : -0.1776


 spin component 1

 k-point     1 :       0.0000    0.0000    0.0000
  band No.  band energies     occupation 
      1      -9.8910      1.00000
      2      -8.3946      1.00000
      3      -8.2998      1.00000
      4      -7.9031      1.00000
      5      -7.7252      1.00000
      6      -7.6891      1.00000
      7      -7.6085      1.00000
      8      -7.5269      1.00000
      9      -7.4889      1.00000
     10      -7.4474      1.00000
     11      -7.3338      1.00000
     12      -7.2052      1.00000
     13      -7.1848      1.00000
     14      -7.1729      1.00000
     15      -7.0018      1.00000
     16      -6.8064      1.00000
     17      -6.5129      1.00000
     18      -6.4077      1.00000
     19      -6.3770      1.00000
     20      -6.3737      1.00000
     21      -6.3156      1.00000
     22      -6.2488      1.00000
     23      -6.2384      1.00000
     24      -6.1298      1.00000
     25      -6.1281      1.00000
     26      -6.0572      1.00000
     27      -5.8562      1.00000
     28      -5.8468      1.00000
     29      -5.7386      1.00000
     30      -5.5989      1.00000
     31      -5.5946      1.00000
     32      -5.5918      1.00000
     33      -5.4799      1.00000
     34      -5.4733      1.00000
     35      -5.3278      1.00000
     36      -5.3018      1.00000
     37      -5.2819      1.00000
     38      -5.2500      1.00000
     39      -5.2175      1.00000
     40      -5.1402      1.00000
     41      -5.1345      1.00000
     42      -5.1298      1.00000
     43      -5.1292      1.00000
     44      -5.1049      1.00000
     45      -5.0523      1.00000
     46      -5.0428      1.00000
     47      -4.9892      1.00000
     48      -4.8713      1.00000
     49      -4.8241      1.00000
     50      -4.7987      1.00001
     51      -4.7664      1.00002
     52      -4.7354      1.00005
     53      -4.6001      1.00151
     54      -4.2464      0.94909
     55      -2.9014     -0.00000
     56      -2.7810     -0.00000
     57      -2.7269     -0.00000
     58      -2.5743     -0.00000
     59      -2.1568     -0.00000
     60      -1.7502     -0.00000
     61      -0.9165     -0.00000
     62      -0.8453     -0.00000
     63      -0.6364     -0.00000
     64      -0.4833     -0.00000
     65      -0.3405     -0.00000
     66      -0.2139     -0.00000

 spin component 2

 k-point     1 :       0.0000    0.0000    0.0000
  band No.  band energies     occupation 
      1      -9.8272      1.00000
      2      -8.1108      1.00000
      3      -7.9284      1.00000
      4      -7.4400      1.00000
      5      -7.2263      1.00000
      6      -7.1225      1.00000
      7      -7.1047      1.00000
      8      -6.8199      1.00000
      9      -6.7666      1.00000
     10      -6.6751      1.00000
     11      -6.6225      1.00000
     12      -6.5621      1.00000
     13      -6.4481      1.00000
     14      -6.3848      1.00000
     15      -6.1666      1.00000
     16      -6.1488      1.00000
     17      -6.0737      1.00000
     18      -6.0513      1.00000
     19      -5.8720      1.00000
     20      -5.8549      1.00000
     21      -5.8026      1.00000
     22      -5.6855      1.00000
     23      -5.6605      1.00000
     24      -5.5130      1.00000
     25      -5.4026      1.00000
     26      -5.3758      1.00000
     27      -5.3725      1.00000
     28      -5.3237      1.00000
     29      -5.2090      1.00000
     30      -5.0659      1.00000
     31      -5.0556      1.00000
     32      -4.9663      1.00000
     33      -4.8821      1.00000
     34      -4.8097      1.00000
     35      -4.7846      1.00001
     36      -4.6807      1.00022
     37      -4.6046      1.00137
     38      -4.6040      1.00139
     39      -4.5354      1.00540
     40      -4.4840      1.01229
     41      -4.4560      1.01775
     42      -4.4508      1.01887
     43      -4.3211      1.02911
     44      -4.2151      0.87765
     45      -4.2029      0.84326
     46      -4.1899      0.80257
     47      -4.0431      0.22579
     48      -4.0376      0.20700
     49      -4.0072      0.11614
     50      -3.9188     -0.02142
     51      -3.8762     -0.03514
     52      -3.8022     -0.02536
     53      -3.7923     -0.02306
     54      -3.6795     -0.00454
     55      -2.6732     -0.00000
     56      -2.5554     -0.00000
     57      -2.4256     -0.00000
     58      -2.2494     -0.00000
     59      -1.8676     -0.00000
     60      -1.4637     -0.00000
     61      -0.8007     -0.00000
     62      -0.6691     -0.00000
     63      -0.4738     -0.00000
     64      -0.3789     -0.00000
     65      -0.2013     -0.00000
     66       0.0227     -0.00000


--------------------------------------------------------------------------------------------------------


 soft charge-density along one line, spin component            1
         0         1         2         3         4         5         6         7         8         9
 total charge-density along one line
 
 soft charge-density along one line, spin component            2
         0         1         2         3         4         5         6         7         8         9
 total charge-density along one line
 
 pseudopotential strength for first ion, spin component:            1
-10.292   0.045   0.011   0.045   0.136 -10.560   0.044   0.011
  0.045 -10.508  -0.008   0.014   0.058   0.044 -10.767  -0.007
  0.011  -0.008 -10.254  -0.147   0.022   0.011  -0.007 -10.524
  0.045   0.014  -0.147 -10.448   0.010   0.043   0.013  -0.140
  0.136   0.058   0.022   0.010 -10.407   0.130   0.056   0.021
-10.560   0.044   0.011   0.043   0.130 -10.775   0.042   0.011
  0.044 -10.767  -0.007   0.013   0.056   0.042 -10.973  -0.007
  0.011  -0.007 -10.524  -0.140   0.021   0.011  -0.007 -10.740
  0.043   0.013  -0.140 -10.710   0.010   0.041   0.012  -0.134
  0.130   0.056   0.021   0.010 -10.671   0.125   0.053   0.020
 -0.002   0.005   0.005   0.009  -0.003  -0.002   0.005   0.004
 -0.004   0.009   0.008   0.017  -0.006  -0.004   0.009   0.008
  0.001   0.002  -0.001   0.002   0.002   0.001   0.002  -0.001
  0.002  -0.000  -0.007   0.003   0.000   0.001  -0.000  -0.006
  0.004   0.002   0.000   0.003   0.001   0.004   0.001   0.000
 -0.002   0.004  -0.001   0.002   0.004  -0.002   0.004  -0.000
  0.002  -0.002  -0.006   0.000   0.001   0.002  -0.002  -0.005
  0.003   0.002   0.002   0.006  -0.001   0.003   0.002   0.002
 pseudopotential strength for first ion, spin component:            2
 -9.490  -0.030  -0.002  -0.025  -0.060  -9.798  -0.029  -0.002
 -0.030  -9.411   0.001  -0.006  -0.017  -0.029  -9.721   0.001
 -0.002   0.001  -9.524   0.059  -0.010  -0.002   0.001  -9.830
 -0.025  -0.006   0.059  -9.436  -0.015  -0.024  -0.006   0.057
 -0.060  -0.017  -0.010  -0.015  -9.441  -0.058  -0.016  -0.010
 -9.798  -0.029  -0.002  -0.024  -0.058 -10.049  -0.028  -0.002
 -0.029  -9.721   0.001  -0.006  -0.016  -0.028  -9.975   0.001
 -0.002   0.001  -9.830   0.057  -0.010  -0.002   0.001 -10.080
 -0.024  -0.006   0.057  -9.745  -0.014  -0.023  -0.006   0.055
 -0.058  -0.016  -0.010  -0.014  -9.750  -0.055  -0.016  -0.009
 -0.000   0.002   0.002   0.003  -0.001  -0.000   0.002   0.002
 -0.001   0.003   0.003   0.006  -0.001  -0.001   0.003   0.003
  0.011  -0.007  -0.002  -0.000  -0.005   0.010  -0.006  -0.002
 -0.000   0.005  -0.007   0.010  -0.000  -0.000   0.004  -0.006
  0.004  -0.000  -0.006  -0.007   0.010   0.004  -0.000  -0.006
  0.012  -0.008  -0.003  -0.000  -0.006   0.011  -0.007  -0.002
 -0.000   0.005  -0.007   0.011  -0.000  -0.000   0.005  -0.006
  0.004  -0.000  -0.007  -0.008   0.011   0.003  -0.000  -0.006
 total augmentation occupancy for first ion, spin component:            1
  3.531   0.210  -0.015   0.259   0.468  -1.475  -0.124   0.045  -0.138  -0.141  -0.008   0.035   0.182   0.043   0.059  -0.004
  0.210   2.832   0.015   0.124   0.209  -0.123  -1.351  -0.023  -0.059  -0.022  -0.167  -0.012  -0.102   0.068   0.033   0.000
 -0.015   0.015   3.876  -0.504   0.034   0.046  -0.023  -1.733   0.140   0.006  -0.182   0.002  -0.054  -0.192  -0.110   0.001
  0.259   0.124  -0.504   3.106   0.096  -0.136  -0.058   0.141  -1.449  -0.095  -0.251  -0.036   0.037   0.175  -0.043  -0.004
  0.468   0.209   0.034   0.096   3.103  -0.141  -0.023   0.004  -0.096  -1.341   0.038   0.031  -0.089   0.033   0.160   0.002
 -1.475  -0.123   0.046  -0.136  -0.141   1.261   0.083  -0.065   0.066  -0.047  -0.010  -0.024  -0.228  -0.027  -0.049   0.021
 -0.124  -1.351  -0.023  -0.058  -0.023   0.083   1.483   0.024   0.011  -0.097   0.176  -0.005   0.153  -0.092  -0.021  -0.012
  0.045  -0.023  -1.733   0.141   0.004  -0.065   0.024   1.476   0.069  -0.024   0.185  -0.016   0.057   0.172   0.140  -0.005
 -0.138  -0.059   0.140  -1.449  -0.096   0.066   0.011   0.069   1.471   0.105   0.276   0.004  -0.023  -0.205   0.103   0.003
 -0.141  -0.022   0.006  -0.095  -1.341  -0.047  -0.097  -0.024   0.105   1.300  -0.054  -0.017   0.132  -0.027  -0.203  -0.011
 -0.008  -0.167  -0.182  -0.251   0.038  -0.010   0.176   0.185   0.276  -0.054   1.997  -0.206  -0.093   0.139  -0.219   0.016
  0.035  -0.012   0.002  -0.036   0.031  -0.024  -0.005  -0.016   0.004  -0.017  -0.206   0.029   0.016  -0.024   0.038  -0.002
  0.182  -0.102  -0.054   0.037  -0.089  -0.228   0.153   0.057  -0.023   0.132  -0.093   0.016   0.218   0.027  -0.008  -0.019
  0.043   0.068  -0.192   0.175   0.033  -0.027  -0.092   0.172  -0.205  -0.027   0.139  -0.024   0.027   0.250   0.046  -0.002
  0.059   0.033  -0.110  -0.043   0.160  -0.049  -0.021   0.140   0.103  -0.203  -0.219   0.038  -0.008   0.046   0.191  -0.001
 -0.004   0.000   0.001  -0.004   0.002   0.021  -0.012  -0.005   0.003  -0.011   0.016  -0.002  -0.019  -0.002  -0.001   0.002
 -0.004  -0.000   0.009  -0.003  -0.003   0.003   0.008  -0.019   0.019   0.003  -0.024   0.003  -0.002  -0.023  -0.002   0.000
 -0.001  -0.004   0.001  -0.006  -0.002   0.006   0.003  -0.012  -0.007   0.018   0.038  -0.005  -0.001  -0.002  -0.020   0.000
 total augmentation occupancy for first ion, spin component:            2
  0.901  -0.174  -0.029  -0.173  -0.613  -0.455   0.073   0.011   0.075   0.309   0.023   0.009   0.047  -0.013  -0.020   0.006
 -0.174   1.871   0.023  -0.110  -0.256   0.071  -0.952  -0.010   0.069   0.130  -0.035  -0.020  -0.056   0.026  -0.014  -0.005
 -0.029   0.023   0.735   0.634  -0.071   0.009  -0.009  -0.386  -0.313   0.027  -0.028  -0.017  -0.004   0.027  -0.036  -0.001
 -0.173  -0.110   0.634   1.536  -0.001   0.072   0.068  -0.316  -0.764  -0.021  -0.065  -0.035  -0.014   0.030  -0.062  -0.001
 -0.613  -0.256  -0.071  -0.001   1.413   0.310   0.132   0.029  -0.018  -0.711   0.027   0.012  -0.051  -0.002   0.041  -0.004
 -0.455   0.071   0.009   0.072   0.310   0.153  -0.026  -0.001  -0.024  -0.144  -0.012  -0.004  -0.016   0.004   0.012  -0.004
  0.073  -0.952  -0.009   0.068   0.132  -0.026   0.381   0.003  -0.040  -0.057   0.017   0.013   0.022  -0.010   0.005   0.002
  0.011  -0.010  -0.386  -0.316   0.029  -0.001   0.003   0.128   0.138  -0.009   0.014   0.012   0.001  -0.013   0.014   0.001
  0.075   0.069  -0.313  -0.764  -0.018  -0.024  -0.040   0.138   0.282   0.020   0.033   0.022   0.005  -0.009   0.022  -0.000
  0.309   0.130   0.027  -0.021  -0.711  -0.144  -0.057  -0.009   0.020   0.269  -0.014  -0.007   0.021  -0.000  -0.013   0.002
  0.023  -0.035  -0.028  -0.065   0.027  -0.012   0.017   0.014   0.033  -0.014  -0.145   0.056   0.011  -0.016   0.026  -0.001
  0.009  -0.020  -0.017  -0.035   0.012  -0.004   0.013   0.012   0.022  -0.007   0.056  -0.008  -0.002   0.002  -0.004   0.001
  0.047  -0.056  -0.004  -0.014  -0.051  -0.016   0.022   0.001   0.005   0.021   0.011  -0.002   0.003  -0.004  -0.004   0.002
 -0.013   0.026   0.027   0.030  -0.002   0.004  -0.010  -0.013  -0.009  -0.000  -0.016   0.002  -0.004  -0.010  -0.004   0.000
 -0.020  -0.014  -0.036  -0.062   0.041   0.012   0.005   0.014   0.022  -0.013   0.026  -0.004  -0.004  -0.004  -0.002   0.000
  0.006  -0.005  -0.001  -0.001  -0.004  -0.004   0.002   0.001  -0.000   0.002  -0.001   0.001   0.002   0.000   0.000  -0.000
 -0.000   0.003  -0.002   0.006  -0.000  -0.000  -0.002   0.002  -0.004  -0.000   0.002  -0.001   0.000   0.003   0.001  -0.000
  0.001  -0.001  -0.004  -0.006   0.006  -0.001   0.000   0.002   0.002  -0.003  -0.002   0.001   0.000   0.001   0.002  -0.000


------------------------ aborting loop because EDIFF is reached ----------------------------------------


    CHARGE:  cpu time    0.7218: real time    0.7254
    FORLOC:  cpu time    0.0808: real time    0.0809
    FORNL :  cpu time    2.6697: real time    2.6724
    FORCOR:  cpu time    2.3102: real time    2.3137
    FORHAR:  cpu time    0.3119: real time    0.3122
    MIXING:  cpu time    0.4634: real time    0.4640
    OFIELD:  cpu time    0.0000: real time    0.0000

 VOLUME and BASIS-vectors are now :
 -----------------------------------------------------------------------------
  energy-cutoff  :      400.00
  volume of cell :    11596.36
      direct lattice vectors                 reciprocal lattice vectors
    22.089981303  0.000000000  0.000000000     0.045269391  0.000000000  0.000000000
     0.000000000 21.687234848  0.000000000     0.000000000  0.046110074  0.000000000
     0.000000000  0.000000000 24.205956978     0.000000000  0.000000000  0.041312145

  length of vectors
    22.089981303 21.687234848 24.205956978     0.045269391  0.046110074  0.041312145


 FORCES acting on ions
    electron-ion (+dipol)            ewald-force                    non-local-force                 convergence-correction
 -----------------------------------------------------------------------------------------------
   -.734E+03 -.313E+03 0.467E+03   0.732E+03 0.312E+03 -.466E+03   0.197E+01 0.835E+00 -.124E+01   0.105E-02 -.464E-03 0.887E-03
   0.585E+02 -.110E+03 -.105E+04   -.576E+02 0.110E+03 0.104E+04   -.945E+00 0.167E+00 0.475E+01   -.281E-02 -.234E-02 0.180E-02
   -.240E+03 0.918E+03 -.234E+03   0.241E+03 -.916E+03 0.234E+03   -.263E+00 -.176E+01 0.799E+00   -.306E-02 0.202E-03 0.355E-02
   0.874E+03 0.375E+03 -.557E+03   -.868E+03 -.372E+03 0.553E+03   -.645E+01 -.277E+01 0.408E+01   -.718E-03 -.927E-03 0.276E-02
   0.789E+03 0.473E+03 0.507E+03   -.785E+03 -.470E+03 -.505E+03   -.397E+01 -.226E+01 -.163E+01   -.205E-02 -.164E-02 0.357E-02
   0.620E+03 -.756E+03 -.853E+01   -.619E+03 0.755E+03 0.810E+01   -.165E+01 0.930E+00 0.446E+00   -.137E-02 -.309E-02 0.393E-02
   -.339E+03 -.903E+03 -.291E+03   0.337E+03 0.896E+03 0.290E+03   0.219E+01 0.748E+01 0.147E+01   0.192E-03 -.578E-03 0.206E-02
   -.893E+03 0.173E+03 -.438E+03   0.886E+03 -.171E+03 0.435E+03   0.713E+01 -.212E+01 0.277E+01   -.105E-02 0.222E-04 0.156E-02
   -.345E+03 0.611E+03 0.727E+03   0.341E+03 -.606E+03 -.722E+03   0.343E+01 -.506E+01 -.505E+01   -.282E-04 -.865E-03 -.941E-04
   0.208E+03 -.467E+03 0.873E+03   -.207E+03 0.463E+03 -.867E+03   -.149E+01 0.453E+01 -.635E+01   -.331E-03 -.563E-04 -.117E-02
 -----------------------------------------------------------------------------------------------
   0.509E-01 0.260E-01 -.454E-01   0.000E+00 0.114E-12 -.114E-12   -.437E-01 -.261E-01 0.414E-01   -.102E-01 -.973E-02 0.188E-01
 
 
 POSITION                                       TOTAL-FORCE (eV/Angst)
 -----------------------------------------------------------------------------------
     12.12264     11.61617     12.23212         0.036317      0.014901     -0.015915
     10.92273     11.37571     15.01915        -0.011756      0.014185     -0.007165
     11.21538      9.80243     13.34772        -0.013455      0.007649     -0.004490
      9.03919     10.29637     14.18805        -0.013195     -0.004932      0.004142
      9.45010     10.20134     11.90210         0.000353     -0.009728      0.012047
     10.01299     12.14151     13.03191         0.012697     -0.024797      0.020504
     12.02646     13.34495     13.99428        -0.004544      0.011010      0.010894
     13.25971     10.94638     14.31844         0.014687     -0.008426      0.018287
     11.61910      9.63154     10.85026        -0.005371     -0.005713     -0.010141
     10.38801     12.03684     10.52847        -0.015733      0.005851     -0.028162
 -----------------------------------------------------------------------------------
    total drift:                               -0.002975     -0.009854      0.014848


--------------------------------------------------------------------------------------------------------



  FREE ENERGIE OF THE ION-ELECTRON SYSTEM (eV)
  ---------------------------------------------------
  free  energy   TOTEN  =       -38.06920688 eV

  energy  without entropy=      -38.05970886  energy(sigma->0) =      -38.06604087
 


--------------------------------------------------------------------------------------------------------


    POTLOK:  cpu time    2.4738: real time    2.4879


--------------------------------------------------------------------------------------------------------


     LOOP+:  cpu time  435.7271: real time  436.5170
    4ORBIT:  cpu time    0.0000: real time    0.0000

 total amount of memory used by VASP MPI-rank0   151052. kBytes
=======================================================================

   base      :      30000. kBytes
   nonl-proj :       5898. kBytes
   fftplans  :      28190. kBytes
   grid      :      73011. kBytes
   one-center:         31. kBytes
   wavefun   :      13922. kBytes
 
  
  
 General timing and accounting informations for this job:
 ========================================================
  
                  Total CPU time used (sec):      442.198
                            User time (sec):      437.673
                          System time (sec):        4.525
                         Elapsed time (sec):      446.456
  
                   Maximum memory used (kb):      308852.
                   Average memory used (kb):           0.
  
                          Minor page faults:      1288755
                          Major page faults:        14099
                 Voluntary context switches:         3944
