<?xml version="1.0" encoding="ISO-8859-1"?>
<modeling>
 <generator>
  <i name="program" type="string">vasp </i>
  <i name="version" type="string">6.1.2  </i>
  <i name="subversion" type="string">22Jul20 (build Aug  2 2021 21:04:21) gamma-only                       parallel </i>
  <i name="platform" type="string">LinuxPGI </i>
  <i name="date" type="string">2022 01 19 </i>
  <i name="time" type="string">23:05:47 </i>
 </generator>
 <incar>
  <i type="int" name="ISPIN">     2</i>
  <i type="int" name="IBRION">    -1</i>
  <i type="int" name="NSW">     0</i>
  <i type="int" name="ISIF">     0</i>
  <i type="int" name="ISYM">     0</i>
  <i name="ENCUT">    400.00000000</i>
  <i type="logical" name="LREAL"> F  </i>
  <i type="int" name="ISMEAR">     1</i>
  <i name="SIGMA">      0.20000000</i>
  <i type="logical" name="LWAVE"> F  </i>
  <i type="logical" name="LCHARG"> F  </i>
  <i type="int" name="KPAR">     1</i>
  <i type="int" name="NCORE">     8</i>
  <i type="string" name="GGA"> PE</i>
  <i type="int" name="ISPIN">     2</i>
 </incar>
 <structure name="primitive_cell" >
  <crystal>
   <varray name="basis" >
    <v>      22.08998130       0.00000000       0.00000000 </v>
    <v>       0.00000000      21.68723485       0.00000000 </v>
    <v>       0.00000000       0.00000000      24.20595698 </v>
   </varray>
   <i name="volume">  11596.36263072 </i>
   <varray name="rec_basis" >
    <v>       0.04526939       0.00000000       0.00000000 </v>
    <v>       0.00000000       0.04611007       0.00000000 </v>
    <v>       0.00000000       0.00000000       0.04131214 </v>
   </varray>
  </crystal>
  <varray name="positions" >
   <v>       0.54878436       0.53562268       0.50533523 </v>
   <v>       0.49446532       0.52453480       0.62047338 </v>
   <v>       0.50771340       0.45199067       0.55142297 </v>
   <v>       0.40919868       0.47476624       0.58613857 </v>
   <v>       0.42780040       0.47038473       0.49170113 </v>
   <v>       0.45328215       0.55984599       0.53837615 </v>
   <v>       0.54443063       0.61533646       0.57813361 </v>
   <v>       0.60025898       0.50473844       0.59152557 </v>
   <v>       0.52598945       0.44411123       0.44824750 </v>
   <v>       0.47025899       0.55501979       0.43495371 </v>
  </varray>
 </structure>
 <varray name="primitive_index" >
  <v type="int" >        1 </v>
  <v type="int" >        2 </v>
  <v type="int" >        3 </v>
  <v type="int" >        4 </v>
  <v type="int" >        5 </v>
  <v type="int" >        6 </v>
  <v type="int" >        7 </v>
  <v type="int" >        8 </v>
  <v type="int" >        9 </v>
  <v type="int" >       10 </v>
 </varray>
 <kpoints>
  <generation param="Gamma">
   <v type="int" name="divisions">       1        1        1 </v>
   <v name="usershift">      0.00000000       0.00000000       0.00000000 </v>
   <v name="genvec1">      1.00000000       0.00000000       0.00000000 </v>
   <v name="genvec2">      0.00000000       1.00000000       0.00000000 </v>
   <v name="genvec3">      0.00000000       0.00000000       1.00000000 </v>
   <v name="shift">      0.00000000       0.00000000       0.00000000 </v>
  </generation>
  <varray name="kpointlist" >
   <v>       0.00000000       0.00000000       0.00000000 </v>
  </varray>
  <varray name="weights" >
   <v>       1.00000000 </v>
  </varray>
 </kpoints>
 <parameters>
  <separator name="general" >
   <i type="string" name="SYSTEM">unknown system</i>
   <i type="logical" name="LCOMPAT"> F  </i>
  </separator>
  <separator name="electronic" >
   <i type="string" name="PREC">normal</i>
   <i name="ENMAX">    400.00000000</i>
   <i name="ENAUG">    544.56500000</i>
   <i name="EDIFF">      0.00010000</i>
   <i type="int" name="IALGO">    38</i>
   <i type="int" name="IWAVPR">    10</i>
   <i type="int" name="NBANDS">    66</i>
   <i type="int" name="NBANDSLOW">    -1</i>
   <i type="int" name="NBANDSHIGH">    -1</i>
   <i name="NELECT">    100.00000000</i>
   <i type="int" name="TURBO">     0</i>
   <i type="int" name="IRESTART">     0</i>
   <i type="int" name="NREBOOT">     0</i>
   <i type="int" name="NMIN">     0</i>
   <i name="EREF">      0.00000000</i>
   <separator name="electronic smearing" >
    <i type="int" name="ISMEAR">     1</i>
    <i name="SIGMA">      0.20000000</i>
    <i name="KSPACING">      0.50000000</i>
    <i type="logical" name="KGAMMA"> T  </i>
    <i type="logical" name="KBLOWUP"> T  </i>
   </separator>
   <separator name="electronic projectors" >
    <i type="logical" name="LREAL"> F  </i>
    <v name="ROPT">      0.00000000      0.00000000</v>
    <i type="int" name="LMAXPAW">  -100</i>
    <i type="int" name="LMAXMIX">     2</i>
    <i type="logical" name="NLSPLINE"> F  </i>
   </separator>
   <separator name="electronic startup" >
    <i type="int" name="ISTART">     0</i>
    <i type="int" name="ICHARG">     2</i>
    <i type="int" name="INIWAV">     1</i>
   </separator>
   <separator name="electronic spin" >
    <i type="int" name="ISPIN">     2</i>
    <i type="logical" name="LNONCOLLINEAR"> F  </i>
    <v name="MAGMOM">      1.00000000      1.00000000      1.00000000      1.00000000      1.00000000      1.00000000      1.00000000      1.00000000      1.00000000      1.00000000</v>
    <i name="NUPDOWN">     -1.00000000</i>
    <i type="logical" name="LSORBIT"> F  </i>
    <v name="SAXIS">      0.00000000      0.00000000      1.00000000</v>
    <i type="logical" name="LSPIRAL"> F  </i>
    <v name="QSPIRAL">      0.00000000      0.00000000      0.00000000</v>
    <i type="logical" name="LZEROZ"> F  </i>
   </separator>
   <separator name="electronic exchange-correlation" >
    <i type="logical" name="LASPH"> F  </i>
    <i type="logical" name="LMETAGGA"> F  </i>
   </separator>
   <separator name="electronic convergence" >
    <i type="int" name="NELM">    60</i>
    <i type="int" name="NELMDL">     0</i>
    <i type="int" name="NELMIN">     2</i>
    <i name="ENINI">    400.00000000</i>
    <separator name="electronic convergence detail" >
     <i type="logical" name="LDIAG"> T  </i>
     <i type="logical" name="LSUBROT"> F  </i>
     <i name="WEIMIN">      0.00000000</i>
     <i name="EBREAK">      0.00000038</i>
     <i name="DEPER">      0.30000000</i>
     <i type="int" name="NRMM">     4</i>
     <i name="TIME">      0.40000000</i>
    </separator>
   </separator>
   <separator name="electronic mixer" >
    <i name="AMIX">      0.40000000</i>
    <i name="BMIX">      1.00000000</i>
    <i name="AMIN">      0.10000000</i>
    <i name="AMIX_MAG">      1.60000000</i>
    <i name="BMIX_MAG">      1.00000000</i>
    <separator name="electronic mixer details" >
     <i type="int" name="IMIX">     4</i>
     <i type="logical" name="MIXFIRST"> F  </i>
     <i type="int" name="MAXMIX">   -45</i>
     <i name="WC">    100.00000000</i>
     <i type="int" name="INIMIX">     1</i>
     <i type="int" name="MIXPRE">     1</i>
     <i type="int" name="MREMOVE">     5</i>
    </separator>
   </separator>
   <separator name="electronic dipolcorrection" >
    <i type="logical" name="LDIPOL"> F  </i>
    <i type="logical" name="LMONO"> F  </i>
    <i type="int" name="IDIPOL">     0</i>
    <i name="EPSILON">      1.00000000</i>
    <v name="DIPOL">   -100.00000000   -100.00000000   -100.00000000</v>
    <i name="EFIELD">      0.00000000</i>
   </separator>
  </separator>
  <separator name="grids" >
   <i type="int" name="NGX">   108</i>
   <i type="int" name="NGY">   108</i>
   <i type="int" name="NGZ">   120</i>
   <i type="int" name="NGXF">   216</i>
   <i type="int" name="NGYF">   216</i>
   <i type="int" name="NGZF">   240</i>
   <i type="logical" name="ADDGRID"> F  </i>
  </separator>
  <separator name="ionic" >
   <i type="int" name="NSW">     0</i>
   <i type="int" name="IBRION">    -1</i>
   <i type="int" name="MDALGO">     0</i>
   <i type="int" name="ISIF">     0</i>
   <i name="PSTRESS">      0.00000000</i>
   <i name="EDIFFG">      0.00100000</i>
   <i type="int" name="NFREE">     0</i>
   <i name="POTIM">      0.50000000</i>
   <i name="SMASS">     -3.00000000</i>
   <i name="SCALEE">      1.00000000</i>
  </separator>
  <separator name="ionic md" >
   <i name="TEBEG">      0.00010000</i>
   <i name="TEEND">      0.00010000</i>
   <i type="int" name="NBLOCK">     1</i>
   <i type="int" name="KBLOCK">     1</i>
   <i type="int" name="NPACO">   256</i>
   <i name="APACO">     16.00000000</i>
  </separator>
  <separator name="symmetry" >
   <i type="int" name="ISYM">     0</i>
   <i name="SYMPREC">      0.00001000</i>
  </separator>
  <separator name="dos" >
   <i type="int" name="LORBIT">     0</i>
   <v name="RWIGS">     -1.00000000     -1.00000000</v>
   <i type="int" name="NEDOS">   301</i>
   <i name="EMIN">     10.00000000</i>
   <i name="EMAX">    -10.00000000</i>
   <i name="EFERMI">      0.00000000</i>
  </separator>
  <separator name="writing" >
   <i type="int" name="NWRITE">     2</i>
   <i type="logical" name="LWAVE"> F  </i>
   <i type="logical" name="LDOWNSAMPLE"> F  </i>
   <i type="logical" name="LCHARG"> F  </i>
   <i type="logical" name="LPARD"> F  </i>
   <i type="logical" name="LVTOT"> F  </i>
   <i type="logical" name="LVHAR"> F  </i>
   <i type="logical" name="LELF"> F  </i>
   <i type="logical" name="LOPTICS"> F  </i>
   <v name="STM">      0.00000000      0.00000000      0.00000000      0.00000000      0.00000000      0.00000000      0.00000000</v>
  </separator>
  <separator name="performance" >
   <i type="int" name="NPAR">     2</i>
   <i type="int" name="NSIM">     4</i>
   <i type="int" name="NBLK">    -1</i>
   <i type="logical" name="LPLANE"> T  </i>
   <i type="logical" name="LSCALAPACK"> T  </i>
   <i type="logical" name="LSCAAWARE"> F  </i>
   <i type="logical" name="LSCALU"> F  </i>
   <i type="logical" name="LASYNC"> F  </i>
   <i type="logical" name="LORBITALREAL"> F  </i>
  </separator>
  <separator name="miscellaneous" >
   <i type="int" name="IDIOT">     3</i>
   <i type="int" name="PHON_NSTRUCT">    -1</i>
   <i type="logical" name="LMUSIC"> F  </i>
   <v name="POMASS">     58.69000000    106.42000000</v>
   <v name="DARWINR">      0.00000000      0.00000000</v>
   <v name="DARWINV">      1.00000000      1.00000000</v>
   <i type="logical" name="LCORR"> T  </i>
  </separator>
  <i type="logical" name="GGA_COMPAT"> T  </i>
  <i type="logical" name="LBERRY"> F  </i>
  <i type="int" name="ICORELEVEL">     0</i>
  <i type="logical" name="LDAU"> F  </i>
  <i type="int" name="I_CONSTRAINED_M">     0</i>
  <separator name="electronic exchange-correlation" >
   <i type="string" name="GGA">PE</i>
   <i type="int" name="VOSKOWN">     0</i>
   <i type="logical" name="LHFCALC"> F  </i>
   <i type="string" name="PRECFOCK"></i>
   <i type="logical" name="LSYMGRAD"> F  </i>
   <i type="logical" name="LHFONE"> F  </i>
   <i type="logical" name="LRHFCALC"> F  </i>
   <i type="logical" name="LTHOMAS"> F  </i>
   <i type="logical" name="LMODELHF"> F  </i>
   <i type="logical" name="LFOCKACE"> F  </i>
   <i name="ENCUT4O">     -1.00000000</i>
   <i type="int" name="EXXOEP">     0</i>
   <i type="int" name="FOURORBIT">     0</i>
   <i name="AEXX">      0.00000000</i>
   <i name="HFALPHA">      0.00000000</i>
   <i name="MCALPHA">      0.00000000</i>
   <i name="ALDAX">      1.00000000</i>
   <i name="AGGAX">      1.00000000</i>
   <i name="ALDAC">      1.00000000</i>
   <i name="AGGAC">      1.00000000</i>
   <i type="int" name="NKREDX">     1</i>
   <i type="int" name="NKREDY">     1</i>
   <i type="int" name="NKREDZ">     1</i>
   <i type="logical" name="SHIFTRED"> F  </i>
   <i type="logical" name="ODDONLY"> F  </i>
   <i type="logical" name="EVENONLY"> F  </i>
   <i type="int" name="LMAXFOCK">     0</i>
   <i type="int" name="NMAXFOCKAE">     0</i>
   <i type="logical" name="LFOCKAEDFT"> F  </i>
   <i name="HFSCREEN">      0.00000000</i>
   <i name="HFSCREENC">      0.00000000</i>
   <i type="int" name="NBANDSGWLOW">     0</i>
  </separator>
  <separator name="vdW DFT" >
   <i type="logical" name="LUSE_VDW"> F  </i>
   <i name="Zab_VDW">     -0.84910000</i>
   <i name="PARAM1">      0.12340000</i>
   <i name="PARAM2">      1.00000000</i>
   <i name="PARAM3">      0.00000000</i>
  </separator>
  <separator name="model GW" >
   <i type="int" name="MODEL_GW">     0</i>
   <i name="MODEL_EPS0">    695.78175784</i>
   <i name="MODEL_ALPHA">      1.00000000</i>
  </separator>
  <separator name="linear response parameters" >
   <i type="logical" name="LEPSILON"> F  </i>
   <i type="logical" name="LRPA"> F  </i>
   <i type="logical" name="LNABLA"> F  </i>
   <i type="logical" name="LVEL"> F  </i>
   <i type="int" name="KINTER">     0</i>
   <i name="CSHIFT">      0.10000000</i>
   <i name="OMEGAMAX">     -1.00000000</i>
   <i name="DEG_THRESHOLD">      0.00200000</i>
   <i name="RTIME">     -0.10000000</i>
   <i name="WPLASMAI">      0.00000000</i>
   <v name="DFIELD">      0.00000000      0.00000000      0.00000000</v>
   <v name="WPLASMA">      0.00000000      0.00000000      0.00000000      0.00000000      0.00000000      0.00000000      0.00000000      0.00000000      0.00000000</v>
  </separator>
  <separator name="orbital magnetization" >
   <i type="logical" name="NUCIND"> F  </i>
   <v name="MAGPOS">      0.00000000      0.00000000      0.00000000</v>
   <i type="logical" name="LNICSALL"> T  </i>
   <i type="logical" name="ORBITALMAG"> F  </i>
   <i type="logical" name="LMAGBLOCH"> F  </i>
   <i type="logical" name="LCHIMAG"> F  </i>
   <i type="logical" name="LGAUGE"> T  </i>
   <i type="int" name="MAGATOM">     0</i>
   <v name="MAGDIPOL">      0.00000000      0.00000000      0.00000000</v>
   <v name="AVECCONST">      0.00000000      0.00000000      0.00000000</v>
  </separator>
  <separator name="response functions" >
   <i type="logical" name="LFINITE_TEMPERATURE"> F  </i>
   <i type="logical" name="LADDER"> F  </i>
   <i type="logical" name="LRPAFORCE"> F  </i>
   <i type="logical" name="LFXC"> F  </i>
   <i type="logical" name="LHARTREE"> T  </i>
   <i type="int" name="IBSE">     0</i>
   <v type="int" name="KPOINT">    -1     0     0     0</v>
   <i type="logical" name="LTCTC"> F  </i>
   <i type="logical" name="LTCTE"> F  </i>
   <i type="logical" name="LTETE"> F  </i>
   <i type="logical" name="LTRIPLET"> F  </i>
   <i type="logical" name="LFXCEPS"> F  </i>
   <i type="logical" name="LFXHEG"> F  </i>
   <i type="int" name="NATURALO">     2</i>
   <i type="logical" name="LHOLEGF"> F  </i>
   <i type="logical" name="L2ORDER"> F  </i>
   <i type="logical" name="LDMP1"> F  </i>
   <i type="logical" name="LMP2LT"> F  </i>
   <i type="logical" name="LSMP2LT"> F  </i>
   <i type="logical" name="LGWLF"> F  </i>
   <i name="ENCUTGW">     -2.00000000</i>
   <i name="ENCUTGWSOFT">     -2.00000000</i>
   <i name="ENCUTLF">     -1.00000000</i>
   <i type="logical" name="LESF_SPLINES"> F  </i>
   <i type="int" name="LMAXMP2">    -1</i>
   <i name="SCISSOR">      0.00000000</i>
   <i type="int" name="NOMEGA">     0</i>
   <i type="int" name="NOMEGAR">     0</i>
   <i type="int" name="NBANDSGW">    -1</i>
   <i type="int" name="NBANDSO">    -1</i>
   <i type="int" name="NBANDSV">    -1</i>
   <i type="int" name="NELM">     1</i>
   <i type="int" name="NELMHF">     1</i>
   <i type="int" name="DIM">     3</i>
   <i type="int" name="IESPILON">     4</i>
   <i type="int" name="ANTIRES">     0</i>
   <i name="OMEGAMAX">    -30.00000000</i>
   <i name="OMEGAMIN">    -30.00000000</i>
   <i name="OMEGATL">   -200.00000000</i>
   <i type="int" name="OMEGAGRID">     0</i>
   <i name="CSHIFT">     -0.10000000</i>
   <i type="logical" name="LSELFENERGY"> F  </i>
   <i type="logical" name="LSPECTRAL"> F  </i>
   <i type="logical" name="LSPECTRALGW"> F  </i>
   <i type="logical" name="LSINGLES"> F  </i>
   <i type="logical" name="LFERMIGW"> F  </i>
   <i type="logical" name="ODDONLYGW"> F  </i>
   <i type="logical" name="EVENONLYGW"> F  </i>
   <i type="int" name="NKREDLFX">     1</i>
   <i type="int" name="NKREDLFY">     1</i>
   <i type="int" name="NKREDLFZ">     1</i>
   <i type="int" name="MAXMEM">  2800</i>
   <i type="int" name="TELESCOPE">     0</i>
   <i type="int" name="NTAUPAR">    -1</i>
   <i type="int" name="NOMEGAPAR">    -1</i>
   <i name="LAMBDA">      1.00000000</i>
  </separator>
  <separator name="External order field" >
   <i name="OFIELD_KAPPA">      0.00000000</i>
   <v name="OFIELD_K">      0.00000000      0.00000000      0.00000000</v>
   <i name="OFIELD_Q6_NEAR">      0.00000000</i>
   <i name="OFIELD_Q6_FAR">      0.00000000</i>
   <i name="OFIELD_A">      0.00000000</i>
  </separator>
 </parameters>
 <atominfo>
  <atoms>      10 </atoms>
  <types>       2 </types>
  <array name="atoms" >
   <dimension dim="1">ion</dimension>
   <field type="string">element</field>
   <field type="int">atomtype</field>
   <set>
    <rc><c>Ni</c><c>   1</c></rc>
    <rc><c>Ni</c><c>   1</c></rc>
    <rc><c>Ni</c><c>   1</c></rc>
    <rc><c>Ni</c><c>   1</c></rc>
    <rc><c>Ni</c><c>   1</c></rc>
    <rc><c>Ni</c><c>   1</c></rc>
    <rc><c>Pd</c><c>   2</c></rc>
    <rc><c>Pd</c><c>   2</c></rc>
    <rc><c>Pd</c><c>   2</c></rc>
    <rc><c>Pd</c><c>   2</c></rc>
   </set>
  </array>
  <array name="atomtypes" >
   <dimension dim="1">type</dimension>
   <field type="int">atomspertype</field>
   <field type="string">element</field>
   <field>mass</field>
   <field>valence</field>
   <field type="string">pseudopotential</field>
   <set>
    <rc><c>   6</c><c>Ni</c><c>     58.69000000</c><c>     10.00000000</c><c>  PAW_PBE Ni 02Aug2007                  </c></rc>
    <rc><c>   4</c><c>Pd</c><c>    106.42000000</c><c>     10.00000000</c><c>  PAW_PBE Pd 04Jan2005                  </c></rc>
   </set>
  </array>
 </atominfo>
 <structure name="initialpos" >
  <crystal>
   <varray name="basis" >
    <v>      22.08998130       0.00000000       0.00000000 </v>
    <v>       0.00000000      21.68723485       0.00000000 </v>
    <v>       0.00000000       0.00000000      24.20595698 </v>
   </varray>
   <i name="volume">  11596.36263072 </i>
   <varray name="rec_basis" >
    <v>       0.04526939       0.00000000       0.00000000 </v>
    <v>       0.00000000       0.04611007       0.00000000 </v>
    <v>       0.00000000       0.00000000       0.04131214 </v>
   </varray>
  </crystal>
  <varray name="positions" >
   <v>       0.54878436       0.53562268       0.50533523 </v>
   <v>       0.49446532       0.52453480       0.62047338 </v>
   <v>       0.50771340       0.45199067       0.55142297 </v>
   <v>       0.40919868       0.47476624       0.58613857 </v>
   <v>       0.42780040       0.47038473       0.49170113 </v>
   <v>       0.45328215       0.55984599       0.53837615 </v>
   <v>       0.54443063       0.61533646       0.57813361 </v>
   <v>       0.60025898       0.50473844       0.59152557 </v>
   <v>       0.52598945       0.44411123       0.44824750 </v>
   <v>       0.47025899       0.55501979       0.43495371 </v>
  </varray>
 </structure>
 <calculation>
  <scstep>
   <time name="dav">    6.54    6.55</time>
   <time name="total">    8.99    9.01</time>
   <energy>
    <i name="alphaZ">      4.88685396 </i>
    <i name="ewald">  13020.93562624 </i>
    <i name="hartreedc"> -21991.61012070 </i>
    <i name="XCdc">     63.26326411 </i>
    <i name="pawpsdc">   9003.59075477 </i>
    <i name="pawaedc">  -9155.75339974 </i>
    <i name="eentropy">      0.04998666 </i>
    <i name="bandstr">     78.53523232 </i>
    <i name="atom">   9704.95859309 </i>
    <i name="e_fr_energy">    728.85679072 </i>
    <i name="e_wo_entrp">    728.80680405 </i>
    <i name="e_0_energy">    728.84012850 </i>
   </energy>
  </scstep>
  <scstep>
   <time name="dav">    9.84    9.85</time>
   <time name="total">    9.84    9.85</time>
   <energy>
    <i name="e_fr_energy">    248.48158258 </i>
    <i name="e_wo_entrp">    248.42990013 </i>
    <i name="e_0_energy">    248.46435510 </i>
   </energy>
  </scstep>
  <scstep>
   <time name="dav">    9.35    9.36</time>
   <time name="total">    9.35    9.36</time>
   <energy>
    <i name="e_fr_energy">     23.40274615 </i>
    <i name="e_wo_entrp">     23.42262429 </i>
    <i name="e_0_energy">     23.40937220 </i>
   </energy>
  </scstep>
  <scstep>
   <time name="dav">    9.43    9.44</time>
   <time name="total">    9.43    9.44</time>
   <energy>
    <i name="e_fr_energy">    -37.12383465 </i>
    <i name="e_wo_entrp">    -37.11113739 </i>
    <i name="e_0_energy">    -37.11960223 </i>
   </energy>
  </scstep>
  <scstep>
   <time name="dav">    6.73    6.74</time>
   <time name="total">    7.51    7.52</time>
   <energy>
    <i name="e_fr_energy">    -44.29717584 </i>
    <i name="e_wo_entrp">    -44.30656498 </i>
    <i name="e_0_energy">    -44.30030555 </i>
   </energy>
  </scstep>
  <scstep>
   <time name="dav">    6.44    6.45</time>
   <time name="total">    9.71    9.72</time>
   <energy>
    <i name="e_fr_energy">    -58.73993351 </i>
    <i name="e_wo_entrp">    -58.69601891 </i>
    <i name="e_0_energy">    -58.72529531 </i>
   </energy>
  </scstep>
  <scstep>
   <time name="dav">    8.33    8.34</time>
   <time name="total">   11.68   11.71</time>
   <energy>
    <i name="e_fr_energy">    -40.10068151 </i>
    <i name="e_wo_entrp">    -40.07985402 </i>
    <i name="e_0_energy">    -40.09373901 </i>
   </energy>
  </scstep>
  <scstep>
   <time name="dav">    7.53    7.54</time>
   <time name="total">   10.92   10.94</time>
   <energy>
    <i name="e_fr_energy">    -38.44533627 </i>
    <i name="e_wo_entrp">    -38.41362619 </i>
    <i name="e_0_energy">    -38.43476624 </i>
   </energy>
  </scstep>
  <scstep>
   <time name="dav">    8.14    8.16</time>
   <time name="total">   11.46   11.49</time>
   <energy>
    <i name="e_fr_energy">    -39.48952151 </i>
    <i name="e_wo_entrp">    -39.49577627 </i>
    <i name="e_0_energy">    -39.49160643 </i>
   </energy>
  </scstep>
  <scstep>
   <time name="dav">    8.31    8.32</time>
   <time name="total">   11.64   11.66</time>
   <energy>
    <i name="e_fr_energy">    -35.30938846 </i>
    <i name="e_wo_entrp">    -35.28317175 </i>
    <i name="e_0_energy">    -35.30064956 </i>
   </energy>
  </scstep>
  <scstep>
   <time name="dav">    7.94    7.95</time>
   <time name="total">   11.18   11.21</time>
   <energy>
    <i name="e_fr_energy">    -36.39827952 </i>
    <i name="e_wo_entrp">    -36.45804504 </i>
    <i name="e_0_energy">    -36.41820136 </i>
   </energy>
  </scstep>
  <scstep>
   <time name="dav">    7.35    7.36</time>
   <time name="total">   10.54   10.56</time>
   <energy>
    <i name="e_fr_energy">    -36.00941541 </i>
    <i name="e_wo_entrp">    -36.02685813 </i>
    <i name="e_0_energy">    -36.01522965 </i>
   </energy>
  </scstep>
  <scstep>
   <time name="dav">    8.07    8.08</time>
   <time name="total">   11.33   11.35</time>
   <energy>
    <i name="e_fr_energy">    -36.12991626 </i>
    <i name="e_wo_entrp">    -36.13798776 </i>
    <i name="e_0_energy">    -36.13260676 </i>
   </energy>
  </scstep>
  <scstep>
   <time name="dav">    7.23    7.24</time>
   <time name="total">   10.48   10.50</time>
   <energy>
    <i name="e_fr_energy">    -36.06429687 </i>
    <i name="e_wo_entrp">    -36.01872016 </i>
    <i name="e_0_energy">    -36.04910464 </i>
   </energy>
  </scstep>
  <scstep>
   <time name="dav">    7.44    7.45</time>
   <time name="total">   10.78   10.80</time>
   <energy>
    <i name="e_fr_energy">    -36.10841127 </i>
    <i name="e_wo_entrp">    -36.07488900 </i>
    <i name="e_0_energy">    -36.09723718 </i>
   </energy>
  </scstep>
  <scstep>
   <time name="dav">    8.72    8.73</time>
   <time name="total">   12.19   12.21</time>
   <energy>
    <i name="e_fr_energy">    -36.21073552 </i>
    <i name="e_wo_entrp">    -36.19189981 </i>
    <i name="e_0_energy">    -36.20445695 </i>
   </energy>
  </scstep>
  <scstep>
   <time name="dav">    7.76    7.77</time>
   <time name="total">   11.04   11.06</time>
   <energy>
    <i name="e_fr_energy">    -36.49961474 </i>
    <i name="e_wo_entrp">    -36.46823572 </i>
    <i name="e_0_energy">    -36.48915507 </i>
   </energy>
  </scstep>
  <scstep>
   <time name="dav">    7.20    7.21</time>
   <time name="total">   10.34   10.36</time>
   <energy>
    <i name="e_fr_energy">    -36.73982544 </i>
    <i name="e_wo_entrp">    -36.70939499 </i>
    <i name="e_0_energy">    -36.72968196 </i>
   </energy>
  </scstep>
  <scstep>
   <time name="dav">    9.52    9.54</time>
   <time name="total">   12.90   12.92</time>
   <energy>
    <i name="e_fr_energy">    -36.96201448 </i>
    <i name="e_wo_entrp">    -36.95303544 </i>
    <i name="e_0_energy">    -36.95902147 </i>
   </energy>
  </scstep>
  <scstep>
   <time name="dav">    7.89    7.90</time>
   <time name="total">   11.26   11.29</time>
   <energy>
    <i name="e_fr_energy">    -37.15389123 </i>
    <i name="e_wo_entrp">    -37.13828484 </i>
    <i name="e_0_energy">    -37.14868910 </i>
   </energy>
  </scstep>
  <scstep>
   <time name="dav">    7.15    7.16</time>
   <time name="total">   10.28   10.30</time>
   <energy>
    <i name="e_fr_energy">    -37.34215981 </i>
    <i name="e_wo_entrp">    -37.32289211 </i>
    <i name="e_0_energy">    -37.33573724 </i>
   </energy>
  </scstep>
  <scstep>
   <time name="dav">    8.58    8.59</time>
   <time name="total">   11.80   11.82</time>
   <energy>
    <i name="e_fr_energy">    -37.49647997 </i>
    <i name="e_wo_entrp">    -37.48180009 </i>
    <i name="e_0_energy">    -37.49158668 </i>
   </energy>
  </scstep>
  <scstep>
   <time name="dav">    7.57    7.58</time>
   <time name="total">   10.91   10.93</time>
   <energy>
    <i name="e_fr_energy">    -37.63696150 </i>
    <i name="e_wo_entrp">    -37.62604956 </i>
    <i name="e_0_energy">    -37.63332419 </i>
   </energy>
  </scstep>
  <scstep>
   <time name="dav">    6.44    6.45</time>
   <time name="total">    9.64    9.65</time>
   <energy>
    <i name="e_fr_energy">    -37.72550800 </i>
    <i name="e_wo_entrp">    -37.71492339 </i>
    <i name="e_0_energy">    -37.72197980 </i>
   </energy>
  </scstep>
  <scstep>
   <time name="dav">    7.11    7.12</time>
   <time name="total">   10.51   10.52</time>
   <energy>
    <i name="e_fr_energy">    -37.80941385 </i>
    <i name="e_wo_entrp">    -37.79993055 </i>
    <i name="e_0_energy">    -37.80625275 </i>
   </energy>
  </scstep>
  <scstep>
   <time name="dav">    6.84    6.85</time>
   <time name="total">   10.44   10.45</time>
   <energy>
    <i name="e_fr_energy">    -37.89305106 </i>
    <i name="e_wo_entrp">    -37.88469128 </i>
    <i name="e_0_energy">    -37.89026446 </i>
   </energy>
  </scstep>
  <scstep>
   <time name="dav">    6.92    6.94</time>
   <time name="total">   10.36   10.38</time>
   <energy>
    <i name="e_fr_energy">    -37.94872111 </i>
    <i name="e_wo_entrp">    -37.93988500 </i>
    <i name="e_0_energy">    -37.94577574 </i>
   </energy>
  </scstep>
  <scstep>
   <time name="dav">    5.60    5.61</time>
   <time name="total">    9.07    9.09</time>
   <energy>
    <i name="e_fr_energy">    -37.99152275 </i>
    <i name="e_wo_entrp">    -37.98284157 </i>
    <i name="e_0_energy">    -37.98862902 </i>
   </energy>
  </scstep>
  <scstep>
   <time name="dav">    6.37    6.37</time>
   <time name="total">    9.92    9.94</time>
   <energy>
    <i name="e_fr_energy">    -38.01645822 </i>
    <i name="e_wo_entrp">    -38.00739703 </i>
    <i name="e_0_energy">    -38.01343782 </i>
   </energy>
  </scstep>
  <scstep>
   <time name="dav">    5.94    5.94</time>
   <time name="total">    9.42    9.44</time>
   <energy>
    <i name="e_fr_energy">    -38.03459063 </i>
    <i name="e_wo_entrp">    -38.02508131 </i>
    <i name="e_0_energy">    -38.03142085 </i>
   </energy>
  </scstep>
  <scstep>
   <time name="dav">    5.78    5.78</time>
   <time name="total">    9.21    9.23</time>
   <energy>
    <i name="e_fr_energy">    -38.05228596 </i>
    <i name="e_wo_entrp">    -38.04273895 </i>
    <i name="e_0_energy">    -38.04910362 </i>
   </energy>
  </scstep>
  <scstep>
   <time name="dav">    5.26    5.27</time>
   <time name="total">    8.78    8.79</time>
   <energy>
    <i name="e_fr_energy">    -38.05981283 </i>
    <i name="e_wo_entrp">    -38.05032837 </i>
    <i name="e_0_energy">    -38.05665135 </i>
   </energy>
  </scstep>
  <scstep>
   <time name="dav">    5.68    5.69</time>
   <time name="total">    9.34    9.36</time>
   <energy>
    <i name="e_fr_energy">    -38.06216480 </i>
    <i name="e_wo_entrp">    -38.05277960 </i>
    <i name="e_0_energy">    -38.05903640 </i>
   </energy>
  </scstep>
  <scstep>
   <time name="dav">    5.32    5.32</time>
   <time name="total">    8.89    8.91</time>
   <energy>
    <i name="e_fr_energy">    -38.06431587 </i>
    <i name="e_wo_entrp">    -38.05478381 </i>
    <i name="e_0_energy">    -38.06113852 </i>
   </energy>
  </scstep>
  <scstep>
   <time name="dav">    4.79    4.80</time>
   <time name="total">    8.28    8.30</time>
   <energy>
    <i name="e_fr_energy">    -38.06572190 </i>
    <i name="e_wo_entrp">    -38.05616392 </i>
    <i name="e_0_energy">    -38.06253591 </i>
   </energy>
  </scstep>
  <scstep>
   <time name="dav">    4.57    4.57</time>
   <time name="total">    8.18    8.20</time>
   <energy>
    <i name="e_fr_energy">    -38.06643168 </i>
    <i name="e_wo_entrp">    -38.05690711 </i>
    <i name="e_0_energy">    -38.06325682 </i>
   </energy>
  </scstep>
  <scstep>
   <time name="dav">    4.93    4.94</time>
   <time name="total">    8.47    8.48</time>
   <energy>
    <i name="e_fr_energy">    -38.06696766 </i>
    <i name="e_wo_entrp">    -38.05747637 </i>
    <i name="e_0_energy">    -38.06380390 </i>
   </energy>
  </scstep>
  <scstep>
   <time name="dav">    4.75    4.76</time>
   <time name="total">    8.32    8.34</time>
   <energy>
    <i name="e_fr_energy">    -38.06760779 </i>
    <i name="e_wo_entrp">    -38.05810588 </i>
    <i name="e_0_energy">    -38.06444049 </i>
   </energy>
  </scstep>
  <scstep>
   <time name="dav">    4.94    4.95</time>
   <time name="total">    8.53    8.54</time>
   <energy>
    <i name="e_fr_energy">    -38.06824042 </i>
    <i name="e_wo_entrp">    -38.05875676 </i>
    <i name="e_0_energy">    -38.06507920 </i>
   </energy>
  </scstep>
  <scstep>
   <time name="dav">    5.09    5.09</time>
   <time name="total">    8.67    8.68</time>
   <energy>
    <i name="e_fr_energy">    -38.06867101 </i>
    <i name="e_wo_entrp">    -38.05917747 </i>
    <i name="e_0_energy">    -38.06550650 </i>
   </energy>
  </scstep>
  <scstep>
   <time name="dav">    5.36    5.36</time>
   <time name="total">    9.10    9.12</time>
   <energy>
    <i name="e_fr_energy">    -38.06890993 </i>
    <i name="e_wo_entrp">    -38.05942780 </i>
    <i name="e_0_energy">    -38.06574922 </i>
   </energy>
  </scstep>
  <scstep>
   <time name="dav">    5.30    5.31</time>
   <time name="total">    9.00    9.01</time>
   <energy>
    <i name="e_fr_energy">    -38.06914709 </i>
    <i name="e_wo_entrp">    -38.05965597 </i>
    <i name="e_0_energy">    -38.06598338 </i>
   </energy>
  </scstep>
  <scstep>
   <time name="dav">    4.56    4.57</time>
   <time name="total">    7.01    7.03</time>
   <energy>
    <i name="alphaZ">      4.88685396 </i>
    <i name="ewald">  13020.93562624 </i>
    <i name="hartreedc"> -22069.24747302 </i>
    <i name="XCdc">     60.36036691 </i>
    <i name="pawpsdc">  10147.69349857 </i>
    <i name="pawaedc"> -10312.22921394 </i>
    <i name="eentropy">     -0.00949802 </i>
    <i name="bandstr">   -595.41796068 </i>
    <i name="atom">   9704.95859309 </i>
    <i name="e_fr_energy">    -38.06920688 </i>
    <i name="e_wo_entrp">    -38.05970886 </i>
    <i name="e_0_energy">    -38.06604087 </i>
   </energy>
  </scstep>
  <structure>
   <crystal>
    <varray name="basis" >
     <v>      22.08998130       0.00000000       0.00000000 </v>
     <v>       0.00000000      21.68723485       0.00000000 </v>
     <v>       0.00000000       0.00000000      24.20595698 </v>
    </varray>
    <i name="volume">  11596.36263072 </i>
    <varray name="rec_basis" >
     <v>       0.04526939       0.00000000       0.00000000 </v>
     <v>       0.00000000       0.04611007       0.00000000 </v>
     <v>       0.00000000       0.00000000       0.04131214 </v>
    </varray>
   </crystal>
   <varray name="positions" >
    <v>       0.54878436       0.53562268       0.50533523 </v>
    <v>       0.49446532       0.52453480       0.62047338 </v>
    <v>       0.50771340       0.45199067       0.55142297 </v>
    <v>       0.40919868       0.47476624       0.58613857 </v>
    <v>       0.42780040       0.47038473       0.49170113 </v>
    <v>       0.45328215       0.55984599       0.53837615 </v>
    <v>       0.54443063       0.61533646       0.57813361 </v>
    <v>       0.60025898       0.50473844       0.59152557 </v>
    <v>       0.52598945       0.44411123       0.44824750 </v>
    <v>       0.47025899       0.55501979       0.43495371 </v>
   </varray>
  </structure>
  <varray name="forces" >
   <v>       0.03631685       0.01490051      -0.01591487 </v>
   <v>      -0.01175593       0.01418526      -0.00716461 </v>
   <v>      -0.01345545       0.00764860      -0.00449010 </v>
   <v>      -0.01319544      -0.00493191       0.00414151 </v>
   <v>       0.00035333      -0.00972823       0.01204697 </v>
   <v>       0.01269723      -0.02479687       0.02050358 </v>
   <v>      -0.00454373       0.01101043       0.01089386 </v>
   <v>       0.01468689      -0.00842620       0.01828716 </v>
   <v>      -0.00537109      -0.00571263      -0.01014118 </v>
   <v>      -0.01573266       0.00585105      -0.02816232 </v>
  </varray>
  <energy>
   <i name="e_fr_energy">    -38.06920688 </i>
   <i name="e_wo_entrp">    -38.05970886 </i>
   <i name="e_0_energy">    -38.06604087 </i>
  </energy>
  <time name="totalsc">  435.73  436.52</time>
  <eigenvalues>
   <array>
    <dimension dim="1">band</dimension>
    <dimension dim="2">kpoint</dimension>
    <dimension dim="3">spin</dimension>
    <field>eigene</field>
    <field>occ</field>
    <set>
     <set comment="spin 1">
      <set comment="kpoint 1">
       <r>   -9.8910    1.0000 </r>
       <r>   -8.3946    1.0000 </r>
       <r>   -8.2998    1.0000 </r>
       <r>   -7.9031    1.0000 </r>
       <r>   -7.7252    1.0000 </r>
       <r>   -7.6891    1.0000 </r>
       <r>   -7.6085    1.0000 </r>
       <r>   -7.5269    1.0000 </r>
       <r>   -7.4889    1.0000 </r>
       <r>   -7.4474    1.0000 </r>
       <r>   -7.3338    1.0000 </r>
       <r>   -7.2052    1.0000 </r>
       <r>   -7.1848    1.0000 </r>
       <r>   -7.1729    1.0000 </r>
       <r>   -7.0018    1.0000 </r>
       <r>   -6.8064    1.0000 </r>
       <r>   -6.5129    1.0000 </r>
       <r>   -6.4077    1.0000 </r>
       <r>   -6.3770    1.0000 </r>
       <r>   -6.3737    1.0000 </r>
       <r>   -6.3156    1.0000 </r>
       <r>   -6.2488    1.0000 </r>
       <r>   -6.2384    1.0000 </r>
       <r>   -6.1298    1.0000 </r>
       <r>   -6.1281    1.0000 </r>
       <r>   -6.0572    1.0000 </r>
       <r>   -5.8562    1.0000 </r>
       <r>   -5.8468    1.0000 </r>
       <r>   -5.7386    1.0000 </r>
       <r>   -5.5989    1.0000 </r>
       <r>   -5.5946    1.0000 </r>
       <r>   -5.5918    1.0000 </r>
       <r>   -5.4799    1.0000 </r>
       <r>   -5.4733    1.0000 </r>
       <r>   -5.3278    1.0000 </r>
       <r>   -5.3018    1.0000 </r>
       <r>   -5.2819    1.0000 </r>
       <r>   -5.2500    1.0000 </r>
       <r>   -5.2175    1.0000 </r>
       <r>   -5.1402    1.0000 </r>
       <r>   -5.1345    1.0000 </r>
       <r>   -5.1298    1.0000 </r>
       <r>   -5.1292    1.0000 </r>
       <r>   -5.1049    1.0000 </r>
       <r>   -5.0523    1.0000 </r>
       <r>   -5.0428    1.0000 </r>
       <r>   -4.9892    1.0000 </r>
       <r>   -4.8713    1.0000 </r>
       <r>   -4.8241    1.0000 </r>
       <r>   -4.7987    1.0000 </r>
       <r>   -4.7664    1.0000 </r>
       <r>   -4.7354    1.0000 </r>
       <r>   -4.6001    1.0015 </r>
       <r>   -4.2464    0.9491 </r>
       <r>   -2.9014   -0.0000 </r>
       <r>   -2.7810   -0.0000 </r>
       <r>   -2.7269   -0.0000 </r>
       <r>   -2.5743   -0.0000 </r>
       <r>   -2.1568   -0.0000 </r>
       <r>   -1.7502   -0.0000 </r>
       <r>   -0.9165   -0.0000 </r>
       <r>   -0.8453   -0.0000 </r>
       <r>   -0.6364   -0.0000 </r>
       <r>   -0.4833   -0.0000 </r>
       <r>   -0.3405   -0.0000 </r>
       <r>   -0.2139   -0.0000 </r>
      </set>
     </set>
     <set comment="spin 2">
      <set comment="kpoint 1">
       <r>   -9.8272    1.0000 </r>
       <r>   -8.1108    1.0000 </r>
       <r>   -7.9284    1.0000 </r>
       <r>   -7.4400    1.0000 </r>
       <r>   -7.2263    1.0000 </r>
       <r>   -7.1225    1.0000 </r>
       <r>   -7.1047    1.0000 </r>
       <r>   -6.8199    1.0000 </r>
       <r>   -6.7666    1.0000 </r>
       <r>   -6.6751    1.0000 </r>
       <r>   -6.6225    1.0000 </r>
       <r>   -6.5621    1.0000 </r>
       <r>   -6.4481    1.0000 </r>
       <r>   -6.3848    1.0000 </r>
       <r>   -6.1666    1.0000 </r>
       <r>   -6.1488    1.0000 </r>
       <r>   -6.0737    1.0000 </r>
       <r>   -6.0513    1.0000 </r>
       <r>   -5.8720    1.0000 </r>
       <r>   -5.8549    1.0000 </r>
       <r>   -5.8026    1.0000 </r>
       <r>   -5.6855    1.0000 </r>
       <r>   -5.6605    1.0000 </r>
       <r>   -5.5130    1.0000 </r>
       <r>   -5.4026    1.0000 </r>
       <r>   -5.3758    1.0000 </r>
       <r>   -5.3725    1.0000 </r>
       <r>   -5.3237    1.0000 </r>
       <r>   -5.2090    1.0000 </r>
       <r>   -5.0659    1.0000 </r>
       <r>   -5.0556    1.0000 </r>
       <r>   -4.9663    1.0000 </r>
       <r>   -4.8821    1.0000 </r>
       <r>   -4.8097    1.0000 </r>
       <r>   -4.7846    1.0000 </r>
       <r>   -4.6807    1.0002 </r>
       <r>   -4.6046    1.0014 </r>
       <r>   -4.6040    1.0014 </r>
       <r>   -4.5354    1.0054 </r>
       <r>   -4.4840    1.0123 </r>
       <r>   -4.4560    1.0178 </r>
       <r>   -4.4508    1.0189 </r>
       <r>   -4.3211    1.0291 </r>
       <r>   -4.2151    0.8776 </r>
       <r>   -4.2029    0.8433 </r>
       <r>   -4.1899    0.8026 </r>
       <r>   -4.0431    0.2258 </r>
       <r>   -4.0376    0.2070 </r>
       <r>   -4.0072    0.1161 </r>
       <r>   -3.9188   -0.0214 </r>
       <r>   -3.8762   -0.0351 </r>
       <r>   -3.8022   -0.0254 </r>
       <r>   -3.7923   -0.0231 </r>
       <r>   -3.6795   -0.0045 </r>
       <r>   -2.6732   -0.0000 </r>
       <r>   -2.5554   -0.0000 </r>
       <r>   -2.4256   -0.0000 </r>
       <r>   -2.2494   -0.0000 </r>
       <r>   -1.8676   -0.0000 </r>
       <r>   -1.4637   -0.0000 </r>
       <r>   -0.8007   -0.0000 </r>
       <r>   -0.6691   -0.0000 </r>
       <r>   -0.4738   -0.0000 </r>
       <r>   -0.3789   -0.0000 </r>
       <r>   -0.2013   -0.0000 </r>
       <r>    0.0227   -0.0000 </r>
      </set>
     </set>
    </set>
   </array>
  </eigenvalues>
  <separator name="orbital magnetization" >
   <v name="MAGDIPOLOUT">      0.00000000      0.00000000      0.00000000</v>
  </separator>
  <dos>
   <i name="efermi">     -4.11229598 </i>
   <total>
    <array>
     <dimension dim="1">gridpoints</dimension>
     <dimension dim="2">spin</dimension>
     <field>energy</field>
     <field>total</field>
     <field>integrated</field>
     <set>
      <set comment="spin 1">
       <r>   -11.8910     0.0000     0.0000 </r>
       <r>   -11.8446     0.0000     0.0000 </r>
       <r>   -11.7982     0.0000     0.0000 </r>
       <r>   -11.7519     0.0000     0.0000 </r>
       <r>   -11.7055     0.0000     0.0000 </r>
       <r>   -11.6591     0.0000     0.0000 </r>
       <r>   -11.6127     0.0000     0.0000 </r>
       <r>   -11.5663     0.0000     0.0000 </r>
       <r>   -11.5200    -0.0000    -0.0000 </r>
       <r>   -11.4736    -0.0000    -0.0000 </r>
       <r>   -11.4272    -0.0000    -0.0000 </r>
       <r>   -11.3808    -0.0000    -0.0000 </r>
       <r>   -11.3344    -0.0000    -0.0000 </r>
       <r>   -11.2881    -0.0000    -0.0000 </r>
       <r>   -11.2417    -0.0000    -0.0000 </r>
       <r>   -11.1953    -0.0000    -0.0000 </r>
       <r>   -11.1489    -0.0000    -0.0000 </r>
       <r>   -11.1026    -0.0000    -0.0000 </r>
       <r>   -11.0562    -0.0000    -0.0000 </r>
       <r>   -11.0098    -0.0000    -0.0000 </r>
       <r>   -10.9634    -0.0000    -0.0000 </r>
       <r>   -10.9170    -0.0000    -0.0000 </r>
       <r>   -10.8707    -0.0000    -0.0000 </r>
       <r>   -10.8243    -0.0000    -0.0000 </r>
       <r>   -10.7779    -0.0000    -0.0000 </r>
       <r>   -10.7315    -0.0000    -0.0000 </r>
       <r>   -10.6851    -0.0000    -0.0000 </r>
       <r>   -10.6388    -0.0000    -0.0000 </r>
       <r>   -10.5924    -0.0001    -0.0000 </r>
       <r>   -10.5460    -0.0003    -0.0000 </r>
       <r>   -10.4996    -0.0012    -0.0001 </r>
       <r>   -10.4532    -0.0040    -0.0003 </r>
       <r>   -10.4069    -0.0118    -0.0008 </r>
       <r>   -10.3605    -0.0306    -0.0022 </r>
       <r>   -10.3141    -0.0685    -0.0054 </r>
       <r>   -10.2677    -0.1298    -0.0114 </r>
       <r>   -10.2214    -0.1997    -0.0207 </r>
       <r>   -10.1750    -0.2227    -0.0310 </r>
       <r>   -10.1286    -0.0909    -0.0352 </r>
       <r>   -10.0822     0.3296    -0.0200 </r>
       <r>   -10.0358     1.1192     0.0320 </r>
       <r>    -9.9895     2.2034     0.1341 </r>
       <r>    -9.9431     3.3102     0.2877 </r>
       <r>    -9.8967     4.0576     0.4759 </r>
       <r>    -9.8503     4.1474     0.6682 </r>
       <r>    -9.8039     3.5422     0.8325 </r>
       <r>    -9.7576     2.4879     0.9479 </r>
       <r>    -9.7112     1.3661     1.0112 </r>
       <r>    -9.6648     0.4893     1.0339 </r>
       <r>    -9.6184    -0.0190     1.0330 </r>
       <r>    -9.5721    -0.2098     1.0233 </r>
       <r>    -9.5257    -0.2130     1.0134 </r>
       <r>    -9.4793    -0.1475     1.0066 </r>
       <r>    -9.4329    -0.0816     1.0028 </r>
       <r>    -9.3865    -0.0379     1.0010 </r>
       <r>    -9.3402    -0.0151     1.0003 </r>
       <r>    -9.2938    -0.0053     1.0001 </r>
       <r>    -9.2474    -0.0016     1.0000 </r>
       <r>    -9.2010    -0.0004     1.0000 </r>
       <r>    -9.1546    -0.0001     1.0000 </r>
       <r>    -9.1083    -0.0001     1.0000 </r>
       <r>    -9.0619    -0.0002     1.0000 </r>
       <r>    -9.0155    -0.0009     0.9999 </r>
       <r>    -8.9691    -0.0031     0.9998 </r>
       <r>    -8.9227    -0.0098     0.9993 </r>
       <r>    -8.8764    -0.0269     0.9981 </r>
       <r>    -8.8300    -0.0648     0.9951 </r>
       <r>    -8.7836    -0.1348     0.9888 </r>
       <r>    -8.7372    -0.2370     0.9779 </r>
       <r>    -8.6909    -0.3352     0.9623 </r>
       <r>    -8.6445    -0.3282     0.9471 </r>
       <r>    -8.5981    -0.0426     0.9451 </r>
       <r>    -8.5517     0.7183     0.9784 </r>
       <r>    -8.5053     2.0607     1.0740 </r>
       <r>    -8.4590     3.8689     1.2534 </r>
       <r>    -8.4126     5.7523     1.5202 </r>
       <r>    -8.3662     7.1497     1.8518 </r>
       <r>    -8.3198     7.5698     2.2029 </r>
       <r>    -8.2734     6.8399     2.5201 </r>
       <r>    -8.2271     5.2097     2.7617 </r>
       <r>    -8.1807     3.2449     2.9122 </r>
       <r>    -8.1343     1.5805     2.9855 </r>
       <r>    -8.0879     0.6738     3.0168 </r>
       <r>    -8.0415     0.6707     3.0479 </r>
       <r>    -7.9952     1.4235     3.1139 </r>
       <r>    -7.9488     2.6312     3.2359 </r>
       <r>    -7.9024     4.0298     3.4228 </r>
       <r>    -7.8560     5.5233     3.6790 </r>
       <r>    -7.8097     7.1691     4.0115 </r>
       <r>    -7.7633     9.0367     4.4306 </r>
       <r>    -7.7169    11.0680     4.9439 </r>
       <r>    -7.6705    13.0587     5.5496 </r>
       <r>    -7.6241    14.7455     6.2335 </r>
       <r>    -7.5778    15.8894     6.9704 </r>
       <r>    -7.5314    16.3092     7.7268 </r>
       <r>    -7.4850    15.9334     8.4658 </r>
       <r>    -7.4386    14.9130     9.1574 </r>
       <r>    -7.3922    13.6905     9.7924 </r>
       <r>    -7.3459    12.8606    10.3888 </r>
       <r>    -7.2995    12.8178    10.9833 </r>
       <r>    -7.2531    13.4378    11.6065 </r>
       <r>    -7.2067    14.0886    12.2599 </r>
       <r>    -7.1604    14.0222    12.9103 </r>
       <r>    -7.1140    12.8662    13.5070 </r>
       <r>    -7.0676    10.8405    14.0098 </r>
       <r>    -7.0212     8.5657    14.4070 </r>
       <r>    -6.9748     6.6598    14.7159 </r>
       <r>    -6.9285     5.4236    14.9674 </r>
       <r>    -6.8821     4.7704    15.1887 </r>
       <r>    -6.8357     4.3619    15.3910 </r>
       <r>    -6.7893     3.8458    15.5694 </r>
       <r>    -6.7429     3.0884    15.7126 </r>
       <r>    -6.6966     2.3002    15.8193 </r>
       <r>    -6.6502     1.9800    15.9111 </r>
       <r>    -6.6038     2.6923    16.0360 </r>
       <r>    -6.5574     4.7927    16.2582 </r>
       <r>    -6.5110     8.2316    16.6400 </r>
       <r>    -6.4647    12.5137    17.2204 </r>
       <r>    -6.4183    16.8306    18.0010 </r>
       <r>    -6.3719    20.3337    18.9440 </r>
       <r>    -6.3255    22.4418    19.9848 </r>
       <r>    -6.2792    23.0190    21.0524 </r>
       <r>    -6.2328    22.3078    22.0871 </r>
       <r>    -6.1864    20.6783    23.0461 </r>
       <r>    -6.1400    18.4178    23.9003 </r>
       <r>    -6.0936    15.7404    24.6303 </r>
       <r>    -6.0473    12.9596    25.2314 </r>
       <r>    -6.0009    10.5753    25.7218 </r>
       <r>    -5.9545     9.0998    26.1439 </r>
       <r>    -5.9081     8.7461    26.5495 </r>
       <r>    -5.8617     9.2922    26.9805 </r>
       <r>    -5.8154    10.2922    27.4578 </r>
       <r>    -5.7690    11.4446    27.9886 </r>
       <r>    -5.7226    12.7499    28.5799 </r>
       <r>    -5.6762    14.3012    29.2432 </r>
       <r>    -5.6298    15.9477    29.9828 </r>
       <r>    -5.5835    17.2217    30.7815 </r>
       <r>    -5.5371    17.6650    31.6008 </r>
       <r>    -5.4907    17.2874    32.4026 </r>
       <r>    -5.4443    16.7380    33.1789 </r>
       <r>    -5.3980    17.0085    33.9677 </r>
       <r>    -5.3516    18.8742    34.8431 </r>
       <r>    -5.3052    22.4583    35.8847 </r>
       <r>    -5.2588    27.1477    37.1438 </r>
       <r>    -5.2124    31.8094    38.6190 </r>
       <r>    -5.1661    35.1414    40.2489 </r>
       <r>    -5.1197    36.0805    41.9222 </r>
       <r>    -5.0733    34.2363    43.5101 </r>
       <r>    -5.0269    30.1925    44.9104 </r>
       <r>    -4.9805    25.3885    46.0878 </r>
       <r>    -4.9342    21.4688    47.0835 </r>
       <r>    -4.8878    19.4133    47.9839 </r>
       <r>    -4.8414    19.0314    48.8666 </r>
       <r>    -4.7950    19.1945    49.7568 </r>
       <r>    -4.7487    18.6264    50.6207 </r>
       <r>    -4.7023    16.6625    51.3934 </r>
       <r>    -4.6559    13.4809    52.0187 </r>
       <r>    -4.6095     9.7862    52.4725 </r>
       <r>    -4.5631     6.3212    52.7657 </r>
       <r>    -4.5168     3.5819    52.9318 </r>
       <r>    -4.4704     1.8080    53.0157 </r>
       <r>    -4.4240     1.0688    53.0653 </r>
       <r>    -4.3776     1.2772    53.1245 </r>
       <r>    -4.3312     2.1408    53.2238 </r>
       <r>    -4.2849     3.1742    53.3710 </r>
       <r>    -4.2385     3.8538    53.5497 </r>
       <r>    -4.1921     3.8486    53.7282 </r>
       <r>    -4.1457     3.1661    53.8751 </r>
       <r>    -4.0993     2.1055    53.9727 </r>
       <r>    -4.0530     1.0570    54.0217 </r>
       <r>    -4.0066     0.2959    54.0355 </r>
       <r>    -3.9602    -0.1044    54.0306 </r>
       <r>    -3.9138    -0.2246    54.0202 </r>
       <r>    -3.8675    -0.1970    54.0111 </r>
       <r>    -3.8211    -0.1266    54.0052 </r>
       <r>    -3.7747    -0.0663    54.0021 </r>
       <r>    -3.7283    -0.0294    54.0008 </r>
       <r>    -3.6819    -0.0113    54.0002 </r>
       <r>    -3.6356    -0.0038    54.0001 </r>
       <r>    -3.5892    -0.0012    54.0000 </r>
       <r>    -3.5428    -0.0008    54.0000 </r>
       <r>    -3.4964    -0.0018    53.9999 </r>
       <r>    -3.4500    -0.0058    53.9996 </r>
       <r>    -3.4037    -0.0168    53.9988 </r>
       <r>    -3.3573    -0.0429    53.9969 </r>
       <r>    -3.3109    -0.0952    53.9924 </r>
       <r>    -3.2645    -0.1816    53.9840 </r>
       <r>    -3.2181    -0.2902    53.9706 </r>
       <r>    -3.1718    -0.3646    53.9536 </r>
       <r>    -3.1254    -0.2866    53.9404 </r>
       <r>    -3.0790     0.1132    53.9456 </r>
       <r>    -3.0326     0.9988    53.9919 </r>
       <r>    -2.9863     2.4450    54.1053 </r>
       <r>    -2.9399     4.3665    54.3078 </r>
       <r>    -2.8935     6.5058    54.6096 </r>
       <r>    -2.8471     8.4907    55.0034 </r>
       <r>    -2.8007     9.9441    55.4646 </r>
       <r>    -2.7544    10.6059    55.9565 </r>
       <r>    -2.7080    10.4151    56.4395 </r>
       <r>    -2.6616     9.5039    56.8803 </r>
       <r>    -2.6152     8.1040    57.2561 </r>
       <r>    -2.5688     6.4362    57.5546 </r>
       <r>    -2.5225     4.6705    57.7712 </r>
       <r>    -2.4761     2.9718    57.9091 </r>
       <r>    -2.4297     1.5564    57.9813 </r>
       <r>    -2.3833     0.6765    58.0126 </r>
       <r>    -2.3370     0.5219    58.0368 </r>
       <r>    -2.2906     1.0983    58.0878 </r>
       <r>    -2.2442     2.1601    58.1880 </r>
       <r>    -2.1978     3.2577    58.3390 </r>
       <r>    -2.1514     3.9090    58.5203 </r>
       <r>    -2.1051     3.8251    58.6977 </r>
       <r>    -2.0587     3.0649    58.8399 </r>
       <r>    -2.0123     2.0127    58.9332 </r>
       <r>    -1.9659     1.1870    58.9883 </r>
       <r>    -1.9195     0.9889    59.0341 </r>
       <r>    -1.8732     1.5163    59.1045 </r>
       <r>    -1.8268     2.5221    59.2214 </r>
       <r>    -1.7804     3.5295    59.3851 </r>
       <r>    -1.7340     4.0610    59.5735 </r>
       <r>    -1.6876     3.8705    59.7530 </r>
       <r>    -1.6413     3.0480    59.8944 </r>
       <r>    -1.5949     1.9330    59.9840 </r>
       <r>    -1.5485     0.9054    60.0260 </r>
       <r>    -1.5021     0.2003    60.0353 </r>
       <r>    -1.4558    -0.1495    60.0284 </r>
       <r>    -1.4094    -0.2496    60.0168 </r>
       <r>    -1.3630    -0.2433    60.0055 </r>
       <r>    -1.3166    -0.2403    59.9943 </r>
       <r>    -1.2702    -0.2909    59.9809 </r>
       <r>    -1.2239    -0.3767    59.9634 </r>
       <r>    -1.1775    -0.3984    59.9449 </r>
       <r>    -1.1311    -0.1715    59.9369 </r>
       <r>    -1.0847     0.5274    59.9614 </r>
       <r>    -1.0383     1.8406    60.0468 </r>
       <r>    -0.9920     3.6774    60.2173 </r>
       <r>    -0.9456     5.6489    60.4793 </r>
       <r>    -0.8992     7.1932    60.8129 </r>
       <r>    -0.8528     7.8662    61.1778 </r>
       <r>    -0.8064     7.6099    61.5307 </r>
       <r>    -0.7601     6.7881    61.8455 </r>
       <r>    -0.7137     5.9489    62.1214 </r>
       <r>    -0.6673     5.4982    62.3764 </r>
       <r>    -0.6209     5.5261    62.6327 </r>
       <r>    -0.5746     5.8732    62.9051 </r>
       <r>    -0.5282     6.3230    63.1984 </r>
       <r>    -0.4818     6.7470    63.5113 </r>
       <r>    -0.4354     7.1210    63.8416 </r>
       <r>    -0.3890     7.4503    64.1871 </r>
       <r>    -0.3427     7.6856    64.5435 </r>
       <r>    -0.2963     7.6919    64.9003 </r>
       <r>    -0.2499     7.2956    65.2386 </r>
       <r>    -0.2035     6.3871    65.5349 </r>
       <r>    -0.1571     5.0171    65.7676 </r>
       <r>    -0.1108     3.4144    65.9259 </r>
       <r>    -0.0644     1.8972    66.0139 </r>
       <r>    -0.0180     0.7318    66.0478 </r>
       <r>     0.0284     0.0274    66.0491 </r>
       <r>     0.0747    -0.2704    66.0366 </r>
       <r>     0.1211    -0.3071    66.0223 </r>
       <r>     0.1675    -0.2303    66.0117 </r>
       <r>     0.2139    -0.1371    66.0053 </r>
       <r>     0.2603    -0.0686    66.0021 </r>
       <r>     0.3066    -0.0295    66.0007 </r>
       <r>     0.3530    -0.0110    66.0002 </r>
       <r>     0.3994    -0.0036    66.0001 </r>
       <r>     0.4458    -0.0011    66.0000 </r>
       <r>     0.4922    -0.0003    66.0000 </r>
       <r>     0.5385    -0.0001    66.0000 </r>
       <r>     0.5849    -0.0000    66.0000 </r>
       <r>     0.6313    -0.0000    66.0000 </r>
       <r>     0.6777    -0.0000    66.0000 </r>
       <r>     0.7241    -0.0000    66.0000 </r>
       <r>     0.7704    -0.0000    66.0000 </r>
       <r>     0.8168    -0.0000    66.0000 </r>
       <r>     0.8632    -0.0000    66.0000 </r>
       <r>     0.9096    -0.0000    66.0000 </r>
       <r>     0.9559    -0.0000    66.0000 </r>
       <r>     1.0023    -0.0000    66.0000 </r>
       <r>     1.0487    -0.0000    66.0000 </r>
       <r>     1.0951     0.0000    66.0000 </r>
       <r>     1.1415     0.0000    66.0000 </r>
       <r>     1.1878     0.0000    66.0000 </r>
       <r>     1.2342     0.0000    66.0000 </r>
       <r>     1.2806     0.0000    66.0000 </r>
       <r>     1.3270     0.0000    66.0000 </r>
       <r>     1.3734     0.0000    66.0000 </r>
       <r>     1.4197     0.0000    66.0000 </r>
       <r>     1.4661     0.0000    66.0000 </r>
       <r>     1.5125     0.0000    66.0000 </r>
       <r>     1.5589     0.0000    66.0000 </r>
       <r>     1.6053     0.0000    66.0000 </r>
       <r>     1.6516     0.0000    66.0000 </r>
       <r>     1.6980     0.0000    66.0000 </r>
       <r>     1.7444     0.0000    66.0000 </r>
       <r>     1.7908     0.0000    66.0000 </r>
       <r>     1.8371     0.0000    66.0000 </r>
       <r>     1.8835     0.0000    66.0000 </r>
       <r>     1.9299     0.0000    66.0000 </r>
       <r>     1.9763     0.0000    66.0000 </r>
       <r>     2.0227     0.0000    66.0000 </r>
      </set>
      <set comment="spin 2">
       <r>   -11.8910     0.0000     0.0000 </r>
       <r>   -11.8446     0.0000     0.0000 </r>
       <r>   -11.7982     0.0000     0.0000 </r>
       <r>   -11.7519     0.0000     0.0000 </r>
       <r>   -11.7055     0.0000     0.0000 </r>
       <r>   -11.6591     0.0000     0.0000 </r>
       <r>   -11.6127     0.0000     0.0000 </r>
       <r>   -11.5663     0.0000     0.0000 </r>
       <r>   -11.5200     0.0000     0.0000 </r>
       <r>   -11.4736    -0.0000    -0.0000 </r>
       <r>   -11.4272    -0.0000    -0.0000 </r>
       <r>   -11.3808    -0.0000    -0.0000 </r>
       <r>   -11.3344    -0.0000    -0.0000 </r>
       <r>   -11.2881    -0.0000    -0.0000 </r>
       <r>   -11.2417    -0.0000    -0.0000 </r>
       <r>   -11.1953    -0.0000    -0.0000 </r>
       <r>   -11.1489    -0.0000    -0.0000 </r>
       <r>   -11.1026    -0.0000    -0.0000 </r>
       <r>   -11.0562    -0.0000    -0.0000 </r>
       <r>   -11.0098    -0.0000    -0.0000 </r>
       <r>   -10.9634    -0.0000    -0.0000 </r>
       <r>   -10.9170    -0.0000    -0.0000 </r>
       <r>   -10.8707    -0.0000    -0.0000 </r>
       <r>   -10.8243    -0.0000    -0.0000 </r>
       <r>   -10.7779    -0.0000    -0.0000 </r>
       <r>   -10.7315    -0.0000    -0.0000 </r>
       <r>   -10.6851    -0.0000    -0.0000 </r>
       <r>   -10.6388    -0.0000    -0.0000 </r>
       <r>   -10.5924    -0.0000    -0.0000 </r>
       <r>   -10.5460    -0.0000    -0.0000 </r>
       <r>   -10.4996    -0.0002    -0.0000 </r>
       <r>   -10.4532    -0.0007    -0.0000 </r>
       <r>   -10.4069    -0.0026    -0.0002 </r>
       <r>   -10.3605    -0.0080    -0.0005 </r>
       <r>   -10.3141    -0.0218    -0.0015 </r>
       <r>   -10.2677    -0.0516    -0.0039 </r>
       <r>   -10.2214    -0.1044    -0.0088 </r>
       <r>   -10.1750    -0.1749    -0.0169 </r>
       <r>   -10.1286    -0.2254    -0.0273 </r>
       <r>   -10.0822    -0.1671    -0.0351 </r>
       <r>   -10.0358     0.1305    -0.0290 </r>
       <r>    -9.9895     0.7802     0.0071 </r>
       <r>    -9.9431     1.7755     0.0895 </r>
       <r>    -9.8967     2.9163     0.2247 </r>
       <r>    -9.8503     3.8427     0.4030 </r>
       <r>    -9.8039     4.2000     0.5978 </r>
       <r>    -9.7576     3.8401     0.7759 </r>
       <r>    -9.7112     2.9122     0.9109 </r>
       <r>    -9.6648     1.7713     0.9931 </r>
       <r>    -9.6184     0.7770     1.0291 </r>
       <r>    -9.5721     0.1288     1.0351 </r>
       <r>    -9.5257    -0.1677     1.0273 </r>
       <r>    -9.4793    -0.2253     1.0169 </r>
       <r>    -9.4329    -0.1746     1.0088 </r>
       <r>    -9.3865    -0.1041     1.0039 </r>
       <r>    -9.3402    -0.0515     1.0015 </r>
       <r>    -9.2938    -0.0217     1.0005 </r>
       <r>    -9.2474    -0.0080     1.0002 </r>
       <r>    -9.2010    -0.0026     1.0000 </r>
       <r>    -9.1546    -0.0007     1.0000 </r>
       <r>    -9.1083    -0.0002     1.0000 </r>
       <r>    -9.0619    -0.0000     1.0000 </r>
       <r>    -9.0155    -0.0000     1.0000 </r>
       <r>    -8.9691    -0.0000     1.0000 </r>
       <r>    -8.9227    -0.0000     1.0000 </r>
       <r>    -8.8764    -0.0000     1.0000 </r>
       <r>    -8.8300    -0.0000     1.0000 </r>
       <r>    -8.7836    -0.0002     1.0000 </r>
       <r>    -8.7372    -0.0007     1.0000 </r>
       <r>    -8.6909    -0.0025     0.9998 </r>
       <r>    -8.6445    -0.0080     0.9995 </r>
       <r>    -8.5981    -0.0218     0.9985 </r>
       <r>    -8.5517    -0.0520     0.9960 </r>
       <r>    -8.5053    -0.1066     0.9911 </r>
       <r>    -8.4590    -0.1828     0.9826 </r>
       <r>    -8.4126    -0.2483     0.9711 </r>
       <r>    -8.3662    -0.2225     0.9608 </r>
       <r>    -8.3198     0.0183     0.9616 </r>
       <r>    -8.2734     0.5939     0.9892 </r>
       <r>    -8.2271     1.5398     1.0606 </r>
       <r>    -8.1807     2.7493     1.1881 </r>
       <r>    -8.1343     3.9952     1.3734 </r>
       <r>    -8.0879     5.0302     1.6067 </r>
       <r>    -8.0415     5.6868     1.8704 </r>
       <r>    -7.9952     5.8981     2.1440 </r>
       <r>    -7.9488     5.6497     2.4060 </r>
       <r>    -7.9024     4.9477     2.6355 </r>
       <r>    -7.8560     3.8536     2.8142 </r>
       <r>    -7.8097     2.5368     2.9319 </r>
       <r>    -7.7633     1.2634     2.9905 </r>
       <r>    -7.7169     0.3138     3.0050 </r>
       <r>    -7.6705    -0.1086     3.0000 </r>
       <r>    -7.6241     0.0718     3.0033 </r>
       <r>    -7.5778     0.7871     3.0398 </r>
       <r>    -7.5314     1.8285     3.1246 </r>
       <r>    -7.4850     2.8992     3.2591 </r>
       <r>    -7.4386     3.7514     3.4331 </r>
       <r>    -7.3922     4.3559     3.6351 </r>
       <r>    -7.3459     4.9587     3.8651 </r>
       <r>    -7.2995     5.9176     4.1395 </r>
       <r>    -7.2531     7.3860     4.4821 </r>
       <r>    -7.2067     9.0787     4.9031 </r>
       <r>    -7.1604    10.3337     5.3824 </r>
       <r>    -7.1140    10.4845     5.8686 </r>
       <r>    -7.0676     9.3170     6.3008 </r>
       <r>    -7.0212     7.2935     6.6390 </r>
       <r>    -6.9748     5.3689     6.8880 </r>
       <r>    -6.9285     4.4978     7.0966 </r>
       <r>    -6.8821     5.1471     7.3353 </r>
       <r>    -6.8357     7.1127     7.6652 </r>
       <r>    -6.7893     9.7102     8.1156 </r>
       <r>    -6.7429    12.1600     8.6795 </r>
       <r>    -6.6966    13.9064     9.3245 </r>
       <r>    -6.6502    14.7331    10.0078 </r>
       <r>    -6.6038    14.7036    10.6897 </r>
       <r>    -6.5574    14.0268    11.3403 </r>
       <r>    -6.5110    12.9206    11.9395 </r>
       <r>    -6.4647    11.5350    12.4745 </r>
       <r>    -6.4183     9.9861    12.9376 </r>
       <r>    -6.3719     8.4936    13.3316 </r>
       <r>    -6.3255     7.4807    13.6785 </r>
       <r>    -6.2792     7.4549    14.0243 </r>
       <r>    -6.2328     8.6632    14.4261 </r>
       <r>    -6.1864    10.7809    14.9261 </r>
       <r>    -6.1400    12.9614    15.5272 </r>
       <r>    -6.0936    14.3081    16.1908 </r>
       <r>    -6.0473    14.4500    16.8610 </r>
       <r>    -6.0009    13.7624    17.4993 </r>
       <r>    -5.9545    13.0454    18.1043 </r>
       <r>    -5.9081    12.9193    18.7035 </r>
       <r>    -5.8617    13.4209    19.3259 </r>
       <r>    -5.8154    14.0723    19.9786 </r>
       <r>    -5.7690    14.2867    20.6412 </r>
       <r>    -5.7226    13.7565    21.2792 </r>
       <r>    -5.6762    12.6051    21.8638 </r>
       <r>    -5.6298    11.3203    22.3888 </r>
       <r>    -5.5835    10.5686    22.8790 </r>
       <r>    -5.5371    10.9223    23.3855 </r>
       <r>    -5.4907    12.5340    23.9668 </r>
       <r>    -5.4443    14.9221    24.6589 </r>
       <r>    -5.3980    17.0892    25.4515 </r>
       <r>    -5.3516    18.0175    26.2871 </r>
       <r>    -5.3052    17.2646    27.0878 </r>
       <r>    -5.2588    15.2410    27.7947 </r>
       <r>    -5.2124    12.9535    28.3955 </r>
       <r>    -5.1661    11.3966    28.9240 </r>
       <r>    -5.1197    11.0230    29.4353 </r>
       <r>    -5.0733    11.6272    29.9745 </r>
       <r>    -5.0269    12.6407    30.5608 </r>
       <r>    -4.9805    13.5522    31.1893 </r>
       <r>    -4.9342    14.1440    31.8453 </r>
       <r>    -4.8878    14.4578    32.5158 </r>
       <r>    -4.8414    14.6403    33.1948 </r>
       <r>    -4.7950    14.8604    33.8840 </r>
       <r>    -4.7487    15.3227    34.5947 </r>
       <r>    -4.7023    16.2496    35.3483 </r>
       <r>    -4.6559    17.7376    36.1710 </r>
       <r>    -4.6095    19.5716    37.0787 </r>
       <r>    -4.5631    21.1881    38.0614 </r>
       <r>    -4.5168    21.8995    39.0770 </r>
       <r>    -4.4704    21.2893    40.0644 </r>
       <r>    -4.4240    19.5240    40.9699 </r>
       <r>    -4.3776    17.3338    41.7738 </r>
       <r>    -4.3312    15.6239    42.4984 </r>
       <r>    -4.2849    14.9619    43.1924 </r>
       <r>    -4.2385    15.3165    43.9027 </r>
       <r>    -4.1921    16.2219    44.6551 </r>
       <r>    -4.1457    17.1828    45.4520 </r>
       <r>    -4.0993    17.9591    46.2849 </r>
       <r>    -4.0530    18.5519    47.1453 </r>
       <r>    -4.0066    19.0182    48.0274 </r>
       <r>    -3.9602    19.3354    48.9241 </r>
       <r>    -3.9138    19.3881    49.8233 </r>
       <r>    -3.8675    19.0049    50.7048 </r>
       <r>    -3.8211    17.9973    51.5394 </r>
       <r>    -3.7747    16.2233    52.2919 </r>
       <r>    -3.7283    13.6848    52.9266 </r>
       <r>    -3.6819    10.5966    53.4180 </r>
       <r>    -3.6356     7.3544    53.7591 </r>
       <r>    -3.5892     4.4053    53.9634 </r>
       <r>    -3.5428     2.0950    54.0606 </r>
       <r>    -3.4964     0.5701    54.0870 </r>
       <r>    -3.4500    -0.2288    54.0764 </r>
       <r>    -3.4037    -0.4976    54.0533 </r>
       <r>    -3.3573    -0.4686    54.0316 </r>
       <r>    -3.3109    -0.3303    54.0163 </r>
       <r>    -3.2645    -0.1937    54.0073 </r>
       <r>    -3.2181    -0.1017    54.0026 </r>
       <r>    -3.1718    -0.0594    53.9998 </r>
       <r>    -3.1254    -0.0612    53.9970 </r>
       <r>    -3.0790    -0.1043    53.9921 </r>
       <r>    -3.0326    -0.1859    53.9835 </r>
       <r>    -2.9863    -0.2836    53.9704 </r>
       <r>    -2.9399    -0.3296    53.9551 </r>
       <r>    -2.8935    -0.1958    53.9460 </r>
       <r>    -2.8471     0.2822    53.9591 </r>
       <r>    -2.8007     1.2320    54.0162 </r>
       <r>    -2.7544     2.6505    54.1391 </r>
       <r>    -2.7080     4.3541    54.3411 </r>
       <r>    -2.6616     6.0254    54.6205 </r>
       <r>    -2.6152     7.3399    54.9610 </r>
       <r>    -2.5688     8.0965    55.3365 </r>
       <r>    -2.5225     8.2749    55.7202 </r>
       <r>    -2.4761     8.0049    56.0915 </r>
       <r>    -2.4297     7.4863    56.4387 </r>
       <r>    -2.3833     6.9015    56.7588 </r>
       <r>    -2.3370     6.3398    57.0528 </r>
       <r>    -2.2906     5.7595    57.3199 </r>
       <r>    -2.2442     5.0279    57.5531 </r>
       <r>    -2.1978     4.0450    57.7407 </r>
       <r>    -2.1514     2.8809    57.8743 </r>
       <r>    -2.1051     1.8116    57.9584 </r>
       <r>    -2.0587     1.2012    58.0141 </r>
       <r>    -2.0123     1.2889    58.0739 </r>
       <r>    -1.9659     2.0165    58.1674 </r>
       <r>    -1.9195     3.0125    58.3071 </r>
       <r>    -1.8732     3.7590    58.4814 </r>
       <r>    -1.8268     3.8598    58.6604 </r>
       <r>    -1.7804     3.2537    58.8113 </r>
       <r>    -1.7340     2.2472    58.9156 </r>
       <r>    -1.6876     1.3483    58.9781 </r>
       <r>    -1.6413     1.0064    59.0248 </r>
       <r>    -1.5949     1.3950    59.0895 </r>
       <r>    -1.5485     2.3328    59.1977 </r>
       <r>    -1.5021     3.3713    59.3540 </r>
       <r>    -1.4558     4.0123    59.5401 </r>
       <r>    -1.4094     3.9526    59.7234 </r>
       <r>    -1.3630     3.2204    59.8728 </r>
       <r>    -1.3166     2.1206    59.9711 </r>
       <r>    -1.2702     1.0358    60.0192 </r>
       <r>    -1.2239     0.2262    60.0297 </r>
       <r>    -1.1775    -0.2470    60.0182 </r>
       <r>    -1.1311    -0.4594    59.9969 </r>
       <r>    -1.0847    -0.4976    59.9738 </r>
       <r>    -1.0383    -0.3630    59.9570 </r>
       <r>    -0.9920     0.0416    59.9589 </r>
       <r>    -0.9456     0.8404    59.9979 </r>
       <r>    -0.8992     2.0678    60.0938 </r>
       <r>    -0.8528     3.5817    60.2599 </r>
       <r>    -0.8064     5.0724    60.4952 </r>
       <r>    -0.7601     6.1850    60.7820 </r>
       <r>    -0.7137     6.6980    61.0927 </r>
       <r>    -0.6673     6.6531    61.4012 </r>
       <r>    -0.6209     6.3469    61.6956 </r>
       <r>    -0.5746     6.1686    61.9817 </r>
       <r>    -0.5282     6.3652    62.2769 </r>
       <r>    -0.4818     6.8875    62.5963 </r>
       <r>    -0.4354     7.4357    62.9412 </r>
       <r>    -0.3890     7.6760    63.2972 </r>
       <r>    -0.3427     7.4592    63.6431 </r>
       <r>    -0.2963     6.8765    63.9621 </r>
       <r>    -0.2499     6.1437    64.2470 </r>
       <r>    -0.2035     5.4554    64.5000 </r>
       <r>    -0.1571     4.9296    64.7286 </r>
       <r>    -0.1108     4.6243    64.9431 </r>
       <r>    -0.0644     4.5303    65.1532 </r>
       <r>    -0.0180     4.5272    65.3632 </r>
       <r>     0.0284     4.3906    65.5668 </r>
       <r>     0.0747     3.9114    65.7482 </r>
       <r>     0.1211     3.0487    65.8896 </r>
       <r>     0.1675     1.9758    65.9813 </r>
       <r>     0.2139     0.9708    66.0263 </r>
       <r>     0.2603     0.2503    66.0379 </r>
       <r>     0.3066    -0.1270    66.0320 </r>
       <r>     0.3530    -0.2369    66.0210 </r>
       <r>     0.3994    -0.2046    66.0115 </r>
       <r>     0.4458    -0.1313    66.0054 </r>
       <r>     0.4922    -0.0689    66.0022 </r>
       <r>     0.5385    -0.0307    66.0008 </r>
       <r>     0.5849    -0.0118    66.0003 </r>
       <r>     0.6313    -0.0040    66.0001 </r>
       <r>     0.6777    -0.0012    66.0000 </r>
       <r>     0.7241    -0.0003    66.0000 </r>
       <r>     0.7704    -0.0001    66.0000 </r>
       <r>     0.8168    -0.0000    66.0000 </r>
       <r>     0.8632    -0.0000    66.0000 </r>
       <r>     0.9096    -0.0000    66.0000 </r>
       <r>     0.9559    -0.0000    66.0000 </r>
       <r>     1.0023    -0.0000    66.0000 </r>
       <r>     1.0487    -0.0000    66.0000 </r>
       <r>     1.0951    -0.0000    66.0000 </r>
       <r>     1.1415    -0.0000    66.0000 </r>
       <r>     1.1878    -0.0000    66.0000 </r>
       <r>     1.2342    -0.0000    66.0000 </r>
       <r>     1.2806    -0.0000    66.0000 </r>
       <r>     1.3270     0.0000    66.0000 </r>
       <r>     1.3734     0.0000    66.0000 </r>
       <r>     1.4197     0.0000    66.0000 </r>
       <r>     1.4661     0.0000    66.0000 </r>
       <r>     1.5125     0.0000    66.0000 </r>
       <r>     1.5589     0.0000    66.0000 </r>
       <r>     1.6053     0.0000    66.0000 </r>
       <r>     1.6516     0.0000    66.0000 </r>
       <r>     1.6980     0.0000    66.0000 </r>
       <r>     1.7444     0.0000    66.0000 </r>
       <r>     1.7908     0.0000    66.0000 </r>
       <r>     1.8371     0.0000    66.0000 </r>
       <r>     1.8835     0.0000    66.0000 </r>
       <r>     1.9299     0.0000    66.0000 </r>
       <r>     1.9763     0.0000    66.0000 </r>
       <r>     2.0227     0.0000    66.0000 </r>
      </set>
     </set>
    </array>
   </total>
  </dos>
 </calculation>
 <structure name="finalpos" >
  <crystal>
   <varray name="basis" >
    <v>      22.08998130       0.00000000       0.00000000 </v>
    <v>       0.00000000      21.68723485       0.00000000 </v>
    <v>       0.00000000       0.00000000      24.20595698 </v>
   </varray>
   <i name="volume">  11596.36263072 </i>
   <varray name="rec_basis" >
    <v>       0.04526939       0.00000000       0.00000000 </v>
    <v>       0.00000000       0.04611007       0.00000000 </v>
    <v>       0.00000000       0.00000000       0.04131214 </v>
   </varray>
  </crystal>
  <varray name="positions" >
   <v>       0.54878436       0.53562268       0.50533523 </v>
   <v>       0.49446532       0.52453480       0.62047338 </v>
   <v>       0.50771340       0.45199067       0.55142297 </v>
   <v>       0.40919868       0.47476624       0.58613857 </v>
   <v>       0.42780040       0.47038473       0.49170113 </v>
   <v>       0.45328215       0.55984599       0.53837615 </v>
   <v>       0.54443063       0.61533646       0.57813361 </v>
   <v>       0.60025898       0.50473844       0.59152557 </v>
   <v>       0.52598945       0.44411123       0.44824750 </v>
   <v>       0.47025899       0.55501979       0.43495371 </v>
  </varray>
 </structure>
</modeling>
