unknown system                          
            1
    22.089981    0.000000    0.000000
     0.000000   21.687235    0.000000
     0.000000    0.000000   24.205957
   Ni   Pd
     6     4
Direct configuration=     1
   0.54878436  0.53562268  0.50533523
   0.49446532  0.52453480  0.62047338
   0.50771340  0.45199067  0.55142297
   0.40919868  0.47476624  0.58613857
   0.42780040  0.47038473  0.49170113
   0.45328215  0.55984599  0.53837615
   0.54443063  0.61533646  0.57813361
   0.60025898  0.50473844  0.59152557
   0.52598945  0.44411123  0.44824750
   0.47025899  0.55501979  0.43495371
