  13  13   0   0
  0.1049624E+04  0.2196152E-08  0.2536032E-08  0.2449967E-08  0.5000000E-15
   1.0000000000000000E-004
  CAR 
 unknown system                          
      2.30675353    -12.50209362  301     -4.01525004      1.00000000
    -12.502  0.0000E+00  0.0000E+00  0.0000E+00  0.0000E+00
    -12.453  0.0000E+00  0.0000E+00  0.0000E+00  0.0000E+00
    -12.403  0.0000E+00  0.0000E+00  0.0000E+00  0.0000E+00
    -12.354  0.0000E+00  0.0000E+00  0.0000E+00  0.0000E+00
    -12.305  0.0000E+00  0.0000E+00  0.0000E+00  0.0000E+00
    -12.255  0.0000E+00  0.0000E+00  0.0000E+00  0.0000E+00
    -12.206  0.0000E+00  0.0000E+00  0.0000E+00  0.0000E+00
    -12.157  0.0000E+00  0.0000E+00  0.0000E+00  0.0000E+00
    -12.107 -0.4889E-29 -0.4874E-29 -0.2413E-30 -0.2406E-30
    -12.058 -0.2294E-27 -0.2287E-27 -0.1156E-28 -0.1153E-28
    -12.008 -0.9693E-26 -0.9666E-26 -0.4901E-27 -0.4887E-27
    -11.959 -0.3621E-24 -0.3611E-24 -0.1837E-25 -0.1832E-25
    -11.910 -0.1196E-22 -0.1193E-22 -0.6086E-24 -0.6070E-24
    -11.860 -0.3490E-21 -0.3481E-21 -0.1783E-22 -0.1779E-22
    -11.811 -0.8998E-20 -0.8976E-20 -0.4620E-21 -0.4609E-21
    -11.762 -0.2050E-18 -0.2045E-18 -0.1058E-19 -0.1056E-19
    -11.712 -0.4125E-17 -0.4116E-17 -0.2142E-18 -0.2137E-18
    -11.663 -0.7105E-16 -0.7090E-16 -0.3722E-17 -0.3713E-17
    -11.614 -0.1113E-14 -0.1111E-14 -0.5866E-16 -0.5853E-16
    -11.564 -0.1536E-13 -0.1533E-13 -0.8171E-15 -0.8154E-15
    -11.515 -0.1870E-12 -0.1866E-12 -0.1005E-13 -0.1003E-13
    -11.465 -0.2006E-11 -0.2002E-11 -0.1091E-12 -0.1089E-12
    -11.416 -0.1895E-10 -0.1892E-10 -0.1045E-11 -0.1043E-11
    -11.367 -0.1576E-09 -0.1573E-09 -0.8824E-11 -0.8810E-11
    -11.317 -0.1152E-08 -0.1151E-08 -0.6570E-10 -0.6561E-10
    -11.268 -0.7399E-08 -0.7389E-08 -0.4309E-09 -0.4303E-09
    -11.219 -0.4166E-07 -0.4161E-07 -0.2488E-08 -0.2484E-08
    -11.169 -0.2053E-06 -0.2051E-06 -0.1262E-07 -0.1261E-07
    -11.120 -0.8833E-06 -0.8824E-06 -0.5623E-07 -0.5616E-07
    -11.071 -0.3305E-05 -0.3302E-05 -0.2194E-06 -0.2192E-06
    -11.021 -0.1070E-04 -0.1069E-04 -0.7476E-06 -0.7469E-06
    -10.972 -0.2974E-04 -0.2972E-04 -0.2216E-05 -0.2214E-05
    -10.922 -0.7003E-04 -0.6998E-04 -0.5672E-05 -0.5668E-05
    -10.873 -0.1364E-03 -0.1363E-03 -0.1240E-04 -0.1240E-04
    -10.824 -0.2082E-03 -0.2082E-03 -0.2268E-04 -0.2267E-04
    -10.774 -0.2107E-03 -0.2107E-03 -0.3308E-04 -0.3308E-04
    -10.725 -0.4429E-05 -0.4711E-05 -0.3330E-04 -0.3331E-04
    -10.676  0.5645E-03  0.5639E-03 -0.5433E-05 -0.5471E-05
    -10.626  0.1543E-02  0.1543E-02  0.7076E-04  0.7068E-04
    -10.577  0.2751E-02  0.2750E-02  0.2065E-03  0.2064E-03
    -10.528  0.3780E-02  0.3779E-02  0.3931E-03  0.3930E-03
    -10.478  0.4196E-02  0.4196E-02  0.6002E-03  0.6001E-03
    -10.429  0.3805E-02  0.3806E-02  0.7881E-03  0.7879E-03
    -10.379  0.2790E-02  0.2790E-02  0.9258E-03  0.9257E-03
    -10.330  0.1581E-02  0.1582E-02  0.1004E-02  0.1004E-02
    -10.281  0.5903E-03  0.5909E-03  0.1033E-02  0.1033E-02
    -10.231  0.7715E-05  0.8006E-05  0.1033E-02  0.1033E-02
    -10.182 -0.2082E-03 -0.2081E-03  0.1023E-02  0.1023E-02
    -10.133 -0.2100E-03 -0.2100E-03  0.1013E-02  0.1013E-02
    -10.083 -0.1389E-03 -0.1389E-03  0.1006E-02  0.1006E-02
    -10.034 -0.7179E-04 -0.7184E-04  0.1002E-02  0.1002E-02
     -9.985 -0.3066E-04 -0.3069E-04  0.1001E-02  0.1001E-02
     -9.935 -0.1109E-04 -0.1110E-04  0.1000E-02  0.1000E-02
     -9.886 -0.3442E-05 -0.3446E-05  0.1000E-02  0.1000E-02
     -9.837 -0.9243E-06 -0.9253E-06  0.1000E-02  0.1000E-02
     -9.787 -0.2161E-06 -0.2163E-06  0.1000E-02  0.1000E-02
     -9.738 -0.4584E-07 -0.4590E-07  0.1000E-02  0.1000E-02
     -9.688 -0.1940E-07 -0.1940E-07  0.1000E-02  0.1000E-02
     -9.639 -0.6419E-07 -0.6412E-07  0.1000E-02  0.1000E-02
     -9.590 -0.3001E-06 -0.2998E-06  0.1000E-02  0.1000E-02
     -9.540 -0.1247E-05 -0.1245E-05  0.9999E-03  0.9999E-03
     -9.491 -0.4500E-05 -0.4497E-05  0.9997E-03  0.9997E-03
     -9.442 -0.1404E-04 -0.1403E-04  0.9990E-03  0.9990E-03
     -9.392 -0.3748E-04 -0.3746E-04  0.9972E-03  0.9972E-03
     -9.343 -0.8441E-04 -0.8437E-04  0.9930E-03  0.9930E-03
     -9.294 -0.1558E-03 -0.1558E-03  0.9853E-03  0.9853E-03
     -9.244 -0.2205E-03 -0.2205E-03  0.9744E-03  0.9744E-03
     -9.195 -0.1878E-03 -0.1879E-03  0.9651E-03  0.9651E-03
     -9.145  0.9034E-04  0.9003E-04  0.9696E-03  0.9696E-03
     -9.096  0.7484E-03  0.7478E-03  0.1007E-02  0.1006E-02
     -9.047  0.1775E-02  0.1775E-02  0.1094E-02  0.1094E-02
     -8.997  0.2919E-02  0.2918E-02  0.1238E-02  0.1238E-02
     -8.948  0.3756E-02  0.3756E-02  0.1424E-02  0.1424E-02
     -8.899  0.3953E-02  0.3953E-02  0.1619E-02  0.1619E-02
     -8.849  0.3541E-02  0.3541E-02  0.1794E-02  0.1793E-02
     -8.800  0.2941E-02  0.2941E-02  0.1939E-02  0.1939E-02
     -8.751  0.2678E-02  0.2678E-02  0.2071E-02  0.2071E-02
     -8.701  0.2973E-02  0.2972E-02  0.2218E-02  0.2218E-02
     -8.652  0.3566E-02  0.3566E-02  0.2394E-02  0.2394E-02
     -8.602  0.3918E-02  0.3918E-02  0.2587E-02  0.2587E-02
     -8.553  0.3618E-02  0.3618E-02  0.2766E-02  0.2766E-02
     -8.504  0.2670E-02  0.2671E-02  0.2898E-02  0.2897E-02
     -8.454  0.1467E-02  0.1468E-02  0.2970E-02  0.2970E-02
     -8.405  0.5282E-03  0.5288E-03  0.2996E-02  0.2996E-02
     -8.356  0.2427E-03  0.2426E-03  0.3008E-02  0.3008E-02
     -8.306  0.7214E-03  0.7206E-03  0.3044E-02  0.3044E-02
     -8.257  0.1765E-02  0.1764E-02  0.3131E-02  0.3131E-02
     -8.208  0.2919E-02  0.2918E-02  0.3275E-02  0.3275E-02
     -8.158  0.3646E-02  0.3645E-02  0.3455E-02  0.3455E-02
     -8.109  0.3626E-02  0.3627E-02  0.3634E-02  0.3634E-02
     -8.059  0.3011E-02  0.3012E-02  0.3782E-02  0.3782E-02
     -8.010  0.2415E-02  0.2415E-02  0.3902E-02  0.3902E-02
     -7.961  0.2583E-02  0.2583E-02  0.4029E-02  0.4029E-02
     -7.911  0.3920E-02  0.3920E-02  0.4223E-02  0.4223E-02
     -7.862  0.6181E-02  0.6180E-02  0.4528E-02  0.4528E-02
     -7.813  0.8544E-02  0.8542E-02  0.4950E-02  0.4949E-02
     -7.763  0.1002E-01  0.1002E-01  0.5444E-02  0.5444E-02
     -7.714  0.9985E-02  0.9985E-02  0.5937E-02  0.5937E-02
     -7.665  0.8525E-02  0.8526E-02  0.6358E-02  0.6358E-02
     -7.615  0.6428E-02  0.6429E-02  0.6675E-02  0.6675E-02
     -7.566  0.4803E-02  0.4804E-02  0.6912E-02  0.6912E-02
     -7.516  0.4524E-02  0.4524E-02  0.7136E-02  0.7135E-02
     -7.467  0.5816E-02  0.5815E-02  0.7423E-02  0.7422E-02
     -7.418  0.8227E-02  0.8226E-02  0.7829E-02  0.7828E-02
     -7.368  0.1098E-01  0.1098E-01  0.8371E-02  0.8370E-02
     -7.319  0.1339E-01  0.1339E-01  0.9032E-02  0.9031E-02
     -7.270  0.1511E-01  0.1511E-01  0.9778E-02  0.9777E-02
     -7.220  0.1606E-01  0.1606E-01  0.1057E-01  0.1057E-01
     -7.171  0.1632E-01  0.1632E-01  0.1138E-01  0.1138E-01
     -7.122  0.1615E-01  0.1615E-01  0.1217E-01  0.1217E-01
     -7.072  0.1594E-01  0.1594E-01  0.1296E-01  0.1296E-01
     -7.023  0.1605E-01  0.1605E-01  0.1375E-01  0.1375E-01
     -6.973  0.1663E-01  0.1663E-01  0.1457E-01  0.1457E-01
     -6.924  0.1753E-01  0.1753E-01  0.1544E-01  0.1544E-01
     -6.875  0.1846E-01  0.1846E-01  0.1635E-01  0.1635E-01
     -6.825  0.1921E-01  0.1921E-01  0.1730E-01  0.1730E-01
     -6.776  0.1977E-01  0.1977E-01  0.1827E-01  0.1827E-01
     -6.727  0.2031E-01  0.2031E-01  0.1928E-01  0.1928E-01
     -6.677  0.2099E-01  0.2098E-01  0.2031E-01  0.2031E-01
     -6.628  0.2176E-01  0.2176E-01  0.2139E-01  0.2139E-01
     -6.579  0.2237E-01  0.2237E-01  0.2249E-01  0.2249E-01
     -6.529  0.2248E-01  0.2248E-01  0.2360E-01  0.2360E-01
     -6.480  0.2190E-01  0.2190E-01  0.2468E-01  0.2468E-01
     -6.430  0.2069E-01  0.2069E-01  0.2570E-01  0.2570E-01
     -6.381  0.1915E-01  0.1915E-01  0.2665E-01  0.2665E-01
     -6.332  0.1769E-01  0.1769E-01  0.2752E-01  0.2752E-01
     -6.282  0.1677E-01  0.1677E-01  0.2835E-01  0.2835E-01
     -6.233  0.1683E-01  0.1683E-01  0.2918E-01  0.2918E-01
     -6.184  0.1809E-01  0.1809E-01  0.3007E-01  0.3007E-01
     -6.134  0.2044E-01  0.2044E-01  0.3108E-01  0.3108E-01
     -6.085  0.2332E-01  0.2332E-01  0.3223E-01  0.3223E-01
     -6.036  0.2595E-01  0.2595E-01  0.3351E-01  0.3351E-01
     -5.986  0.2765E-01  0.2765E-01  0.3488E-01  0.3488E-01
     -5.937  0.2814E-01  0.2814E-01  0.3627E-01  0.3627E-01
     -5.887  0.2782E-01  0.2782E-01  0.3764E-01  0.3764E-01
     -5.838  0.2766E-01  0.2766E-01  0.3901E-01  0.3901E-01
     -5.789  0.2878E-01  0.2878E-01  0.4043E-01  0.4043E-01
     -5.739  0.3177E-01  0.3177E-01  0.4200E-01  0.4199E-01
     -5.690  0.3627E-01  0.3626E-01  0.4379E-01  0.4378E-01
     -5.641  0.4108E-01  0.4108E-01  0.4581E-01  0.4581E-01
     -5.591  0.4489E-01  0.4489E-01  0.4803E-01  0.4803E-01
     -5.542  0.4696E-01  0.4696E-01  0.5035E-01  0.5035E-01
     -5.493  0.4739E-01  0.4739E-01  0.5269E-01  0.5269E-01
     -5.443  0.4679E-01  0.4679E-01  0.5500E-01  0.5499E-01
     -5.394  0.4572E-01  0.4572E-01  0.5725E-01  0.5725E-01
     -5.344  0.4436E-01  0.4436E-01  0.5944E-01  0.5944E-01
     -5.295  0.4246E-01  0.4246E-01  0.6154E-01  0.6154E-01
     -5.246  0.3955E-01  0.3955E-01  0.6349E-01  0.6349E-01
     -5.196  0.3525E-01  0.3526E-01  0.6523E-01  0.6523E-01
     -5.147  0.2946E-01  0.2946E-01  0.6669E-01  0.6668E-01
     -5.098  0.2252E-01  0.2253E-01  0.6780E-01  0.6780E-01
     -5.048  0.1523E-01  0.1524E-01  0.6855E-01  0.6855E-01
     -4.999  0.8603E-02  0.8607E-02  0.6897E-01  0.6897E-01
     -4.950  0.3502E-02  0.3505E-02  0.6915E-01  0.6915E-01
     -4.900  0.3351E-03  0.3368E-03  0.6916E-01  0.6916E-01
     -4.851 -0.9962E-03 -0.9957E-03  0.6911E-01  0.6911E-01
     -4.801 -0.9038E-03 -0.9043E-03  0.6907E-01  0.6907E-01
     -4.752  0.1148E-03  0.1137E-03  0.6908E-01  0.6908E-01
     -4.703  0.1563E-02  0.1561E-02  0.6915E-01  0.6915E-01
     -4.653  0.2931E-02  0.2930E-02  0.6930E-01  0.6930E-01
     -4.604  0.3764E-02  0.3764E-02  0.6948E-01  0.6948E-01
     -4.555  0.3851E-02  0.3851E-02  0.6967E-01  0.6967E-01
     -4.505  0.3390E-02  0.3391E-02  0.6984E-01  0.6984E-01
     -4.456  0.2884E-02  0.2884E-02  0.6998E-01  0.6998E-01
     -4.407  0.2780E-02  0.2780E-02  0.7012E-01  0.7012E-01
     -4.357  0.3136E-02  0.3135E-02  0.7027E-01  0.7027E-01
     -4.308  0.3606E-02  0.3605E-02  0.7045E-01  0.7045E-01
     -4.259  0.3784E-02  0.3784E-02  0.7064E-01  0.7064E-01
     -4.209  0.3581E-02  0.3580E-02  0.7082E-01  0.7082E-01
     -4.160  0.3291E-02  0.3288E-02  0.7098E-01  0.7098E-01
     -4.110  0.3281E-02  0.3277E-02  0.7114E-01  0.7114E-01
     -4.061  0.3614E-02  0.3610E-02  0.7132E-01  0.7132E-01
     -4.012  0.3963E-02  0.3962E-02  0.7151E-01  0.7151E-01
     -3.962  0.3886E-02  0.3888E-02  0.7171E-01  0.7171E-01
     -3.913  0.3190E-02  0.3195E-02  0.7186E-01  0.7186E-01
     -3.864  0.2059E-02  0.2065E-02  0.7197E-01  0.7197E-01
     -3.814  0.8722E-03  0.8773E-03  0.7201E-01  0.7201E-01
     -3.765 -0.5147E-04 -0.4828E-04  0.7201E-01  0.7201E-01
     -3.716 -0.5596E-03 -0.5584E-03  0.7198E-01  0.7198E-01
     -3.666 -0.5682E-03 -0.5688E-03  0.7195E-01  0.7195E-01
     -3.617  0.6155E-04  0.5928E-04  0.7195E-01  0.7195E-01
     -3.567  0.1481E-02  0.1477E-02  0.7203E-01  0.7203E-01
     -3.518  0.3626E-02  0.3621E-02  0.7221E-01  0.7221E-01
     -3.469  0.6003E-02  0.5998E-02  0.7250E-01  0.7250E-01
     -3.419  0.7769E-02  0.7767E-02  0.7289E-01  0.7288E-01
     -3.370  0.8160E-02  0.8161E-02  0.7329E-01  0.7329E-01
     -3.321  0.6980E-02  0.6984E-02  0.7363E-01  0.7363E-01
     -3.271  0.4761E-02  0.4766E-02  0.7387E-01  0.7387E-01
     -3.222  0.2460E-02  0.2464E-02  0.7399E-01  0.7399E-01
     -3.173  0.9390E-03  0.9406E-03  0.7404E-01  0.7404E-01
     -3.123  0.6032E-03  0.6020E-03  0.7407E-01  0.7407E-01
     -3.074  0.1315E-02  0.1312E-02  0.7413E-01  0.7413E-01
     -3.024  0.2535E-02  0.2532E-02  0.7426E-01  0.7426E-01
     -2.975  0.3573E-02  0.3571E-02  0.7443E-01  0.7443E-01
     -2.926  0.3894E-02  0.3894E-02  0.7462E-01  0.7462E-01
     -2.876  0.3382E-02  0.3384E-02  0.7479E-01  0.7479E-01
     -2.827  0.2393E-02  0.2396E-02  0.7491E-01  0.7491E-01
     -2.778  0.1552E-02  0.1553E-02  0.7499E-01  0.7499E-01
     -2.728  0.1374E-02  0.1374E-02  0.7505E-01  0.7505E-01
     -2.679  0.1968E-02  0.1966E-02  0.7515E-01  0.7515E-01
     -2.630  0.2969E-02  0.2967E-02  0.7530E-01  0.7530E-01
     -2.580  0.3760E-02  0.3759E-02  0.7548E-01  0.7548E-01
     -2.531  0.3844E-02  0.3845E-02  0.7567E-01  0.7567E-01
     -2.481  0.3150E-02  0.3152E-02  0.7583E-01  0.7583E-01
     -2.432  0.2069E-02  0.2071E-02  0.7593E-01  0.7593E-01
     -2.383  0.1211E-02  0.1212E-02  0.7599E-01  0.7599E-01
     -2.333  0.1044E-02  0.1044E-02  0.7604E-01  0.7604E-01
     -2.284  0.1641E-02  0.1639E-02  0.7612E-01  0.7612E-01
     -2.235  0.2651E-02  0.2648E-02  0.7625E-01  0.7625E-01
     -2.185  0.3531E-02  0.3530E-02  0.7643E-01  0.7643E-01
     -2.136  0.3900E-02  0.3900E-02  0.7662E-01  0.7662E-01
     -2.087  0.3786E-02  0.3786E-02  0.7681E-01  0.7681E-01
     -2.037  0.3578E-02  0.3576E-02  0.7698E-01  0.7698E-01
     -1.988  0.3701E-02  0.3698E-02  0.7717E-01  0.7717E-01
     -1.938  0.4293E-02  0.4288E-02  0.7738E-01  0.7738E-01
     -1.889  0.5125E-02  0.5120E-02  0.7763E-01  0.7763E-01
     -1.840  0.5791E-02  0.5787E-02  0.7792E-01  0.7792E-01
     -1.790  0.5952E-02  0.5951E-02  0.7821E-01  0.7821E-01
     -1.741  0.5493E-02  0.5496E-02  0.7848E-01  0.7848E-01
     -1.692  0.4573E-02  0.4577E-02  0.7871E-01  0.7871E-01
     -1.642  0.3573E-02  0.3578E-02  0.7888E-01  0.7888E-01
     -1.593  0.2928E-02  0.2930E-02  0.7903E-01  0.7903E-01
     -1.544  0.2862E-02  0.2862E-02  0.7917E-01  0.7917E-01
     -1.494  0.3249E-02  0.3247E-02  0.7933E-01  0.7933E-01
     -1.445  0.3732E-02  0.3730E-02  0.7951E-01  0.7951E-01
     -1.395  0.4046E-02  0.4045E-02  0.7971E-01  0.7971E-01
     -1.346  0.4247E-02  0.4245E-02  0.7992E-01  0.7992E-01
     -1.297  0.4626E-02  0.4621E-02  0.8015E-01  0.8015E-01
     -1.247  0.5433E-02  0.5424E-02  0.8042E-01  0.8042E-01
     -1.198  0.6649E-02  0.6637E-02  0.8075E-01  0.8075E-01
     -1.149  0.7951E-02  0.7939E-02  0.8114E-01  0.8114E-01
     -1.099  0.8847E-02  0.8840E-02  0.8158E-01  0.8157E-01
     -1.050  0.8880E-02  0.8882E-02  0.8202E-01  0.8201E-01
     -1.001  0.7864E-02  0.7875E-02  0.8240E-01  0.8240E-01
     -0.951  0.6050E-02  0.6064E-02  0.8270E-01  0.8270E-01
     -0.902  0.4080E-02  0.4092E-02  0.8290E-01  0.8290E-01
     -0.852  0.2682E-02  0.2686E-02  0.8304E-01  0.8304E-01
     -0.803  0.2273E-02  0.2268E-02  0.8315E-01  0.8315E-01
     -0.754  0.2769E-02  0.2759E-02  0.8329E-01  0.8328E-01
     -0.704  0.3751E-02  0.3740E-02  0.8347E-01  0.8347E-01
     -0.655  0.4811E-02  0.4802E-02  0.8371E-01  0.8371E-01
     -0.606  0.5775E-02  0.5768E-02  0.8399E-01  0.8399E-01
     -0.556  0.6624E-02  0.6617E-02  0.8432E-01  0.8432E-01
     -0.507  0.7267E-02  0.7261E-02  0.8468E-01  0.8468E-01
     -0.458  0.7474E-02  0.7472E-02  0.8505E-01  0.8504E-01
     -0.408  0.7064E-02  0.7065E-02  0.8540E-01  0.8539E-01
     -0.359  0.6144E-02  0.6145E-02  0.8570E-01  0.8570E-01
     -0.309  0.5114E-02  0.5110E-02  0.8595E-01  0.8595E-01
     -0.260  0.4382E-02  0.4369E-02  0.8617E-01  0.8616E-01
     -0.211  0.4073E-02  0.4049E-02  0.8637E-01  0.8636E-01
     -0.161  0.4006E-02  0.3966E-02  0.8657E-01  0.8656E-01
     -0.112  0.3941E-02  0.3879E-02  0.8676E-01  0.8675E-01
     -0.063  0.3825E-02  0.3737E-02  0.8695E-01  0.8694E-01
     -0.013  0.3837E-02  0.3729E-02  0.8714E-01  0.8712E-01
      0.036  0.4299E-02  0.4183E-02  0.8735E-01  0.8733E-01
      0.085  0.5575E-02  0.5451E-02  0.8763E-01  0.8760E-01
      0.135  0.7903E-02  0.7769E-02  0.8802E-01  0.8798E-01
      0.184  0.1110E-01  0.1097E-01  0.8857E-01  0.8852E-01
      0.234  0.1431E-01  0.1422E-01  0.8927E-01  0.8922E-01
      0.283  0.1618E-01  0.1620E-01  0.9007E-01  0.9002E-01
      0.332  0.1565E-01  0.1581E-01  0.9084E-01  0.9080E-01
      0.382  0.1267E-01  0.1293E-01  0.9147E-01  0.9144E-01
      0.431  0.8306E-02  0.8574E-02  0.9188E-01  0.9186E-01
      0.480  0.4071E-02  0.4280E-02  0.9208E-01  0.9208E-01
      0.530  0.1068E-02  0.1185E-02  0.9213E-01  0.9213E-01
      0.579 -0.4411E-03 -0.4009E-03  0.9211E-01  0.9211E-01
      0.628 -0.8369E-03 -0.8400E-03  0.9207E-01  0.9207E-01
      0.678 -0.6872E-03 -0.7040E-03  0.9204E-01  0.9204E-01
      0.727 -0.4117E-03 -0.4266E-03  0.9202E-01  0.9202E-01
      0.777 -0.1990E-03 -0.2080E-03  0.9201E-01  0.9201E-01
      0.826 -0.8063E-04 -0.8485E-04  0.9200E-01  0.9200E-01
      0.875 -0.2789E-04 -0.2953E-04  0.9200E-01  0.9200E-01
      0.925 -0.8322E-05 -0.8859E-05  0.9200E-01  0.9200E-01
      0.974 -0.2156E-05 -0.2307E-05  0.9200E-01  0.9200E-01
      1.023 -0.4873E-06 -0.5238E-06  0.9200E-01  0.9200E-01
      1.073 -0.9633E-07 -0.1040E-06  0.9200E-01  0.9200E-01
      1.122 -0.1669E-07 -0.1810E-07  0.9200E-01  0.9200E-01
      1.171 -0.2541E-08 -0.2765E-08  0.9200E-01  0.9200E-01
      1.221 -0.3400E-09 -0.3715E-09  0.9200E-01  0.9200E-01
      1.270 -0.4005E-10 -0.4391E-10  0.9200E-01  0.9200E-01
      1.319 -0.4156E-11 -0.4572E-11  0.9200E-01  0.9200E-01
      1.369 -0.3801E-12 -0.4196E-12  0.9200E-01  0.9200E-01
      1.418 -0.3066E-13 -0.3396E-13  0.9200E-01  0.9200E-01
      1.468 -0.2186E-14 -0.2416E-14  0.9200E-01  0.9200E-01
      1.517 -0.1349E-15 -0.1574E-15  0.9200E-01  0.9200E-01
      1.566 -0.8996E-17 -0.8996E-17  0.9200E-01  0.9200E-01
      1.616  0.0000E+00  0.0000E+00  0.9200E-01  0.9200E-01
      1.665  0.0000E+00  0.0000E+00  0.9200E-01  0.9200E-01
      1.714  0.0000E+00  0.0000E+00  0.9200E-01  0.9200E-01
      1.764  0.0000E+00  0.0000E+00  0.9200E-01  0.9200E-01
      1.813  0.0000E+00  0.0000E+00  0.9200E-01  0.9200E-01
      1.862  0.0000E+00  0.0000E+00  0.9200E-01  0.9200E-01
      1.912  0.0000E+00  0.0000E+00  0.9200E-01  0.9200E-01
      1.961  0.0000E+00  0.0000E+00  0.9200E-01  0.9200E-01
      2.011  0.0000E+00  0.0000E+00  0.9200E-01  0.9200E-01
      2.060  0.0000E+00  0.0000E+00  0.9200E-01  0.9200E-01
      2.109  0.0000E+00  0.0000E+00  0.9200E-01  0.9200E-01
      2.159  0.0000E+00  0.0000E+00  0.9200E-01  0.9200E-01
      2.208  0.0000E+00  0.0000E+00  0.9200E-01  0.9200E-01
      2.257  0.0000E+00  0.0000E+00  0.9200E-01  0.9200E-01
      2.307  0.0000E+00  0.0000E+00  0.9200E-01  0.9200E-01
