   13   13 1000    2
  0.1049624E+04  0.2196152E-08  0.2536032E-08  0.2449967E-08  0.5000000E-15
   1.0000000000000000E-004
  CAR 
 unknown system                          
    143      1     92
 
  0.1262379E-14  0.1262379E-14  0.1262379E-14  0.1000000E+01
    1      -10.502094    -10.502056   1.000000   1.000000
    2       -8.934871     -8.934837   1.000000   1.000000
    3       -8.619122     -8.619076   1.000000   1.000000
    4       -8.154558     -8.154514   1.000000   1.000000
    5       -7.832023     -7.832000   1.000000   1.000000
    6       -7.766531     -7.766505   1.000000   1.000000
    7       -7.679536     -7.679476   1.000000   1.000000
    8       -7.416340     -7.416311   1.000000   1.000000
    9       -7.379139     -7.379106   1.000000   1.000000
   10       -7.276342     -7.276315   1.000000   1.000000
   11       -7.222767     -7.222731   1.000000   1.000000
   12       -7.169789     -7.169753   1.000000   1.000000
   13       -7.124156     -7.124126   1.000000   1.000000
   14       -7.016997     -7.016962   1.000000   1.000000
   15       -6.983267     -6.983223   1.000000   1.000000
   16       -6.918579     -6.918547   1.000000   1.000000
   17       -6.850008     -6.849983   1.000000   1.000000
   18       -6.839401     -6.839371   1.000000   1.000000
   19       -6.758171     -6.758139   1.000000   1.000000
   20       -6.711763     -6.711729   1.000000   1.000000
   21       -6.680689     -6.680658   1.000000   1.000000
   22       -6.597486     -6.597460   1.000000   1.000000
   23       -6.573927     -6.573898   1.000000   1.000000
   24       -6.538070     -6.538046   1.000000   1.000000
   25       -6.511439     -6.511407   1.000000   1.000000
   26       -6.436832     -6.436806   1.000000   1.000000
   27       -6.388803     -6.388772   1.000000   1.000000
   28       -6.338081     -6.338054   1.000000   1.000000
   29       -6.294050     -6.294019   1.000000   1.000000
   30       -6.200302     -6.200278   1.000000   1.000000
   31       -6.144389     -6.144357   1.000000   1.000000
   32       -6.110329     -6.110300   1.000000   1.000000
   33       -6.080461     -6.080434   1.000000   1.000000
   34       -6.023943     -6.023920   1.000000   1.000000
   35       -5.990835     -5.990806   1.000000   1.000000
   36       -5.965391     -5.965364   1.000000   1.000000
   37       -5.956994     -5.956971   1.000000   1.000000
   38       -5.885947     -5.885921   1.000000   1.000000
   39       -5.870575     -5.870548   1.000000   1.000000
   40       -5.853033     -5.852998   1.000000   1.000000
   41       -5.761769     -5.761743   1.000000   1.000000
   42       -5.748876     -5.748850   1.000000   1.000000
   43       -5.708614     -5.708586   1.000000   1.000000
   44       -5.677047     -5.677018   1.000000   1.000000
   45       -5.661100     -5.661073   1.000000   1.000000
   46       -5.643116     -5.643095   1.000000   1.000000
   47       -5.617068     -5.617043   1.000000   1.000000
   48       -5.609913     -5.609889   1.000000   1.000000
   49       -5.595696     -5.595672   1.000000   1.000000
   50       -5.570475     -5.570451   1.000000   1.000000
   51       -5.538503     -5.538474   1.000000   1.000000
   52       -5.513633     -5.513611   1.000000   1.000000
   53       -5.497559     -5.497531   1.000000   1.000000
   54       -5.479046     -5.479028   1.000000   1.000000
   55       -5.463722     -5.463696   1.000000   1.000000
   56       -5.436043     -5.436017   1.000000   1.000000
   57       -5.397594     -5.397567   1.000000   1.000000
   58       -5.376303     -5.376278   1.000000   1.000000
   59       -5.365036     -5.364998   1.000000   1.000000
   60       -5.350862     -5.350842   1.000000   1.000000
   61       -5.313719     -5.313692   1.000000   1.000000
   62       -5.306022     -5.305978   1.000000   1.000000
   63       -5.257598     -5.257573   1.000000   1.000000
   64       -5.247267     -5.247238   1.000000   1.000000
   65       -5.218248     -5.218201   1.000000   1.000000
   66       -5.192972     -5.192943   1.000000   1.000000
   67       -5.165961     -5.165933   1.000000   1.000000
   68       -5.109751     -5.109705   1.000000   1.000000
   69       -5.092229     -5.092193   1.000000   1.000000
   70       -4.605448     -4.605404   1.000123   1.000123
   71       -4.296563     -4.296494   1.031530   1.031543
   72       -4.007919     -4.007682   0.469003   0.468000
   73       -3.423570     -3.423469  -0.000118  -0.000117
   74       -3.388243     -3.388141  -0.000043  -0.000043
   75       -2.958499     -2.958359  -0.000000  -0.000000
   76       -2.575225     -2.575117  -0.000000  -0.000000
   77       -2.174457     -2.174329  -0.000000  -0.000000
   78       -1.906564     -1.906371  -0.000000  -0.000000
   79       -1.743871     -1.743585  -0.000000  -0.000000
   80       -1.453510     -1.453245  -0.000000  -0.000000
   81       -1.226628     -1.226344  -0.000000  -0.000000
   82       -1.090443     -1.090055  -0.000000  -0.000000
   83       -1.013804     -1.013426  -0.000000  -0.000000
   84       -0.700625     -0.700021  -0.000000  -0.000000
   85       -0.514497     -0.514052  -0.000000  -0.000000
   86       -0.412540     -0.411810  -0.000000  -0.000000
   87       -0.176484     -0.174779  -0.000000  -0.000000
   88        0.049392      0.055236  -0.000000  -0.000000
   89        0.230472      0.233958  -0.000000  -0.000000
   90        0.285714      0.293140  -0.000000  -0.000000
   91        0.300371      0.299878  -0.000000  -0.000000
   92        0.305364      0.306754  -0.000000  -0.000000
