       N       E                     dE             d eps       ncg     rms          rms(c)
DAV:   1     0.971999375150E+03    0.97200E+03   -0.24695E+04   368   0.738E+02
DAV:   2     0.260416989209E+03   -0.71158E+03   -0.63247E+03   400   0.208E+02
DAV:   3     0.136357922741E+02   -0.24678E+03   -0.23661E+03   464   0.138E+02
DAV:   4    -0.339625887235E+02   -0.47598E+02   -0.43752E+02   440   0.114E+02
DAV:   5    -0.364872067955E+02   -0.25246E+01   -0.24911E+01   456   0.253E+01    0.281E+01
DAV:   6    -0.168381295830E+02    0.19649E+02   -0.13253E+02   396   0.912E+01    0.122E+01
DAV:   7    -0.121421487926E+02    0.46960E+01   -0.30798E+01   432   0.692E+01    0.492E+00
DAV:   8    -0.116600372027E+02    0.48211E+00   -0.67473E+00   452   0.538E+01    0.430E+00
DAV:   9    -0.129597999226E+02   -0.12998E+01   -0.14271E+00   532   0.293E+01    0.279E+00
DAV:  10    -0.149945760848E+02   -0.20348E+01   -0.13407E+00   532   0.121E+01    0.206E+00
DAV:  11    -0.177827754443E+02   -0.27882E+01   -0.10346E+00   456   0.117E+01    0.159E+00
DAV:  12    -0.230853611080E+02   -0.53026E+01   -0.28144E+00   492   0.910E+00    0.130E+00
DAV:  13    -0.246116790371E+02   -0.15263E+01   -0.48906E-01   480   0.503E+00    0.129E+00
DAV:  14    -0.247327832365E+02   -0.12110E+00   -0.39479E-02   432   0.152E+00    0.129E+00
DAV:  15    -0.248076334291E+02   -0.74850E-01   -0.25665E-03   552   0.588E-01    0.129E+00
DAV:  16    -0.258746732076E+02   -0.10670E+01   -0.29272E-01   520   0.352E+00    0.129E+00
DAV:  17    -0.277119523236E+02   -0.18373E+01   -0.83653E-01   508   0.638E+00    0.144E+00
DAV:  18    -0.290621668113E+02   -0.13502E+01   -0.36145E-01   464   0.732E+00    0.773E-01
DAV:  19    -0.299633463390E+02   -0.90118E+00   -0.16842E-01   480   0.378E+00    0.595E-01
DAV:  20    -0.305917955148E+02   -0.62845E+00   -0.10369E-01   456   0.397E+00    0.415E-01
DAV:  21    -0.311347874098E+02   -0.54299E+00   -0.79633E-02   496   0.196E+00    0.382E-01
DAV:  22    -0.315759759431E+02   -0.44119E+00   -0.26920E-02   520   0.189E+00    0.328E-01
DAV:  23    -0.318517670767E+02   -0.27579E+00   -0.11866E-02   512   0.121E+00    0.270E-01
DAV:  24    -0.320038777430E+02   -0.15211E+00   -0.79575E-03   540   0.151E+00    0.164E-01
DAV:  25    -0.320838121429E+02   -0.79934E-01   -0.52514E-03   536   0.654E-01    0.160E-01
DAV:  26    -0.321768451052E+02   -0.93033E-01   -0.31055E-03   504   0.777E-01    0.117E-01
DAV:  27    -0.322434593945E+02   -0.66614E-01   -0.21622E-03   516   0.587E-01    0.694E-02
DAV:  28    -0.322752676644E+02   -0.31808E-01   -0.11229E-03   456   0.440E-01    0.432E-02
DAV:  29    -0.322924797083E+02   -0.17212E-01   -0.57887E-04   328   0.294E-01    0.482E-02
DAV:  30    -0.323051670789E+02   -0.12687E-01   -0.35059E-04   296   0.192E-01    0.348E-02
DAV:  31    -0.323131793468E+02   -0.80123E-02   -0.25338E-04   280   0.157E-01    0.319E-02
DAV:  32    -0.323175780379E+02   -0.43987E-02   -0.21619E-04   272   0.142E-01    0.255E-02
DAV:  33    -0.323212024606E+02   -0.36244E-02   -0.22182E-04   264   0.134E-01    0.192E-02
DAV:  34    -0.323232573357E+02   -0.20549E-02   -0.18620E-04   272   0.126E-01    0.161E-02
DAV:  35    -0.323254588261E+02   -0.22015E-02   -0.18808E-04   272   0.120E-01    0.147E-02
DAV:  36    -0.323266241119E+02   -0.11653E-02   -0.13777E-04   256   0.952E-02    0.116E-02
DAV:  37    -0.323274317539E+02   -0.80764E-03   -0.86157E-05   260   0.791E-02    0.107E-02
DAV:  38    -0.323283451265E+02   -0.91337E-03   -0.73725E-05   232   0.565E-02    0.922E-03
DAV:  39    -0.323287673804E+02   -0.42225E-03   -0.43939E-05   264   0.540E-02    0.904E-03
DAV:  40    -0.323289927583E+02   -0.22538E-03   -0.29524E-05   240   0.385E-02    0.818E-03
DAV:  41    -0.323291870121E+02   -0.19425E-03   -0.26317E-05   248   0.350E-02    0.787E-03
DAV:  42    -0.323293320722E+02   -0.14506E-03   -0.23600E-05   248   0.303E-02    0.695E-03
DAV:  43    -0.323294620319E+02   -0.12996E-03   -0.18843E-05   248   0.304E-02    0.686E-03
DAV:  44    -0.323295880495E+02   -0.12602E-03   -0.16061E-05   248   0.257E-02    0.502E-03
DAV:  45    -0.323297209898E+02   -0.13294E-03   -0.17212E-05   236   0.221E-02    0.443E-03
DAV:  46    -0.323297983532E+02   -0.77363E-04   -0.11724E-05   256   0.188E-02
   1 F= -.32329798E+02 E0= -.32311729E+02  d E =-.323298E+02  mag=     0.0164
       N       E                     dE             d eps       ncg     rms          rms(c)
DAV:   1    -0.323513423300E+02   -0.21621E-01   -0.15748E+01   388   0.136E+01    0.360E-01
DAV:   2    -0.323792277699E+02   -0.27885E-01   -0.31172E-01   544   0.536E+00    0.409E-01
DAV:   3    -0.323780575662E+02    0.11702E-02   -0.24352E-02   408   0.351E+00    0.199E-01
DAV:   4    -0.323780863095E+02   -0.28743E-04   -0.47847E-03   464   0.974E-01    0.165E-01
DAV:   5    -0.323779723668E+02    0.11394E-03   -0.11098E-03   392   0.352E-01    0.112E-01
DAV:   6    -0.323780175527E+02   -0.45186E-04   -0.95043E-04   428   0.741E-01
   2 F= -.32378018E+02 E0= -.32361438E+02  d E =-.482192E-01  mag=     0.0164
       N       E                     dE             d eps       ncg     rms          rms(c)
DAV:   1    -0.322623318186E+02    0.11564E+00   -0.84171E+01   408   0.325E+01    0.904E-01
DAV:   2    -0.324315057103E+02   -0.16917E+00   -0.18980E+00   552   0.144E+01    0.103E+00
DAV:   3    -0.324182527097E+02    0.13253E-01   -0.10764E-01   408   0.877E+00    0.459E-01
DAV:   4    -0.324187913595E+02   -0.53865E-03   -0.30426E-02   432   0.194E+00    0.397E-01
DAV:   5    -0.324177329967E+02    0.10584E-02   -0.56580E-03   400   0.103E+00    0.273E-01
DAV:   6    -0.324173477547E+02    0.38524E-03   -0.61260E-03   560   0.181E+00    0.167E-01
DAV:   7    -0.324169619782E+02    0.38578E-03   -0.18800E-03   440   0.136E+00    0.535E-02
DAV:   8    -0.324170566894E+02   -0.94711E-04   -0.12362E-03   528   0.570E-01    0.505E-02
DAV:   9    -0.324170626724E+02   -0.59830E-05   -0.24587E-04   280   0.210E-01
   3 F= -.32417063E+02 E0= -.32403813E+02  d E =-.872643E-01  mag=     0.0147
       N       E                     dE             d eps       ncg     rms          rms(c)
DAV:   1    -0.324150583893E+02    0.19983E-02   -0.17564E+00   400   0.455E+00    0.816E-02
DAV:   2    -0.324182804136E+02   -0.32220E-02   -0.33323E-02   540   0.113E+00    0.109E-01
DAV:   3    -0.324181842224E+02    0.96191E-04   -0.87899E-04   384   0.580E-01
   4 F= -.32418184E+02 E0= -.32404488E+02  d E =-.883859E-01  mag=     0.0143
       N       E                     dE             d eps       ncg     rms          rms(c)
DAV:   1    -0.324152087620E+02    0.30717E-02   -0.15061E+01   392   0.133E+01    0.299E-01
DAV:   2    -0.324431965128E+02   -0.27988E-01   -0.29637E-01   556   0.429E+00    0.370E-01
DAV:   3    -0.324419739499E+02    0.12226E-02   -0.15197E-02   408   0.249E+00    0.210E-01
DAV:   4    -0.324418738403E+02    0.10011E-03   -0.32231E-03   448   0.803E-01    0.169E-01
DAV:   5    -0.324416627200E+02    0.21112E-03   -0.77268E-04   368   0.408E-01    0.115E-01
DAV:   6    -0.324416127989E+02    0.49921E-04   -0.11712E-03   552   0.464E-01    0.452E-02
DAV:   7    -0.324415953772E+02    0.17422E-04   -0.19066E-04   240   0.372E-01
   5 F= -.32441595E+02 E0= -.32429118E+02  d E =-.234112E-01  mag=     0.0125
       N       E                     dE             d eps       ncg     rms          rms(c)
DAV:   1    -0.323865731096E+02    0.55040E-01   -0.38101E+01   392   0.215E+01    0.496E-01
DAV:   2    -0.324612337590E+02   -0.74661E-01   -0.79776E-01   552   0.739E+00    0.609E-01
DAV:   3    -0.324576758321E+02    0.35579E-02   -0.40323E-02   396   0.426E+00    0.344E-01
DAV:   4    -0.324574859665E+02    0.18987E-03   -0.91850E-03   416   0.120E+00    0.290E-01
DAV:   5    -0.324566941622E+02    0.79180E-03   -0.20923E-03   412   0.659E-01    0.196E-01
DAV:   6    -0.324563452262E+02    0.34894E-03   -0.33859E-03   564   0.737E-01    0.711E-02
DAV:   7    -0.324562956218E+02    0.49604E-04   -0.55777E-04   384   0.635E-01
   6 F= -.32456296E+02 E0= -.32445388E+02  d E =-.381114E-01  mag=     0.0105
       N       E                     dE             d eps       ncg     rms          rms(c)
DAV:   1    -0.324320698063E+02    0.24275E-01   -0.22071E+01   392   0.163E+01    0.345E-01
DAV:   2    -0.324758078517E+02   -0.43738E-01   -0.45808E-01   540   0.442E+00    0.430E-01
DAV:   3    -0.324735763310E+02    0.22315E-02   -0.13323E-02   396   0.246E+00    0.257E-01
DAV:   4    -0.324733385215E+02    0.23781E-03   -0.35926E-03   496   0.868E-01    0.214E-01
DAV:   5    -0.324729143592E+02    0.42416E-03   -0.10587E-03   424   0.598E-01    0.147E-01
DAV:   6    -0.324727889662E+02    0.12539E-03   -0.20095E-03   584   0.710E-01    0.609E-02
DAV:   7    -0.324727567732E+02    0.32193E-04   -0.35385E-04   336   0.522E-01
   7 F= -.32472757E+02 E0= -.32462173E+02  d E =-.164612E-01  mag=     0.0088
       N       E                     dE             d eps       ncg     rms          rms(c)
DAV:   1    -0.324631325570E+02    0.96564E-02   -0.70383E+00   392   0.910E+00    0.190E-01
DAV:   2    -0.324760172725E+02   -0.12885E-01   -0.13532E-01   544   0.248E+00    0.233E-01
DAV:   3    -0.324753644650E+02    0.65281E-03   -0.43157E-03   400   0.141E+00    0.136E-01
DAV:   4    -0.324753172581E+02    0.47207E-04   -0.11168E-03   448   0.479E-01    0.112E-01
DAV:   5    -0.324752319639E+02    0.85294E-04   -0.24407E-04   232   0.324E-01
   8 F= -.32475232E+02 E0= -.32464782E+02  d E =-.189363E-01  mag=     0.0076
       N       E                     dE             d eps       ncg     rms          rms(c)
DAV:   1    -0.324653915301E+02    0.99257E-02   -0.10520E+01   392   0.111E+01    0.246E-01
DAV:   2    -0.324844701779E+02   -0.19079E-01   -0.20153E-01   540   0.360E+00    0.311E-01
DAV:   3    -0.324834627748E+02    0.10074E-02   -0.99674E-03   396   0.222E+00    0.173E-01
DAV:   4    -0.324833970134E+02    0.65761E-04   -0.19853E-03   464   0.504E-01    0.144E-01
DAV:   5    -0.324832459093E+02    0.15110E-03   -0.43772E-04   344   0.306E-01    0.103E-01
DAV:   6    -0.324832192577E+02    0.26652E-04   -0.11162E-03   528   0.635E-01    0.521E-02
DAV:   7    -0.324831913202E+02    0.27937E-04   -0.20905E-04   256   0.426E-01
   9 F= -.32483191E+02 E0= -.32472944E+02  d E =-.795936E-02  mag=     0.0062
       N       E                     dE             d eps       ncg     rms          rms(c)
DAV:   1    -0.324545147762E+02    0.28704E-01   -0.18573E+01   392   0.148E+01    0.353E-01
DAV:   2    -0.324900565196E+02   -0.35542E-01   -0.37982E-01   544   0.495E+00    0.432E-01
DAV:   3    -0.324877909309E+02    0.22656E-02   -0.17225E-02   396   0.304E+00    0.236E-01
DAV:   4    -0.324876591455E+02    0.13179E-03   -0.38638E-03   464   0.698E-01    0.193E-01
DAV:   5    -0.324873475514E+02    0.31159E-03   -0.83373E-04   392   0.403E-01    0.139E-01
DAV:   6    -0.324872193890E+02    0.12816E-03   -0.17840E-03   568   0.766E-01    0.699E-02
DAV:   7    -0.324871591917E+02    0.60197E-04   -0.39032E-04   392   0.571E-01
  10 F= -.32487159E+02 E0= -.32476886E+02  d E =-.119272E-01  mag=     0.0051
       N       E                     dE             d eps       ncg     rms          rms(c)
DAV:   1    -0.324743998052E+02    0.12820E-01   -0.11765E+01   392   0.115E+01    0.275E-01
DAV:   2    -0.324967233454E+02   -0.22324E-01   -0.23814E-01   536   0.437E+00    0.371E-01
DAV:   3    -0.324950766222E+02    0.16467E-02   -0.12280E-02   396   0.269E+00    0.188E-01
DAV:   4    -0.324950200130E+02    0.56609E-04   -0.28198E-03   468   0.543E-01    0.156E-01
DAV:   5    -0.324948193276E+02    0.20069E-03   -0.48143E-04   352   0.300E-01    0.111E-01
DAV:   6    -0.324947383394E+02    0.80988E-04   -0.11292E-03   536   0.544E-01    0.492E-02
DAV:   7    -0.324947124794E+02    0.25860E-04   -0.19178E-04   240   0.416E-01
  11 F= -.32494712E+02 E0= -.32484249E+02  d E =-.755329E-02  mag=     0.0041
       N       E                     dE             d eps       ncg     rms          rms(c)
DAV:   1    -0.323386610962E+02    0.15608E+00   -0.80435E+01   392   0.316E+01    0.709E-01
DAV:   2    -0.325149497759E+02   -0.17629E+00   -0.18407E+00   544   0.124E+01    0.939E-01
DAV:   3    -0.325034656532E+02    0.11484E-01   -0.71400E-02   392   0.712E+00    0.468E-01
DAV:   4    -0.325035696015E+02   -0.10395E-03   -0.20453E-02   392   0.122E+00    0.407E-01
DAV:   5    -0.325020440568E+02    0.15255E-02   -0.31871E-03   480   0.777E-01    0.307E-01
DAV:   6    -0.325006162428E+02    0.14278E-02   -0.65051E-03   560   0.127E+00    0.124E-01
DAV:   7    -0.325004083605E+02    0.20788E-03   -0.13036E-03   416   0.985E-01    0.610E-02
DAV:   8    -0.325004516589E+02   -0.43298E-04   -0.98137E-04   492   0.406E-01
  12 F= -.32500452E+02 E0= -.32489038E+02  d E =-.132925E-01  mag=     0.0034
       N       E                     dE             d eps       ncg     rms          rms(c)
DAV:   1    -0.324847011275E+02    0.15707E-01   -0.13498E+01   392   0.127E+01    0.303E-01
DAV:   2    -0.325106634193E+02   -0.25962E-01   -0.28033E-01   536   0.429E+00    0.368E-01
DAV:   3    -0.325093389033E+02    0.13245E-02   -0.14910E-02   392   0.261E+00    0.201E-01
DAV:   4    -0.325093238504E+02    0.15053E-04   -0.31614E-03   416   0.687E-01    0.165E-01
DAV:   5    -0.325091779472E+02    0.14590E-03   -0.63624E-04   352   0.361E-01    0.119E-01
DAV:   6    -0.325091516937E+02    0.26254E-04   -0.10518E-03   536   0.497E-01    0.492E-02
DAV:   7    -0.325091179134E+02    0.33780E-04   -0.17737E-04   248   0.417E-01
  13 F= -.32509118E+02 E0= -.32498027E+02  d E =-.866625E-02  mag=     0.0028
       N       E                     dE             d eps       ncg     rms          rms(c)
DAV:   1    -0.325091311461E+02    0.20548E-04   -0.17534E-04   248   0.161E-01    0.210E-02
DAV:   2    -0.325091393997E+02   -0.82536E-05   -0.15639E-04   232   0.261E-01
  14 F= -.32509139E+02 E0= -.32498046E+02  d E =-.868774E-02  mag=     0.0027
       N       E                     dE             d eps       ncg     rms          rms(c)
DAV:   1    -0.325005955667E+02    0.85356E-02   -0.81813E+00   392   0.980E+00    0.227E-01
DAV:   2    -0.325149026754E+02   -0.14307E-01   -0.15311E-01   536   0.314E+00    0.278E-01
DAV:   3    -0.325142348110E+02    0.66786E-03   -0.90417E-03   392   0.188E+00    0.159E-01
DAV:   4    -0.325141768488E+02    0.57962E-04   -0.15376E-03   460   0.539E-01    0.130E-01
DAV:   5    -0.325140633497E+02    0.11350E-03   -0.27862E-04   264   0.194E-01    0.973E-02
DAV:   6    -0.325140334246E+02    0.29925E-04   -0.94544E-04   496   0.509E-01
  15 F= -.32514033E+02 E0= -.32503032E+02  d E =-.489402E-02  mag=     0.0023
       N       E                     dE             d eps       ncg     rms          rms(c)
DAV:   1    -0.325119633800E+02    0.21000E-02   -0.16191E+00   416   0.435E+00    0.939E-02
DAV:   2    -0.325146813504E+02   -0.27180E-02   -0.28470E-02   544   0.151E+00    0.116E-01
DAV:   3    -0.325145784846E+02    0.10287E-03   -0.18208E-03   380   0.970E-01    0.533E-02
DAV:   4    -0.325145965962E+02   -0.18112E-04   -0.30723E-04   320   0.204E-01
  16 F= -.32514597E+02 E0= -.32503641E+02  d E =-.545720E-02  mag=     0.0021
       N       E                     dE             d eps       ncg     rms          rms(c)
DAV:   1    -0.325083779253E+02    0.62006E-02   -0.52617E+00   396   0.784E+00    0.177E-01
DAV:   2    -0.325175290978E+02   -0.91512E-02   -0.98177E-02   540   0.254E+00    0.218E-01
DAV:   3    -0.325171027402E+02    0.42636E-03   -0.50898E-03   396   0.156E+00    0.122E-01
DAV:   4    -0.325170712244E+02    0.31516E-04   -0.97776E-04   392   0.424E-01
  17 F= -.32517071E+02 E0= -.32506118E+02  d E =-.247463E-02  mag=     0.0019
       N       E                     dE             d eps       ncg     rms          rms(c)
DAV:   1    -0.325169147918E+02    0.18795E-03   -0.10548E-01   376   0.114E+00    0.617E-02
DAV:   2    -0.325170776209E+02   -0.16283E-03   -0.21453E-03   552   0.499E-01    0.559E-02
DAV:   3    -0.325170570178E+02    0.20603E-04   -0.19870E-04   240   0.360E-01
  18 F= -.32517057E+02 E0= -.32506104E+02  d E =-.246042E-02  mag=     0.0017
       N       E                     dE             d eps       ncg     rms          rms(c)
DAV:   1    -0.325113796175E+02    0.56980E-02   -0.47008E+00   392   0.736E+00    0.152E-01
DAV:   2    -0.325193716006E+02   -0.79920E-02   -0.84232E-02   544   0.218E+00    0.208E-01
DAV:   3    -0.325189501531E+02    0.42145E-03   -0.41395E-03   392   0.126E+00    0.120E-01
DAV:   4    -0.325189024934E+02    0.47660E-04   -0.71088E-04   380   0.374E-01
  19 F= -.32518902E+02 E0= -.32508062E+02  d E =-.184548E-02  mag=     0.0016
       N       E                     dE             d eps       ncg     rms          rms(c)
DAV:   1    -0.325181926456E+02    0.75751E-03   -0.61144E-01   396   0.265E+00    0.835E-02
DAV:   2    -0.325190325018E+02   -0.83986E-03   -0.98320E-03   540   0.816E-01    0.931E-02
DAV:   3    -0.325189625147E+02    0.69987E-04   -0.58748E-04   348   0.532E-01
  20 F= -.32518963E+02 E0= -.32508177E+02  d E =-.190550E-02  mag=     0.0015
       N       E                     dE             d eps       ncg     rms          rms(c)
DAV:   1    -0.325152737831E+02    0.37587E-02   -0.25052E+00   376   0.540E+00    0.107E-01
DAV:   2    -0.325194526454E+02   -0.41789E-02   -0.43960E-02   552   0.150E+00    0.126E-01
DAV:   3    -0.325193426555E+02    0.10999E-03   -0.18359E-03   380   0.818E-01    0.788E-02
DAV:   4    -0.325193223476E+02    0.20308E-04   -0.31390E-04   288   0.349E-01
  21 F= -.32519322E+02 E0= -.32508320E+02  d E =-.359833E-03  mag=     0.0014
       N       E                     dE             d eps       ncg     rms          rms(c)
DAV:   1    -0.325186706454E+02    0.67201E-03   -0.58569E-01   392   0.261E+00    0.646E-02
DAV:   2    -0.325197397806E+02   -0.10691E-02   -0.11119E-02   552   0.982E-01    0.692E-02
DAV:   3    -0.325197014335E+02    0.38347E-04   -0.76367E-04   356   0.701E-01
  22 F= -.32519701E+02 E0= -.32508783E+02  d E =-.738919E-03  mag=     0.0013
