unknown system                          
            1
    21.961520    0.000000    0.000000
     0.000000   25.360315    0.000000
     0.000000    0.000000   24.499665
   Cu
    13
Direct configuration=     1
   0.58236023  0.43992195  0.52991447
   0.51448145  0.50956677  0.56804936
   0.54425402  0.50621033  0.46731692
   0.47494702  0.60296442  0.56563600
   0.51036634  0.41714967  0.59969249
   0.51919929  0.55096303  0.38280866
   0.57211815  0.58127442  0.52335290
   0.44086159  0.50106784  0.42916753
   0.47199067  0.44022029  0.50543501
   0.41028788  0.45386085  0.58797355
   0.47908204  0.58683804  0.46686043
   0.42957652  0.53930121  0.62627414
   0.41638455  0.52790690  0.52373264
Direct configuration=     2
   0.58178110  0.44030176  0.52974779
   0.51424040  0.50922909  0.56821781
   0.54416223  0.50633076  0.46705430
   0.47468313  0.60232882  0.56514609
   0.50988578  0.41694730  0.59953857
   0.51912365  0.55097132  0.38317168
   0.57170020  0.58128305  0.52277759
   0.44159471  0.50132284  0.42982474
   0.47197873  0.44067632  0.50588514
   0.41106077  0.45379485  0.58788254
   0.47962097  0.58684941  0.46681384
   0.42960112  0.53938962  0.62613668
   0.41647695  0.52782059  0.52401732
Direct configuration=     3
   0.58045043  0.44117445  0.52936483
   0.51368655  0.50845322  0.56860486
   0.54395135  0.50660747  0.46645089
   0.47407680  0.60086841  0.56402044
   0.50878160  0.41648230  0.59918492
   0.51894986  0.55099036  0.38400576
   0.57073990  0.58130288  0.52145573
   0.44327920  0.50190875  0.43133479
   0.47195130  0.44172412  0.50691939
   0.41283662  0.45364322  0.58767343
   0.48085925  0.58687552  0.46670678
   0.42965764  0.53959276  0.62582085
   0.41668926  0.52762229  0.52467140
Direct configuration=     4
   0.58064404  0.44104748  0.52942055
   0.51376714  0.50856610  0.56854855
   0.54398203  0.50656721  0.46653869
   0.47416502  0.60108089  0.56418422
   0.50894225  0.41654995  0.59923638
   0.51897514  0.55098759  0.38388441
   0.57087962  0.58129999  0.52164805
   0.44303411  0.50182350  0.43111509
   0.47195529  0.44157167  0.50676891
   0.41257824  0.45366528  0.58770385
   0.48067909  0.58687172  0.46672236
   0.42964942  0.53956321  0.62586681
   0.41665837  0.52765115  0.52457624
Direct configuration=     5
   0.58017676  0.44142932  0.52917419
   0.51386921  0.50850868  0.56904818
   0.54461601  0.50639005  0.46651510
   0.47385015  0.60062809  0.56358758
   0.50899787  0.41566060  0.59934350
   0.51923708  0.55121172  0.38359343
   0.57070498  0.58136416  0.52101057
   0.44327918  0.50194144  0.43176838
   0.47184533  0.44164567  0.50675655
   0.41267038  0.45369922  0.58806364
   0.48090215  0.58740683  0.46656383
   0.42944769  0.53965135  0.62609520
   0.41631296  0.52770860  0.52469391
Direct configuration=     6
   0.57943503  0.44203544  0.52878314
   0.51403125  0.50841752  0.56984127
   0.54562236  0.50610884  0.46647767
   0.47335035  0.59990934  0.56264051
   0.50908617  0.41424887  0.59951354
   0.51965287  0.55156750  0.38313155
   0.57042776  0.58146602  0.51999866
   0.44366820  0.50212865  0.43280539
   0.47167077  0.44176314  0.50673694
   0.41281664  0.45375311  0.58863475
   0.48125623  0.58825623  0.46631220
   0.42912747  0.53979127  0.62645775
   0.41576467  0.52779979  0.52488071
Direct configuration=     7
   0.57929054  0.44192030  0.52903688
   0.51390744  0.50826581  0.57057955
   0.54623186  0.50640424  0.46573400
   0.47300770  0.59983592  0.56230042
   0.50925795  0.41307222  0.59928683
   0.51991110  0.55164938  0.38315706
   0.57065964  0.58158896  0.51963501
   0.44407058  0.50262995  0.43313835
   0.47140350  0.44167251  0.50695590
   0.41312809  0.45391562  0.58919313
   0.48100687  0.58866398  0.46532213
   0.42873631  0.53992724  0.62685263
   0.41529818  0.52769960  0.52502221
Direct configuration=     8
   0.57920882  0.44185519  0.52918037
   0.51383743  0.50818002  0.57099706
   0.54657654  0.50657129  0.46531344
   0.47281392  0.59979440  0.56210809
   0.50935510  0.41240681  0.59915862
   0.52005714  0.55169569  0.38317149
   0.57079077  0.58165849  0.51942936
   0.44429813  0.50291344  0.43332664
   0.47125235  0.44162125  0.50707972
   0.41330423  0.45400752  0.58950890
   0.48086585  0.58889458  0.46476223
   0.42851510  0.54000413  0.62707593
   0.41503437  0.52764293  0.52510223
Direct configuration=     9
   0.57908486  0.44179961  0.52938812
   0.51349881  0.50793309  0.57110472
   0.54693126  0.50656095  0.46528001
   0.47286729  0.59979907  0.56176991
   0.50929501  0.41168899  0.59867185
   0.52036725  0.55169575  0.38281693
   0.57046395  0.58158650  0.51943239
   0.44439638  0.50327325  0.43323133
   0.47132276  0.44182411  0.50738157
   0.41398419  0.45413157  0.59007414
   0.48050768  0.58919947  0.46453324
   0.42816488  0.54026802  0.62730935
   0.41502543  0.52748536  0.52522054
Direct configuration=    10
   0.57892019  0.44172578  0.52966408
   0.51304903  0.50760509  0.57124771
   0.54740244  0.50654723  0.46523560
   0.47293819  0.59980528  0.56132070
   0.50921520  0.41073550  0.59802527
   0.52077916  0.55169583  0.38234596
   0.57002984  0.58149088  0.51943642
   0.44452688  0.50375119  0.43310472
   0.47141628  0.44209357  0.50778253
   0.41488739  0.45429633  0.59082494
   0.48003192  0.58960446  0.46422906
   0.42769968  0.54061854  0.62761940
   0.41501355  0.52727604  0.52537770
Direct configuration=    11
   0.57908467  0.44173736  0.52970949
   0.51283559  0.50758774  0.57134847
   0.54728341  0.50648921  0.46527550
   0.47278446  0.59978033  0.56125989
   0.50925352  0.40977837  0.59753154
   0.52111058  0.55167499  0.38231594
   0.56953125  0.58130024  0.51951087
   0.44472872  0.50399724  0.43305299
   0.47141718  0.44233998  0.50756431
   0.41552884  0.45450424  0.59166506
   0.47986899  0.58968462  0.46400034
   0.42740988  0.54114484  0.62759074
   0.41507266  0.52722655  0.52538895
Direct configuration=    12
   0.57950886  0.44176725  0.52982658
   0.51228517  0.50754299  0.57160832
   0.54697648  0.50633957  0.46537839
   0.47238801  0.59971599  0.56110307
   0.50935236  0.40731012  0.59625829
   0.52196524  0.55162125  0.38223852
   0.56824545  0.58080861  0.51970288
   0.44524923  0.50463178  0.43291958
   0.47141949  0.44297543  0.50700158
   0.41718301  0.45504041  0.59383160
   0.47944879  0.58989134  0.46341052
   0.42666254  0.54250208  0.62751683
   0.41522512  0.52709891  0.52541795
Direct configuration=    13
   0.57925612  0.44197036  0.52975444
   0.51284745  0.50725111  0.57175412
   0.54693824  0.50616841  0.46542699
   0.47186581  0.60028098  0.56123737
   0.50937763  0.40745593  0.59565512
   0.52222731  0.55170131  0.38264618
   0.56880543  0.58070749  0.51983910
   0.44452765  0.50408483  0.43259141
   0.47125275  0.44261256  0.50745516
   0.41766370  0.45512353  0.59341242
   0.47966823  0.58993343  0.46367211
   0.42650934  0.54286756  0.62741491
   0.41497009  0.52708823  0.52535475
Direct configuration=    14
   0.57925640  0.44197013  0.52975452
   0.51284682  0.50725144  0.57175396
   0.54693829  0.50616860  0.46542693
   0.47186640  0.60028034  0.56123722
   0.50937760  0.40745577  0.59565580
   0.52222702  0.55170122  0.38264573
   0.56880480  0.58070760  0.51983895
   0.44452846  0.50408544  0.43259178
   0.47125294  0.44261297  0.50745465
   0.41766316  0.45512343  0.59341289
   0.47966799  0.58993338  0.46367182
   0.42650951  0.54286715  0.62741502
   0.41497038  0.52708825  0.52535482
Direct configuration=    15
   0.57945363  0.44208160  0.52950610
   0.51304333  0.50751862  0.57186624
   0.54636125  0.50610607  0.46542221
   0.47166623  0.60060301  0.56104551
   0.50953769  0.40720409  0.59532465
   0.52242012  0.55172772  0.38321134
   0.56893753  0.58047623  0.52013605
   0.44431995  0.50374615  0.43259333
   0.47095042  0.44238713  0.50737062
   0.41783234  0.45548785  0.59324766
   0.47992587  0.58960907  0.46406384
   0.42635572  0.54312633  0.62714347
   0.41510566  0.52717186  0.52528306
Direct configuration=    16
   0.57954139  0.44213120  0.52939557
   0.51313077  0.50763750  0.57191619
   0.54610450  0.50607825  0.46542011
   0.47157717  0.60074657  0.56096021
   0.50960892  0.40709211  0.59517731
   0.52250604  0.55173951  0.38346300
   0.56899658  0.58037328  0.52026825
   0.44422718  0.50359518  0.43259402
   0.47081582  0.44228665  0.50733324
   0.41790761  0.45564999  0.59317414
   0.48004061  0.58946477  0.46423826
   0.42628730  0.54324165  0.62702265
   0.41516586  0.52720906  0.52525114
Direct configuration=    17
   0.57952561  0.44229242  0.52921602
   0.51296389  0.50772777  0.57176617
   0.54582043  0.50588856  0.46587023
   0.47164197  0.60101611  0.56083971
   0.50956924  0.40684286  0.59491735
   0.52259028  0.55185437  0.38344237
   0.56899712  0.57998994  0.52064334
   0.44414560  0.50356199  0.43259781
   0.47087952  0.44227011  0.50727247
   0.41814225  0.45581733  0.59331245
   0.48002989  0.58910761  0.46437851
   0.42610820  0.54353729  0.62677398
   0.41549576  0.52733938  0.52518367
Direct configuration=    18
   0.57952339  0.44231512  0.52919074
   0.51294039  0.50774048  0.57174505
   0.54578043  0.50586185  0.46593361
   0.47165109  0.60105406  0.56082274
   0.50956365  0.40680777  0.59488075
   0.52260214  0.55187054  0.38343947
   0.56899720  0.57993597  0.52069616
   0.44413411  0.50355732  0.43259835
   0.47088849  0.44226778  0.50726392
   0.41817528  0.45584089  0.59333192
   0.48002838  0.58905732  0.46439825
   0.42608299  0.54357891  0.62673897
   0.41554221  0.52735772  0.52517417
Direct configuration=    19
   0.57958683  0.44223237  0.52938119
   0.51273284  0.50766600  0.57168201
   0.54555364  0.50597095  0.46592892
   0.47174682  0.60145257  0.56084276
   0.50946609  0.40649817  0.59457857
   0.52263300  0.55184553  0.38346074
   0.56906126  0.57958542  0.52106243
   0.44415302  0.50362415  0.43239940
   0.47090960  0.44218896  0.50729102
   0.41848257  0.45591295  0.59362911
   0.48002520  0.58884046  0.46431335
   0.42584584  0.54393349  0.62648304
   0.41571305  0.52749471  0.52516155
Direct configuration=    20
   0.57960968  0.44220258  0.52944976
   0.51265811  0.50763919  0.57165931
   0.54547199  0.50601023  0.46592723
   0.47178128  0.60159604  0.56084997
   0.50943096  0.40638670  0.59446978
   0.52264411  0.55183652  0.38346840
   0.56908433  0.57945922  0.52119430
   0.44415983  0.50364821  0.43232778
   0.47091720  0.44216058  0.50730078
   0.41859319  0.45593890  0.59373610
   0.48002406  0.58876239  0.46428278
   0.42576046  0.54406115  0.62639089
   0.41577455  0.52754403  0.52515700
Direct configuration=    21
   0.57957310  0.44230826  0.52942842
   0.51278576  0.50761244  0.57183158
   0.54576646  0.50581422  0.46592886
   0.47178879  0.60164063  0.56071144
   0.50941497  0.40608102  0.59451108
   0.52271768  0.55180411  0.38322498
   0.56900699  0.57957542  0.52114619
   0.44396776  0.50346370  0.43233461
   0.47078275  0.44221727  0.50721420
   0.41859865  0.45601837  0.59388958
   0.48015265  0.58912959  0.46450129
   0.42569815  0.54406245  0.62635299
   0.41565605  0.52751826  0.52513887
Direct configuration=    22
   0.57959086  0.44225694  0.52943878
   0.51272377  0.50762543  0.57174792
   0.54562345  0.50590941  0.46592807
   0.47178514  0.60161897  0.56077872
   0.50942274  0.40622947  0.59449103
   0.52268195  0.55181985  0.38334320
   0.56904455  0.57951899  0.52116955
   0.44406103  0.50355331  0.43233129
   0.47084804  0.44218974  0.50725625
   0.41859600  0.45597978  0.59381504
   0.48009020  0.58895126  0.46439518
   0.42572841  0.54406182  0.62637140
   0.41571360  0.52753077  0.52514767
