   7   7   0   0
  0.1431710E+04  0.2143395E-08  0.2140828E-08  0.2184083E-08  0.5000000E-15
   1.0000000000000000E-004
  CAR 
 unknown system                          
      1.20210659    -14.31375272  301     -4.00142691      1.00000000
    -14.314  0.0000E+00  0.0000E+00  0.0000E+00  0.0000E+00
    -14.262  0.0000E+00  0.0000E+00  0.0000E+00  0.0000E+00
    -14.210  0.0000E+00  0.0000E+00  0.0000E+00  0.0000E+00
    -14.159  0.0000E+00  0.0000E+00  0.0000E+00  0.0000E+00
    -14.107  0.0000E+00  0.0000E+00  0.0000E+00  0.0000E+00
    -14.055  0.0000E+00  0.0000E+00  0.0000E+00  0.0000E+00
    -14.003  0.0000E+00  0.0000E+00  0.0000E+00  0.0000E+00
    -13.952 -0.3315E-30  0.0000E+00 -0.1715E-31  0.0000E+00
    -13.900 -0.2042E-28  0.0000E+00 -0.1073E-29  0.0000E+00
    -13.848 -0.1115E-26 -0.1786E-30 -0.5872E-28 -0.9235E-32
    -13.797 -0.5314E-25 -0.1122E-28 -0.2807E-26 -0.5896E-30
    -13.745 -0.2213E-23 -0.6248E-27 -0.1172E-24 -0.3290E-28
    -13.693 -0.8046E-22 -0.3038E-25 -0.4278E-23 -0.1604E-26
    -13.641 -0.2554E-20 -0.1291E-23 -0.1364E-21 -0.6835E-25
    -13.590 -0.7079E-19 -0.4787E-22 -0.3798E-20 -0.2544E-23
    -13.538 -0.1712E-17 -0.1550E-20 -0.9236E-19 -0.8273E-22
    -13.486 -0.3506E-16 -0.4383E-19 -0.1906E-17 -0.2350E-20
    -13.435 -0.6438E-15 -0.1082E-17 -0.3520E-16 -0.5829E-19
    -13.383 -0.1031E-13 -0.2222E-16 -0.5684E-15 -0.1207E-17
    -13.331 -0.1437E-12 -0.4246E-15 -0.8000E-14 -0.2317E-16
    -13.279 -0.1744E-11 -0.6920E-14 -0.9820E-13 -0.3811E-15
    -13.228 -0.1841E-10 -0.9844E-13 -0.1051E-11 -0.5472E-14
    -13.176 -0.1690E-09 -0.1219E-11 -0.9792E-11 -0.6853E-13
    -13.124 -0.1347E-08 -0.1314E-10 -0.7946E-10 -0.7482E-12
    -13.072 -0.9309E-08 -0.1231E-09 -0.5609E-09 -0.7116E-11
    -13.021 -0.5569E-07 -0.1002E-08 -0.3441E-08 -0.5894E-10
    -12.969 -0.2877E-06 -0.7072E-08 -0.1832E-07 -0.4247E-09
    -12.917 -0.1279E-05 -0.4322E-07 -0.8449E-07 -0.2660E-08
    -12.866 -0.4875E-05 -0.2282E-06 -0.3366E-06 -0.1446E-07
    -12.814 -0.1581E-04 -0.1037E-05 -0.1155E-05 -0.6812E-07
    -12.762 -0.4319E-04 -0.4045E-05 -0.3388E-05 -0.2773E-06
    -12.710 -0.9748E-04 -0.1344E-04 -0.8430E-05 -0.9726E-06
    -12.659 -0.1749E-03 -0.3769E-04 -0.1748E-04 -0.2922E-05
    -12.607 -0.2252E-03 -0.8764E-04 -0.2913E-04 -0.7455E-05
    -12.555 -0.1215E-03 -0.1633E-03 -0.3541E-04 -0.1590E-04
    -12.504  0.3172E-03 -0.2236E-03 -0.1900E-04 -0.2746E-04
    -12.452  0.1208E-02 -0.1533E-03  0.4349E-04 -0.3539E-04
    -12.400  0.2438E-02  0.2255E-03  0.1696E-03 -0.2373E-04
    -12.348  0.3600E-02  0.1050E-02  0.3558E-03  0.3058E-04
    -12.297  0.4179E-02  0.2249E-02  0.5719E-03  0.1469E-03
    -12.245  0.3885E-02  0.3454E-02  0.7728E-03  0.3256E-03
    -12.193  0.2867E-02  0.4146E-02  0.9211E-03  0.5400E-03
    -12.142  0.1604E-02  0.3982E-02  0.1004E-02  0.7460E-03
    -12.090  0.5691E-03  0.3045E-02  0.1034E-02  0.9035E-03
    -12.038 -0.1874E-04  0.1784E-02  0.1033E-02  0.9957E-03
    -11.986 -0.2159E-03  0.6948E-03  0.1021E-02  0.1032E-02
    -11.935 -0.1997E-03  0.3957E-04  0.1011E-02  0.1034E-02
    -11.883 -0.1224E-03 -0.2048E-03  0.1005E-02  0.1023E-02
    -11.831 -0.5829E-04 -0.2087E-03  0.1002E-02  0.1012E-02
    -11.779 -0.2271E-04 -0.1339E-03  0.1001E-02  0.1005E-02
    -11.728 -0.7411E-05 -0.6587E-04  0.1000E-02  0.1002E-02
    -11.676 -0.2053E-05 -0.2638E-04  0.1000E-02  0.1001E-02
    -11.624 -0.4862E-06 -0.8829E-05  0.1000E-02  0.1000E-02
    -11.573 -0.9899E-07 -0.2503E-05  0.1000E-02  0.1000E-02
    -11.521 -0.1739E-07 -0.6065E-06  0.1000E-02  0.1000E-02
    -11.469 -0.2642E-08 -0.1262E-06  0.1000E-02  0.1000E-02
    -11.417 -0.3480E-09 -0.2266E-07  0.1000E-02  0.1000E-02
    -11.366 -0.3977E-10 -0.3516E-08  0.1000E-02  0.1000E-02
    -11.314 -0.3950E-11 -0.4728E-09  0.1000E-02  0.1000E-02
    -11.262 -0.3412E-12 -0.5517E-10  0.1000E-02  0.1000E-02
    -11.211 -0.2566E-13 -0.5594E-11  0.1000E-02  0.1000E-02
    -11.159 -0.1683E-14 -0.4932E-12  0.1000E-02  0.1000E-02
    -11.107 -0.9445E-16 -0.3785E-13  0.1000E-02  0.1000E-02
    -11.055 -0.4293E-17 -0.2533E-14  0.1000E-02  0.1000E-02
    -11.004 -0.2852E-20 -0.1460E-15  0.1000E-02  0.1000E-02
    -10.952 -0.7870E-19 -0.8586E-17  0.1000E-02  0.1000E-02
    -10.900 -0.1895E-17 -0.9123E-24  0.1000E-02  0.1000E-02
    -10.849 -0.3874E-16 -0.3428E-22  0.1000E-02  0.1000E-02
    -10.797 -0.7061E-15 -0.1124E-20  0.1000E-02  0.1000E-02
    -10.745 -0.1126E-13 -0.3220E-19  0.1000E-02  0.1000E-02
    -10.693 -0.1562E-12 -0.8048E-18  0.1000E-02  0.1000E-02
    -10.642 -0.1887E-11 -0.1755E-16  0.1000E-02  0.1000E-02
    -10.590 -0.1984E-10 -0.3232E-15  0.1000E-02  0.1000E-02
    -10.538 -0.1812E-09 -0.5353E-14  0.1000E-02  0.1000E-02
    -10.487 -0.1438E-08 -0.7714E-13  0.1000E-02  0.1000E-02
    -10.435 -0.9890E-08 -0.9680E-12  0.1000E-02  0.1000E-02
    -10.383 -0.5888E-07 -0.1057E-10  0.1000E-02  0.1000E-02
    -10.331 -0.3027E-06 -0.1004E-09  0.1000E-02  0.1000E-02
    -10.280 -0.1340E-05 -0.8276E-09  0.9999E-03  0.1000E-02
    -10.228 -0.5079E-05 -0.5921E-08  0.9996E-03  0.1000E-02
    -10.176 -0.1638E-04 -0.3668E-07  0.9988E-03  0.1000E-02
    -10.124 -0.4449E-04 -0.1963E-06  0.9965E-03  0.1000E-02
    -10.073 -0.9974E-04 -0.9055E-06  0.9913E-03  0.9999E-03
    -10.021 -0.1774E-03 -0.3583E-05  0.9822E-03  0.9998E-03
     -9.969 -0.2252E-03 -0.1209E-04  0.9705E-03  0.9991E-03
     -9.918 -0.1135E-03 -0.3447E-04  0.9646E-03  0.9973E-03
     -9.866  0.3390E-03 -0.8166E-04  0.9822E-03  0.9931E-03
     -9.814  0.1245E-02 -0.1557E-03  0.1047E-02  0.9851E-03
     -9.762  0.2479E-02 -0.2210E-03  0.1175E-02  0.9736E-03
     -9.711  0.3631E-02 -0.1702E-03  0.1363E-02  0.9648E-03
     -9.659  0.4184E-02  0.1719E-03  0.1579E-02  0.9737E-03
     -9.607  0.3861E-02  0.9533E-03  0.1779E-02  0.1023E-02
     -9.556  0.2827E-02  0.2128E-02  0.1925E-02  0.1133E-02
     -9.504  0.1563E-02  0.3355E-02  0.2006E-02  0.1307E-02
     -9.452  0.5378E-03  0.4114E-02  0.2033E-02  0.1519E-02
     -9.400 -0.4714E-04  0.4030E-02  0.2031E-02  0.1728E-02
     -9.349 -0.2665E-03  0.3139E-02  0.2017E-02  0.1890E-02
     -9.297 -0.3175E-03  0.1852E-02  0.2001E-02  0.1986E-02
     -9.245 -0.3612E-03  0.6576E-03  0.1982E-02  0.2020E-02
     -9.194 -0.4321E-03 -0.1664E-03  0.1960E-02  0.2011E-02
     -9.142 -0.3968E-03 -0.5817E-03  0.1939E-02  0.1981E-02
     -9.090  0.3495E-04 -0.5991E-03  0.1941E-02  0.1950E-02
     -9.038  0.1185E-02 -0.9279E-04  0.2002E-02  0.1945E-02
     -8.987  0.3143E-02  0.1165E-02  0.2165E-02  0.2006E-02
     -8.935  0.5514E-02  0.3225E-02  0.2450E-02  0.2173E-02
     -8.883  0.7449E-02  0.5661E-02  0.2835E-02  0.2465E-02
     -8.831  0.8086E-02  0.7595E-02  0.3254E-02  0.2858E-02
     -8.780  0.7116E-02  0.8157E-02  0.3622E-02  0.3280E-02
     -8.728  0.5004E-02  0.7073E-02  0.3880E-02  0.3646E-02
     -8.676  0.2663E-02  0.4872E-02  0.4018E-02  0.3898E-02
     -8.625  0.8670E-03  0.2505E-02  0.4063E-02  0.4027E-02
     -8.573 -0.1006E-03  0.7439E-03  0.4058E-02  0.4066E-02
     -8.521 -0.3988E-03 -0.1655E-03  0.4037E-02  0.4057E-02
     -8.469 -0.3506E-03 -0.4169E-03  0.4019E-02  0.4036E-02
     -8.418 -0.2114E-03 -0.3455E-03  0.4008E-02  0.4018E-02
     -8.366 -0.1003E-03 -0.2013E-03  0.4003E-02  0.4007E-02
     -8.314 -0.3924E-04 -0.9286E-04  0.4001E-02  0.4003E-02
     -8.263 -0.1292E-04 -0.3539E-04  0.4000E-02  0.4001E-02
     -8.211 -0.3628E-05 -0.1137E-04  0.4000E-02  0.4000E-02
     -8.159 -0.8740E-06 -0.3115E-05  0.4000E-02  0.4000E-02
     -8.107 -0.1815E-06 -0.7324E-06  0.4000E-02  0.4000E-02
     -8.056 -0.3262E-07 -0.1485E-06  0.4000E-02  0.4000E-02
     -8.004 -0.5080E-08 -0.2605E-07  0.4000E-02  0.4000E-02
     -7.952 -0.6870E-09 -0.3961E-08  0.4000E-02  0.4000E-02
     -7.901 -0.8077E-10 -0.5231E-09  0.4000E-02  0.4000E-02
     -7.849 -0.8263E-11 -0.6006E-10  0.4000E-02  0.4000E-02
     -7.797 -0.7363E-12 -0.6002E-11  0.4000E-02  0.4000E-02
     -7.745 -0.5790E-13 -0.5225E-12  0.4000E-02  0.4000E-02
     -7.694 -0.1566E-13 -0.3963E-13  0.4000E-02  0.4000E-02
     -7.642 -0.1635E-12 -0.2623E-14  0.4000E-02  0.4000E-02
     -7.590 -0.1967E-11 -0.1503E-15  0.4000E-02  0.4000E-02
     -7.538 -0.2063E-10 -0.8652E-17  0.4000E-02  0.4000E-02
     -7.487 -0.1880E-09 -0.1585E-17  0.4000E-02  0.4000E-02
     -7.435 -0.1488E-08 -0.3248E-16  0.4000E-02  0.4000E-02
     -7.383 -0.1021E-07 -0.6005E-15  0.4000E-02  0.4000E-02
     -7.332 -0.6064E-07 -0.9639E-14  0.4000E-02  0.4000E-02
     -7.280 -0.3110E-06 -0.1348E-12  0.4000E-02  0.4000E-02
     -7.228 -0.1372E-05 -0.1642E-11  0.4000E-02  0.4000E-02
     -7.176 -0.5189E-05 -0.1740E-10  0.4000E-02  0.4000E-02
     -7.125 -0.1669E-04 -0.1602E-09  0.3999E-02  0.4000E-02
     -7.073 -0.4519E-04 -0.1282E-08  0.3996E-02  0.4000E-02
     -7.021 -0.1009E-03 -0.8888E-08  0.3991E-02  0.4000E-02
     -6.970 -0.1788E-03 -0.5336E-07  0.3982E-02  0.4000E-02
     -6.918 -0.2251E-03 -0.2767E-06  0.3970E-02  0.4000E-02
     -6.866 -0.1091E-03 -0.1235E-05  0.3965E-02  0.4000E-02
     -6.814  0.3506E-03 -0.4725E-05  0.3983E-02  0.4000E-02
     -6.763  0.1264E-02 -0.1539E-04  0.4048E-02  0.3999E-02
     -6.711  0.2501E-02 -0.4222E-04  0.4178E-02  0.3997E-02
     -6.659  0.3646E-02 -0.9580E-04  0.4366E-02  0.3992E-02
     -6.608  0.4185E-02 -0.1731E-03  0.4583E-02  0.3983E-02
     -6.556  0.3844E-02 -0.2258E-03  0.4781E-02  0.3971E-02
     -6.504  0.2790E-02 -0.1300E-03  0.4926E-02  0.3964E-02
     -6.452  0.1498E-02  0.2915E-03  0.5003E-02  0.3979E-02
     -6.401  0.4161E-03  0.1151E-02  0.5025E-02  0.4039E-02
     -6.349 -0.2633E-03  0.2325E-02  0.5011E-02  0.4159E-02
     -6.297 -0.5729E-03  0.3396E-02  0.4981E-02  0.4335E-02
     -6.246 -0.5568E-03  0.3853E-02  0.4953E-02  0.4534E-02
     -6.194 -0.1032E-03  0.3488E-02  0.4947E-02  0.4715E-02
     -6.142  0.1014E-02  0.2666E-02  0.5000E-02  0.4852E-02
     -6.090  0.2884E-02  0.2187E-02  0.5149E-02  0.4966E-02
     -6.039  0.5180E-02  0.2763E-02  0.5417E-02  0.5108E-02
     -5.987  0.7142E-02  0.4457E-02  0.5786E-02  0.5339E-02
     -5.935  0.7941E-02  0.6528E-02  0.6197E-02  0.5677E-02
     -5.883  0.7206E-02  0.7852E-02  0.6570E-02  0.6083E-02
     -5.832  0.5282E-02  0.7648E-02  0.6843E-02  0.6478E-02
     -5.780  0.2997E-02  0.5979E-02  0.6998E-02  0.6787E-02
     -5.728  0.1132E-02  0.3630E-02  0.7056E-02  0.6975E-02
     -5.677  0.4389E-04  0.1526E-02  0.7059E-02  0.7054E-02
     -5.625 -0.3564E-03  0.1997E-03  0.7040E-02  0.7064E-02
     -5.573 -0.3657E-03 -0.3462E-03  0.7021E-02  0.7047E-02
     -5.521 -0.2565E-03 -0.4081E-03  0.7008E-02  0.7025E-02
     -5.470 -0.1845E-03 -0.3008E-03  0.6998E-02  0.7010E-02
     -5.418 -0.2096E-03 -0.2192E-03  0.6988E-02  0.6999E-02
     -5.366 -0.3339E-03 -0.2421E-03  0.6970E-02  0.6986E-02
     -5.315 -0.4909E-03 -0.3721E-03  0.6945E-02  0.6967E-02
     -5.263 -0.4875E-03 -0.5263E-03  0.6920E-02  0.6940E-02
     -5.211  0.2975E-04 -0.4784E-03  0.6921E-02  0.6915E-02
     -5.159  0.1469E-02  0.1618E-03  0.6997E-02  0.6923E-02
     -5.108  0.4007E-02  0.1809E-02  0.7205E-02  0.7017E-02
     -5.056  0.7257E-02  0.4574E-02  0.7580E-02  0.7253E-02
     -5.004  0.1021E-01  0.7933E-02  0.8108E-02  0.7664E-02
     -4.953  0.1167E-01  0.1075E-01  0.8712E-02  0.8220E-02
     -4.901  0.1095E-01  0.1183E-01  0.9278E-02  0.8832E-02
     -4.849  0.8356E-02  0.1064E-01  0.9710E-02  0.9382E-02
     -4.797  0.5001E-02  0.7732E-02  0.9969E-02  0.9782E-02
     -4.746  0.2082E-02  0.4325E-02  0.1008E-01  0.1001E-01
     -4.694  0.2546E-03  0.1579E-02  0.1009E-01  0.1009E-01
     -4.642 -0.5089E-03  0.2873E-05  0.1006E-01  0.1009E-01
     -4.590 -0.6253E-03 -0.5521E-03  0.1003E-01  0.1006E-01
     -4.539 -0.5189E-03 -0.5346E-03  0.1000E-01  0.1003E-01
     -4.487 -0.4095E-03 -0.3387E-03  0.9983E-02  0.1001E-01
     -4.435 -0.2833E-03 -0.1666E-03  0.9968E-02  0.1001E-01
     -4.384  0.3230E-04 -0.6715E-04  0.9970E-02  0.1000E-01
     -4.332  0.7315E-03 -0.2270E-04  0.1001E-01  0.1000E-01
     -4.280  0.1845E-02 -0.6521E-05  0.1010E-01  0.1000E-01
     -4.228  0.3105E-02 -0.1604E-05  0.1026E-01  0.1000E-01
     -4.177  0.4011E-02 -0.3411E-06  0.1047E-01  0.1000E-01
     -4.125  0.4131E-02 -0.7269E-07  0.1068E-01  0.1000E-01
     -4.073  0.3401E-02 -0.7278E-07  0.1086E-01  0.1000E-01
     -4.022  0.2184E-02 -0.3238E-06  0.1097E-01  0.1000E-01
     -3.970  0.9961E-03 -0.1423E-05  0.1103E-01  0.1000E-01
     -3.918  0.1904E-03 -0.5388E-05  0.1103E-01  0.1000E-01
     -3.866 -0.1814E-03 -0.1742E-04  0.1103E-01  0.9999E-02
     -3.815 -0.2738E-03 -0.4763E-04  0.1101E-01  0.9996E-02
     -3.763 -0.2781E-03 -0.1087E-03  0.1100E-01  0.9991E-02
     -3.711 -0.3076E-03 -0.2017E-03  0.1098E-01  0.9980E-02
     -3.660 -0.3548E-03 -0.2859E-03  0.1096E-01  0.9965E-02
     -3.608 -0.2825E-03 -0.2492E-03  0.1095E-01  0.9953E-02
     -3.556  0.1476E-03  0.8351E-04  0.1096E-01  0.9957E-02
     -3.504  0.1166E-02  0.8745E-03  0.1102E-01  0.1000E-01
     -3.453  0.2807E-02  0.2171E-02  0.1116E-01  0.1011E-01
     -3.401  0.4761E-02  0.3860E-02  0.1141E-01  0.1031E-01
     -3.349  0.6414E-02  0.5720E-02  0.1174E-01  0.1061E-01
     -3.297  0.7150E-02  0.7468E-02  0.1211E-01  0.1100E-01
     -3.246  0.6738E-02  0.8754E-02  0.1246E-01  0.1145E-01
     -3.194  0.5532E-02  0.9207E-02  0.1274E-01  0.1192E-01
     -3.142  0.4277E-02  0.8655E-02  0.1296E-01  0.1237E-01
     -3.091  0.3612E-02  0.7364E-02  0.1315E-01  0.1275E-01
     -3.039  0.3632E-02  0.5955E-02  0.1334E-01  0.1306E-01
     -2.987  0.3878E-02  0.4942E-02  0.1354E-01  0.1332E-01
     -2.935  0.3754E-02  0.4351E-02  0.1373E-01  0.1354E-01
     -2.884  0.3004E-02  0.3800E-02  0.1389E-01  0.1374E-01
     -2.832  0.1850E-02  0.2957E-02  0.1399E-01  0.1389E-01
     -2.780  0.7191E-03  0.1852E-02  0.1402E-01  0.1399E-01
     -2.729 -0.8950E-04  0.7856E-03  0.1402E-01  0.1403E-01
     -2.677 -0.5186E-03  0.1795E-04  0.1399E-01  0.1403E-01
     -2.625 -0.6048E-03 -0.4086E-03  0.1396E-01  0.1401E-01
     -2.573 -0.2790E-03 -0.5935E-03  0.1395E-01  0.1398E-01
     -2.522  0.6671E-03 -0.5720E-03  0.1398E-01  0.1395E-01
     -2.470  0.2378E-02 -0.1796E-03  0.1410E-01  0.1394E-01
     -2.418  0.4639E-02  0.8826E-03  0.1434E-01  0.1398E-01
     -2.367  0.6770E-02  0.2770E-02  0.1469E-01  0.1413E-01
     -2.315  0.7904E-02  0.5179E-02  0.1510E-01  0.1439E-01
     -2.263  0.7520E-02  0.7293E-02  0.1549E-01  0.1477E-01
     -2.211  0.5801E-02  0.8182E-02  0.1579E-01  0.1520E-01
     -2.160  0.3506E-02  0.7411E-02  0.1597E-01  0.1558E-01
     -2.108  0.1473E-02  0.5349E-02  0.1605E-01  0.1586E-01
     -2.056  0.1635E-03  0.2904E-02  0.1606E-01  0.1601E-01
     -2.005 -0.4340E-03  0.9179E-03  0.1603E-01  0.1605E-01
     -1.953 -0.5774E-03 -0.2386E-03  0.1600E-01  0.1604E-01
     -1.901 -0.4802E-03 -0.6235E-03  0.1598E-01  0.1601E-01
     -1.849 -0.1607E-03 -0.4212E-03  0.1597E-01  0.1599E-01
     -1.798  0.5032E-03  0.2706E-03  0.1600E-01  0.1600E-01
     -1.746  0.1573E-02  0.1390E-02  0.1608E-01  0.1607E-01
     -1.694  0.2851E-02  0.2717E-02  0.1623E-01  0.1621E-01
     -1.642  0.3878E-02  0.3806E-02  0.1643E-01  0.1641E-01
     -1.591  0.4180E-02  0.4185E-02  0.1664E-01  0.1663E-01
     -1.539  0.3607E-02  0.3678E-02  0.1683E-01  0.1682E-01
     -1.487  0.2447E-02  0.2548E-02  0.1696E-01  0.1695E-01
     -1.436  0.1215E-02  0.1304E-02  0.1702E-01  0.1702E-01
     -1.384  0.3171E-03  0.3737E-03  0.1704E-01  0.1704E-01
     -1.332 -0.1364E-03 -0.1069E-03  0.1703E-01  0.1703E-01
     -1.280 -0.2705E-03 -0.2475E-03  0.1701E-01  0.1702E-01
     -1.229 -0.2766E-03 -0.2398E-03  0.1700E-01  0.1700E-01
     -1.177 -0.2770E-03 -0.2259E-03  0.1699E-01  0.1699E-01
     -1.125 -0.2686E-03 -0.2464E-03  0.1697E-01  0.1698E-01
     -1.074 -0.1245E-03 -0.2333E-03  0.1697E-01  0.1697E-01
     -1.022  0.3474E-03 -0.2416E-04  0.1698E-01  0.1697E-01
     -0.970  0.1265E-02  0.5677E-03  0.1705E-01  0.1700E-01
     -0.918  0.2504E-02  0.1603E-02  0.1718E-01  0.1708E-01
     -0.867  0.3649E-02  0.2867E-02  0.1737E-01  0.1723E-01
     -0.815  0.4186E-02  0.3885E-02  0.1758E-01  0.1743E-01
     -0.763  0.3847E-02  0.4179E-02  0.1778E-01  0.1764E-01
     -0.712  0.2803E-02  0.3600E-02  0.1793E-01  0.1783E-01
     -0.660  0.1541E-02  0.2438E-02  0.1801E-01  0.1796E-01
     -0.608  0.5269E-03  0.1208E-02  0.1803E-01  0.1802E-01
     -0.556 -0.3733E-04  0.3172E-03  0.1803E-01  0.1804E-01
     -0.505 -0.2187E-03 -0.1215E-03  0.1802E-01  0.1803E-01
     -0.453 -0.1962E-03 -0.2252E-03  0.1801E-01  0.1802E-01
     -0.401 -0.1184E-03 -0.1749E-03  0.1800E-01  0.1801E-01
     -0.349 -0.5575E-04 -0.9748E-04  0.1800E-01  0.1800E-01
     -0.298 -0.2151E-04 -0.4319E-04  0.1800E-01  0.1800E-01
     -0.246 -0.6959E-05 -0.1581E-04  0.1800E-01  0.1800E-01
     -0.194 -0.1911E-05 -0.4875E-05  0.1800E-01  0.1800E-01
     -0.143 -0.4491E-06 -0.1279E-05  0.1800E-01  0.1800E-01
     -0.091 -0.9074E-07 -0.2877E-06  0.1800E-01  0.1800E-01
     -0.039 -0.1582E-07 -0.5569E-07  0.1800E-01  0.1800E-01
      0.013 -0.2386E-08 -0.9309E-08  0.1800E-01  0.1800E-01
      0.064 -0.3118E-09 -0.1347E-08  0.1800E-01  0.1800E-01
      0.116 -0.3538E-10 -0.1690E-09  0.1800E-01  0.1800E-01
      0.168 -0.3488E-11 -0.1841E-10  0.1800E-01  0.1800E-01
      0.219 -0.2992E-12 -0.1744E-11  0.1800E-01  0.1800E-01
      0.271 -0.2234E-13 -0.1437E-12  0.1800E-01  0.1800E-01
      0.323 -0.1451E-14 -0.1031E-13  0.1800E-01  0.1800E-01
      0.375 -0.8157E-16 -0.6440E-15  0.1800E-01  0.1800E-01
      0.426 -0.4293E-17 -0.3864E-16  0.1800E-01  0.1800E-01
      0.478  0.0000E+00  0.0000E+00  0.1800E-01  0.1800E-01
      0.530  0.0000E+00  0.0000E+00  0.1800E-01  0.1800E-01
      0.581  0.0000E+00  0.0000E+00  0.1800E-01  0.1800E-01
      0.633  0.0000E+00  0.0000E+00  0.1800E-01  0.1800E-01
      0.685  0.0000E+00  0.0000E+00  0.1800E-01  0.1800E-01
      0.737  0.0000E+00  0.0000E+00  0.1800E-01  0.1800E-01
      0.788  0.0000E+00  0.0000E+00  0.1800E-01  0.1800E-01
      0.840  0.0000E+00  0.0000E+00  0.1800E-01  0.1800E-01
      0.892  0.0000E+00  0.0000E+00  0.1800E-01  0.1800E-01
      0.944  0.0000E+00  0.0000E+00  0.1800E-01  0.1800E-01
      0.995  0.0000E+00  0.0000E+00  0.1800E-01  0.1800E-01
      1.047  0.0000E+00  0.0000E+00  0.1800E-01  0.1800E-01
      1.099  0.0000E+00  0.0000E+00  0.1800E-01  0.1800E-01
      1.150  0.0000E+00  0.0000E+00  0.1800E-01  0.1800E-01
      1.202  0.0000E+00  0.0000E+00  0.1800E-01  0.1800E-01
