    7    7 1000    2
  0.1431710E+04  0.2143395E-08  0.2140828E-08  0.2184083E-08  0.5000000E-15
   1.0000000000000000E-004
  CAR 
 unknown system                          
     21      1     18
 
  0.1262379E-14  0.1262379E-14  0.1262379E-14  0.1000000E+01
    1      -12.313753    -12.202718   1.000000   1.000000
    2       -9.677740     -9.456719   1.000000   1.000000
    3       -8.892133     -8.838663   1.000000   1.000000
    4       -8.833750     -8.789793   1.000000   1.000000
    5       -6.627176     -6.261283   1.000000   1.000000
    6       -5.996216     -5.918620   1.000000   1.000000
    7       -5.923707     -5.865713   1.000000   1.000000
    8       -5.030632     -4.984100   1.000000   1.000000
    9       -4.944586     -4.905742   1.000000   1.000000
   10       -4.938501     -4.898371   1.000000   1.000000
   11       -4.169874     -3.369890   1.000078  -0.000038
   12       -3.370998     -3.210779  -0.000039  -0.000000
   13       -3.260195     -3.165594  -0.000001  -0.000000
   14       -2.986436     -2.928500  -0.000000  -0.000000
   15       -2.363139     -2.259407  -0.000000  -0.000000
   16       -2.291880     -2.211052  -0.000000  -0.000000
   17       -1.625012     -1.620954  -0.000000  -0.000000
   18       -0.834714     -0.797893  -0.000000  -0.000000
