       N       E                     dE             d eps       ncg     rms          rms(c)
DAV:   1     0.416612682847E+02    0.41661E+02   -0.34043E+03   104   0.431E+02
DAV:   2    -0.852335838033E+01   -0.50185E+02   -0.49896E+02   118   0.622E+01
DAV:   3    -0.172354831975E+02   -0.87121E+01   -0.86734E+01    96   0.244E+01
DAV:   4    -0.175115692158E+02   -0.27609E+00   -0.27044E+00   102   0.629E+00
DAV:   5    -0.175165741538E+02   -0.50049E-02   -0.50017E-02    92   0.121E+00    0.606E+00
DAV:   6    -0.975390303584E+01    0.77627E+01   -0.16189E+01    72   0.137E+01    0.264E+00
DAV:   7    -0.107541583824E+02   -0.10003E+01   -0.36474E+00    78   0.699E+00    0.160E+00
DAV:   8    -0.107388008723E+02    0.15358E-01   -0.51168E-01    94   0.300E+00    0.119E+00
DAV:   9    -0.112714727005E+02   -0.53267E+00   -0.94503E-02    96   0.131E+00    0.109E+00
DAV:  10    -0.120113778639E+02   -0.73991E+00   -0.12904E-01    76   0.123E+00    0.112E+00
DAV:  11    -0.121767176102E+02   -0.16534E+00   -0.26342E-02    96   0.595E-01    0.116E+00
DAV:  12    -0.121090772905E+02    0.67640E-01   -0.28964E-02    78   0.654E-01    0.111E+00
DAV:  13    -0.121068126102E+02    0.22647E-02   -0.12737E-01    78   0.134E+00    0.102E+00
DAV:  14    -0.118142342338E+02    0.29258E+00   -0.27180E+00    76   0.627E+00    0.199E+00
DAV:  15    -0.132806161576E+02   -0.14664E+01   -0.22342E+00    74   0.540E+00    0.131E+00
DAV:  16    -0.141785686012E+02   -0.89795E+00   -0.46724E-01    78   0.234E+00    0.123E+00
DAV:  17    -0.146785235442E+02   -0.49995E+00   -0.25267E-01    88   0.170E+00    0.614E-01
DAV:  18    -0.149069066701E+02   -0.22838E+00   -0.51081E-02    76   0.924E-01    0.496E-01
DAV:  19    -0.154273319587E+02   -0.52043E+00   -0.22516E-01    76   0.163E+00    0.817E-01
DAV:  20    -0.158903898311E+02   -0.46306E+00   -0.98485E-02    86   0.106E+00    0.646E-01
DAV:  21    -0.162018477352E+02   -0.31146E+00   -0.60484E-02    74   0.857E-01    0.332E-01
DAV:  22    -0.162932207258E+02   -0.91373E-01   -0.18885E-02    96   0.541E-01    0.160E-01
DAV:  23    -0.163623912441E+02   -0.69171E-01   -0.59088E-03    72   0.346E-01    0.148E-01
DAV:  24    -0.164416389563E+02   -0.79248E-01   -0.65609E-03    76   0.293E-01    0.626E-02
DAV:  25    -0.164734851893E+02   -0.31846E-01   -0.25945E-03    88   0.177E-01    0.506E-02
DAV:  26    -0.164876322646E+02   -0.14147E-01   -0.48255E-04    80   0.927E-02    0.288E-02
DAV:  27    -0.164992385657E+02   -0.11606E-01   -0.62036E-04    88   0.819E-02    0.196E-02
DAV:  28    -0.165028424407E+02   -0.36039E-02   -0.11559E-04    56   0.404E-02    0.768E-03
DAV:  29    -0.165057225642E+02   -0.28801E-02   -0.85338E-05    76   0.272E-02    0.794E-03
DAV:  30    -0.165061456369E+02   -0.42307E-03   -0.27381E-05    44   0.187E-02    0.145E-02
DAV:  31    -0.165064582268E+02   -0.31259E-03   -0.17443E-05    52   0.141E-02    0.875E-03
DAV:  32    -0.165066610782E+02   -0.20285E-03   -0.28019E-05    44   0.182E-02    0.313E-03
DAV:  33    -0.165068533871E+02   -0.19231E-03   -0.91588E-06    42   0.101E-02    0.144E-03
DAV:  34    -0.165070160608E+02   -0.16267E-03   -0.53235E-06    40   0.710E-03    0.157E-03
DAV:  35    -0.165071270001E+02   -0.11094E-03   -0.28928E-06    42   0.524E-03    0.861E-04
DAV:  36    -0.165072229960E+02   -0.95996E-04   -0.23766E-06    40   0.473E-03
   1 F= -.16507223E+02 E0= -.16515569E+02  d E =-.165072E+02  mag=     1.1345
       N       E                     dE             d eps       ncg     rms          rms(c)
DAV:   1    -0.166923159795E+02   -0.18519E+00   -0.11657E+00    72   0.529E+00    0.466E-01
DAV:   2    -0.166910521582E+02    0.12638E-02   -0.84426E-02    86   0.141E+00    0.247E-01
DAV:   3    -0.166827270569E+02    0.83251E-02   -0.16329E-02   112   0.528E-01    0.157E-01
DAV:   4    -0.166825405926E+02    0.18646E-03   -0.21917E-03   102   0.203E-01    0.887E-02
DAV:   5    -0.166836386783E+02   -0.10981E-02   -0.69511E-04    94   0.933E-02    0.482E-02
DAV:   6    -0.166855659127E+02   -0.19272E-02   -0.40996E-04    88   0.660E-02    0.289E-02
DAV:   7    -0.166874864677E+02   -0.19206E-02   -0.16527E-04    78   0.413E-02    0.145E-02
DAV:   8    -0.166896512668E+02   -0.21648E-02   -0.13319E-04    70   0.355E-02    0.901E-03
DAV:   9    -0.166913502776E+02   -0.16990E-02   -0.11734E-04    78   0.313E-02    0.564E-03
DAV:  10    -0.166924185602E+02   -0.10683E-02   -0.36494E-05    56   0.204E-02    0.393E-03
DAV:  11    -0.166933193483E+02   -0.90079E-03   -0.33144E-05    60   0.181E-02    0.245E-03
DAV:  12    -0.166939237890E+02   -0.60444E-03   -0.21737E-05    62   0.149E-02    0.157E-03
DAV:  13    -0.166942518426E+02   -0.32805E-03   -0.67696E-06    44   0.101E-02    0.116E-03
DAV:  14    -0.166944891875E+02   -0.23734E-03   -0.46829E-06    46   0.780E-03    0.800E-04
DAV:  15    -0.166946117945E+02   -0.12261E-03   -0.25720E-06    44   0.570E-03    0.565E-04
DAV:  16    -0.166946643369E+02   -0.52542E-04   -0.10925E-06    38   0.423E-03
   2 F= -.16694664E+02 E0= -.16706698E+02  d E =-.187441E+00  mag=     1.1169
       N       E                     dE             d eps       ncg     rms          rms(c)
DAV:   1    -0.170040771038E+02   -0.30947E+00   -0.10128E+01    76   0.159E+01    0.102E+00
DAV:   2    -0.170093443989E+02   -0.52673E-02   -0.61220E-01   102   0.394E+00    0.545E-01
DAV:   3    -0.169962835038E+02    0.13061E-01   -0.59107E-02    96   0.990E-01    0.369E-01
DAV:   4    -0.169947474665E+02    0.15360E-02   -0.61898E-03   118   0.338E-01    0.241E-01
DAV:   5    -0.169942447469E+02    0.50272E-03   -0.17890E-03    96   0.146E-01    0.120E-01
DAV:   6    -0.169957305346E+02   -0.14858E-02   -0.18343E-03    88   0.136E-01    0.385E-02
DAV:   7    -0.169980321139E+02   -0.23016E-02   -0.15933E-04    72   0.595E-02    0.242E-02
DAV:   8    -0.170011779262E+02   -0.31458E-02   -0.10787E-04    60   0.429E-02    0.180E-02
DAV:   9    -0.170047565740E+02   -0.35786E-02   -0.16111E-04    78   0.417E-02    0.117E-02
DAV:  10    -0.170081082276E+02   -0.33517E-02   -0.13168E-04    80   0.353E-02    0.784E-03
DAV:  11    -0.170105883608E+02   -0.24801E-02   -0.79485E-05    78   0.271E-02    0.491E-03
DAV:  12    -0.170124672357E+02   -0.18789E-02   -0.59485E-05    70   0.229E-02    0.313E-03
DAV:  13    -0.170134254153E+02   -0.95818E-03   -0.24033E-05    64   0.153E-02    0.208E-03
DAV:  14    -0.170140779592E+02   -0.65254E-03   -0.13510E-05    50   0.126E-02    0.120E-03
DAV:  15    -0.170144183323E+02   -0.34037E-03   -0.68043E-06    54   0.101E-02    0.762E-04
DAV:  16    -0.170145523401E+02   -0.13401E-03   -0.19899E-06    42   0.673E-03    0.517E-04
DAV:  17    -0.170146027181E+02   -0.50378E-04   -0.99345E-07    40   0.473E-03
   3 F= -.17014603E+02 E0= -.17023373E+02  d E =-.507380E+00  mag=     0.9718
       N       E                     dE             d eps       ncg     rms          rms(c)
DAV:   1    -0.171698993885E+02   -0.15535E+00   -0.20507E+00    78   0.784E+00    0.463E-01
DAV:   2    -0.171759685783E+02   -0.60692E-02   -0.10043E-01   112   0.156E+00    0.254E-01
DAV:   3    -0.171757077970E+02    0.26078E-03   -0.49110E-03   102   0.343E-01    0.167E-01
DAV:   4    -0.171755016953E+02    0.20610E-03   -0.48924E-04   104   0.101E-01    0.119E-01
DAV:   5    -0.171751916449E+02    0.31005E-03   -0.39772E-04    86   0.734E-02    0.415E-02
DAV:   6    -0.171753747955E+02   -0.18315E-03   -0.13135E-04    62   0.470E-02    0.143E-02
DAV:   7    -0.171758032668E+02   -0.42847E-03   -0.30477E-05    50   0.267E-02    0.107E-02
DAV:   8    -0.171765884201E+02   -0.78515E-03   -0.53925E-05    60   0.268E-02    0.510E-03
DAV:   9    -0.171771108262E+02   -0.52241E-03   -0.39480E-05    60   0.213E-02    0.409E-03
DAV:  10    -0.171774456855E+02   -0.33486E-03   -0.13035E-05    52   0.140E-02    0.275E-03
DAV:  11    -0.171777911942E+02   -0.34551E-03   -0.22854E-05    60   0.142E-02    0.138E-03
DAV:  12    -0.171778836082E+02   -0.92414E-04   -0.37523E-06    44   0.772E-03
   4 F= -.17177884E+02 E0= -.17183089E+02  d E =-.163281E+00  mag=     0.9558
       N       E                     dE             d eps       ncg     rms          rms(c)
DAV:   1    -0.172645858691E+02   -0.86795E-01   -0.26017E+00    78   0.890E+00    0.564E-01
DAV:   2    -0.172697095711E+02   -0.51237E-02   -0.13250E-01   110   0.180E+00    0.315E-01
DAV:   3    -0.172684461816E+02    0.12634E-02   -0.78586E-03   112   0.433E-01    0.198E-01
DAV:   4    -0.172671067372E+02    0.13394E-02   -0.71667E-04   102   0.121E-01    0.135E-01
DAV:   5    -0.172659963506E+02    0.11104E-02   -0.56126E-04    76   0.852E-02    0.507E-02
DAV:   6    -0.172661477882E+02   -0.15144E-03   -0.24427E-04    70   0.578E-02    0.187E-02
DAV:   7    -0.172669247287E+02   -0.77694E-03   -0.38766E-05    50   0.288E-02    0.139E-02
DAV:   8    -0.172684011960E+02   -0.14765E-02   -0.14605E-04    60   0.352E-02    0.760E-03
DAV:   9    -0.172692601920E+02   -0.85900E-03   -0.65211E-05    60   0.248E-02    0.591E-03
DAV:  10    -0.172699824551E+02   -0.72226E-03   -0.29288E-05    52   0.173E-02    0.387E-03
DAV:  11    -0.172705942598E+02   -0.61180E-03   -0.43600E-05    60   0.163E-02    0.213E-03
DAV:  12    -0.172708216828E+02   -0.22742E-03   -0.90088E-06    44   0.960E-03    0.135E-03
DAV:  13    -0.172710304266E+02   -0.20874E-03   -0.13447E-05    52   0.933E-03    0.966E-04
DAV:  14    -0.172710861615E+02   -0.55735E-04   -0.35823E-06    42   0.534E-03
   5 F= -.17271086E+02 E0= -.17273103E+02  d E =-.256483E+00  mag=     1.0004
       N       E                     dE             d eps       ncg     rms          rms(c)
DAV:   1    -0.172802565697E+02   -0.92261E-02   -0.50822E-01    72   0.396E+00    0.249E-01
DAV:   2    -0.172812737276E+02   -0.10172E-02   -0.25079E-02   112   0.790E-01    0.136E-01
DAV:   3    -0.172811781075E+02    0.95620E-04   -0.13387E-03   110   0.183E-01    0.866E-02
DAV:   4    -0.172810909702E+02    0.87137E-04   -0.91158E-05    56   0.498E-02
   6 F= -.17281091E+02 E0= -.17283115E+02  d E =-.266488E+00  mag=     1.0003
       N       E                     dE             d eps       ncg     rms          rms(c)
DAV:   1    -0.174282794812E+02   -0.14710E+00   -0.32687E+00    72   0.985E+00    0.547E-01
DAV:   2    -0.174400236845E+02   -0.11744E-01   -0.19399E-01   112   0.211E+00    0.304E-01
DAV:   3    -0.174380786066E+02    0.19451E-02   -0.84683E-03   112   0.430E-01    0.219E-01
DAV:   4    -0.174378407228E+02    0.23788E-03   -0.10817E-03   104   0.147E-01    0.122E-01
DAV:   5    -0.174379959799E+02   -0.15526E-03   -0.38912E-04    80   0.829E-02    0.404E-02
DAV:   6    -0.174383907592E+02   -0.39478E-03   -0.13361E-04    64   0.507E-02    0.148E-02
DAV:   7    -0.174387919008E+02   -0.40114E-03   -0.29029E-05    54   0.287E-02    0.102E-02
DAV:   8    -0.174394709231E+02   -0.67902E-03   -0.52340E-05    60   0.285E-02    0.504E-03
DAV:   9    -0.174397623792E+02   -0.29146E-03   -0.17292E-05    52   0.182E-02    0.395E-03
DAV:  10    -0.174401694703E+02   -0.40709E-03   -0.27877E-05    60   0.176E-02    0.196E-03
DAV:  11    -0.174404079785E+02   -0.23851E-03   -0.18256E-05    52   0.140E-02    0.137E-03
DAV:  12    -0.174404903200E+02   -0.82342E-04   -0.49339E-06    42   0.802E-03
   7 F= -.17440490E+02 E0= -.17442632E+02  d E =-.159399E+00  mag=     1.0002
       N       E                     dE             d eps       ncg     rms          rms(c)
DAV:   1    -0.174722262129E+02   -0.31818E-01   -0.29957E+00    72   0.938E+00    0.508E-01
DAV:   2    -0.174838499190E+02   -0.11624E-01   -0.17683E-01   112   0.201E+00    0.269E-01
DAV:   3    -0.174821026859E+02    0.17472E-02   -0.73623E-03   112   0.406E-01    0.192E-01
DAV:   4    -0.174816749731E+02    0.42771E-03   -0.92216E-04   104   0.136E-01    0.108E-01
DAV:   5    -0.174816256032E+02    0.49370E-04   -0.31456E-04    80   0.755E-02
   8 F= -.17481626E+02 E0= -.17484073E+02  d E =-.200535E+00  mag=     1.0002
       N       E                     dE             d eps       ncg     rms          rms(c)
DAV:   1    -0.176013727555E+02   -0.11970E+00   -0.26897E+00    72   0.881E+00    0.475E-01
DAV:   2    -0.176122614702E+02   -0.10889E-01   -0.13873E-01   112   0.183E+00    0.223E-01
DAV:   3    -0.176108922570E+02    0.13692E-02   -0.47409E-03   112   0.337E-01    0.164E-01
DAV:   4    -0.176105424150E+02    0.34984E-03   -0.66149E-04   104   0.115E-01    0.922E-02
DAV:   5    -0.176107699998E+02   -0.22758E-03   -0.29210E-04    72   0.722E-02    0.279E-02
DAV:   6    -0.176114121347E+02   -0.64213E-03   -0.78957E-05    64   0.412E-02    0.118E-02
DAV:   7    -0.176121206729E+02   -0.70854E-03   -0.31234E-05    64   0.262E-02    0.821E-03
DAV:   8    -0.176131035599E+02   -0.98289E-03   -0.49671E-05    64   0.268E-02    0.428E-03
DAV:   9    -0.176136128182E+02   -0.50926E-03   -0.19859E-05    64   0.174E-02    0.330E-03
DAV:  10    -0.176142387137E+02   -0.62590E-03   -0.22914E-05    60   0.161E-02    0.189E-03
DAV:  11    -0.176145405401E+02   -0.30183E-03   -0.11469E-05    48   0.113E-02    0.120E-03
DAV:  12    -0.176146842779E+02   -0.14374E-03   -0.39756E-06    48   0.740E-03    0.837E-04
DAV:  13    -0.176148424556E+02   -0.15818E-03   -0.45445E-06    42   0.707E-03    0.545E-04
DAV:  14    -0.176148932450E+02   -0.50789E-04   -0.12801E-06    42   0.448E-03
   9 F= -.17614893E+02 E0= -.17617213E+02  d E =-.133268E+00  mag=     1.0001
       N       E                     dE             d eps       ncg     rms          rms(c)
DAV:   1    -0.176639614044E+02   -0.49119E-01   -0.27067E+00    72   0.882E+00    0.475E-01
DAV:   2    -0.176754194456E+02   -0.11458E-01   -0.14292E-01   112   0.187E+00    0.230E-01
DAV:   3    -0.176742012918E+02    0.12182E-02   -0.46570E-03   112   0.338E-01    0.175E-01
DAV:   4    -0.176736113692E+02    0.58992E-03   -0.62365E-04    96   0.113E-01    0.995E-02
DAV:   5    -0.176734061818E+02    0.20519E-03   -0.30174E-04    88   0.722E-02    0.283E-02
DAV:   6    -0.176736123359E+02   -0.20615E-03   -0.51838E-05    64   0.350E-02    0.112E-02
DAV:   7    -0.176739593532E+02   -0.34702E-03   -0.19688E-05    56   0.221E-02    0.755E-03
DAV:   8    -0.176744032041E+02   -0.44385E-03   -0.26303E-05    64   0.204E-02    0.387E-03
DAV:   9    -0.176746528544E+02   -0.24965E-03   -0.10591E-05    48   0.136E-02    0.285E-03
DAV:  10    -0.176749858043E+02   -0.33295E-03   -0.15713E-05    64   0.130E-02    0.143E-03
DAV:  11    -0.176751378157E+02   -0.15201E-03   -0.63449E-06    48   0.877E-03    0.958E-04
DAV:  12    -0.176752283474E+02   -0.90532E-04   -0.27274E-06    48   0.616E-03
  10 F= -.17675228E+02 E0= -.17677472E+02  d E =-.193603E+00  mag=     1.0001
       N       E                     dE             d eps       ncg     rms          rms(c)
DAV:   1    -0.177410461111E+02   -0.65908E-01   -0.10698E+00    72   0.520E+00    0.275E-01
DAV:   2    -0.177441560901E+02   -0.31100E-02   -0.66420E-02    96   0.129E+00    0.160E-01
DAV:   3    -0.177434827010E+02    0.67339E-03   -0.32754E-03   112   0.269E-01    0.119E-01
DAV:   4    -0.177432271701E+02    0.25553E-03   -0.40667E-04    80   0.903E-02    0.570E-02
DAV:   5    -0.177431353559E+02    0.91814E-04   -0.97033E-05    48   0.504E-02
  11 F= -.17743135E+02 E0= -.17745300E+02  d E =-.679070E-01  mag=     1.0001
       N       E                     dE             d eps       ncg     rms          rms(c)
DAV:   1    -0.177508848901E+02   -0.76577E-02   -0.27940E-01    72   0.268E+00    0.147E-01
DAV:   2    -0.177517071296E+02   -0.82224E-03   -0.17534E-02    96   0.658E-01    0.858E-02
DAV:   3    -0.177515201181E+02    0.18701E-03   -0.89050E-04   112   0.140E-01    0.633E-02
DAV:   4    -0.177514543227E+02    0.65795E-04   -0.89367E-05    48   0.473E-02
  12 F= -.17751454E+02 E0= -.17753587E+02  d E =-.762260E-01  mag=     1.0001
       N       E                     dE             d eps       ncg     rms          rms(c)
DAV:   1    -0.177596044057E+02   -0.80843E-02   -0.11460E-01    72   0.187E+00    0.102E-01
DAV:   2    -0.177600746382E+02   -0.47023E-03   -0.67282E-03   112   0.402E-01    0.583E-02
DAV:   3    -0.177600246541E+02    0.49984E-04   -0.26708E-04    88   0.814E-02
  13 F= -.17760025E+02 E0= -.17762122E+02  d E =-.857033E-02  mag=     1.0001
       N       E                     dE             d eps       ncg     rms          rms(c)
DAV:   1    -0.177629745585E+02   -0.28999E-02   -0.17033E-01    72   0.228E+00    0.122E-01
DAV:   2    -0.177635030769E+02   -0.52852E-03   -0.98704E-03   112   0.490E-01    0.818E-02
DAV:   3    -0.177633897600E+02    0.11332E-03   -0.44005E-04   104   0.101E-01    0.636E-02
DAV:   4    -0.177633502123E+02    0.39548E-04   -0.84172E-05    54   0.415E-02
  14 F= -.17763350E+02 E0= -.17765406E+02  d E =-.118959E-01  mag=     1.0001
       N       E                     dE             d eps       ncg     rms          rms(c)
DAV:   1    -0.177686713355E+02   -0.52816E-02   -0.10541E-01    72   0.181E+00    0.101E-01
DAV:   2    -0.177691122653E+02   -0.44093E-03   -0.53149E-03   112   0.365E-01    0.542E-02
DAV:   3    -0.177691383993E+02   -0.26134E-04   -0.20329E-04    72   0.787E-02
  15 F= -.17769138E+02 E0= -.17771151E+02  d E =-.578819E-02  mag=     1.0001
       N       E                     dE             d eps       ncg     rms          rms(c)
DAV:   1    -0.177710800771E+02   -0.19678E-02   -0.20408E-01    72   0.252E+00    0.134E-01
DAV:   2    -0.177716539161E+02   -0.57384E-03   -0.10396E-02   112   0.510E-01    0.848E-02
DAV:   3    -0.177715408224E+02    0.11309E-03   -0.51020E-04   112   0.113E-01    0.614E-02
DAV:   4    -0.177714864526E+02    0.54370E-04   -0.52881E-05    56   0.370E-02
  16 F= -.17771486E+02 E0= -.17773465E+02  d E =-.813624E-02  mag=     1.0001
       N       E                     dE             d eps       ncg     rms          rms(c)
DAV:   1    -0.177756966209E+02   -0.41558E-02   -0.13718E-01    72   0.208E+00    0.111E-01
DAV:   2    -0.177762133383E+02   -0.51672E-03   -0.61685E-03   110   0.393E-01    0.547E-02
DAV:   3    -0.177760897459E+02    0.12359E-03   -0.16131E-04    80   0.754E-02    0.359E-02
DAV:   4    -0.177760586828E+02    0.31063E-04   -0.10029E-04    54   0.546E-02
  17 F= -.17776059E+02 E0= -.17778031E+02  d E =-.457223E-02  mag=     1.0001
       N       E                     dE             d eps       ncg     rms          rms(c)
DAV:   1    -0.177775468599E+02   -0.14571E-02   -0.37904E-01    72   0.346E+00    0.180E-01
DAV:   2    -0.177788999819E+02   -0.13531E-02   -0.17115E-02   112   0.653E-01    0.902E-02
DAV:   3    -0.177785330201E+02    0.36696E-03   -0.61977E-04   112   0.124E-01    0.697E-02
DAV:   4    -0.177784212087E+02    0.11181E-03   -0.81500E-05    64   0.425E-02    0.418E-02
DAV:   5    -0.177785095113E+02   -0.88303E-04   -0.10948E-04    64   0.439E-02
  18 F= -.17778510E+02 E0= -.17780474E+02  d E =-.702306E-02  mag=     1.0001
       N       E                     dE             d eps       ncg     rms          rms(c)
DAV:   1    -0.177832481141E+02   -0.48269E-02   -0.13692E-01    72   0.205E+00    0.105E-01
DAV:   2    -0.177839003905E+02   -0.65228E-03   -0.59585E-03   112   0.387E-01    0.498E-02
DAV:   3    -0.177838229456E+02    0.77445E-04   -0.15891E-04    64   0.715E-02
  19 F= -.17783823E+02 E0= -.17785784E+02  d E =-.531343E-02  mag=     1.0001
       N       E                     dE             d eps       ncg     rms          rms(c)
DAV:   1    -0.177848225139E+02   -0.92212E-03   -0.10126E+00    72   0.556E+00    0.278E-01
DAV:   2    -0.177884850857E+02   -0.36626E-02   -0.43892E-02   112   0.105E+00    0.141E-01
DAV:   3    -0.177874373667E+02    0.10477E-02   -0.16885E-03   120   0.195E-01    0.109E-01
DAV:   4    -0.177871260620E+02    0.31130E-03   -0.38673E-04    86   0.782E-02    0.500E-02
DAV:   5    -0.177874819949E+02   -0.35593E-03   -0.16237E-04    70   0.518E-02    0.147E-02
DAV:   6    -0.177880280245E+02   -0.54603E-03   -0.29925E-05    56   0.265E-02    0.905E-03
DAV:   7    -0.177888548048E+02   -0.82678E-03   -0.32045E-05    64   0.222E-02    0.530E-03
DAV:   8    -0.177895367851E+02   -0.68198E-03   -0.28587E-05    62   0.185E-02    0.305E-03
DAV:   9    -0.177899060486E+02   -0.36926E-03   -0.81622E-06    48   0.112E-02    0.218E-03
DAV:  10    -0.177903665648E+02   -0.46052E-03   -0.14881E-05    64   0.116E-02    0.120E-03
DAV:  11    -0.177905170431E+02   -0.15048E-03   -0.38380E-06    48   0.692E-03    0.900E-04
DAV:  12    -0.177906250789E+02   -0.10804E-03   -0.24811E-06    48   0.539E-03    0.556E-04
DAV:  13    -0.177907124313E+02   -0.87352E-04   -0.16965E-06    48   0.443E-03
  20 F= -.17790712E+02 E0= -.17792663E+02  d E =-.122029E-01  mag=     1.0001
       N       E                     dE             d eps       ncg     rms          rms(c)
DAV:   1    -0.177938037359E+02   -0.31787E-02   -0.26182E-01    72   0.284E+00    0.146E-01
DAV:   2    -0.177945556793E+02   -0.75194E-03   -0.98316E-03    94   0.516E-01    0.653E-02
DAV:   3    -0.177942681511E+02    0.28753E-03   -0.10312E-03   104   0.163E-01    0.520E-02
DAV:   4    -0.177942195776E+02    0.48574E-04   -0.46682E-05    56   0.381E-02
  21 F= -.17794220E+02 E0= -.17796169E+02  d E =-.350715E-02  mag=     1.0001
       N       E                     dE             d eps       ncg     rms          rms(c)
DAV:   1    -0.177943712061E+02   -0.10305E-03   -0.32014E-01    72   0.314E+00    0.164E-01
DAV:   2    -0.177952030085E+02   -0.83180E-03   -0.12256E-02   104   0.571E-01    0.828E-02
DAV:   3    -0.177948351019E+02    0.36791E-03   -0.93163E-04   104   0.149E-01    0.627E-02
DAV:   4    -0.177947690287E+02    0.66073E-04   -0.49093E-05    56   0.380E-02
  22 F= -.17794769E+02 E0= -.17796717E+02  d E =-.405660E-02  mag=     1.0001
       N       E                     dE             d eps       ncg     rms          rms(c)
DAV:   1    -0.177962924321E+02   -0.14573E-02   -0.15367E-01    72   0.213E+00    0.115E-01
DAV:   2    -0.177968413138E+02   -0.54888E-03   -0.75049E-03   112   0.432E-01    0.590E-02
DAV:   3    -0.177966735962E+02    0.16772E-03   -0.37313E-04    94   0.900E-02    0.430E-02
DAV:   4    -0.177967360759E+02   -0.62480E-04   -0.57351E-05    56   0.356E-02
  23 F= -.17796736E+02 E0= -.17798688E+02  d E =-.196705E-02  mag=     1.0001
       N       E                     dE             d eps       ncg     rms          rms(c)
DAV:   1    -0.177969478806E+02   -0.27428E-03   -0.20873E-03    80   0.248E-01    0.160E-02
DAV:   2    -0.177971292652E+02   -0.18138E-03   -0.79183E-05    48   0.517E-02    0.922E-03
DAV:   3    -0.177973202803E+02   -0.19102E-03   -0.24060E-05    48   0.320E-02    0.555E-03
DAV:   4    -0.177974897937E+02   -0.16951E-03   -0.11368E-05    48   0.224E-02    0.372E-03
DAV:   5    -0.177976912829E+02   -0.20149E-03   -0.87988E-06    48   0.174E-02    0.248E-03
DAV:   6    -0.177979417532E+02   -0.25047E-03   -0.93763E-06    56   0.146E-02    0.126E-03
DAV:   7    -0.177980759020E+02   -0.13415E-03   -0.40145E-06    48   0.105E-02    0.940E-04
DAV:   8    -0.177981988901E+02   -0.12299E-03   -0.31626E-06    48   0.851E-03    0.580E-04
DAV:   9    -0.177982875938E+02   -0.88704E-04   -0.27222E-06    48   0.700E-03
  24 F= -.17798288E+02 E0= -.17800240E+02  d E =-.351857E-02  mag=     1.0001
       N       E                     dE             d eps       ncg     rms          rms(c)
DAV:   1    -0.177988640883E+02   -0.66520E-03   -0.20301E-02    72   0.781E-01    0.426E-02
DAV:   2    -0.177989405003E+02   -0.76412E-04   -0.94049E-04   102   0.156E-01
  25 F= -.17798941E+02 E0= -.17800894E+02  d E =-.652907E-03  mag=     1.0001
       N       E                     dE             d eps       ncg     rms          rms(c)
DAV:   1    -0.177990059329E+02   -0.14184E-03   -0.10562E-02    72   0.560E-01    0.342E-02
DAV:   2    -0.177989748979E+02    0.31035E-04   -0.52199E-04    96   0.120E-01
  26 F= -.17798975E+02 E0= -.17800929E+02  d E =-.687304E-03  mag=     1.0001
