 vasp.6.1.2 22Jul20 (build Aug  2 2021 21:04:21) gamma-only                      
 executed on             LinuxPGI date 2021.12.29  11:14:50
 running on    8 total cores
 distrk:  each k-point on    8 cores,    1 groups
 distr:  one band on NCORE=   8 cores,    1 groups


--------------------------------------------------------------------------------------------------------


 INCAR:
 POTCAR:    PAW_PBE Al 04Jan2001                  
 -----------------------------------------------------------------------------
|                                                                             |
|           W    W    AA    RRRRR   N    N  II  N    N   GGGG   !!!           |
|           W    W   A  A   R    R  NN   N  II  NN   N  G    G  !!!           |
|           W    W  A    A  R    R  N N  N  II  N N  N  G       !!!           |
|           W WW W  AAAAAA  RRRRR   N  N N  II  N  N N  G  GGG   !            |
|           WW  WW  A    A  R   R   N   NN  II  N   NN  G    G                |
|           W    W  A    A  R    R  N    N  II  N    N   GGGG   !!!           |
|                                                                             |
|     You use a magnetic or noncollinear calculation, but did not specify     |
|     the initial magnetic moment with the MAGMOM tag. Note that a            |
|     default of 1 will be used for all atoms. This ferromagnetic setup       |
|     may break the symmetry of the crystal, in particular it may rule        |
|     out finding an antiferromagnetic solution. Thence, we recommend         |
|     setting the initial magnetic moment manually or verifying carefully     |
|     that this magnetic setup is desired.                                    |
|                                                                             |
 -----------------------------------------------------------------------------

 -----------------------------------------------------------------------------
|                                                                             |
|           W    W    AA    RRRRR   N    N  II  N    N   GGGG   !!!           |
|           W    W   A  A   R    R  NN   N  II  NN   N  G    G  !!!           |
|           W    W  A    A  R    R  N N  N  II  N N  N  G       !!!           |
|           W WW W  AAAAAA  RRRRR   N  N N  II  N  N N  G  GGG   !            |
|           WW  WW  A    A  R   R   N   NN  II  N   NN  G    G                |
|           W    W  A    A  R    R  N    N  II  N    N   GGGG   !!!           |
|                                                                             |
|     For optimal performance we recommend to set                             |
|       NCORE = 4 - approx SQRT(number of cores).                             |
|     NCORE specifies how many cores store one orbital (NPAR=cpu/NCORE).      |
|     This setting can greatly improve the performance of VASP for DFT.       |
|     The default, NCORE=1 might be grossly inefficient on modern             |
|     multi-core architectures or massively parallel machines. Do your        |
|     own testing!!!!                                                         |
|     Unfortunately you need to use the default for GW and RPA                |
|     calculations (for HF NCORE is supported but not extensively tested      |
|     yet).                                                                   |
|                                                                             |
 -----------------------------------------------------------------------------

 POTCAR:    PAW_PBE Al 04Jan2001                  
   SHA256 =  17880443556af62b473fe41b62a467bd001ad55d2cabe504a3f22e34d4e9db96 Al/POTCAR             
   COPYR  = (c) Copyright 04Jan2001 Georg Kresse                                                    
   COPYR  = This file is part of the software VASP. Any use, copying, and all other rights are regul
   COPYR  = If you do not have a valid VASP license, you may not use, copy or distribute this file. 
   VRHFIN =Al: s2p1                                                                                 
   LEXCH  = PE                                                                                      
   EATOM  =    53.5387 eV,    3.9350 Ry                                                             
                                                                                                    
   TITEL  = PAW_PBE Al 04Jan2001                                                                    
   LULTRA =        F    use ultrasoft PP ?                                                          
   IUNSCR =        1    unscreen: 0-lin 1-nonlin 2-no                                               
   RPACOR =    1.500    partial core radius                                                         
   POMASS =   26.981; ZVAL   =    3.000    mass and valenz                                          
   RCORE  =    1.900    outmost cutoff radius                                                       
   RWIGS  =    2.650; RWIGS  =    1.402    wigner-seitz radius (au A)                               
   ENMAX  =  240.300; ENMIN  =  180.225 eV                                                          
   ICORE  =        2    local potential                                                             
   LCOR   =        T    correct aug charges                                                         
   LPAW   =        T    paw PP                                                                      
   EAUG   =  291.052                                                                                
   DEXC   =    0.000                                                                                
   RMAX   =    1.939    core radius for proj-oper                                                   
   RAUG   =    1.300    factor for augmentation sphere                                              
   RDEP   =    1.966    radius for radial grids                                                     
   RDEPT  =    1.856    core radius for aug-charge                                                  
                                                                                                    
   Atomic configuration                                                                             
    6 entries                                                                                       
     n  l   j            E        occ.                                                              
     1  0  0.50     -1511.1048   2.0000                                                             
     2  0  0.50      -108.1629   2.0000                                                             
     2  1  1.50       -69.6402   6.0000                                                             
     3  0  0.50        -7.7528   2.0000                                                             
     3  1  1.50        -2.7121   1.0000                                                             
     3  2  2.50        -2.7212   0.0000                                                             
   Description                                                                                      
     l       E           TYP  RCUT    TYP  RCUT                                                     
     0     -7.7528455     23  1.900                                                                 
     0     -3.3096929     23  1.900                                                                 
     1     -2.7120682     23  1.900                                                                 
     1     13.6058260     23  1.900                                                                 
     2     -2.7211652      7  1.900                                                                 
  local pseudopotential read in
  partial core-charges read in
  partial kinetic energy density read in
  atomic valenz-charges read in
  non local Contribution for L=            0  read in
    real space projection operators read in
  non local Contribution for L=            0  read in
    real space projection operators read in
  non local Contribution for L=            1  read in
    real space projection operators read in
  non local Contribution for L=            1  read in
    real space projection operators read in
    PAW grid and wavefunctions read in
 
   number of l-projection  operators is LMAX  =            4
   number of lm-projection operators is LMMAX =            8
 
  PAW_PBE Al 04Jan2001                  :
 energy of atom  1       EATOM=  -53.5387
 kinetic energy error for atom=    0.0005 (will be added to EATOM!!)
 
 
 POSCAR: Al
  positions in cartesian coordinates
  No initial velocities read in
 exchange correlation table for  LEXCH =        8
   RHO(1)=    0.500       N(1)  =     2000
   RHO(2)=  100.500       N(2)  =     4000
 


--------------------------------------------------------------------------------------------------------


 ion  position               nearest neighbor table
   1  0.430  0.497  0.591-   2 2.69   3 2.72   7 2.72
   2  0.420  0.573  0.494-   1 2.69   5 2.71   3 2.74   7 2.85
   3  0.535  0.532  0.530-   4 2.70   1 2.72   2 2.74   6 2.75   7 2.82   5 3.26
   4  0.587  0.582  0.429-   5 2.67   3 2.70   6 2.72
   5  0.479  0.533  0.391-   4 2.67   2 2.71   7 2.76   6 2.78   3 3.26
   6  0.572  0.456  0.436-   4 2.72   3 2.75   5 2.78   7 2.79
   7  0.451  0.445  0.479-   1 2.72   5 2.76   6 2.79   3 2.82   2 2.85
 

IMPORTANT INFORMATION: All symmetrisations will be switched off!
NOSYMM: (Re-)initialisation of all symmetry stuff for point group C_1.


----------------------------------------------------------------------------------------

                                     Primitive cell                                     

  volume of cell :   10021.9733

  direct lattice vectors                    reciprocal lattice vectors
    21.433949823  0.000000000  0.000000000     0.046654957  0.000000000  0.000000000
     0.000000000 21.408281684  0.000000000     0.000000000  0.046710895  0.000000000
     0.000000000  0.000000000 21.840834240     0.000000000  0.000000000  0.045785797

  length of vectors
    21.433949823 21.408281684 21.840834240     0.046654957  0.046710895  0.045785797

  position of ions in fractional coordinates (direct lattice)
     0.429606483  0.497310736  0.591157327
     0.419513060  0.573341907  0.493676413
     0.534749521  0.532142694  0.530247492
     0.587252578  0.581526122  0.429096144
     0.478961888  0.532905362  0.391336407
     0.572456320  0.455503633  0.436137942
     0.450635825  0.444965554  0.479357311

  ion indices of the primitive-cell ions
   primitive index   ion index
                 1           1
                 2           2
                 3           3
                 4           4
                 5           5
                 6           6
                 7           7

----------------------------------------------------------------------------------------

 
 
 KPOINTS: KPOINTS created by Atomic Simulation Env

Automatic generation of k-mesh.
Space group operators:
 irot       det(A)        alpha          n_x          n_y          n_z        tau_x        tau_y        tau_z
    1     1.000000     0.000000     1.000000     0.000000     0.000000     0.000000     0.000000     0.000000
 
 Subroutine IBZKPT returns following result:
 ===========================================
 
 Found      1 irreducible k-points:
 
 Following reciprocal coordinates:
            Coordinates               Weight
  0.000000  0.000000  0.000000      1.000000
 
 Following cartesian coordinates:
            Coordinates               Weight
  0.000000  0.000000  0.000000      1.000000
 


--------------------------------------------------------------------------------------------------------




 Dimension of arrays:
   k-points           NKPTS =      1   k-points in BZ     NKDIM =      1   number of bands    NBANDS=     18
   number of dos      NEDOS =    301   number of ions     NIONS =      7
   non local maximal  LDIM  =      4   non local SUM 2l+1 LMDIM =      8
   total plane-waves  NPLWV = ******
   max r-space proj   IRMAX =      1   max aug-charges    IRDMAX=   5091
   dimension x,y,z NGX =   108 NGY =  108 NGZ =  108
   dimension x,y,z NGXF=   216 NGYF=  216 NGZF=  216
   support grid    NGXF=   216 NGYF=  216 NGZF=  216
   ions per type =               7
   NGX,Y,Z   is equivalent  to a cutoff of   8.38,  8.39,  8.22 a.u.
   NGXF,Y,Z  is equivalent  to a cutoff of  16.75, 16.77, 16.44 a.u.

 SYSTEM =  unknown system                          
 POSCAR =  Al                                      

 Startparameter for this run:
   NWRITE =      2    write-flag & timer
   PREC   = normal    normal or accurate (medium, high low for compatibility)
   ISTART =      0    job   : 0-new  1-cont  2-samecut
   ICHARG =      2    charge: 1-file 2-atom 10-const
   ISPIN  =      2    spin polarized calculation?
   LNONCOLLINEAR =      F non collinear calculations
   LSORBIT =      F    spin-orbit coupling
   INIWAV =      1    electr: 0-lowe 1-rand  2-diag
   LASPH  =      F    aspherical Exc in radial PAW
   METAGGA=      F    non-selfconsistent MetaGGA calc.

 Electronic Relaxation 1
   ENCUT  =  400.0 eV  29.40 Ry    5.42 a.u.  34.95 34.91 35.62*2*pi/ulx,y,z
   ENINI  =  400.0     initial cutoff
   ENAUG  =  291.1 eV  augmentation charge cutoff
   NELM   =     60;   NELMIN=  2; NELMDL=  0     # of ELM steps 
   EDIFF  = 0.1E-03   stopping-criterion for ELM
   LREAL  =      F    real-space projection
   NLSPLINE    = F    spline interpolate recip. space projectors
   LCOMPAT=      F    compatible to vasp.4.4
   GGA_COMPAT  = T    GGA compatible to vasp.4.4-vasp.4.6
   LMAXPAW     = -100 max onsite density
   LMAXMIX     =    2 max onsite mixed and CHGCAR
   VOSKOWN=      0    Vosko Wilk Nusair interpolation
   ROPT   =    0.00000
 Ionic relaxation
   EDIFFG = 0.1E-02   stopping-criterion for IOM
   NSW    =   1000    number of steps for IOM
   NBLOCK =      1;   KBLOCK =   1000    inner block; outer block 
   IBRION =      2    ionic relax: 0-MD 1-quasi-New 2-CG
   NFREE  =      1    steps in history (QN), initial steepest desc. (CG)
   ISIF   =      0    stress and relaxation
   IWAVPR =     11    prediction:  0-non 1-charg 2-wave 3-comb
   ISYM   =      0    0-nonsym 1-usesym 2-fastsym
   LCORR  =      T    Harris-Foulkes like correction to forces

   POTIM  = 0.5000    time-step for ionic-motion
   TEIN   =    0.0    initial temperature
   TEBEG  =    0.0;   TEEND  =   0.0 temperature during run
   SMASS  =  -3.00    Nose mass-parameter (am)
   estimated Nose-frequenzy (Omega)   =  0.10E-29 period in steps = 0.13E+47 mass=  -0.105E-25a.u.
   SCALEE = 1.0000    scale energy and forces
   NPACO  =    256;   APACO  = 16.0  distance and # of slots for P.C.
   PSTRESS=    0.0 pullay stress

  Mass of Ions in am
   POMASS =  26.98
  Ionic Valenz
   ZVAL   =   3.00
  Atomic Wigner-Seitz radii
   RWIGS  =  -1.00
  virtual crystal weights 
   VCA    =   1.00
   NELECT =      21.0000    total number of electrons
   NUPDOWN=      -1.0000    fix difference up-down

 DOS related values:
   EMIN   =  10.00;   EMAX   =-10.00  energy-range for DOS
   EFERMI =   0.00
   ISMEAR =     1;   SIGMA  =   0.20  broadening in eV -4-tet -1-fermi 0-gaus

 Electronic relaxation 2 (details)
   IALGO  =     38    algorithm
   LDIAG  =      T    sub-space diagonalisation (order eigenvalues)
   LSUBROT=      F    optimize rotation matrix (better conditioning)
   TURBO    =      0    0=normal 1=particle mesh
   IRESTART =      0    0=no restart 2=restart with 2 vectors
   NREBOOT  =      0    no. of reboots
   NMIN     =      0    reboot dimension
   EREF     =   0.00    reference energy to select bands
   IMIX   =      4    mixing-type and parameters
     AMIX     =   0.40;   BMIX     =  1.00
     AMIX_MAG =   1.60;   BMIX_MAG =  1.00
     AMIN     =   0.10
     WC   =   100.;   INIMIX=   1;  MIXPRE=   1;  MAXMIX= -45

 Intra band minimization:
   WEIMIN = 0.0010     energy-eigenvalue tresh-hold
   EBREAK =  0.14E-05  absolut break condition
   DEPER  =   0.30     relativ break condition  

   TIME   =   0.40     timestep for ELM

  volume/ion in A,a.u.               =    1431.71      9661.66
  Fermi-wavevector in a.u.,A,eV,Ry     =   0.209490  0.395879  0.597107  0.043886
  Thomas-Fermi vector in A             =   0.975968
 
 Write flags
   LWAVE        =      F    write WAVECAR
   LDOWNSAMPLE  =      F    k-point downsampling of WAVECAR
   LCHARG       =      F    write CHGCAR
   LVTOT        =      F    write LOCPOT, total local potential
   LVHAR        =      F    write LOCPOT, Hartree potential only
   LELF         =      F    write electronic localiz. function (ELF)
   LORBIT       =      0    0 simple, 1 ext, 2 COOP (PROOUT), +10 PAW based schemes


 Dipole corrections
   LMONO  =      F    monopole corrections only (constant potential shift)
   LDIPOL =      F    correct potential (dipole corrections)
   IDIPOL =      0    1-x, 2-y, 3-z, 4-all directions 
   EPSILON=  1.0000000 bulk dielectric constant

 Exchange correlation treatment:
   GGA     =    PE    GGA type
   LEXCH   =     8    internal setting for exchange type
   VOSKOWN=      0    Vosko Wilk Nusair interpolation
   LHFCALC =     F    Hartree Fock is set to
   LHFONE  =     F    Hartree Fock one center treatment
   AEXX    =    0.0000 exact exchange contribution

 Linear response parameters
   LEPSILON=     F    determine dielectric tensor
   LRPA    =     F    only Hartree local field effects (RPA)
   LNABLA  =     F    use nabla operator in PAW spheres
   LVEL    =     F    velocity operator in full k-point grid
   LINTERFAST=   F  fast interpolation
   KINTER  =     0    interpolate to denser k-point grid
   CSHIFT  =0.1000    complex shift for real part using Kramers Kronig
   OMEGAMAX=  -1.0    maximum frequency
   DEG_THRESHOLD= 0.2000000E-02 threshold for treating states as degnerate
   RTIME   =   -0.100 relaxation time in fs
  (WPLASMAI=    0.000 imaginary part of plasma frequency in eV, 0.658/RTIME)
   DFIELD  = 0.0000000 0.0000000 0.0000000 field for delta impulse in time
 
 Orbital magnetization related:
   ORBITALMAG=     F  switch on orbital magnetization
   LCHIMAG   =     F  perturbation theory with respect to B field
   DQ        =  0.001000  dq finite difference perturbation B field
   LLRAUG    =     F  two centre corrections for induced B field



--------------------------------------------------------------------------------------------------------


 conjugate gradient relaxation of ions
 charge density and potential will be updated during run
 spin polarized calculation
 Variant of blocked Davidson
 Davidson routine will perform the subspace rotation
 perform sub-space diagonalisation
    after iterative eigenvector-optimisation
 modified Broyden-mixing scheme, WC =      100.0
 initial mixing is a Kerker type mixing with AMIX =  0.4000 and BMIX =      1.0000
 Hartree-type preconditioning will be used
 using additional bands             7
 reciprocal scheme for non local part
 use partial core corrections
 calculate Harris-corrections to forces 
   (improved forces if not selfconsistent)
 use gradient corrections 
 use of overlap-Matrix (Vanderbilt PP)
 Methfessel and Paxton  Order N= 1 SIGMA  =   0.20


--------------------------------------------------------------------------------------------------------


  energy-cutoff  :      400.00
  volume of cell :    10021.97
      direct lattice vectors                 reciprocal lattice vectors
    21.433949823  0.000000000  0.000000000     0.046654957  0.000000000  0.000000000
     0.000000000 21.408281684  0.000000000     0.000000000  0.046710895  0.000000000
     0.000000000  0.000000000 21.840834240     0.000000000  0.000000000  0.045785797

  length of vectors
    21.433949823 21.408281684 21.840834240     0.046654957  0.046710895  0.045785797


 
 k-points in units of 2pi/SCALE and weight: KPOINTS created by Atomic Simulation Env
   0.00000000  0.00000000  0.00000000       1.000
 
 k-points in reciprocal lattice and weights: KPOINTS created by Atomic Simulation Env
   0.00000000  0.00000000  0.00000000       1.000
 
 position of ions in fractional coordinates (direct lattice) 
   0.42960648  0.49731074  0.59115733
   0.41951306  0.57334191  0.49367641
   0.53474952  0.53214269  0.53024749
   0.58725258  0.58152612  0.42909614
   0.47896189  0.53290536  0.39133641
   0.57245632  0.45550363  0.43613794
   0.45063582  0.44496555  0.47935731
 
 position of ions in cartesian coordinates  (Angst):
   9.20816381 10.64656831 12.91136919
   8.99182188 12.27426505 10.78230470
  11.46179440 11.39226069 11.58104758
  12.58714230 12.44947502  9.37181776
  10.26604508 11.40858810  8.54711360
  12.27000004  9.75155009  9.52561650
   9.65890566  9.52594791 10.46956356
 


--------------------------------------------------------------------------------------------------------


 use parallel FFT for orbitals z direction half grid
 k-point   1 :   0.0000 0.0000 0.0000  plane waves:   91024

 maximum and minimum number of plane-waves per node :     11382    11374

 maximum number of plane-waves:     91024
 maximum index in each direction: 
   IXMAX=   34   IYMAX=   34   IZMAX=   35
   IXMIN=  -34   IYMIN=  -34   IZMIN=    0


 parallel 3D FFT for wavefunctions:
    minimum data exchange during FFTs selected (reduces bandwidth)
 parallel 3D FFT for charge:
    minimum data exchange during FFTs selected (reduces bandwidth)


 total amount of memory used by VASP MPI-rank0   189167. kBytes
=======================================================================

   base      :      30000. kBytes
   nonl-proj :       2003. kBytes
   fftplans  :      46139. kBytes
   grid      :     104464. kBytes
   one-center:          3. kBytes
   wavefun   :       6558. kBytes
 
     INWAV:  cpu time    0.0001: real time    0.0001
 Broyden mixing: mesh for mixing (old mesh)
   NGX = 69   NGY = 69   NGZ = 71
  (NGX  =216   NGY  =216   NGZ  =216)
  gives a total of 338031 points

 initial charge density was supplied:
 charge density of overlapping atoms calculated
 number of electron      21.0000000 magnetization       7.0000000
 keeping initial charge density in first step


--------------------------------------------------------------------------------------------------------


 Maximum index for augmentation-charges           621 (set IRDMAX)


--------------------------------------------------------------------------------------------------------


 First call to EWALD:  gamma=   0.082
 Maximum number of real-space cells 3x 3x 3
 Maximum number of reciprocal cells 3x 3x 3

    FEWALD:  cpu time    0.0011: real time    0.0011


--------------------------------------- Iteration      1(   1)  ---------------------------------------


    POTLOK:  cpu time    3.7046: real time    3.7145
    SETDIJ:  cpu time    0.0212: real time    0.0212
     EDDAV:  cpu time    2.0098: real time    2.0148
       DOS:  cpu time    0.0010: real time    0.0010
    --------------------------------------------
      LOOP:  cpu time    5.7367: real time    5.7515

 eigenvalue-minimisations  :   104
 total energy-change (2. order) : 0.4166127E+02  (-0.3404315E+03)
 number of electron      21.0000000 magnetization       7.0000000
 augmentation part       21.0000000 magnetization       7.0000000

 Free energy of the ion-electron system (eV)
  ---------------------------------------------------
  alpha Z        PSCENC =        -0.01642208
  Ewald energy   TEWEN  =       464.55457508
  -Hartree energ DENC   =      -712.14959670
  -exchange      EXHF   =         0.00000000
  -V(xc)+E(xc)   XCENC  =      -190.25417035
  PAW double counting   =       462.65713654     -238.99141827
  entropy T*S    EENTRO =        -0.00038046
  eigenvalues    EBANDS =      -118.90553573
  atomic energy  EATOM  =       374.76708025
  Solvation  Ediel_sol  =         0.00000000
  ---------------------------------------------------
  free energy    TOTEN  =        41.66126828 eV

  energy without entropy =       41.66164875  energy(sigma->0) =       41.66139510


--------------------------------------------------------------------------------------------------------




--------------------------------------- Iteration      1(   2)  ---------------------------------------


     EDDAV:  cpu time    2.2137: real time    2.2162
       DOS:  cpu time    0.0005: real time    0.0005
    --------------------------------------------
      LOOP:  cpu time    2.2143: real time    2.2221

 eigenvalue-minimisations  :   118
 total energy-change (2. order) :-0.5018463E+02  (-0.4989641E+02)
 number of electron      21.0000000 magnetization       7.0000000
 augmentation part       21.0000000 magnetization       7.0000000

 Free energy of the ion-electron system (eV)
  ---------------------------------------------------
  alpha Z        PSCENC =        -0.01642208
  Ewald energy   TEWEN  =       464.55457508
  -Hartree energ DENC   =      -712.14959670
  -exchange      EXHF   =         0.00000000
  -V(xc)+E(xc)   XCENC  =      -190.25417035
  PAW double counting   =       462.65713654     -238.99141827
  entropy T*S    EENTRO =         0.02371712
  eigenvalues    EBANDS =      -169.11425998
  atomic energy  EATOM  =       374.76708025
  Solvation  Ediel_sol  =         0.00000000
  ---------------------------------------------------
  free energy    TOTEN  =        -8.52335838 eV

  energy without entropy =       -8.54707550  energy(sigma->0) =       -8.53126409


--------------------------------------------------------------------------------------------------------




--------------------------------------- Iteration      1(   3)  ---------------------------------------


     EDDAV:  cpu time    1.8470: real time    1.8563
       DOS:  cpu time    0.0008: real time    0.0008
    --------------------------------------------
      LOOP:  cpu time    1.8477: real time    1.8517

 eigenvalue-minimisations  :    96
 total energy-change (2. order) :-0.8712125E+01  (-0.8673444E+01)
 number of electron      21.0000000 magnetization       7.0000000
 augmentation part       21.0000000 magnetization       7.0000000

 Free energy of the ion-electron system (eV)
  ---------------------------------------------------
  alpha Z        PSCENC =        -0.01642208
  Ewald energy   TEWEN  =       464.55457508
  -Hartree energ DENC   =      -712.14959670
  -exchange      EXHF   =         0.00000000
  -V(xc)+E(xc)   XCENC  =      -190.25417035
  PAW double counting   =       462.65713654     -238.99141827
  entropy T*S    EENTRO =        -0.00877310
  eigenvalues    EBANDS =      -177.79389457
  atomic energy  EATOM  =       374.76708025
  Solvation  Ediel_sol  =         0.00000000
  ---------------------------------------------------
  free energy    TOTEN  =       -17.23548320 eV

  energy without entropy =      -17.22671009  energy(sigma->0) =      -17.23255883


--------------------------------------------------------------------------------------------------------




--------------------------------------- Iteration      1(   4)  ---------------------------------------


     EDDAV:  cpu time    1.9920: real time    1.9940
       DOS:  cpu time    0.0009: real time    0.0009
    --------------------------------------------
      LOOP:  cpu time    1.9929: real time    1.9949

 eigenvalue-minimisations  :   102
 total energy-change (2. order) :-0.2760860E+00  (-0.2704427E+00)
 number of electron      21.0000000 magnetization       7.0000000
 augmentation part       21.0000000 magnetization       7.0000000

 Free energy of the ion-electron system (eV)
  ---------------------------------------------------
  alpha Z        PSCENC =        -0.01642208
  Ewald energy   TEWEN  =       464.55457508
  -Hartree energ DENC   =      -712.14959670
  -exchange      EXHF   =         0.00000000
  -V(xc)+E(xc)   XCENC  =      -190.25417035
  PAW double counting   =       462.65713654     -238.99141827
  entropy T*S    EENTRO =        -0.03515828
  eigenvalues    EBANDS =      -178.04359541
  atomic energy  EATOM  =       374.76708025
  Solvation  Ediel_sol  =         0.00000000
  ---------------------------------------------------
  free energy    TOTEN  =       -17.51156922 eV

  energy without entropy =      -17.47641093  energy(sigma->0) =      -17.49984979


--------------------------------------------------------------------------------------------------------




--------------------------------------- Iteration      1(   5)  ---------------------------------------


     EDDAV:  cpu time    1.7554: real time    1.7593
       DOS:  cpu time    0.0010: real time    0.0010
    CHARGE:  cpu time    0.4036: real time    0.4062
    MIXING:  cpu time    0.0619: real time    0.0619
    --------------------------------------------
      LOOP:  cpu time    2.2219: real time    2.2284

 eigenvalue-minimisations  :    92
 total energy-change (2. order) :-0.5004938E-02  (-0.5001686E-02)
 number of electron      21.0000001 magnetization       6.3536286
 augmentation part       -0.3697851 magnetization       4.6449089

 Broyden mixing:
  rms(total) = 0.60560E+00    rms(broyden)= 0.60560E+00
  rms(prec ) = 0.72871E+00
  weight for this iteration     100.00

 Free energy of the ion-electron system (eV)
  ---------------------------------------------------
  alpha Z        PSCENC =        -0.01642208
  Ewald energy   TEWEN  =       464.55457508
  -Hartree energ DENC   =      -712.14959670
  -exchange      EXHF   =         0.00000000
  -V(xc)+E(xc)   XCENC  =      -190.25417035
  PAW double counting   =       462.65713654     -238.99141827
  entropy T*S    EENTRO =        -0.03540557
  eigenvalues    EBANDS =      -178.04835306
  atomic energy  EATOM  =       374.76708025
  Solvation  Ediel_sol  =         0.00000000
  ---------------------------------------------------
  free energy    TOTEN  =       -17.51657415 eV

  energy without entropy =      -17.48116859  energy(sigma->0) =      -17.50477230


--------------------------------------------------------------------------------------------------------




--------------------------------------- Iteration      1(   6)  ---------------------------------------


    POTLOK:  cpu time    3.6986: real time    3.7074
    SETDIJ:  cpu time    0.0246: real time    0.0246
     EDDAV:  cpu time    1.5396: real time    1.5455
       DOS:  cpu time    0.0009: real time    0.0009
    CHARGE:  cpu time    0.3889: real time    0.3893
    MIXING:  cpu time    0.0712: real time    0.0713
    --------------------------------------------
      LOOP:  cpu time    5.7239: real time    5.7390

 eigenvalue-minimisations  :    72
 total energy-change (2. order) : 0.7762671E+01  (-0.1618901E+01)
 number of electron      21.0000001 magnetization       5.9265213
 augmentation part       -0.3822904 magnetization       2.5244049

 Broyden mixing:
  rms(total) = 0.26422E+00    rms(broyden)= 0.26422E+00
  rms(prec ) = 0.31517E+00
  weight for this iteration     100.00

 eigenvalues of (default mixing * dielectric matrix)
  average eigenvalue GAMMA=   0.9410
  0.9410

 Free energy of the ion-electron system (eV)
  ---------------------------------------------------
  alpha Z        PSCENC =        -0.01642208
  Ewald energy   TEWEN  =       464.55457508
  -Hartree energ DENC   =      -724.51784889
  -exchange      EXHF   =         0.00000000
  -V(xc)+E(xc)   XCENC  =      -185.37707377
  PAW double counting   =       562.23749189     -338.62416105
  entropy T*S    EENTRO =        -0.05804277
  eigenvalues    EBANDS =      -162.71950170
  atomic energy  EATOM  =       374.76708025
  Solvation  Ediel_sol  =         0.00000000
  ---------------------------------------------------
  free energy    TOTEN  =        -9.75390304 eV

  energy without entropy =       -9.69586027  energy(sigma->0) =       -9.73455545


--------------------------------------------------------------------------------------------------------




--------------------------------------- Iteration      1(   7)  ---------------------------------------


    POTLOK:  cpu time    3.7185: real time    3.7239
    SETDIJ:  cpu time    0.0271: real time    0.0271
     EDDAV:  cpu time    1.5836: real time    1.5871
       DOS:  cpu time    0.0004: real time    0.0004
    CHARGE:  cpu time    0.3925: real time    0.3929
    MIXING:  cpu time    0.0800: real time    0.0801
    --------------------------------------------
      LOOP:  cpu time    5.8020: real time    5.8114

 eigenvalue-minimisations  :    78
 total energy-change (2. order) :-0.1000255E+01  (-0.3647414E+00)
 number of electron      21.0000001 magnetization       5.5273114
 augmentation part       -0.3751855 magnetization       2.5699590

 Broyden mixing:
  rms(total) = 0.16003E+00    rms(broyden)= 0.16003E+00
  rms(prec ) = 0.17516E+00
  weight for this iteration     100.00

 eigenvalues of (default mixing * dielectric matrix)
  average eigenvalue GAMMA=   1.0806
  1.4500  0.7112

 Free energy of the ion-electron system (eV)
  ---------------------------------------------------
  alpha Z        PSCENC =        -0.01642208
  Ewald energy   TEWEN  =       464.55457508
  -Hartree energ DENC   =      -732.22185922
  -exchange      EXHF   =         0.00000000
  -V(xc)+E(xc)   XCENC  =      -185.55569314
  PAW double counting   =       624.51214714     -400.95432044
  entropy T*S    EENTRO =        -0.03643294
  eigenvalues    EBANDS =      -155.80323303
  atomic energy  EATOM  =       374.76708025
  Solvation  Ediel_sol  =         0.00000000
  ---------------------------------------------------
  free energy    TOTEN  =       -10.75415838 eV

  energy without entropy =      -10.71772544  energy(sigma->0) =      -10.74201407


--------------------------------------------------------------------------------------------------------




--------------------------------------- Iteration      1(   8)  ---------------------------------------


    POTLOK:  cpu time    3.6504: real time    3.6598
    SETDIJ:  cpu time    0.0259: real time    0.0260
     EDDAV:  cpu time    1.8642: real time    1.8705
       DOS:  cpu time    0.0012: real time    0.0012
    CHARGE:  cpu time    0.4211: real time    0.4215
    MIXING:  cpu time    0.0727: real time    0.0728
    --------------------------------------------
      LOOP:  cpu time    6.0355: real time    6.0517

 eigenvalue-minimisations  :    94
 total energy-change (2. order) : 0.1535751E-01  (-0.5116804E-01)
 number of electron      21.0000001 magnetization       5.1783691
 augmentation part       -0.3722894 magnetization       2.3639580

 Broyden mixing:
  rms(total) = 0.11937E+00    rms(broyden)= 0.11937E+00
  rms(prec ) = 0.13076E+00
  weight for this iteration     100.00

 eigenvalues of (default mixing * dielectric matrix)
  average eigenvalue GAMMA=   1.0245
  1.6067  0.7335  0.7335

 Free energy of the ion-electron system (eV)
  ---------------------------------------------------
  alpha Z        PSCENC =        -0.01642208
  Ewald energy   TEWEN  =       464.55457508
  -Hartree energ DENC   =      -735.70274847
  -exchange      EXHF   =         0.00000000
  -V(xc)+E(xc)   XCENC  =      -185.37335918
  PAW double counting   =       661.76772996     -438.21599092
  entropy T*S    EENTRO =        -0.03218257
  eigenvalues    EBANDS =      -152.48748294
  atomic energy  EATOM  =       374.76708025
  Solvation  Ediel_sol  =         0.00000000
  ---------------------------------------------------
  free energy    TOTEN  =       -10.73880087 eV

  energy without entropy =      -10.70661830  energy(sigma->0) =      -10.72807335


--------------------------------------------------------------------------------------------------------




--------------------------------------- Iteration      1(   9)  ---------------------------------------


    POTLOK:  cpu time    3.6819: real time    3.6864
    SETDIJ:  cpu time    0.0260: real time    0.0260
     EDDAV:  cpu time    1.8192: real time    1.8208
       DOS:  cpu time    0.0005: real time    0.0005
    CHARGE:  cpu time    0.3917: real time    0.3920
    MIXING:  cpu time    0.0893: real time    0.0894
    --------------------------------------------
      LOOP:  cpu time    6.0086: real time    6.0151

 eigenvalue-minimisations  :    96
 total energy-change (2. order) :-0.5326718E+00  (-0.9450330E-02)
 number of electron      21.0000001 magnetization       4.7286543
 augmentation part       -0.3691972 magnetization       2.2347713

 Broyden mixing:
  rms(total) = 0.10853E+00    rms(broyden)= 0.10853E+00
  rms(prec ) = 0.11709E+00
  weight for this iteration     100.00

 eigenvalues of (default mixing * dielectric matrix)
  average eigenvalue GAMMA=   1.0555
  1.7905  0.9302  0.9302  0.5711

 Free energy of the ion-electron system (eV)
  ---------------------------------------------------
  alpha Z        PSCENC =        -0.01642208
  Ewald energy   TEWEN  =       464.55457508
  -Hartree energ DENC   =      -737.56571005
  -exchange      EXHF   =         0.00000000
  -V(xc)+E(xc)   XCENC  =      -185.70541962
  PAW double counting   =       684.62505492     -461.07817347
  entropy T*S    EENTRO =        -0.04361993
  eigenvalues    EBANDS =      -150.80883780
  atomic energy  EATOM  =       374.76708025
  Solvation  Ediel_sol  =         0.00000000
  ---------------------------------------------------
  free energy    TOTEN  =       -11.27147270 eV

  energy without entropy =      -11.22785277  energy(sigma->0) =      -11.25693272


--------------------------------------------------------------------------------------------------------




--------------------------------------- Iteration      1(  10)  ---------------------------------------


    POTLOK:  cpu time    3.6559: real time    3.6670
    SETDIJ:  cpu time    0.0213: real time    0.0214
     EDDAV:  cpu time    1.5920: real time    1.5937
       DOS:  cpu time    0.0009: real time    0.0009
    CHARGE:  cpu time    0.3973: real time    0.3977
    MIXING:  cpu time    0.0831: real time    0.0831
    --------------------------------------------
      LOOP:  cpu time    5.7506: real time    5.7639

 eigenvalue-minimisations  :    76
 total energy-change (2. order) :-0.7399052E+00  (-0.1290365E-01)
 number of electron      21.0000001 magnetization       4.5451833
 augmentation part       -0.3667343 magnetization       2.6276539

 Broyden mixing:
  rms(total) = 0.11237E+00    rms(broyden)= 0.11237E+00
  rms(prec ) = 0.12021E+00
  weight for this iteration     100.00

 eigenvalues of (default mixing * dielectric matrix)
  average eigenvalue GAMMA=   0.9953
  1.8703  1.0463  1.0463  0.5274  0.4865

 Free energy of the ion-electron system (eV)
  ---------------------------------------------------
  alpha Z        PSCENC =        -0.01642208
  Ewald energy   TEWEN  =       464.55457508
  -Hartree energ DENC   =      -739.76735195
  -exchange      EXHF   =         0.00000000
  -V(xc)+E(xc)   XCENC  =      -186.19399033
  PAW double counting   =       711.59286534     -488.04289422
  entropy T*S    EENTRO =        -0.04062976
  eigenvalues    EBANDS =      -148.86461019
  atomic energy  EATOM  =       374.76708025
  Solvation  Ediel_sol  =         0.00000000
  ---------------------------------------------------
  free energy    TOTEN  =       -12.01137786 eV

  energy without entropy =      -11.97074810  energy(sigma->0) =      -11.99783461


--------------------------------------------------------------------------------------------------------




--------------------------------------- Iteration      1(  11)  ---------------------------------------


    POTLOK:  cpu time    3.7204: real time    3.7246
    SETDIJ:  cpu time    0.0267: real time    0.0267
     EDDAV:  cpu time    1.8108: real time    1.8168
       DOS:  cpu time    0.0010: real time    0.0010
    CHARGE:  cpu time    0.3791: real time    0.3817
    MIXING:  cpu time    0.0933: real time    0.0934
    --------------------------------------------
      LOOP:  cpu time    6.0312: real time    6.0442

 eigenvalue-minimisations  :    96
 total energy-change (2. order) :-0.1653397E+00  (-0.2634174E-02)
 number of electron      21.0000001 magnetization       4.7735897
 augmentation part       -0.3661491 magnetization       3.1118094

 Broyden mixing:
  rms(total) = 0.11573E+00    rms(broyden)= 0.11573E+00
  rms(prec ) = 0.12336E+00
  weight for this iteration     100.00

 eigenvalues of (default mixing * dielectric matrix)
  average eigenvalue GAMMA=   0.9629
  1.8739  1.0859  1.0859  0.5767  0.5767  0.5784

 Free energy of the ion-electron system (eV)
  ---------------------------------------------------
  alpha Z        PSCENC =        -0.01642208
  Ewald energy   TEWEN  =       464.55457508
  -Hartree energ DENC   =      -740.46309266
  -exchange      EXHF   =         0.00000000
  -V(xc)+E(xc)   XCENC  =      -186.30359586
  PAW double counting   =       717.35285695     -493.80048971
  entropy T*S    EENTRO =        -0.02861290
  eigenvalues    EBANDS =      -148.23901668
  atomic energy  EATOM  =       374.76708025
  Solvation  Ediel_sol  =         0.00000000
  ---------------------------------------------------
  free energy    TOTEN  =       -12.17671761 eV

  energy without entropy =      -12.14810471  energy(sigma->0) =      -12.16717998


--------------------------------------------------------------------------------------------------------




--------------------------------------- Iteration      1(  12)  ---------------------------------------


    POTLOK:  cpu time    3.6406: real time    3.6470
    SETDIJ:  cpu time    0.0245: real time    0.0245
     EDDAV:  cpu time    1.6442: real time    1.6480
       DOS:  cpu time    0.0008: real time    0.0008
    CHARGE:  cpu time    0.3799: real time    0.3803
    MIXING:  cpu time    0.0860: real time    0.0861
    --------------------------------------------
      LOOP:  cpu time    5.7760: real time    5.7867

 eigenvalue-minimisations  :    78
 total energy-change (2. order) : 0.6764032E-01  (-0.2896443E-02)
 number of electron      21.0000001 magnetization       5.2564063
 augmentation part       -0.3665182 magnetization       3.2392625

 Broyden mixing:
  rms(total) = 0.11140E+00    rms(broyden)= 0.11140E+00
  rms(prec ) = 0.11878E+00
  weight for this iteration     100.00

 eigenvalues of (default mixing * dielectric matrix)
  average eigenvalue GAMMA=   1.0381
  1.4725  1.8438  1.1384  1.1384  0.5691  0.5522  0.5522

 Free energy of the ion-electron system (eV)
  ---------------------------------------------------
  alpha Z        PSCENC =        -0.01642208
  Ewald energy   TEWEN  =       464.55457508
  -Hartree energ DENC   =      -739.97249681
  -exchange      EXHF   =         0.00000000
  -V(xc)+E(xc)   XCENC  =      -186.25192832
  PAW double counting   =       716.37815739     -492.82974818
  entropy T*S    EENTRO =        -0.04388617
  eigenvalues    EBANDS =      -148.69440844
  atomic energy  EATOM  =       374.76708025
  Solvation  Ediel_sol  =         0.00000000
  ---------------------------------------------------
  free energy    TOTEN  =       -12.10907729 eV

  energy without entropy =      -12.06519112  energy(sigma->0) =      -12.09444857


--------------------------------------------------------------------------------------------------------




--------------------------------------- Iteration      1(  13)  ---------------------------------------


    POTLOK:  cpu time    3.6129: real time    3.6187
    SETDIJ:  cpu time    0.0244: real time    0.0245
     EDDAV:  cpu time    1.5605: real time    1.5641
       DOS:  cpu time    0.0009: real time    0.0009
    CHARGE:  cpu time    0.3895: real time    0.3921
    MIXING:  cpu time    0.1062: real time    0.1064
    --------------------------------------------
      LOOP:  cpu time    5.6944: real time    5.7066

 eigenvalue-minimisations  :    78
 total energy-change (2. order) : 0.2264680E-02  (-0.1273697E-01)
 number of electron      21.0000001 magnetization       6.3875213
 augmentation part       -0.3670781 magnetization       3.6600163

 Broyden mixing:
  rms(total) = 0.10236E+00    rms(broyden)= 0.10236E+00
  rms(prec ) = 0.11007E+00
  weight for this iteration     100.00

 eigenvalues of (default mixing * dielectric matrix)
  average eigenvalue GAMMA=   1.6369
  5.6050  1.7360  1.5116  1.5116  0.7560  0.7560  0.6093  0.6093

 Free energy of the ion-electron system (eV)
  ---------------------------------------------------
  alpha Z        PSCENC =        -0.01642208
  Ewald energy   TEWEN  =       464.55457508
  -Hartree energ DENC   =      -738.95211197
  -exchange      EXHF   =         0.00000000
  -V(xc)+E(xc)   XCENC  =      -186.24740830
  PAW double counting   =       716.40577960     -492.86234077
  entropy T*S    EENTRO =        -0.03767000
  eigenvalues    EBANDS =      -149.71829442
  atomic energy  EATOM  =       374.76708025
  Solvation  Ediel_sol  =         0.00000000
  ---------------------------------------------------
  free energy    TOTEN  =       -12.10681261 eV

  energy without entropy =      -12.06914261  energy(sigma->0) =      -12.09425594


--------------------------------------------------------------------------------------------------------




--------------------------------------- Iteration      1(  14)  ---------------------------------------


    POTLOK:  cpu time    3.6440: real time    3.6537
    SETDIJ:  cpu time    0.0309: real time    0.0309
     EDDAV:  cpu time    1.5563: real time    1.5600
       DOS:  cpu time    0.0008: real time    0.0008
    CHARGE:  cpu time    0.4058: real time    0.4083
    MIXING:  cpu time    0.1085: real time    0.1086
    --------------------------------------------
      LOOP:  cpu time    5.7462: real time    5.7623

 eigenvalue-minimisations  :    76
 total energy-change (2. order) : 0.2925784E+00  (-0.2718029E+00)
 number of electron      21.0000001 magnetization       4.5578889
 augmentation part       -0.3693986 magnetization       1.3673567

 Broyden mixing:
  rms(total) = 0.19914E+00    rms(broyden)= 0.19914E+00
  rms(prec ) = 0.21300E+00
  weight for this iteration     100.00

 eigenvalues of (default mixing * dielectric matrix)
  average eigenvalue GAMMA=   1.2955
  2.0173  2.0173  2.1196  1.6471  1.0651  0.7290  0.7290  0.7488  0.5867

 Free energy of the ion-electron system (eV)
  ---------------------------------------------------
  alpha Z        PSCENC =        -0.01642208
  Ewald energy   TEWEN  =       464.55457508
  -Hartree energ DENC   =      -737.17589275
  -exchange      EXHF   =         0.00000000
  -V(xc)+E(xc)   XCENC  =      -186.16271891
  PAW double counting   =       722.92982091     -499.39444376
  entropy T*S    EENTRO =        -0.05041601
  eigenvalues    EBANDS =      -151.26581697
  atomic energy  EATOM  =       374.76708025
  Solvation  Ediel_sol  =         0.00000000
  ---------------------------------------------------
  free energy    TOTEN  =       -11.81423423 eV

  energy without entropy =      -11.76381823  energy(sigma->0) =      -11.79742890


--------------------------------------------------------------------------------------------------------




--------------------------------------- Iteration      1(  15)  ---------------------------------------


    POTLOK:  cpu time    3.6260: real time    3.6363
    SETDIJ:  cpu time    0.0243: real time    0.0243
     EDDAV:  cpu time    1.4858: real time    1.4873
       DOS:  cpu time    0.0008: real time    0.0008
    CHARGE:  cpu time    0.3853: real time    0.3857
    MIXING:  cpu time    0.1155: real time    0.1157
    --------------------------------------------
      LOOP:  cpu time    5.6378: real time    5.6501

 eigenvalue-minimisations  :    74
 total energy-change (2. order) :-0.1466382E+01  (-0.2234200E+00)
 number of electron      21.0000001 magnetization       3.5362590
 augmentation part       -0.3645337 magnetization       1.6939446

 Broyden mixing:
  rms(total) = 0.13099E+00    rms(broyden)= 0.13099E+00
  rms(prec ) = 0.14020E+00
  weight for this iteration     100.00

 eigenvalues of (default mixing * dielectric matrix)
  average eigenvalue GAMMA=   1.4277
  2.9858  2.9858  1.9780  1.9780  1.0020  0.7617  0.7617  0.5825  0.6207  0.6207

 Free energy of the ion-electron system (eV)
  ---------------------------------------------------
  alpha Z        PSCENC =        -0.01642208
  Ewald energy   TEWEN  =       464.55457508
  -Hartree energ DENC   =      -740.58517265
  -exchange      EXHF   =         0.00000000
  -V(xc)+E(xc)   XCENC  =      -187.11349105
  PAW double counting   =       730.02928157     -506.47274730
  entropy T*S    EENTRO =        -0.04357666
  eigenvalues    EBANDS =      -148.40014333
  atomic energy  EATOM  =       374.76708025
  Solvation  Ediel_sol  =         0.00000000
  ---------------------------------------------------
  free energy    TOTEN  =       -13.28061616 eV

  energy without entropy =      -13.23703950  energy(sigma->0) =      -13.26609061


--------------------------------------------------------------------------------------------------------




--------------------------------------- Iteration      1(  16)  ---------------------------------------


    POTLOK:  cpu time    3.6291: real time    3.6371
    SETDIJ:  cpu time    0.0228: real time    0.0228
     EDDAV:  cpu time    1.6180: real time    1.6224
       DOS:  cpu time    0.0008: real time    0.0008
    CHARGE:  cpu time    0.3760: real time    0.3763
    MIXING:  cpu time    0.1386: real time    0.1388
    --------------------------------------------
      LOOP:  cpu time    5.7854: real time    5.7983

 eigenvalue-minimisations  :    78
 total energy-change (2. order) :-0.8979524E+00  (-0.4672354E-01)
 number of electron      21.0000001 magnetization       2.5611031
 augmentation part       -0.3633749 magnetization       1.5439130

 Broyden mixing:
  rms(total) = 0.12349E+00    rms(broyden)= 0.12349E+00
  rms(prec ) = 0.12955E+00
  weight for this iteration     100.00

 eigenvalues of (default mixing * dielectric matrix)
  average eigenvalue GAMMA=   1.4510
  3.4524  3.4524  2.0370  2.0370  0.9254  0.9254  0.7578  0.6247  0.6247  0.5621
  0.5621

 Free energy of the ion-electron system (eV)
  ---------------------------------------------------
  alpha Z        PSCENC =        -0.01642208
  Ewald energy   TEWEN  =       464.55457508
  -Hartree energ DENC   =      -741.66755923
  -exchange      EXHF   =         0.00000000
  -V(xc)+E(xc)   XCENC  =      -187.80365980
  PAW double counting   =       723.65028726     -500.07633598
  entropy T*S    EENTRO =         0.00591323
  eigenvalues    EBANDS =      -147.59244732
  atomic energy  EATOM  =       374.76708025
  Solvation  Ediel_sol  =         0.00000000
  ---------------------------------------------------
  free energy    TOTEN  =       -14.17856860 eV

  energy without entropy =      -14.18448183  energy(sigma->0) =      -14.18053968


--------------------------------------------------------------------------------------------------------




--------------------------------------- Iteration      1(  17)  ---------------------------------------


    POTLOK:  cpu time    3.6329: real time    3.6364
    SETDIJ:  cpu time    0.0246: real time    0.0246
     EDDAV:  cpu time    1.7274: real time    1.7289
       DOS:  cpu time    0.0015: real time    0.0015
    CHARGE:  cpu time    0.3767: real time    0.3814
    MIXING:  cpu time    0.1518: real time    0.1519
    --------------------------------------------
      LOOP:  cpu time    5.9149: real time    5.9247

 eigenvalue-minimisations  :    88
 total energy-change (2. order) :-0.4999549E+00  (-0.2526722E-01)
 number of electron      21.0000001 magnetization       2.5088497
 augmentation part       -0.3631751 magnetization       1.5001156

 Broyden mixing:
  rms(total) = 0.61390E-01    rms(broyden)= 0.61390E-01
  rms(prec ) = 0.66392E-01
  weight for this iteration     100.00

 eigenvalues of (default mixing * dielectric matrix)
  average eigenvalue GAMMA=   1.3583
  3.2359  3.2359  1.9709  1.9709  0.9826  0.9826  0.7611  0.7611  0.6125  0.6022
  0.5921  0.5921

 Free energy of the ion-electron system (eV)
  ---------------------------------------------------
  alpha Z        PSCENC =        -0.01642208
  Ewald energy   TEWEN  =       464.55457508
  -Hartree energ DENC   =      -742.94032240
  -exchange      EXHF   =         0.00000000
  -V(xc)+E(xc)   XCENC  =      -188.17441069
  PAW double counting   =       721.06317481     -497.47532217
  entropy T*S    EENTRO =         0.03716154
  eigenvalues    EBANDS =      -146.49403788
  atomic energy  EATOM  =       374.76708025
  Solvation  Ediel_sol  =         0.00000000
  ---------------------------------------------------
  free energy    TOTEN  =       -14.67852354 eV

  energy without entropy =      -14.71568509  energy(sigma->0) =      -14.69091072


--------------------------------------------------------------------------------------------------------




--------------------------------------- Iteration      1(  18)  ---------------------------------------


    POTLOK:  cpu time    3.6074: real time    3.6128
    SETDIJ:  cpu time    0.0226: real time    0.0227
     EDDAV:  cpu time    1.5865: real time    1.5880
       DOS:  cpu time    0.0013: real time    0.0014
    CHARGE:  cpu time    0.3847: real time    0.3851
    MIXING:  cpu time    0.1440: real time    0.1441
    --------------------------------------------
      LOOP:  cpu time    5.7466: real time    5.7540

 eigenvalue-minimisations  :    76
 total energy-change (2. order) :-0.2283831E+00  (-0.5108118E-02)
 number of electron      21.0000001 magnetization       2.6894413
 augmentation part       -0.3629602 magnetization       1.6806074

 Broyden mixing:
  rms(total) = 0.49552E-01    rms(broyden)= 0.49552E-01
  rms(prec ) = 0.52712E-01
  weight for this iteration     100.00

 eigenvalues of (default mixing * dielectric matrix)
  average eigenvalue GAMMA=   1.4212
  3.3400  3.3400  1.9895  1.9895  1.5249  1.5249  0.6514  0.6514  0.7418  0.7418
  0.7881  0.5963  0.5963

 Free energy of the ion-electron system (eV)
  ---------------------------------------------------
  alpha Z        PSCENC =        -0.01642208
  Ewald energy   TEWEN  =       464.55457508
  -Hartree energ DENC   =      -743.18971837
  -exchange      EXHF   =         0.00000000
  -V(xc)+E(xc)   XCENC  =      -188.34522257
  PAW double counting   =       723.79586422     -500.20923484
  entropy T*S    EENTRO =         0.03276629
  eigenvalues    EBANDS =      -146.29659464
  atomic energy  EATOM  =       374.76708025
  Solvation  Ediel_sol  =         0.00000000
  ---------------------------------------------------
  free energy    TOTEN  =       -14.90690667 eV

  energy without entropy =      -14.93967296  energy(sigma->0) =      -14.91782877


--------------------------------------------------------------------------------------------------------




--------------------------------------- Iteration      1(  19)  ---------------------------------------


    POTLOK:  cpu time    3.6296: real time    3.6405
    SETDIJ:  cpu time    0.0241: real time    0.0241
     EDDAV:  cpu time    1.5688: real time    1.5702
       DOS:  cpu time    0.0007: real time    0.0007
    CHARGE:  cpu time    0.3480: real time    0.3483
    MIXING:  cpu time    0.1623: real time    0.1646
    --------------------------------------------
      LOOP:  cpu time    5.7335: real time    5.7484

 eigenvalue-minimisations  :    76
 total energy-change (2. order) :-0.5204253E+00  (-0.2251610E-01)
 number of electron      21.0000001 magnetization       2.2889268
 augmentation part       -0.3624631 magnetization       1.3908259

 Broyden mixing:
  rms(total) = 0.81676E-01    rms(broyden)= 0.81676E-01
  rms(prec ) = 0.85124E-01
  weight for this iteration     100.00

 eigenvalues of (default mixing * dielectric matrix)
  average eigenvalue GAMMA=   1.4368
  3.2642  3.2642  2.4937  2.4937  1.6040  1.4181  0.9726  0.6641  0.6641  0.6610
  0.6610  0.7401  0.6070  0.6070

 Free energy of the ion-electron system (eV)
  ---------------------------------------------------
  alpha Z        PSCENC =        -0.01642208
  Ewald energy   TEWEN  =       464.55457508
  -Hartree energ DENC   =      -742.51040240
  -exchange      EXHF   =         0.00000000
  -V(xc)+E(xc)   XCENC  =      -188.79503771
  PAW double counting   =       723.82763333     -500.24202884
  entropy T*S    EENTRO =         0.01660383
  eigenvalues    EBANDS =      -147.02933341
  atomic energy  EATOM  =       374.76708025
  Solvation  Ediel_sol  =         0.00000000
  ---------------------------------------------------
  free energy    TOTEN  =       -15.42733196 eV

  energy without entropy =      -15.44393579  energy(sigma->0) =      -15.43286657


--------------------------------------------------------------------------------------------------------




--------------------------------------- Iteration      1(  20)  ---------------------------------------


    POTLOK:  cpu time    3.6139: real time    3.6242
    SETDIJ:  cpu time    0.0214: real time    0.0215
     EDDAV:  cpu time    1.7336: real time    1.7351
       DOS:  cpu time    0.0006: real time    0.0028
    CHARGE:  cpu time    0.3764: real time    0.3767
    MIXING:  cpu time    0.1754: real time    0.1756
    --------------------------------------------
      LOOP:  cpu time    5.9213: real time    5.9358

 eigenvalue-minimisations  :    86
 total energy-change (2. order) :-0.4630579E+00  (-0.9848480E-02)
 number of electron      21.0000001 magnetization       1.7785056
 augmentation part       -0.3625232 magnetization       0.8022598

 Broyden mixing:
  rms(total) = 0.64596E-01    rms(broyden)= 0.64596E-01
  rms(prec ) = 0.68797E-01
  weight for this iteration     100.00

 eigenvalues of (default mixing * dielectric matrix)
  average eigenvalue GAMMA=   1.4751
  3.1487  3.1487  3.0488  3.0488  1.7259  1.2414  1.2414  0.7537  0.7537  0.6719
  0.6719  0.7632  0.6935  0.6077  0.6077

 Free energy of the ion-electron system (eV)
  ---------------------------------------------------
  alpha Z        PSCENC =        -0.01642208
  Ewald energy   TEWEN  =       464.55457508
  -Hartree energ DENC   =      -742.37558915
  -exchange      EXHF   =         0.00000000
  -V(xc)+E(xc)   XCENC  =      -189.19906769
  PAW double counting   =       721.88805717     -498.29470120
  entropy T*S    EENTRO =         0.01127566
  eigenvalues    EBANDS =      -147.22559787
  atomic energy  EATOM  =       374.76708025
  Solvation  Ediel_sol  =         0.00000000
  ---------------------------------------------------
  free energy    TOTEN  =       -15.89038983 eV

  energy without entropy =      -15.90166550  energy(sigma->0) =      -15.89414839


--------------------------------------------------------------------------------------------------------




--------------------------------------- Iteration      1(  21)  ---------------------------------------


    POTLOK:  cpu time    3.6853: real time    3.6905
    SETDIJ:  cpu time    0.0228: real time    0.0229
     EDDAV:  cpu time    1.5106: real time    1.5121
       DOS:  cpu time    0.0011: real time    0.0011
    CHARGE:  cpu time    0.3594: real time    0.3598
    MIXING:  cpu time    0.1872: real time    0.1873
    --------------------------------------------
      LOOP:  cpu time    5.7665: real time    5.7737

 eigenvalue-minimisations  :    74
 total energy-change (2. order) :-0.3114579E+00  (-0.6048398E-02)
 number of electron      21.0000001 magnetization       1.5312214
 augmentation part       -0.3628127 magnetization       0.4498265

 Broyden mixing:
  rms(total) = 0.33215E-01    rms(broyden)= 0.33215E-01
  rms(prec ) = 0.35944E-01
  weight for this iteration     100.00

 eigenvalues of (default mixing * dielectric matrix)
  average eigenvalue GAMMA=   1.4635
  3.0888  3.0888  3.2103  3.2103  1.4994  1.4994  1.4447  0.8494  0.8494  0.7356
  0.7356  0.6657  0.6657  0.6459  0.6135  0.6135

 Free energy of the ion-electron system (eV)
  ---------------------------------------------------
  alpha Z        PSCENC =        -0.01642208
  Ewald energy   TEWEN  =       464.55457508
  -Hartree energ DENC   =      -742.19108450
  -exchange      EXHF   =         0.00000000
  -V(xc)+E(xc)   XCENC  =      -189.50028259
  PAW double counting   =       717.46332545     -493.86095335
  entropy T*S    EENTRO =         0.01959675
  eigenvalues    EBANDS =      -147.43768275
  atomic energy  EATOM  =       374.76708025
  Solvation  Ediel_sol  =         0.00000000
  ---------------------------------------------------
  free energy    TOTEN  =       -16.20184774 eV

  energy without entropy =      -16.22144448  energy(sigma->0) =      -16.20837998


--------------------------------------------------------------------------------------------------------




--------------------------------------- Iteration      1(  22)  ---------------------------------------


    POTLOK:  cpu time    3.6168: real time    3.6221
    SETDIJ:  cpu time    0.0209: real time    0.0209
     EDDAV:  cpu time    1.8625: real time    1.8643
       DOS:  cpu time    0.0016: real time    0.0016
    CHARGE:  cpu time    0.3825: real time    0.3829
    MIXING:  cpu time    0.1837: real time    0.1839
    --------------------------------------------
      LOOP:  cpu time    6.0680: real time    6.0757

 eigenvalue-minimisations  :    96
 total energy-change (2. order) :-0.9137299E-01  (-0.1888511E-02)
 number of electron      21.0000001 magnetization       1.4688822
 augmentation part       -0.3629642 magnetization       0.3464115

 Broyden mixing:
  rms(total) = 0.16028E-01    rms(broyden)= 0.16028E-01
  rms(prec ) = 0.17177E-01
  weight for this iteration     100.00

 eigenvalues of (default mixing * dielectric matrix)
  average eigenvalue GAMMA=   1.4834
  3.4380  3.4380  3.0934  3.0934  1.6640  1.6640  1.4375  0.9638  0.9638  0.6617
  0.6617  0.7667  0.7667  0.7477  0.6163  0.6202  0.6202

 Free energy of the ion-electron system (eV)
  ---------------------------------------------------
  alpha Z        PSCENC =        -0.01642208
  Ewald energy   TEWEN  =       464.55457508
  -Hartree energ DENC   =      -742.15092277
  -exchange      EXHF   =         0.00000000
  -V(xc)+E(xc)   XCENC  =      -189.59271996
  PAW double counting   =       715.48216811     -491.87712252
  entropy T*S    EENTRO =         0.02488186
  eigenvalues    EBANDS =      -147.48473870
  atomic energy  EATOM  =       374.76708025
  Solvation  Ediel_sol  =         0.00000000
  ---------------------------------------------------
  free energy    TOTEN  =       -16.29322073 eV

  energy without entropy =      -16.31810258  energy(sigma->0) =      -16.30151468


--------------------------------------------------------------------------------------------------------




--------------------------------------- Iteration      1(  23)  ---------------------------------------


    POTLOK:  cpu time    3.6188: real time    3.6402
    SETDIJ:  cpu time    0.0224: real time    0.0224
     EDDAV:  cpu time    1.4832: real time    1.4868
       DOS:  cpu time    0.0011: real time    0.0011
    CHARGE:  cpu time    0.3598: real time    0.3601
    MIXING:  cpu time    0.2019: real time    0.2043
    --------------------------------------------
      LOOP:  cpu time    5.6872: real time    5.7150

 eigenvalue-minimisations  :    72
 total energy-change (2. order) :-0.6917052E-01  (-0.5908753E-03)
 number of electron      21.0000001 magnetization       1.2920139
 augmentation part       -0.3629985 magnetization       0.1740145

 Broyden mixing:
  rms(total) = 0.14790E-01    rms(broyden)= 0.14790E-01
  rms(prec ) = 0.15738E-01
  weight for this iteration     100.00

 eigenvalues of (default mixing * dielectric matrix)
  average eigenvalue GAMMA=   1.5140
  3.6036  3.6036  2.9584  2.9584  1.8482  1.8482  1.9605  1.1314  1.1314  0.6658
  0.6658  0.7387  0.7387  0.8070  0.7615  0.6153  0.6153  0.5996

 Free energy of the ion-electron system (eV)
  ---------------------------------------------------
  alpha Z        PSCENC =        -0.01642208
  Ewald energy   TEWEN  =       464.55457508
  -Hartree energ DENC   =      -742.03219360
  -exchange      EXHF   =         0.00000000
  -V(xc)+E(xc)   XCENC  =      -189.66056522
  PAW double counting   =       715.53955309     -491.93598111
  entropy T*S    EENTRO =         0.02350618
  eigenvalues    EBANDS =      -147.60194384
  atomic energy  EATOM  =       374.76708025
  Solvation  Ediel_sol  =         0.00000000
  ---------------------------------------------------
  free energy    TOTEN  =       -16.36239124 eV

  energy without entropy =      -16.38589742  energy(sigma->0) =      -16.37022664


--------------------------------------------------------------------------------------------------------




--------------------------------------- Iteration      1(  24)  ---------------------------------------


    POTLOK:  cpu time    3.6144: real time    3.6200
    SETDIJ:  cpu time    0.0255: real time    0.0255
     EDDAV:  cpu time    1.5499: real time    1.5513
       DOS:  cpu time    0.0008: real time    0.0008
    CHARGE:  cpu time    0.3676: real time    0.3679
    MIXING:  cpu time    0.2218: real time    0.2220
    --------------------------------------------
      LOOP:  cpu time    5.7800: real time    5.7875

 eigenvalue-minimisations  :    76
 total energy-change (2. order) :-0.7924771E-01  (-0.6560853E-03)
 number of electron      21.0000001 magnetization       1.1693542
 augmentation part       -0.3630862 magnetization       0.0401243

 Broyden mixing:
  rms(total) = 0.62576E-02    rms(broyden)= 0.62576E-02
  rms(prec ) = 0.67098E-02
  weight for this iteration     100.00

 eigenvalues of (default mixing * dielectric matrix)
  average eigenvalue GAMMA=   1.5595
  4.0680  4.0680  2.9302  2.9302  2.7979  1.6343  1.6343  1.2465  1.2465  0.6653
  0.6653  0.7462  0.7462  0.8991  0.8520  0.6709  0.6164  0.6164  0.5964

 Free energy of the ion-electron system (eV)
  ---------------------------------------------------
  alpha Z        PSCENC =        -0.01642208
  Ewald energy   TEWEN  =       464.55457508
  -Hartree energ DENC   =      -741.99076776
  -exchange      EXHF   =         0.00000000
  -V(xc)+E(xc)   XCENC  =      -189.74269153
  PAW double counting   =       715.40440454     -491.80206297
  entropy T*S    EENTRO =         0.02446111
  eigenvalues    EBANDS =      -147.64021560
  atomic energy  EATOM  =       374.76708025
  Solvation  Ediel_sol  =         0.00000000
  ---------------------------------------------------
  free energy    TOTEN  =       -16.44163896 eV

  energy without entropy =      -16.46610007  energy(sigma->0) =      -16.44979266


--------------------------------------------------------------------------------------------------------




--------------------------------------- Iteration      1(  25)  ---------------------------------------


    POTLOK:  cpu time    3.6560: real time    3.6666
    SETDIJ:  cpu time    0.0238: real time    0.0238
     EDDAV:  cpu time    1.7530: real time    1.7546
       DOS:  cpu time    0.0008: real time    0.0008
    CHARGE:  cpu time    0.3944: real time    0.3947
    MIXING:  cpu time    0.2183: real time    0.2208
    --------------------------------------------
      LOOP:  cpu time    6.0463: real time    6.0613

 eigenvalue-minimisations  :    88
 total energy-change (2. order) :-0.3184623E-01  (-0.2594481E-03)
 number of electron      21.0000001 magnetization       1.1593740
 augmentation part       -0.3631052 magnetization       0.0265318

 Broyden mixing:
  rms(total) = 0.50620E-02    rms(broyden)= 0.50620E-02
  rms(prec ) = 0.59589E-02
  weight for this iteration     100.00

 eigenvalues of (default mixing * dielectric matrix)
  average eigenvalue GAMMA=   1.5436
  2.9565  2.9565  3.7176  3.7176  3.4862  1.7141  1.7141  1.5297  1.0999  1.0999
  0.7622  0.7622  0.6634  0.6634  0.7794  0.7794  0.6283  0.6283  0.6096  0.6042

 Free energy of the ion-electron system (eV)
  ---------------------------------------------------
  alpha Z        PSCENC =        -0.01642208
  Ewald energy   TEWEN  =       464.55457508
  -Hartree energ DENC   =      -742.02553602
  -exchange      EXHF   =         0.00000000
  -V(xc)+E(xc)   XCENC  =      -189.77644979
  PAW double counting   =       715.19625128     -491.59427344
  entropy T*S    EENTRO =         0.02515110
  eigenvalues    EBANDS =      -147.60386157
  atomic energy  EATOM  =       374.76708025
  Solvation  Ediel_sol  =         0.00000000
  ---------------------------------------------------
  free energy    TOTEN  =       -16.47348519 eV

  energy without entropy =      -16.49863629  energy(sigma->0) =      -16.48186889


--------------------------------------------------------------------------------------------------------




--------------------------------------- Iteration      1(  26)  ---------------------------------------


    POTLOK:  cpu time    3.6313: real time    3.6353
    SETDIJ:  cpu time    0.0214: real time    0.0214
     EDDAV:  cpu time    1.5818: real time    1.5855
       DOS:  cpu time    0.0027: real time    0.0027
    CHARGE:  cpu time    0.4065: real time    0.4069
    MIXING:  cpu time    0.2565: real time    0.2567
    --------------------------------------------
      LOOP:  cpu time    5.9002: real time    5.9085

 eigenvalue-minimisations  :    80
 total energy-change (2. order) :-0.1414708E-01  (-0.4825520E-04)
 number of electron      21.0000001 magnetization       1.1730194
 augmentation part       -0.3630822 magnetization       0.0394892

 Broyden mixing:
  rms(total) = 0.28762E-02    rms(broyden)= 0.28762E-02
  rms(prec ) = 0.32493E-02
  weight for this iteration     100.00

 eigenvalues of (default mixing * dielectric matrix)
  average eigenvalue GAMMA=   1.5681
  4.2589  4.2589  2.9219  2.9219  2.8543  1.8246  1.8246  1.9790  1.1524  1.1524
  0.6628  0.6628  0.7616  0.7616  0.9043  0.7742  0.7742  0.6270  0.6270  0.6222
  0.6047

 Free energy of the ion-electron system (eV)
  ---------------------------------------------------
  alpha Z        PSCENC =        -0.01642208
  Ewald energy   TEWEN  =       464.55457508
  -Hartree energ DENC   =      -742.01018006
  -exchange      EXHF   =         0.00000000
  -V(xc)+E(xc)   XCENC  =      -189.78935761
  PAW double counting   =       715.61863760     -492.01730069
  entropy T*S    EENTRO =         0.02558614
  eigenvalues    EBANDS =      -147.62025090
  atomic energy  EATOM  =       374.76708025
  Solvation  Ediel_sol  =         0.00000000
  ---------------------------------------------------
  free energy    TOTEN  =       -16.48763226 eV

  energy without entropy =      -16.51321841  energy(sigma->0) =      -16.49616098


--------------------------------------------------------------------------------------------------------




--------------------------------------- Iteration      1(  27)  ---------------------------------------


    POTLOK:  cpu time    3.6687: real time    3.6723
    SETDIJ:  cpu time    0.0271: real time    0.0272
     EDDAV:  cpu time    1.7225: real time    1.7241
       DOS:  cpu time    0.0009: real time    0.0009
    CHARGE:  cpu time    0.3702: real time    0.3705
    MIXING:  cpu time    0.2343: real time    0.2346
    --------------------------------------------
      LOOP:  cpu time    6.0238: real time    6.0296

 eigenvalue-minimisations  :    88
 total energy-change (2. order) :-0.1160630E-01  (-0.6203610E-04)
 number of electron      21.0000001 magnetization       1.1499428
 augmentation part       -0.3630475 magnetization       0.0172677

 Broyden mixing:
  rms(total) = 0.19564E-02    rms(broyden)= 0.19564E-02
  rms(prec ) = 0.22132E-02
  weight for this iteration     100.00

 eigenvalues of (default mixing * dielectric matrix)
  average eigenvalue GAMMA=   1.5508
  4.6167  2.9446  2.9446  3.0983  3.0983  2.6790  1.8453  1.8453  1.1560  1.1560
  0.6627  0.6627  0.7642  0.7642  0.9409  0.8538  0.8538  0.7519  0.6197  0.6197
  0.6408  0.5983

 Free energy of the ion-electron system (eV)
  ---------------------------------------------------
  alpha Z        PSCENC =        -0.01642208
  Ewald energy   TEWEN  =       464.55457508
  -Hartree energ DENC   =      -741.93619327
  -exchange      EXHF   =         0.00000000
  -V(xc)+E(xc)   XCENC  =      -189.80189679
  PAW double counting   =       715.61859048     -492.01759895
  entropy T*S    EENTRO =         0.02517161
  eigenvalues    EBANDS =      -147.69254491
  atomic energy  EATOM  =       374.76708025
  Solvation  Ediel_sol  =         0.00000000
  ---------------------------------------------------
  free energy    TOTEN  =       -16.49923857 eV

  energy without entropy =      -16.52441018  energy(sigma->0) =      -16.50762910


--------------------------------------------------------------------------------------------------------




--------------------------------------- Iteration      1(  28)  ---------------------------------------


    POTLOK:  cpu time    3.6538: real time    3.6592
    SETDIJ:  cpu time    0.0226: real time    0.0226
     EDDAV:  cpu time    1.2442: real time    1.2453
       DOS:  cpu time    0.0008: real time    0.0008
    CHARGE:  cpu time    0.3543: real time    0.3547
    MIXING:  cpu time    0.2849: real time    0.2852
    --------------------------------------------
      LOOP:  cpu time    5.5607: real time    5.5678

 eigenvalue-minimisations  :    56
 total energy-change (2. order) :-0.3603875E-02  (-0.1155878E-04)
 number of electron      21.0000001 magnetization       1.1499807
 augmentation part       -0.3630549 magnetization       0.0164636

 Broyden mixing:
  rms(total) = 0.76810E-03    rms(broyden)= 0.76810E-03
  rms(prec ) = 0.94062E-03
  weight for this iteration     100.00

 eigenvalues of (default mixing * dielectric matrix)
  average eigenvalue GAMMA=   1.5853
  5.3641  3.5383  3.5383  2.9304  2.9304  2.3583  1.7879  1.7879  1.3846  1.0911
  1.0911  0.6629  0.6629  0.7608  0.7608  0.9063  0.9063  0.8461  0.6855  0.6245
  0.6245  0.5999  0.6180

 Free energy of the ion-electron system (eV)
  ---------------------------------------------------
  alpha Z        PSCENC =        -0.01642208
  Ewald energy   TEWEN  =       464.55457508
  -Hartree energ DENC   =      -741.93548824
  -exchange      EXHF   =         0.00000000
  -V(xc)+E(xc)   XCENC  =      -189.80610485
  PAW double counting   =       715.59109077     -491.98977686
  entropy T*S    EENTRO =         0.02515804
  eigenvalues    EBANDS =      -147.69295455
  atomic energy  EATOM  =       374.76708025
  Solvation  Ediel_sol  =         0.00000000
  ---------------------------------------------------
  free energy    TOTEN  =       -16.50284244 eV

  energy without entropy =      -16.52800048  energy(sigma->0) =      -16.51122845


--------------------------------------------------------------------------------------------------------




--------------------------------------- Iteration      1(  29)  ---------------------------------------


    POTLOK:  cpu time    3.5845: real time    3.5913
    SETDIJ:  cpu time    0.0273: real time    0.0273
     EDDAV:  cpu time    1.6029: real time    1.6044
       DOS:  cpu time    0.0008: real time    0.0008
    CHARGE:  cpu time    0.3701: real time    0.3706
    MIXING:  cpu time    0.2972: real time    0.2976
    --------------------------------------------
      LOOP:  cpu time    5.8829: real time    5.8921

 eigenvalue-minimisations  :    76
 total energy-change (2. order) :-0.2880124E-02  (-0.8533789E-05)
 number of electron      21.0000001 magnetization       1.1551406
 augmentation part       -0.3630492 magnetization       0.0219932

 Broyden mixing:
  rms(total) = 0.79391E-03    rms(broyden)= 0.79391E-03
  rms(prec ) = 0.89304E-03
  weight for this iteration     100.00

 eigenvalues of (default mixing * dielectric matrix)
  average eigenvalue GAMMA=   1.5520
  5.0830  3.6220  3.6220  2.9363  2.9363  2.3683  1.8020  1.8020  1.3082  1.1682
  1.1682  1.0547  0.6629  0.6629  0.7610  0.7610  0.8847  0.8847  0.7417  0.6260
  0.6260  0.6134  0.5981  0.5551

 Free energy of the ion-electron system (eV)
  ---------------------------------------------------
  alpha Z        PSCENC =        -0.01642208
  Ewald energy   TEWEN  =       464.55457508
  -Hartree energ DENC   =      -741.91088165
  -exchange      EXHF   =         0.00000000
  -V(xc)+E(xc)   XCENC  =      -189.80897543
  PAW double counting   =       715.79129563     -492.19004512
  entropy T*S    EENTRO =         0.02493520
  eigenvalues    EBANDS =      -147.71728444
  atomic energy  EATOM  =       374.76708025
  Solvation  Ediel_sol  =         0.00000000
  ---------------------------------------------------
  free energy    TOTEN  =       -16.50572256 eV

  energy without entropy =      -16.53065776  energy(sigma->0) =      -16.51403430


--------------------------------------------------------------------------------------------------------




--------------------------------------- Iteration      1(  30)  ---------------------------------------


    POTLOK:  cpu time    3.5476: real time    3.5540
    SETDIJ:  cpu time    0.0242: real time    0.0242
     EDDAV:  cpu time    1.0770: real time    1.0780
       DOS:  cpu time    0.0010: real time    0.0010
    CHARGE:  cpu time    0.4228: real time    0.4232
    MIXING:  cpu time    0.2918: real time    0.2943
    --------------------------------------------
      LOOP:  cpu time    5.3644: real time    5.3748

 eigenvalue-minimisations  :    44
 total energy-change (2. order) :-0.4230727E-03  (-0.2738080E-05)
 number of electron      21.0000001 magnetization       1.1474627
 augmentation part       -0.3630500 magnetization       0.0146862

 Broyden mixing:
  rms(total) = 0.14505E-02    rms(broyden)= 0.14505E-02
  rms(prec ) = 0.15527E-02
  weight for this iteration     100.00

 eigenvalues of (default mixing * dielectric matrix)
  average eigenvalue GAMMA=   1.5416
  5.1018  2.9423  2.9423  3.4012  3.4012  2.7388  1.8190  1.8190  1.4805  1.4805
  1.1070  1.1070  0.6629  0.6629  0.7618  0.7618  0.8354  0.8354  0.7530  0.7530
  0.7264  0.6215  0.6215  0.6013  0.6013

 Free energy of the ion-electron system (eV)
  ---------------------------------------------------
  alpha Z        PSCENC =        -0.01642208
  Ewald energy   TEWEN  =       464.55457508
  -Hartree energ DENC   =      -741.88571965
  -exchange      EXHF   =         0.00000000
  -V(xc)+E(xc)   XCENC  =      -189.80997688
  PAW double counting   =       715.78155303     -492.18029647
  entropy T*S    EENTRO =         0.02483489
  eigenvalues    EBANDS =      -147.74177380
  atomic energy  EATOM  =       374.76708025
  Solvation  Ediel_sol  =         0.00000000
  ---------------------------------------------------
  free energy    TOTEN  =       -16.50614564 eV

  energy without entropy =      -16.53098052  energy(sigma->0) =      -16.51442393


--------------------------------------------------------------------------------------------------------




--------------------------------------- Iteration      1(  31)  ---------------------------------------


    POTLOK:  cpu time    3.6257: real time    3.6302
    SETDIJ:  cpu time    0.0253: real time    0.0253
     EDDAV:  cpu time    1.2273: real time    1.2286
       DOS:  cpu time    0.0008: real time    0.0008
    CHARGE:  cpu time    0.3704: real time    0.3707
    MIXING:  cpu time    0.3272: real time    0.3275
    --------------------------------------------
      LOOP:  cpu time    5.5768: real time    5.5832

 eigenvalue-minimisations  :    52
 total energy-change (2. order) :-0.3125899E-03  (-0.1744259E-05)
 number of electron      21.0000001 magnetization       1.1356067
[...]
  8.844  15.092  -0.000   0.002  -0.001  -0.000   0.005  -0.003
 15.092  25.754  -0.000   0.003  -0.002  -0.000   0.008  -0.005
 -0.000  -0.000   1.969   0.000  -0.000   5.760   0.000  -0.000
  0.002   0.003   0.000   1.969   0.000   0.000   5.758   0.002
 -0.001  -0.002  -0.000   0.000   1.969  -0.000   0.002   5.759
 -0.000  -0.000   5.760   0.000  -0.000  16.713   0.001  -0.001
  0.005   0.008   0.000   5.758   0.002   0.001  16.708   0.005
 -0.003  -0.005  -0.000   0.002   5.759  -0.001   0.005  16.711
 total augmentation occupancy for first ion, spin component:            1
  2.712  -0.425   0.032  -0.354   0.244  -0.003   0.046  -0.031
 -0.425   0.132  -0.027   0.205  -0.144   0.002  -0.015   0.011
  0.032  -0.027   0.672  -0.048   0.050  -0.033   0.001  -0.002
 -0.354   0.205  -0.048   0.890  -0.193   0.002  -0.043   0.009
  0.244  -0.144   0.050  -0.193   0.779  -0.002   0.009  -0.037
 -0.003   0.002  -0.033   0.002  -0.002   0.002  -0.000   0.000
  0.046  -0.015   0.001  -0.043   0.009  -0.000   0.003  -0.001
 -0.031   0.011  -0.002   0.009  -0.037   0.000  -0.001   0.002
 total augmentation occupancy for first ion, spin component:            2
  0.503  -0.151  -0.024   0.134  -0.093   0.000   0.000  -0.000
 -0.151   0.040  -0.014   0.078  -0.056   0.001  -0.005   0.003
 -0.024  -0.014   0.051  -0.085   0.060  -0.005   0.003  -0.002
  0.134   0.078  -0.085   0.472  -0.313   0.003  -0.017   0.009
 -0.093  -0.056   0.060  -0.313   0.262  -0.002   0.009  -0.011
  0.000   0.001  -0.005   0.003  -0.002   0.000  -0.000   0.000
  0.000  -0.005   0.003  -0.017   0.009  -0.000   0.001  -0.000
 -0.000   0.003  -0.002   0.009  -0.011   0.000  -0.000   0.001


------------------------ aborting loop because EDIFF is reached ----------------------------------------


    CHARGE:  cpu time    0.3865: real time    0.3869
    FORLOC:  cpu time    0.0896: real time    0.0897
    FORNL :  cpu time    0.4735: real time    0.4761
    FORCOR:  cpu time    3.4690: real time    3.4767
    FORHAR:  cpu time    0.4377: real time    0.4381
    MIXING:  cpu time    0.0661: real time    0.0661
    OFIELD:  cpu time    0.0000: real time    0.0000

 VOLUME and BASIS-vectors are now :
 -----------------------------------------------------------------------------
  energy-cutoff  :      400.00
  volume of cell :    10021.97
      direct lattice vectors                 reciprocal lattice vectors
    21.433949823  0.000000000  0.000000000     0.046654957  0.000000000  0.000000000
     0.000000000 21.408281684  0.000000000     0.000000000  0.046710895  0.000000000
     0.000000000  0.000000000 21.840834240     0.000000000  0.000000000  0.045785797

  length of vectors
    21.433949823 21.408281684 21.840834240     0.046654957  0.046710895  0.045785797


 FORCES acting on ions
    electron-ion (+dipol)            ewald-force                    non-local-force                 convergence-correction
 -----------------------------------------------------------------------------------------------
   0.345E+02 0.714E+01 -.525E+02   -.332E+02 -.696E+01 0.505E+02   -.124E+01 -.178E+00 0.196E+01   0.589E-04 -.142E-02 0.672E-02
   0.400E+02 -.504E+02 -.631E+01   -.382E+02 0.482E+02 0.548E+01   -.185E+01 0.213E+01 0.814E+00   -.255E-02 0.907E-02 -.472E-02
   -.393E+02 -.272E+01 -.514E+02   0.379E+02 0.256E+01 0.488E+02   0.143E+01 0.150E+00 0.260E+01   0.320E-02 -.638E-03 0.109E-01
   -.419E+02 -.500E+02 0.225E+02   0.393E+02 0.472E+02 -.206E+02   0.253E+01 0.273E+01 -.189E+01   0.121E-02 0.103E-01 -.754E-02
   0.234E+02 -.153E+01 0.642E+02   -.233E+02 0.143E+01 -.601E+02   -.155E+00 0.964E-01 -.400E+01   -.334E-02 0.564E-02 0.136E-03
   -.498E+02 0.404E+02 0.246E+02   0.469E+02 -.385E+02 -.223E+02   0.286E+01 -.186E+01 -.237E+01   0.708E-02 -.821E-02 -.182E-02
   0.310E+02 0.563E+02 0.105E+01   -.295E+02 -.540E+02 -.170E+01   -.157E+01 -.231E+01 0.661E+00   -.401E-02 -.107E-01 -.184E-02
 -----------------------------------------------------------------------------------------------
   -.201E+01 -.760E+00 0.222E+01   0.355E-14 0.000E+00 -.799E-14   0.201E+01 0.755E+00 -.222E+01   0.165E-02 0.408E-02 0.182E-02
 
 
 POSITION                                       TOTAL-FORCE (eV/Angst)
 -----------------------------------------------------------------------------------
      9.21922     10.77598     12.63119         0.005933      0.004223     -0.001144
      9.54734     12.46475     10.60822        -0.009296     -0.014940     -0.018893
     11.72016     11.14676     11.83897         0.017692     -0.015253      0.006020
     11.97336     12.55412      9.65571        -0.021117     -0.002805      0.003940
      9.99774     11.13990      8.43947         0.019734      0.006456      0.005952
     12.20755      9.89449      9.62490        -0.006060      0.003673     -0.003559
      9.77852      9.47265     10.39037        -0.006886      0.018645      0.007684
 -----------------------------------------------------------------------------------
    total drift:                                0.000534     -0.000968     -0.001737


--------------------------------------------------------------------------------------------------------



  FREE ENERGIE OF THE ION-ELECTRON SYSTEM (eV)
  ---------------------------------------------------
  free  energy   TOTEN  =       -17.79894050 eV

  energy  without entropy=      -17.80480006  energy(sigma->0) =      -17.80089369
 
 d Force = 0.6105413E-03[ 0.360E-03, 0.861E-03]  d Energy = 0.6529066E-03-0.424E-04
 d Force =-0.5271312E+00[-0.526E+00,-0.529E+00]  d Ewald  =-0.5271323E+00 0.105E-05


--------------------------------------------------------------------------------------------------------


    POTLOK:  cpu time    3.6793: real time    3.6909


--------------------------------------------------------------------------------------------------------


 Conjugate gradient step on ions:
 trial-energy change:   -0.000653  1 .order   -0.000611   -0.000861   -0.000360
  (g-gl).g = 0.365E-03      g.g   = 0.318E-03  gl.gl    = 0.147E-02
 g(Force)  = 0.318E-03   g(Stress)= 0.000E+00 ortho     =-0.291E-04
 gamma     =   0.24795
 trial     =   2.77474
 opt step  =   4.76867  (harmonic =   4.76867) maximal distance =0.01252786
 next E    =   -17.799027   (d E  =  -0.00074)


--------------------------------------------------------------------------------------------------------


    WAVPRE:  cpu time    0.2288: real time    0.2379
    FEWALD:  cpu time    0.0004: real time    0.0004
    ORTHCH:  cpu time    0.0578: real time    0.0578
     LOOP+:  cpu time   20.1905: real time   20.2598


--------------------------------------- Iteration     26(   1)  ---------------------------------------


    POTLOK:  cpu time    3.6401: real time    3.6498
    SETDIJ:  cpu time    0.0239: real time    0.0239
     EDDAV:  cpu time    1.5335: real time    1.5373
       DOS:  cpu time    0.0014: real time    0.0014
    CHARGE:  cpu time    0.3987: real time    0.4013
    MIXING:  cpu time    0.0588: real time    0.0589
    --------------------------------------------
      LOOP:  cpu time    5.6564: real time    5.6725

 eigenvalue-minimisations  :    72
 total energy-change (2. order) :-0.1418446E-03  (-0.1056176E-02)
 number of electron      21.0000000 magnetization       1.0000768
 augmentation part       -0.3550969 magnetization      -0.0005422

 Broyden mixing:
  rms(total) = 0.34160E-02    rms(broyden)= 0.34158E-02
  rms(prec ) = 0.37800E-02
  weight for this iteration     100.00

 Free energy of the ion-electron system (eV)
  ---------------------------------------------------
  alpha Z        PSCENC =        -0.01642208
  Ewald energy   TEWEN  =       501.42643458
  -Hartree energ DENC   =      -779.02359533
  -exchange      EXHF   =         0.00000000
  -V(xc)+E(xc)   XCENC  =      -189.00242625
  PAW double counting   =       794.06767006     -570.53160682
  entropy T*S    EENTRO =         0.00586105
  eigenvalues    EBANDS =      -149.49200138
  atomic energy  EATOM  =       374.76708025
  Solvation  Ediel_sol  =         0.00000000
  ---------------------------------------------------
  free energy    TOTEN  =       -17.79900593 eV

  energy without entropy =      -17.80486698  energy(sigma->0) =      -17.80095962


--------------------------------------------------------------------------------------------------------




--------------------------------------- Iteration     26(   2)  ---------------------------------------


    POTLOK:  cpu time    3.6145: real time    3.6179
    SETDIJ:  cpu time    0.0240: real time    0.0240
     EDDAV:  cpu time    1.8794: real time    1.8834
       DOS:  cpu time    0.0011: real time    0.0011
    --------------------------------------------
      LOOP:  cpu time    5.5189: real time    5.5263

 eigenvalue-minimisations  :    96
 total energy-change (2. order) : 0.3103494E-04  (-0.5219896E-04)
 number of electron      21.0000000 magnetization       1.0000768
 augmentation part       -0.3550969 magnetization      -0.0005422

 Free energy of the ion-electron system (eV)
  ---------------------------------------------------
  alpha Z        PSCENC =        -0.01642208
  Ewald energy   TEWEN  =       501.42643458
  -Hartree energ DENC   =      -779.04602470
  -exchange      EXHF   =         0.00000000
  -V(xc)+E(xc)   XCENC  =      -189.00151946
  PAW double counting   =       794.75022057     -571.21475447
  entropy T*S    EENTRO =         0.00586272
  eigenvalues    EBANDS =      -149.46985232
  atomic energy  EATOM  =       374.76708025
  Solvation  Ediel_sol  =         0.00000000
  ---------------------------------------------------
  free energy    TOTEN  =       -17.79897490 eV

  energy without entropy =      -17.80483762  energy(sigma->0) =      -17.80092914


--------------------------------------------------------------------------------------------------------




 average (electrostatic) potential at core
  the test charge radii are     1.0406
  (the norm of the test charge is              1.0000)
       1 -84.5962       2 -84.3747       3 -84.3434       4 -84.5011       5 -84.5059
       6 -84.5230       7 -84.3890
 
 
 
 E-fermi :  -4.0014     XC(G=0):  -0.3283     alpha+bet : -0.1714


 spin component 1

 k-point     1 :       0.0000    0.0000    0.0000
  band No.  band energies     occupation 
      1     -12.3138      1.00000
      2      -9.6777      1.00000
      3      -8.8921      1.00000
      4      -8.8337      1.00000
      5      -6.6272      1.00000
      6      -5.9962      1.00000
      7      -5.9237      1.00000
      8      -5.0306      1.00000
      9      -4.9446      1.00000
     10      -4.9385      1.00000
     11      -4.1699      1.00008
     12      -3.3710     -0.00004
     13      -3.2602     -0.00000
     14      -2.9864     -0.00000
     15      -2.3631     -0.00000
     16      -2.2919     -0.00000
     17      -1.6250     -0.00000
     18      -0.8347     -0.00000

 spin component 2

 k-point     1 :       0.0000    0.0000    0.0000
  band No.  band energies     occupation 
      1     -12.2027      1.00000
      2      -9.4567      1.00000
      3      -8.8387      1.00000
      4      -8.7898      1.00000
      5      -6.2613      1.00000
      6      -5.9186      1.00000
      7      -5.8657      1.00000
      8      -4.9841      1.00000
      9      -4.9057      1.00000
     10      -4.8984      1.00000
     11      -3.3699     -0.00004
     12      -3.2108     -0.00000
     13      -3.1656     -0.00000
     14      -2.9285     -0.00000
     15      -2.2594     -0.00000
     16      -2.2111     -0.00000
     17      -1.6210     -0.00000
     18      -0.7979     -0.00000


--------------------------------------------------------------------------------------------------------


 soft charge-density along one line, spin component            1
         0         1         2         3         4         5         6         7         8         9
 total charge-density along one line
 
 soft charge-density along one line, spin component            2
         0         1         2         3         4         5         6         7         8         9
 total charge-density along one line
 
 pseudopotential strength for first ion, spin component:            1
  8.863  15.124  -0.000   0.004  -0.003  -0.001   0.011  -0.007
 15.124  25.809  -0.001   0.006  -0.004  -0.002   0.019  -0.013
 -0.000  -0.001   1.974   0.000  -0.000   5.776   0.000  -0.000
  0.004   0.006   0.000   1.974   0.000   0.000   5.775   0.001
 -0.003  -0.004  -0.000   0.000   1.974  -0.000   0.001   5.775
 -0.001  -0.002   5.776   0.000  -0.000  16.763   0.001  -0.001
  0.011   0.019   0.000   5.775   0.001   0.001  16.761   0.003
 -0.007  -0.013  -0.000   0.001   5.775  -0.001   0.003  16.762
 pseudopotential strength for first ion, spin component:            2
  8.844  15.092  -0.000   0.002  -0.001  -0.000   0.005  -0.003
 15.092  25.754  -0.000   0.003  -0.002  -0.000   0.008  -0.005
 -0.000  -0.000   1.969   0.000  -0.000   5.760   0.000  -0.000
  0.002   0.003   0.000   1.969   0.000   0.000   5.758   0.002
 -0.001  -0.002  -0.000   0.000   1.969  -0.000   0.002   5.759
 -0.000  -0.000   5.760   0.000  -0.000  16.714   0.001  -0.001
  0.005   0.008   0.000   5.758   0.002   0.001  16.709   0.005
 -0.003  -0.005  -0.000   0.002   5.759  -0.001   0.005  16.711
 total augmentation occupancy for first ion, spin component:            1
  2.721  -0.429   0.035  -0.360   0.244  -0.003   0.047  -0.032
 -0.429   0.133  -0.028   0.207  -0.144   0.002  -0.015   0.011
  0.035  -0.028   0.673  -0.047   0.048  -0.033   0.001  -0.002
 -0.360   0.207  -0.047   0.894  -0.193   0.002  -0.043   0.009
  0.244  -0.144   0.048  -0.193   0.781  -0.002   0.009  -0.037
 -0.003   0.002  -0.033   0.002  -0.002   0.002  -0.000   0.000
  0.047  -0.015   0.001  -0.043   0.009  -0.000   0.003  -0.001
 -0.032   0.011  -0.002   0.009  -0.037   0.000  -0.001   0.002
 total augmentation occupancy for first ion, spin component:            2
  0.504  -0.151  -0.022   0.133  -0.092   0.000   0.001  -0.000
 -0.151   0.041  -0.014   0.079  -0.057   0.001  -0.005   0.003
 -0.022  -0.014   0.050  -0.082   0.058  -0.005   0.002  -0.002
  0.133   0.079  -0.082   0.474  -0.314   0.003  -0.017   0.009
 -0.092  -0.057   0.058  -0.314   0.263  -0.002   0.009  -0.011
  0.000   0.001  -0.005   0.003  -0.002   0.000  -0.000   0.000
  0.001  -0.005   0.002  -0.017   0.009  -0.000   0.001  -0.000
 -0.000   0.003  -0.002   0.009  -0.011   0.000  -0.000   0.001


------------------------ aborting loop because EDIFF is reached ----------------------------------------


    CHARGE:  cpu time    0.3948: real time    0.3952
    FORLOC:  cpu time    0.0898: real time    0.0921
    FORNL :  cpu time    0.4752: real time    0.4779
    FORCOR:  cpu time    3.4694: real time    3.4757
    FORHAR:  cpu time    0.4336: real time    0.4362
    MIXING:  cpu time    0.0670: real time    0.0670
    OFIELD:  cpu time    0.0000: real time    0.0000

 VOLUME and BASIS-vectors are now :
 -----------------------------------------------------------------------------
  energy-cutoff  :      400.00
  volume of cell :    10021.97
      direct lattice vectors                 reciprocal lattice vectors
    21.433949823  0.000000000  0.000000000     0.046654957  0.000000000  0.000000000
     0.000000000 21.408281684  0.000000000     0.000000000  0.046710895  0.000000000
     0.000000000  0.000000000 21.840834240     0.000000000  0.000000000  0.045785797

  length of vectors
    21.433949823 21.408281684 21.840834240     0.046654957  0.046710895  0.045785797


 FORCES acting on ions
    electron-ion (+dipol)            ewald-force                    non-local-force                 convergence-correction
 -----------------------------------------------------------------------------------------------
   0.345E+02 0.708E+01 -.526E+02   -.332E+02 -.689E+01 0.506E+02   -.124E+01 -.187E+00 0.200E+01   0.184E-03 -.257E-02 0.469E-02
   0.401E+02 -.504E+02 -.622E+01   -.382E+02 0.482E+02 0.540E+01   -.185E+01 0.213E+01 0.795E+00   -.215E-02 0.758E-02 -.460E-02
   -.394E+02 -.261E+01 -.515E+02   0.380E+02 0.246E+01 0.489E+02   0.141E+01 0.133E+00 0.265E+01   0.292E-02 -.182E-02 0.826E-02
   -.419E+02 -.501E+02 0.225E+02   0.393E+02 0.473E+02 -.206E+02   0.253E+01 0.274E+01 -.193E+01   0.134E-02 0.852E-02 -.697E-02
   0.234E+02 -.152E+01 0.642E+02   -.232E+02 0.142E+01 -.602E+02   -.155E+00 0.102E+00 -.399E+01   -.266E-02 0.527E-02 0.130E-02
   -.498E+02 0.404E+02 0.248E+02   0.469E+02 -.385E+02 -.224E+02   0.288E+01 -.188E+01 -.238E+01   0.652E-02 -.740E-02 -.215E-03
   0.310E+02 0.564E+02 0.103E+01   -.295E+02 -.540E+02 -.167E+01   -.156E+01 -.233E+01 0.636E+00   -.297E-02 -.965E-02 -.101E-02
 -----------------------------------------------------------------------------------------------
   -.202E+01 -.720E+00 0.222E+01   0.711E-14 -.142E-13 0.622E-14   0.202E+01 0.719E+00 -.222E+01   0.319E-02 -.635E-04 0.145E-02
 
 
 POSITION                                       TOTAL-FORCE (eV/Angst)
 -----------------------------------------------------------------------------------
      9.21974     10.77929     12.62936         0.004104      0.001576      0.018334
      9.54368     12.46452     10.60749         0.000882     -0.014048     -0.030749
     11.72162     11.14333     11.83550         0.011808     -0.015478      0.034188
     11.97218     12.55434      9.66095        -0.020549      0.007013     -0.008421
      9.99965     11.13853      8.43962         0.018448      0.004998      0.004145
     12.20761      9.89455      9.62216        -0.008970      0.001389     -0.013961
      9.77940      9.47409     10.39376        -0.005723      0.014550     -0.003537
 -----------------------------------------------------------------------------------
    total drift:                                0.000197     -0.001170     -0.001187


--------------------------------------------------------------------------------------------------------



  FREE ENERGIE OF THE ION-ELECTRON SYSTEM (eV)
  ---------------------------------------------------
  free  energy   TOTEN  =       -17.79897490 eV

  energy  without entropy=      -17.80483762  energy(sigma->0) =      -17.80092914
 
 d Force = 0.1295120E-03[ 0.306E-06, 0.259E-03]  d Energy = 0.3439759E-04 0.951E-04
 d Force =-0.3769998E+00[-0.376E+00,-0.378E+00]  d Ewald  =-0.3770001E+00 0.325E-06


--------------------------------------------------------------------------------------------------------


    POTLOK:  cpu time    3.6538: real time    3.6605


--------------------------------------------------------------------------------------------------------




--------------------------------------------------------------------------------------------------------


  
 reached required accuracy - stopping structural energy minimisation
     LOOP+:  cpu time   19.7619: real time   19.8309
    4ORBIT:  cpu time    0.0000: real time    0.0000

 total amount of memory used by VASP MPI-rank0   189167. kBytes
=======================================================================

   base      :      30000. kBytes
   nonl-proj :       2003. kBytes
   fftplans  :      46139. kBytes
   grid      :     104464. kBytes
   one-center:          3. kBytes
   wavefun   :       6558. kBytes
 
  
  
 General timing and accounting informations for this job:
 ========================================================
  
                  Total CPU time used (sec):     1373.768
                            User time (sec):     1348.032
                          System time (sec):       25.736
                         Elapsed time (sec):     1379.910
  
                   Maximum memory used (kb):      410228.
                   Average memory used (kb):           0.
  
                          Minor page faults:      8410135
                          Major page faults:        27081
                 Voluntary context switches:         3719
