unknown system                          
            1
    21.433950    0.000000    0.000000
     0.000000   21.408282    0.000000
     0.000000    0.000000   21.840834
   Al
     7
Direct configuration=     1
   0.42960648  0.49731074  0.59115733
   0.41951306  0.57334191  0.49367641
   0.53474952  0.53214269  0.53024749
   0.58725258  0.58152612  0.42909614
   0.47896189  0.53290536  0.39133641
   0.57245632  0.45550363  0.43613794
   0.45063582  0.44496555  0.47935731
Direct configuration=     2
   0.43057883  0.49767061  0.59036739
   0.42063564  0.57320536  0.49246115
   0.53544016  0.53223683  0.53066602
   0.58642179  0.58112840  0.43029067
   0.47735595  0.53266287  0.39196940
   0.57060353  0.45581204  0.43738791
   0.45213977  0.44497991  0.47786649
Direct configuration=     3
   0.43349586  0.49875024  0.58799758
   0.42400339  0.57279570  0.48881535
   0.53751209  0.53251925  0.53192159
   0.58392942  0.57993522  0.43387425
   0.47253815  0.53193538  0.39386839
   0.56504515  0.45673726  0.44113782
   0.45665162  0.44502296  0.47339405
Direct configuration=     4
   0.43581717  0.49913232  0.58549890
   0.42561982  0.57381728  0.48773548
   0.53914260  0.53308280  0.53452192
   0.58117064  0.57967307  0.43576169
   0.47067894  0.53205680  0.39248585
   0.56450548  0.45638490  0.44241902
   0.45624103  0.44354884  0.47258617
Direct configuration=     5
   0.43847358  0.49956956  0.58263952
   0.42746959  0.57498632  0.48649973
   0.54100850  0.53372770  0.53749763
   0.57801361  0.57937307  0.43792160
   0.46855133  0.53219575  0.39090373
   0.56388791  0.45598168  0.44388516
   0.45577116  0.44186192  0.47166167
Direct configuration=     6
   0.43965439  0.49976392  0.58136849
   0.42829184  0.57550598  0.48595042
   0.54183791  0.53401437  0.53882037
   0.57661027  0.57923972  0.43888171
   0.46760558  0.53225751  0.39020046
   0.56361339  0.45580245  0.44453688
   0.45556229  0.44111206  0.47125071
Direct configuration=     7
   0.43913648  0.49847267  0.57976303
   0.43148534  0.57746990  0.48674400
   0.54436514  0.53456857  0.54039994
   0.57225855  0.57969680  0.43907810
   0.46795352  0.53125608  0.38783175
   0.56563866  0.45613279  0.44531811
   0.45233799  0.44009920  0.47187410
Direct configuration=     8
   0.43864073  0.49723663  0.57822624
   0.43454226  0.57934984  0.48750364
   0.54678428  0.53509907  0.54191195
   0.56809292  0.58013434  0.43926608
   0.46828658  0.53029746  0.38556435
   0.56757732  0.45644900  0.44606594
   0.44925158  0.43912966  0.47247083
Direct configuration=     9
   0.43748965  0.49595900  0.57760993
   0.43912515  0.58058589  0.48749003
   0.54833716  0.53445503  0.54304351
   0.56360598  0.58156645  0.43824416
   0.46858551  0.52882886  0.38505722
   0.56740961  0.45680224  0.44772878
   0.44862262  0.43949853  0.47183540
Direct configuration=    10
   0.43635709  0.49470191  0.57700354
   0.44363435  0.58180207  0.48747665
   0.54986506  0.53382134  0.54415686
   0.55919118  0.58297554  0.43723868
   0.46887963  0.52738388  0.38455824
   0.56724459  0.45714980  0.44936488
   0.44800377  0.43986147  0.47121018
Direct configuration=    11
   0.43619332  0.49557778  0.57712081
   0.44428835  0.58090289  0.48776249
   0.54940354  0.53252199  0.54339054
   0.55939760  0.58380885  0.43714045
   0.46804991  0.52616760  0.38538491
   0.56610061  0.45756098  0.45040284
   0.44974234  0.44115592  0.46980699
Direct configuration=    12
   0.43610978  0.49602457  0.57718064
   0.44462197  0.58044421  0.48790830
   0.54916811  0.53185917  0.54299964
   0.55950289  0.58423393  0.43709034
   0.46762665  0.52554716  0.38580660
   0.56551706  0.45777073  0.45093231
   0.45062921  0.44181624  0.46909121
Direct configuration=    13
   0.43574675  0.49643652  0.57702411
   0.44485610  0.58022147  0.48831551
   0.54892196  0.53101573  0.54280929
   0.55939548  0.58470874  0.43674923
   0.46749647  0.52532529  0.38575414
   0.56619903  0.45790206  0.45097939
   0.45055988  0.44208621  0.46937737
Direct configuration=    14
   0.43530347  0.49693954  0.57683298
   0.44514198  0.57994951  0.48881273
   0.54862141  0.52998585  0.54257686
   0.55926432  0.58528850  0.43633272
   0.46733752  0.52505436  0.38569010
   0.56703174  0.45806241  0.45103688
   0.45047523  0.44241585  0.46972677
Direct configuration=    15
   0.43451647  0.49716204  0.57710417
   0.44560250  0.58028001  0.48870358
   0.54869511  0.52940852  0.54244270
   0.55870866  0.58555197  0.43640827
   0.46735863  0.52491536  0.38569698
   0.56755221  0.45800329  0.45056123
   0.45074209  0.44237481  0.47009210
Direct configuration=    16
   0.43341983  0.49747209  0.57748206
   0.44624421  0.58074056  0.48855148
   0.54879781  0.52860405  0.54225576
   0.55793439  0.58591912  0.43651356
   0.46738803  0.52472167  0.38570657
   0.56827745  0.45792091  0.44989843
   0.45111395  0.44231762  0.47060117
Direct configuration=    17
   0.43280039  0.49802635  0.57752245
   0.44638687  0.58102764  0.48859460
   0.54874126  0.52790146  0.54234730
   0.55775528  0.58600583  0.43692055
   0.46726223  0.52410444  0.38568609
   0.56837231  0.45815887  0.44899620
   0.45185734  0.44247142  0.47094184
Direct configuration=    18
   0.43177083  0.49894758  0.57758959
   0.44662399  0.58150479  0.48866627
   0.54864726  0.52673369  0.54249944
   0.55745757  0.58614995  0.43759700
   0.46705314  0.52307856  0.38565207
   0.56852998  0.45855438  0.44749661
   0.45309291  0.44272707  0.47150807
Direct configuration=    19
   0.43151083  0.49948803  0.57750696
   0.44649100  0.58149477  0.48840129
   0.54843733  0.52587933  0.54252586
   0.55761109  0.58601200  0.43798615
   0.46695572  0.52277846  0.38573856
   0.56873337  0.45924289  0.44666578
   0.45343634  0.44280051  0.47218443
Direct configuration=    20
   0.43080389  0.50095756  0.57728228
   0.44612938  0.58146753  0.48768081
   0.54786650  0.52355629  0.54259771
   0.55802853  0.58563693  0.43904427
   0.46669083  0.52196247  0.38597376
   0.56928640  0.46111499  0.44440673
   0.45437014  0.44300022  0.47402348
Direct configuration=    21
   0.43049674  0.50166916  0.57774065
   0.44609529  0.58166044  0.48681328
   0.54746890  0.52256271  0.54252221
   0.55821137  0.58576594  0.43990795
   0.46653426  0.52153483  0.38626197
   0.56939023  0.46168522  0.44319476
   0.45497889  0.44281770  0.47456822
Direct configuration=    22
   0.43015659  0.50245721  0.57824826
   0.44605754  0.58187407  0.48585256
   0.54702858  0.52146240  0.54243859
   0.55841386  0.58590880  0.44086442
   0.46636087  0.52106124  0.38658113
   0.56950520  0.46231671  0.44185259
   0.45565303  0.44261557  0.47517148
Direct configuration=    23
   0.43009569  0.50306824  0.57842476
   0.44570978  0.58221414  0.48576309
   0.54674265  0.52095817  0.54229490
   0.55866313  0.58634812  0.44166585
   0.46632444  0.52050903  0.38641739
   0.56953463  0.46219144  0.44096374
   0.45610536  0.44240687  0.47547931
Direct configuration=    24
   0.43008848  0.50314051  0.57844564
   0.44566865  0.58225437  0.48575250
   0.54670883  0.52089853  0.54227790
   0.55869261  0.58640008  0.44176064
   0.46632013  0.52044371  0.38639803
   0.56953811  0.46217663  0.44085860
   0.45615887  0.44238218  0.47551572
Direct configuration=    25
   0.43012226  0.50335561  0.57832905
   0.44543078  0.58223963  0.48570579
   0.54680351  0.52067520  0.54205673
   0.55861639  0.58641439  0.44209440
   0.46644403  0.52035471  0.38640773
   0.56954249  0.46218048  0.44068382
   0.45621622  0.44247599  0.47573152
Direct configuration=    26
   0.43014653  0.50351017  0.57824527
   0.44525985  0.58222905  0.48567222
   0.54687155  0.52051471  0.54189779
   0.55856161  0.58642468  0.44233424
   0.46653306  0.52029075  0.38641471
   0.56954564  0.46218324  0.44055822
   0.45625744  0.44254340  0.47588659
