       N       E                     dE             d eps       ncg     rms          rms(c)
DAV:   1     0.975304983864E+03    0.97530E+03   -0.25100E+04   368   0.741E+02
DAV:   2     0.241784837685E+03   -0.73352E+03   -0.65713E+03   392   0.218E+02
DAV:   3     0.711378727807E+01   -0.23467E+03   -0.22454E+03   464   0.137E+02
DAV:   4    -0.351912214439E+02   -0.42305E+02   -0.39165E+02   424   0.110E+02
DAV:   5    -0.368922114935E+02   -0.17010E+01   -0.16879E+01   472   0.208E+01    0.279E+01
DAV:   6    -0.195291564829E+02    0.17363E+02   -0.11883E+02   400   0.901E+01    0.119E+01
DAV:   7    -0.132230443075E+02    0.63061E+01   -0.29875E+01   440   0.707E+01    0.510E+00
DAV:   8    -0.127346318880E+02    0.48841E+00   -0.65921E+00   476   0.532E+01    0.435E+00
DAV:   9    -0.140091780239E+02   -0.12745E+01   -0.15635E+00   536   0.281E+01    0.266E+00
DAV:  10    -0.162480075043E+02   -0.22388E+01   -0.12293E+00   536   0.148E+01    0.205E+00
DAV:  11    -0.186571515972E+02   -0.24091E+01   -0.89628E-01   488   0.111E+01    0.176E+00
DAV:  12    -0.201711172617E+02   -0.15140E+01   -0.43032E-01   496   0.534E+00    0.147E+00
DAV:  13    -0.244818716643E+02   -0.43108E+01   -0.22140E+00   496   0.623E+00    0.120E+00
DAV:  14    -0.265683219781E+02   -0.20865E+01   -0.60430E-01   480   0.770E+00    0.103E+00
DAV:  15    -0.278017954126E+02   -0.12335E+01   -0.24805E-01   528   0.505E+00    0.814E-01
DAV:  16    -0.299123936057E+02   -0.21106E+01   -0.48035E-01   476   0.319E+00    0.781E-01
DAV:  17    -0.306525673367E+02   -0.74017E+00   -0.13256E-01   464   0.332E+00    0.658E-01
DAV:  18    -0.308144330103E+02   -0.16187E+00   -0.23299E-02   544   0.146E+00    0.524E-01
DAV:  19    -0.311034290891E+02   -0.28900E+00   -0.49536E-02   500   0.177E+00    0.413E-01
DAV:  20    -0.315110836660E+02   -0.40765E+00   -0.48360E-02   488   0.202E+00    0.243E-01
DAV:  21    -0.317735802204E+02   -0.26250E+00   -0.18589E-02   504   0.149E+00    0.176E-01
DAV:  22    -0.319178054064E+02   -0.14423E+00   -0.56611E-03   484   0.106E+00    0.124E-01
DAV:  23    -0.320719467955E+02   -0.15414E+00   -0.32731E-03   488   0.656E-01    0.845E-02
DAV:  24    -0.321817749887E+02   -0.10983E+00   -0.22142E-03   528   0.337E-01    0.576E-02
DAV:  25    -0.322286308747E+02   -0.46856E-01   -0.60145E-04   328   0.303E-01    0.359E-02
DAV:  26    -0.322529910304E+02   -0.24360E-01   -0.35791E-04   304   0.284E-01    0.300E-02
DAV:  27    -0.322708122724E+02   -0.17821E-01   -0.28614E-04   312   0.208E-01    0.196E-02
DAV:  28    -0.322801363758E+02   -0.93241E-02   -0.16850E-04   272   0.120E-01    0.167E-02
DAV:  29    -0.322854580992E+02   -0.53217E-02   -0.10590E-04   276   0.132E-01    0.134E-02
DAV:  30    -0.322891755413E+02   -0.37174E-02   -0.76389E-05   264   0.924E-02    0.877E-03
DAV:  31    -0.322910517091E+02   -0.18762E-02   -0.40696E-05   264   0.659E-02    0.779E-03
DAV:  32    -0.322921976610E+02   -0.11460E-02   -0.23447E-05   256   0.577E-02    0.472E-03
DAV:  33    -0.322934395696E+02   -0.12419E-02   -0.14716E-05   252   0.416E-02    0.332E-03
DAV:  34    -0.322941161172E+02   -0.67655E-03   -0.92367E-06   252   0.290E-02    0.257E-03
DAV:  35    -0.322943359608E+02   -0.21984E-03   -0.48976E-06   248   0.222E-02    0.196E-03
DAV:  36    -0.322944610178E+02   -0.12506E-03   -0.29424E-06   248   0.162E-02    0.133E-03
DAV:  37    -0.322946381020E+02   -0.17708E-03   -0.21531E-06   248   0.121E-02    0.121E-03
DAV:  38    -0.322947252007E+02   -0.87099E-04   -0.11130E-06   232   0.983E-03
   1 F= -.32294725E+02 E0= -.32286300E+02  d E =-.322947E+02  mag=     1.7505
       N       E                     dE             d eps       ncg     rms          rms(c)
DAV:   1    -0.323130107071E+02   -0.18373E-01   -0.12947E+01   396   0.124E+01    0.326E-01
DAV:   2    -0.323325876012E+02   -0.19577E-01   -0.24359E-01   556   0.410E+00    0.337E-01
DAV:   3    -0.323303678515E+02    0.22197E-02   -0.18056E-02   432   0.278E+00    0.188E-01
DAV:   4    -0.323290949797E+02    0.12729E-02   -0.30474E-03   456   0.926E-01    0.145E-01
DAV:   5    -0.323262575420E+02    0.28374E-02   -0.10453E-03   416   0.305E-01    0.875E-02
DAV:   6    -0.323223680804E+02    0.38895E-02   -0.68655E-04   420   0.709E-01    0.546E-02
DAV:   7    -0.323214252424E+02    0.94284E-03   -0.23255E-04   280   0.455E-01    0.247E-02
DAV:   8    -0.323217454821E+02   -0.32024E-03   -0.81475E-05   256   0.131E-01    0.241E-02
DAV:   9    -0.323223918258E+02   -0.64634E-03   -0.64429E-05   256   0.121E-01    0.222E-02
DAV:  10    -0.323238544464E+02   -0.14626E-02   -0.10381E-04   264   0.121E-01    0.170E-02
DAV:  11    -0.323255245569E+02   -0.16701E-02   -0.22795E-04   280   0.901E-02    0.210E-02
DAV:  12    -0.323258916689E+02   -0.36711E-03   -0.62788E-05   288   0.824E-02    0.172E-02
DAV:  13    -0.323271201852E+02   -0.12285E-02   -0.51225E-05   264   0.692E-02    0.142E-02
DAV:  14    -0.323288822033E+02   -0.17620E-02   -0.96977E-05   276   0.578E-02    0.112E-02
DAV:  15    -0.323301907418E+02   -0.13085E-02   -0.68056E-05   264   0.825E-02    0.779E-03
DAV:  16    -0.323312705897E+02   -0.10798E-02   -0.50285E-05   276   0.471E-02    0.652E-03
DAV:  17    -0.323320475089E+02   -0.77692E-03   -0.26617E-05   248   0.520E-02    0.472E-03
DAV:  18    -0.323326877498E+02   -0.64024E-03   -0.15127E-05   248   0.327E-02    0.400E-03
DAV:  19    -0.323331780230E+02   -0.49027E-03   -0.11550E-05   264   0.280E-02    0.285E-03
DAV:  20    -0.323337156475E+02   -0.53762E-03   -0.93127E-06   252   0.241E-02    0.264E-03
DAV:  21    -0.323341297101E+02   -0.41406E-03   -0.79212E-06   264   0.195E-02    0.197E-03
DAV:  22    -0.323343761990E+02   -0.24649E-03   -0.59102E-06   256   0.160E-02    0.168E-03
DAV:  23    -0.323344869421E+02   -0.11074E-03   -0.35059E-06   244   0.144E-02    0.139E-03
DAV:  24    -0.323345524808E+02   -0.65539E-04   -0.19247E-06   248   0.913E-03
   2 F= -.32334552E+02 E0= -.32326213E+02  d E =-.398273E-01  mag=     1.5264
       N       E                     dE             d eps       ncg     rms          rms(c)
DAV:   1    -0.322368312493E+02    0.97656E-01   -0.74154E+01   396   0.304E+01    0.854E-01
DAV:   2    -0.323695380967E+02   -0.13271E+00   -0.15979E+00   552   0.106E+01    0.881E-01
DAV:   3    -0.323574451056E+02    0.12093E-01   -0.91329E-02   424   0.685E+00    0.472E-01
DAV:   4    -0.323539848062E+02    0.34603E-02   -0.21716E-02   440   0.219E+00    0.371E-01
DAV:   5    -0.323470031480E+02    0.69817E-02   -0.65879E-03   412   0.847E-01    0.232E-01
DAV:   6    -0.323362487326E+02    0.10754E-01   -0.48386E-03   624   0.151E+00    0.145E-01
DAV:   7    -0.323338103847E+02    0.24383E-02   -0.13099E-03   432   0.114E+00    0.641E-02
DAV:   8    -0.323351603055E+02   -0.13499E-02   -0.82137E-04   424   0.402E-01    0.563E-02
DAV:   9    -0.323371975660E+02   -0.20373E-02   -0.27125E-04   328   0.262E-01    0.543E-02
DAV:  10    -0.323403859638E+02   -0.31884E-02   -0.24278E-04   264   0.213E-01    0.336E-02
DAV:  11    -0.323448474924E+02   -0.44615E-02   -0.69750E-04   432   0.197E-01    0.471E-02
DAV:  12    -0.323468901420E+02   -0.20426E-02   -0.76035E-05   264   0.131E-01    0.431E-02
DAV:  13    -0.323521154313E+02   -0.52253E-02   -0.34202E-04   316   0.148E-01    0.217E-02
DAV:  14    -0.323564871757E+02   -0.43717E-02   -0.23322E-04   272   0.135E-01    0.215E-02
DAV:  15    -0.323601899998E+02   -0.37028E-02   -0.26232E-04   304   0.144E-01    0.203E-02
DAV:  16    -0.323626646072E+02   -0.24746E-02   -0.15182E-04   272   0.123E-01    0.979E-03
DAV:  17    -0.323640525996E+02   -0.13880E-02   -0.83702E-05   272   0.717E-02    0.853E-03
DAV:  18    -0.323651536495E+02   -0.11010E-02   -0.47655E-05   248   0.684E-02    0.684E-03
DAV:  19    -0.323671138032E+02   -0.19602E-02   -0.50715E-05   256   0.457E-02    0.526E-03
DAV:  20    -0.323681498851E+02   -0.10361E-02   -0.29672E-05   272   0.467E-02    0.456E-03
DAV:  21    -0.323687410463E+02   -0.59116E-03   -0.18857E-05   272   0.371E-02    0.353E-03
DAV:  22    -0.323693064534E+02   -0.56541E-03   -0.13365E-05   256   0.260E-02    0.312E-03
DAV:  23    -0.323696604680E+02   -0.35401E-03   -0.82827E-06   248   0.239E-02    0.231E-03
DAV:  24    -0.323698664184E+02   -0.20595E-03   -0.47698E-06   232   0.175E-02    0.222E-03
DAV:  25    -0.323700511188E+02   -0.18470E-03   -0.36859E-06   256   0.141E-02    0.181E-03
DAV:  26    -0.323701026884E+02   -0.51570E-04   -0.20222E-06   256   0.106E-02
   3 F= -.32370103E+02 E0= -.32363868E+02  d E =-.753775E-01  mag=     1.0915
       N       E                     dE             d eps       ncg     rms          rms(c)
DAV:   1    -0.323542726572E+02    0.15778E-01   -0.24205E+01   392   0.169E+01    0.364E-01
DAV:   2    -0.324003526625E+02   -0.46080E-01   -0.49283E-01   552   0.479E+00    0.448E-01
DAV:   3    -0.323978025797E+02    0.25501E-02   -0.18047E-02   432   0.276E+00    0.268E-01
DAV:   4    -0.323970785444E+02    0.72404E-03   -0.43332E-03   488   0.102E+00    0.221E-01
DAV:   5    -0.323956365054E+02    0.14420E-02   -0.14251E-03   480   0.597E-01    0.147E-01
DAV:   6    -0.323929996566E+02    0.26368E-02   -0.21884E-03   632   0.975E-01    0.738E-02
DAV:   7    -0.323924358576E+02    0.56380E-03   -0.49131E-04   416   0.606E-01    0.304E-02
DAV:   8    -0.323922868725E+02    0.14899E-03   -0.23677E-04   280   0.227E-01    0.286E-02
DAV:   9    -0.323922722209E+02    0.14652E-04   -0.89439E-05   260   0.142E-01
   4 F= -.32392272E+02 E0= -.32388157E+02  d E =-.221695E-01  mag=     1.0434
       N       E                     dE             d eps       ncg     rms          rms(c)
DAV:   1    -0.323438066610E+02    0.48480E-01   -0.32043E+01   392   0.195E+01    0.417E-01
DAV:   2    -0.324049847764E+02   -0.61178E-01   -0.66283E-01   540   0.553E+00    0.514E-01
DAV:   3    -0.324014849730E+02    0.34998E-02   -0.23472E-02   412   0.321E+00    0.308E-01
DAV:   4    -0.324005745521E+02    0.91042E-03   -0.57115E-03   480   0.113E+00    0.256E-01
DAV:   5    -0.323988232081E+02    0.17513E-02   -0.17789E-03   460   0.667E-01    0.175E-01
DAV:   6    -0.323962540226E+02    0.25692E-02   -0.30167E-03   644   0.112E+00    0.864E-02
DAV:   7    -0.323959005829E+02    0.35344E-03   -0.65284E-04   424   0.693E-01    0.376E-02
DAV:   8    -0.323962799285E+02   -0.37935E-03   -0.37306E-04   336   0.278E-01    0.368E-02
DAV:   9    -0.323965843076E+02   -0.30438E-03   -0.11275E-04   264   0.173E-01    0.309E-02
DAV:  10    -0.323973232755E+02   -0.73897E-03   -0.12977E-04   272   0.149E-01    0.198E-02
DAV:  11    -0.323979812018E+02   -0.65793E-03   -0.52630E-05   264   0.858E-02    0.190E-02
DAV:  12    -0.323985338702E+02   -0.55267E-03   -0.30299E-05   256   0.650E-02    0.169E-02
DAV:  13    -0.324007763523E+02   -0.22425E-02   -0.82255E-05   260   0.120E-01    0.155E-02
DAV:  14    -0.324030937289E+02   -0.23174E-02   -0.16069E-04   284   0.701E-02    0.128E-02
DAV:  15    -0.324040765014E+02   -0.98277E-03   -0.69709E-05   288   0.857E-02    0.124E-02
DAV:  16    -0.324064217983E+02   -0.23453E-02   -0.16695E-04   284   0.796E-02    0.113E-02
DAV:  17    -0.324076236068E+02   -0.12018E-02   -0.10310E-04   280   0.752E-02    0.774E-03
DAV:  18    -0.324081542325E+02   -0.53063E-03   -0.53336E-05   280   0.570E-02    0.669E-03
DAV:  19    -0.324087830673E+02   -0.62883E-03   -0.49425E-05   272   0.477E-02    0.605E-03
DAV:  20    -0.324090678865E+02   -0.28482E-03   -0.26410E-05   272   0.368E-02    0.470E-03
DAV:  21    -0.324093262356E+02   -0.25835E-03   -0.16542E-05   264   0.307E-02    0.305E-03
DAV:  22    -0.324094962748E+02   -0.17004E-03   -0.10580E-05   256   0.250E-02    0.255E-03
DAV:  23    -0.324096431411E+02   -0.14687E-03   -0.68676E-06   256   0.183E-02    0.234E-03
DAV:  24    -0.324096977718E+02   -0.54631E-04   -0.33704E-06   224   0.164E-02
   5 F= -.32409698E+02 E0= -.32405167E+02  d E =-.395951E-01  mag=     0.7605
       N       E                     dE             d eps       ncg     rms          rms(c)
DAV:   1    -0.323914220293E+02    0.18221E-01   -0.24075E+01   392   0.169E+01    0.326E-01
DAV:   2    -0.324383170337E+02   -0.46895E-01   -0.48405E-01   536   0.433E+00    0.421E-01
DAV:   3    -0.324364959430E+02    0.18211E-02   -0.12037E-02   396   0.235E+00    0.259E-01
DAV:   4    -0.324361942277E+02    0.30172E-03   -0.33063E-03   444   0.910E-01    0.225E-01
DAV:   5    -0.324356616195E+02    0.53261E-03   -0.14032E-03   480   0.713E-01    0.146E-01
DAV:   6    -0.324353378095E+02    0.32381E-03   -0.19461E-03   684   0.922E-01    0.639E-02
DAV:   7    -0.324352315461E+02    0.10626E-03   -0.37683E-04   376   0.434E-01    0.213E-02
DAV:   8    -0.324351759420E+02    0.55604E-04   -0.16441E-04   272   0.159E-01
   6 F= -.32435176E+02 E0= -.32430912E+02  d E =-.254782E-01  mag=     0.7530
       N       E                     dE             d eps       ncg     rms          rms(c)
DAV:   1    -0.324153473716E+02    0.19884E-01   -0.14782E+01   392   0.131E+01    0.259E-01
DAV:   2    -0.324434315112E+02   -0.28084E-01   -0.29210E-01   544   0.345E+00    0.337E-01
DAV:   3    -0.324421832942E+02    0.12482E-02   -0.78588E-03   396   0.192E+00    0.203E-01
DAV:   4    -0.324419785976E+02    0.20470E-03   -0.21355E-03   472   0.703E-01    0.172E-01
DAV:   5    -0.324416234215E+02    0.35518E-03   -0.75544E-04   412   0.539E-01    0.115E-01
DAV:   6    -0.324413482257E+02    0.27520E-03   -0.12062E-03   592   0.695E-01    0.551E-02
DAV:   7    -0.324412448532E+02    0.10337E-03   -0.21092E-04   272   0.366E-01    0.174E-02
DAV:   8    -0.324412174075E+02    0.27446E-04   -0.16454E-04   232   0.141E-01
   7 F= -.32441217E+02 E0= -.32437011E+02  d E =-.315196E-01  mag=     0.7419
       N       E                     dE             d eps       ncg     rms          rms(c)
DAV:   1    -0.324355289495E+02    0.57159E-02   -0.93250E+00   392   0.105E+01    0.242E-01
DAV:   2    -0.324523138620E+02   -0.16785E-01   -0.18079E-01   532   0.327E+00    0.304E-01
DAV:   3    -0.324512719217E+02    0.10419E-02   -0.90073E-03   384   0.204E+00    0.165E-01
DAV:   4    -0.324511882633E+02    0.83658E-04   -0.16588E-03   496   0.543E-01    0.134E-01
DAV:   5    -0.324510130762E+02    0.17519E-03   -0.29868E-04   276   0.251E-01    0.102E-01
DAV:   6    -0.324508627126E+02    0.15036E-03   -0.10695E-03   544   0.605E-01    0.545E-02
DAV:   7    -0.324507987067E+02    0.64006E-04   -0.18057E-04   240   0.436E-01
   8 F= -.32450799E+02 E0= -.32447084E+02  d E =-.958130E-02  mag=     0.7302
       N       E                     dE             d eps       ncg     rms          rms(c)
DAV:   1    -0.324147702826E+02    0.36092E-01   -0.23568E+01   392   0.167E+01    0.392E-01
DAV:   2    -0.324596348846E+02   -0.44865E-01   -0.48046E-01   532   0.509E+00    0.477E-01
DAV:   3    -0.324569120044E+02    0.27229E-02   -0.20233E-02   392   0.306E+00    0.264E-01
DAV:   4    -0.324566744916E+02    0.23751E-03   -0.42214E-03   520   0.894E-01    0.216E-01
DAV:   5    -0.324562382362E+02    0.43626E-03   -0.96963E-04   396   0.434E-01    0.158E-01
DAV:   6    -0.324559362695E+02    0.30197E-03   -0.20571E-03   632   0.925E-01    0.870E-02
DAV:   7    -0.324558152480E+02    0.12102E-03   -0.50875E-04   416   0.683E-01    0.285E-02
DAV:   8    -0.324558509024E+02   -0.35654E-04   -0.28270E-04   284   0.189E-01
   9 F= -.32455851E+02 E0= -.32452643E+02  d E =-.146335E-01  mag=     0.7156
       N       E                     dE             d eps       ncg     rms          rms(c)
DAV:   1    -0.324474657884E+02    0.83495E-02   -0.87818E+00   392   0.101E+01    0.233E-01
DAV:   2    -0.324628971112E+02   -0.15431E-01   -0.16671E-01   532   0.288E+00    0.284E-01
DAV:   3    -0.324618491331E+02    0.10480E-02   -0.62908E-03   408   0.157E+00    0.158E-01
DAV:   4    -0.324617307681E+02    0.11837E-03   -0.15619E-03   460   0.612E-01    0.127E-01
DAV:   5    -0.324615463141E+02    0.18445E-03   -0.41128E-04   316   0.321E-01    0.897E-02
DAV:   6    -0.324613877709E+02    0.15854E-03   -0.93656E-04   532   0.456E-01    0.476E-02
DAV:   7    -0.324613519818E+02    0.35789E-04   -0.12682E-04   232   0.354E-01
  10 F= -.32461352E+02 E0= -.32458194E+02  d E =-.550108E-02  mag=     0.7001
       N       E                     dE             d eps       ncg     rms          rms(c)
DAV:   1    -0.324451389173E+02    0.16249E-01   -0.11115E+01   392   0.114E+01    0.257E-01
DAV:   2    -0.324648049264E+02   -0.19666E-01   -0.21160E-01   536   0.318E+00    0.315E-01
DAV:   3    -0.324634858034E+02    0.13191E-02   -0.72415E-03   400   0.171E+00    0.178E-01
DAV:   4    -0.324633272254E+02    0.15858E-03   -0.19341E-03   448   0.673E-01    0.144E-01
DAV:   5    -0.324630801573E+02    0.24707E-03   -0.54590E-04   376   0.381E-01    0.100E-01
DAV:   6    -0.324628660075E+02    0.21415E-03   -0.10319E-03   536   0.532E-01    0.513E-02
DAV:   7    -0.324628187886E+02    0.47219E-04   -0.16226E-04   220   0.411E-01
  11 F= -.32462819E+02 E0= -.32459669E+02  d E =-.696789E-02  mag=     0.6817
       N       E                     dE             d eps       ncg     rms          rms(c)
DAV:   1    -0.324616421156E+02    0.12239E-02   -0.35361E+00   392   0.642E+00    0.135E-01
DAV:   2    -0.324671557673E+02   -0.55137E-02   -0.59567E-02   536   0.195E+00    0.165E-01
DAV:   3    -0.324669323809E+02    0.22339E-03   -0.34561E-03   388   0.120E+00    0.930E-02
DAV:   4    -0.324668984895E+02    0.33891E-04   -0.57961E-04   368   0.314E-01
  12 F= -.32466898E+02 E0= -.32463652E+02  d E =-.407970E-02  mag=     0.6738
       N       E                     dE             d eps       ncg     rms          rms(c)
DAV:   1    -0.324635403756E+02    0.33920E-02   -0.30367E+00   392   0.595E+00    0.121E-01
DAV:   2    -0.324681857472E+02   -0.46454E-02   -0.50813E-02   532   0.154E+00    0.150E-01
DAV:   3    -0.324679614345E+02    0.22431E-03   -0.15639E-03   412   0.634E-01    0.110E-01
DAV:   4    -0.324678221376E+02    0.13930E-03   -0.24352E-04   248   0.327E-01    0.918E-02
DAV:   5    -0.324675242706E+02    0.29787E-03   -0.24491E-04   276   0.374E-01    0.424E-02
DAV:   6    -0.324674398866E+02    0.84384E-04   -0.64453E-04   460   0.269E-01
  13 F= -.32467440E+02 E0= -.32463975E+02  d E =-.462110E-02  mag=     0.6545
