 vasp.6.1.2 22Jul20 (build Aug  2 2021 21:04:21) gamma-only                      
 executed on             LinuxPGI date 2021.12.20  16:55:28
 running on   16 total cores
 distrk:  each k-point on   16 cores,    1 groups
 distr:  one band on NCORE=   8 cores,    2 groups


--------------------------------------------------------------------------------------------------------


 INCAR:
 POTCAR:    PAW_PBE Cu 22Jun2005                  
 -----------------------------------------------------------------------------
|                                                                             |
|           W    W    AA    RRRRR   N    N  II  N    N   GGGG   !!!           |
|           W    W   A  A   R    R  NN   N  II  NN   N  G    G  !!!           |
|           W    W  A    A  R    R  N N  N  II  N N  N  G       !!!           |
|           W WW W  AAAAAA  RRRRR   N  N N  II  N  N N  G  GGG   !            |
|           WW  WW  A    A  R   R   N   NN  II  N   NN  G    G                |
|           W    W  A    A  R    R  N    N  II  N    N   GGGG   !!!           |
|                                                                             |
|     You use a magnetic or noncollinear calculation, but did not specify     |
|     the initial magnetic moment with the MAGMOM tag. Note that a            |
|     default of 1 will be used for all atoms. This ferromagnetic setup       |
|     may break the symmetry of the crystal, in particular it may rule        |
|     out finding an antiferromagnetic solution. Thence, we recommend         |
|     setting the initial magnetic moment manually or verifying carefully     |
|     that this magnetic setup is desired.                                    |
|                                                                             |
 -----------------------------------------------------------------------------

 POTCAR:    PAW_PBE Cu 22Jun2005                  
   SHA256 =  0e71e558f37a4e8407882b4609ceaae59938afaad9ced71dfe8490308a0ab630 Cu/POTCAR             
   COPYR  = (c) Copyright 22Jun2005 Georg Kresse                                                    
   COPYR  = This file is part of the software VASP. Any use, copying, and all other rights are regul
   COPYR  = If you do not have a valid VASP license, you may not use, copy or distribute this file. 
   VRHFIN =Cu: d10 p1                                                                               
   LEXCH  = PE                                                                                      
   EATOM  =  1390.9808 eV,  102.2342 Ry                                                             
                                                                                                    
   TITEL  = PAW_PBE Cu 22Jun2005                                                                    
   LULTRA =        F    use ultrasoft PP ?                                                          
   IUNSCR =        1    unscreen: 0-lin 1-nonlin 2-no                                               
   RPACOR =    2.000    partial core radius                                                         
   POMASS =   63.546; ZVAL   =   11.000    mass and valenz                                          
   RCORE  =    2.300    outmost cutoff radius                                                       
   RWIGS  =    2.200; RWIGS  =    1.164    wigner-seitz radius (au A)                               
   ENMAX  =  295.446; ENMIN  =  221.585 eV                                                          
   ICORE  =        3    local potential                                                             
   LCOR   =        T    correct aug charges                                                         
   LPAW   =        T    paw PP                                                                      
   EAUG   =  586.980                                                                                
   DEXC   =    0.000                                                                                
   RMAX   =    2.344    core radius for proj-oper                                                   
   RAUG   =    1.300    factor for augmentation sphere                                              
   RDEP   =    2.302    radius for radial grids                                                     
   RDEPT  =    1.771    core radius for aug-charge                                                  
                                                                                                    
   Atomic configuration                                                                             
    9 entries                                                                                       
     n  l   j            E        occ.                                                              
     1  0  0.50     -8850.2468   2.0000                                                             
     2  0  0.50     -1062.3498   2.0000                                                             
     2  1  1.50      -916.8226   6.0000                                                             
     3  0  0.50      -114.6929   2.0000                                                             
     3  1  1.50       -72.1325   6.0000                                                             
     3  2  2.50        -5.0394  10.0000                                                             
     4  0  0.50        -4.6097   1.0000                                                             
     4  1  0.50        -4.0817   0.0000                                                             
     4  3  2.50        -1.3606   0.0000                                                             
   Description                                                                                      
     l       E           TYP  RCUT    TYP  RCUT                                                     
     2     -5.0393973     23  2.200                                                                 
     2     10.8846608     23  2.200                                                                 
     0     -4.6097109     23  2.200                                                                 
     0      8.2520465     23  2.200                                                                 
     1     -2.7211652     23  2.200                                                                 
     1     21.7055443     23  2.200                                                                 
     3      2.7211652     23  2.300                                                                 
  local pseudopotential read in
  partial core-charges read in
  partial kinetic energy density read in
  atomic valenz-charges read in
  non local Contribution for L=            2  read in
    real space projection operators read in
  non local Contribution for L=            2  read in
    real space projection operators read in
  non local Contribution for L=            0  read in
    real space projection operators read in
  non local Contribution for L=            0  read in
    real space projection operators read in
  non local Contribution for L=            1  read in
    real space projection operators read in
  non local Contribution for L=            1  read in
    real space projection operators read in
    PAW grid and wavefunctions read in
 
   number of l-projection  operators is LMAX  =            6
   number of lm-projection operators is LMMAX =           18
 
  PAW_PBE Cu 22Jun2005                  :
 energy of atom  1       EATOM=-1390.9808
 kinetic energy error for atom=    0.0232 (will be added to EATOM!!)
 
 
 POSCAR: Cu
  positions in cartesian coordinates
  No initial velocities read in
 exchange correlation table for  LEXCH =        8
   RHO(1)=    0.500       N(1)  =     2000
   RHO(2)=  100.500       N(2)  =     4000
 


--------------------------------------------------------------------------------------------------------


 ion  position               nearest neighbor table
   1  0.492  0.508  0.456-  13 2.39   9 2.39  11 2.39   7 2.40  10 2.40   3 2.45   8 2.45   2 2.46
                             5 2.46   6 2.46   4 2.46
   2  0.589  0.475  0.424-   1 2.46  11 2.49  13 2.51   8 2.52   5 2.53   3 2.54
   3  0.575  0.579  0.462-   1 2.45   8 2.51   6 2.52   5 2.52   4 2.53   2 2.54
   4  0.471  0.614  0.439-   1 2.46   7 2.49   9 2.51   8 2.52   3 2.53   6 2.53
   5  0.571  0.489  0.520-  12 2.41   1 2.46  13 2.50   3 2.52   2 2.53  10 2.56   6 2.63
   6  0.495  0.578  0.530-  12 2.42   1 2.46   9 2.51   3 2.52   4 2.53  10 2.54   5 2.63
   7  0.421  0.533  0.390-   1 2.40   4 2.49   8 2.51   9 2.55  11 2.57
   8  0.530  0.552  0.376-   1 2.45   7 2.51   3 2.51   4 2.52  11 2.52   2 2.52
   9  0.399  0.548  0.487-   1 2.39   4 2.51   6 2.51   7 2.55  10 2.59
  10  0.461  0.470  0.539-   1 2.40  12 2.42   6 2.54   5 2.56   9 2.59  13 2.60
  11  0.495  0.446  0.381-   1 2.39   2 2.49   8 2.52  13 2.56   7 2.57
  12  0.526  0.516  0.602-   5 2.41  10 2.42   6 2.42
  13  0.519  0.407  0.472-   1 2.39   5 2.50   2 2.51  11 2.56  10 2.60
 

IMPORTANT INFORMATION: All symmetrisations will be switched off!
NOSYMM: (Re-)initialisation of all symmetry stuff for point group C_1.


----------------------------------------------------------------------------------------

                                     Primitive cell                                     

  volume of cell :   12955.5872

  direct lattice vectors                    reciprocal lattice vectors
    22.450603711  0.000000000  0.000000000     0.044542232  0.000000000  0.000000000
     0.000000000 22.417159797  0.000000000     0.000000000  0.044608684  0.000000000
     0.000000000  0.000000000 25.742367771     0.000000000  0.000000000  0.038846465

  length of vectors
    22.450603711 22.417159797 25.742367771     0.044542232  0.044608684  0.038846465

  position of ions in fractional coordinates (direct lattice)
     0.491862093  0.508125895  0.456352323
     0.589433522  0.474954911  0.424294289
     0.575033206  0.578832656  0.461746846
     0.471349527  0.614161081  0.439392846
     0.570727808  0.488938674  0.520367535
     0.494975079  0.577649479  0.530177134
     0.421068174  0.532831974  0.390162520
     0.529761783  0.552375798  0.375677535
     0.399388916  0.547708911  0.486647145
     0.460559898  0.470379995  0.539366735
     0.494898361  0.445755610  0.380980546
     0.526428634  0.515943491  0.602366527
     0.519322166  0.406795411  0.472067624

  ion indices of the primitive-cell ions
   primitive index   ion index
                 1           1
                 2           2
                 3           3
                 4           4
                 5           5
                 6           6
                 7           7
                 8           8
                 9           9
                10          10
                11          11
                12          12
                13          13

----------------------------------------------------------------------------------------

 
 
 KPOINTS: KPOINTS created by Atomic Simulation Env

Automatic generation of k-mesh.
Space group operators:
 irot       det(A)        alpha          n_x          n_y          n_z        tau_x        tau_y        tau_z
    1     1.000000     0.000000     1.000000     0.000000     0.000000     0.000000     0.000000     0.000000
 
 Subroutine IBZKPT returns following result:
 ===========================================
 
 Found      1 irreducible k-points:
 
 Following reciprocal coordinates:
            Coordinates               Weight
  0.000000  0.000000  0.000000      1.000000
 
 Following cartesian coordinates:
            Coordinates               Weight
  0.000000  0.000000  0.000000      1.000000
 


--------------------------------------------------------------------------------------------------------




 Dimension of arrays:
   k-points           NKPTS =      1   k-points in BZ     NKDIM =      1   number of bands    NBANDS=     92
   number of dos      NEDOS =    301   number of ions     NIONS =     13
   non local maximal  LDIM  =      6   non local SUM 2l+1 LMDIM =     18
   total plane-waves  NPLWV = ******
   max r-space proj   IRMAX =      1   max aug-charges    IRDMAX=   3733
   dimension x,y,z NGX =   112 NGY =  112 NGZ =  126
   dimension x,y,z NGXF=   224 NGYF=  224 NGZF=  252
   support grid    NGXF=   224 NGYF=  224 NGZF=  252
   ions per type =              13
   NGX,Y,Z   is equivalent  to a cutoff of   8.29,  8.31,  8.14 a.u.
   NGXF,Y,Z  is equivalent  to a cutoff of  16.59, 16.61, 16.27 a.u.

 SYSTEM =  unknown system                          
 POSCAR =  Cu                                      

 Startparameter for this run:
   NWRITE =      2    write-flag & timer
   PREC   = normal    normal or accurate (medium, high low for compatibility)
   ISTART =      0    job   : 0-new  1-cont  2-samecut
   ICHARG =      2    charge: 1-file 2-atom 10-const
   ISPIN  =      2    spin polarized calculation?
   LNONCOLLINEAR =      F non collinear calculations
   LSORBIT =      F    spin-orbit coupling
   INIWAV =      1    electr: 0-lowe 1-rand  2-diag
   LASPH  =      F    aspherical Exc in radial PAW
   METAGGA=      F    non-selfconsistent MetaGGA calc.

 Electronic Relaxation 1
   ENCUT  =  400.0 eV  29.40 Ry    5.42 a.u.  36.61 36.56 41.98*2*pi/ulx,y,z
   ENINI  =  400.0     initial cutoff
   ENAUG  =  587.0 eV  augmentation charge cutoff
   NELM   =     60;   NELMIN=  2; NELMDL=  0     # of ELM steps 
   EDIFF  = 0.1E-03   stopping-criterion for ELM
   LREAL  =      F    real-space projection
   NLSPLINE    = F    spline interpolate recip. space projectors
   LCOMPAT=      F    compatible to vasp.4.4
   GGA_COMPAT  = T    GGA compatible to vasp.4.4-vasp.4.6
   LMAXPAW     = -100 max onsite density
   LMAXMIX     =    2 max onsite mixed and CHGCAR
   VOSKOWN=      0    Vosko Wilk Nusair interpolation
   ROPT   =    0.00000
 Ionic relaxation
   EDIFFG = 0.1E-02   stopping-criterion for IOM
   NSW    =   1000    number of steps for IOM
   NBLOCK =      1;   KBLOCK =   1000    inner block; outer block 
   IBRION =      2    ionic relax: 0-MD 1-quasi-New 2-CG
   NFREE  =      1    steps in history (QN), initial steepest desc. (CG)
   ISIF   =      0    stress and relaxation
   IWAVPR =     11    prediction:  0-non 1-charg 2-wave 3-comb
   ISYM   =      0    0-nonsym 1-usesym 2-fastsym
   LCORR  =      T    Harris-Foulkes like correction to forces

   POTIM  = 0.5000    time-step for ionic-motion
   TEIN   =    0.0    initial temperature
   TEBEG  =    0.0;   TEEND  =   0.0 temperature during run
   SMASS  =  -3.00    Nose mass-parameter (am)
   estimated Nose-frequenzy (Omega)   =  0.10E-29 period in steps = 0.13E+47 mass=  -0.115E-25a.u.
   SCALEE = 1.0000    scale energy and forces
   NPACO  =    256;   APACO  = 16.0  distance and # of slots for P.C.
   PSTRESS=    0.0 pullay stress

  Mass of Ions in am
   POMASS =  63.55
  Ionic Valenz
   ZVAL   =  11.00
  Atomic Wigner-Seitz radii
   RWIGS  =  -1.00
  virtual crystal weights 
   VCA    =   1.00
   NELECT =     143.0000    total number of electrons
   NUPDOWN=      -1.0000    fix difference up-down

 DOS related values:
   EMIN   =  10.00;   EMAX   =-10.00  energy-range for DOS
   EFERMI =   0.00
   ISMEAR =     1;   SIGMA  =   0.20  broadening in eV -4-tet -1-fermi 0-gaus

 Electronic relaxation 2 (details)
   IALGO  =     38    algorithm
   LDIAG  =      T    sub-space diagonalisation (order eigenvalues)
   LSUBROT=      F    optimize rotation matrix (better conditioning)
   TURBO    =      0    0=normal 1=particle mesh
   IRESTART =      0    0=no restart 2=restart with 2 vectors
   NREBOOT  =      0    no. of reboots
   NMIN     =      0    reboot dimension
   EREF     =   0.00    reference energy to select bands
   IMIX   =      4    mixing-type and parameters
     AMIX     =   0.40;   BMIX     =  1.00
     AMIX_MAG =   1.60;   BMIX_MAG =  1.00
     AMIN     =   0.10
     WC   =   100.;   INIMIX=   1;  MIXPRE=   1;  MAXMIX= -45

 Intra band minimization:
   WEIMIN = 0.0010     energy-eigenvalue tresh-hold
   EBREAK =  0.27E-06  absolut break condition
   DEPER  =   0.30     relativ break condition  

   TIME   =   0.40     timestep for ELM

  volume/ion in A,a.u.               =     996.58      6725.28
  Fermi-wavevector in a.u.,A,eV,Ry     =   0.364503  0.688811  1.807703  0.132862
  Thomas-Fermi vector in A             =   1.287373
 
 Write flags
   LWAVE        =      F    write WAVECAR
   LDOWNSAMPLE  =      F    k-point downsampling of WAVECAR
   LCHARG       =      F    write CHGCAR
   LVTOT        =      F    write LOCPOT, total local potential
   LVHAR        =      F    write LOCPOT, Hartree potential only
   LELF         =      F    write electronic localiz. function (ELF)
   LORBIT       =      0    0 simple, 1 ext, 2 COOP (PROOUT), +10 PAW based schemes


 Dipole corrections
   LMONO  =      F    monopole corrections only (constant potential shift)
   LDIPOL =      F    correct potential (dipole corrections)
   IDIPOL =      0    1-x, 2-y, 3-z, 4-all directions 
   EPSILON=  1.0000000 bulk dielectric constant

 Exchange correlation treatment:
   GGA     =    PE    GGA type
   LEXCH   =     8    internal setting for exchange type
   VOSKOWN=      0    Vosko Wilk Nusair interpolation
   LHFCALC =     F    Hartree Fock is set to
   LHFONE  =     F    Hartree Fock one center treatment
   AEXX    =    0.0000 exact exchange contribution

 Linear response parameters
   LEPSILON=     F    determine dielectric tensor
   LRPA    =     F    only Hartree local field effects (RPA)
   LNABLA  =     F    use nabla operator in PAW spheres
   LVEL    =     F    velocity operator in full k-point grid
   LINTERFAST=   F  fast interpolation
   KINTER  =     0    interpolate to denser k-point grid
   CSHIFT  =0.1000    complex shift for real part using Kramers Kronig
   OMEGAMAX=  -1.0    maximum frequency
   DEG_THRESHOLD= 0.2000000E-02 threshold for treating states as degnerate
   RTIME   =   -0.100 relaxation time in fs
  (WPLASMAI=    0.000 imaginary part of plasma frequency in eV, 0.658/RTIME)
   DFIELD  = 0.0000000 0.0000000 0.0000000 field for delta impulse in time
 
 Orbital magnetization related:
   ORBITALMAG=     F  switch on orbital magnetization
   LCHIMAG   =     F  perturbation theory with respect to B field
   DQ        =  0.001000  dq finite difference perturbation B field
   LLRAUG    =     F  two centre corrections for induced B field



--------------------------------------------------------------------------------------------------------


 conjugate gradient relaxation of ions
 charge density and potential will be updated during run
 spin polarized calculation
 Variant of blocked Davidson
 Davidson routine will perform the subspace rotation
 perform sub-space diagonalisation
    after iterative eigenvector-optimisation
 modified Broyden-mixing scheme, WC =      100.0
 initial mixing is a Kerker type mixing with AMIX =  0.4000 and BMIX =      1.0000
 Hartree-type preconditioning will be used
 using additional bands            20
 reciprocal scheme for non local part
 use partial core corrections
 calculate Harris-corrections to forces 
   (improved forces if not selfconsistent)
 use gradient corrections 
 use of overlap-Matrix (Vanderbilt PP)
 Methfessel and Paxton  Order N= 1 SIGMA  =   0.20


--------------------------------------------------------------------------------------------------------


  energy-cutoff  :      400.00
  volume of cell :    12955.59
      direct lattice vectors                 reciprocal lattice vectors
    22.450603711  0.000000000  0.000000000     0.044542232  0.000000000  0.000000000
     0.000000000 22.417159797  0.000000000     0.000000000  0.044608684  0.000000000
     0.000000000  0.000000000 25.742367771     0.000000000  0.000000000  0.038846465

  length of vectors
    22.450603711 22.417159797 25.742367771     0.044542232  0.044608684  0.038846465


 
 k-points in units of 2pi/SCALE and weight: KPOINTS created by Atomic Simulation Env
   0.00000000  0.00000000  0.00000000       1.000
 
 k-points in reciprocal lattice and weights: KPOINTS created by Atomic Simulation Env
   0.00000000  0.00000000  0.00000000       1.000
 
 position of ions in fractional coordinates (direct lattice) 
   0.49186209  0.50812589  0.45635232
   0.58943352  0.47495491  0.42429429
   0.57503321  0.57883266  0.46174685
   0.47134953  0.61416108  0.43939285
   0.57072781  0.48893867  0.52036754
   0.49497508  0.57764948  0.53017713
   0.42106817  0.53283197  0.39016252
   0.52976178  0.55237580  0.37567753
   0.39938892  0.54770891  0.48664714
   0.46055990  0.47037999  0.53936673
   0.49489836  0.44575561  0.38098055
   0.52642863  0.51594349  0.60236653
   0.51932217  0.40679541  0.47206762
 
 position of ions in cartesian coordinates  (Angst):
  11.04260094 11.39073938 11.74758934
  13.23313841 10.64714013 10.92233963
  12.90984263 12.97578414 11.88645714
  10.58208143 13.76774709 11.31101223
  12.81318384 10.96061639 13.39549247
  11.11248934 12.94926067 13.64801476
   9.45323471 11.94457950 10.04370709
  11.89347185 12.38269652  9.67082926
   8.96652227 12.27807817 12.52744977
  10.33984775 10.54458350 13.88457686
  11.11076698  9.99257473  9.80734133
  11.81864065 11.56598768 15.50634066
  11.65909614  9.11919773 12.15213838
 


--------------------------------------------------------------------------------------------------------


 use parallel FFT for orbitals z direction half grid
 k-point   1 :   0.0000 0.0000 0.0000  plane waves:  117672

 maximum and minimum number of plane-waves per node :     14716    14705

 maximum number of plane-waves:    117672
 maximum index in each direction: 
   IXMAX=   36   IYMAX=   36   IZMAX=   41
   IXMIN=  -36   IYMIN=  -36   IZMIN=    0


 parallel 3D FFT for wavefunctions:
    minimum data exchange during FFTs selected (reduces bandwidth)
 parallel 3D FFT for charge:
    minimum data exchange during FFTs selected (reduces bandwidth)


 total amount of memory used by VASP MPI-rank0   160939. kBytes
=======================================================================

   base      :      30000. kBytes
   nonl-proj :       5177. kBytes
   fftplans  :      30949. kBytes
   grid      :      73106. kBytes
   one-center:         31. kBytes
   wavefun   :      21676. kBytes
 
     INWAV:  cpu time    0.0000: real time    0.0000
 Broyden mixing: mesh for mixing (old mesh)
   NGX = 73   NGY = 73   NGZ = 83
  (NGX  =224   NGY  =224   NGZ  =252)
  gives a total of 442307 points

 initial charge density was supplied:
 charge density of overlapping atoms calculated
 number of electron     143.0000000 magnetization      13.0000000
 keeping initial charge density in first step


--------------------------------------------------------------------------------------------------------


 Maximum index for augmentation-charges           270 (set IRDMAX)


--------------------------------------------------------------------------------------------------------


 First call to EWALD:  gamma=   0.075
 Maximum number of real-space cells 3x 3x 3
 Maximum number of reciprocal cells 3x 3x 3

    FEWALD:  cpu time    0.0016: real time    0.0016


--------------------------------------- Iteration      1(   1)  ---------------------------------------


    POTLOK:  cpu time    2.5347: real time    2.5434
    SETDIJ:  cpu time    0.0241: real time    0.0241
     EDDAV:  cpu time   10.1278: real time   10.1402
       DOS:  cpu time    0.0019: real time    0.0019
    --------------------------------------------
      LOOP:  cpu time   12.6884: real time   12.7096

 eigenvalue-minimisations  :   368
 total energy-change (2. order) : 0.9753050E+03  (-0.2510005E+04)
 number of electron     143.0000000 magnetization      13.0000000
 augmentation part      143.0000000 magnetization      13.0000000

 Free energy of the ion-electron system (eV)
  ---------------------------------------------------
  alpha Z        PSCENC =         9.53985614
  Ewald energy   TEWEN  =     25535.32164834
  -Hartree energ DENC   =    -41994.37854997
  -exchange      EXHF   =         0.00000000
  -V(xc)+E(xc)   XCENC  =       584.84304021
  PAW double counting   =     15965.26744864   -17340.97210982
  entropy T*S    EENTRO =        -0.00058475
  eigenvalues    EBANDS =       133.23491248
  atomic energy  EATOM  =     18082.44932260
  Solvation  Ediel_sol  =         0.00000000
  ---------------------------------------------------
  free energy    TOTEN  =       975.30498386 eV

  energy without entropy =      975.30556861  energy(sigma->0) =      975.30517878


--------------------------------------------------------------------------------------------------------




--------------------------------------- Iteration      1(   2)  ---------------------------------------


     EDDAV:  cpu time   10.5863: real time   10.5993
       DOS:  cpu time    0.0022: real time    0.0022
    --------------------------------------------
      LOOP:  cpu time   10.5885: real time   10.6015

 eigenvalue-minimisations  :   392
 total energy-change (2. order) :-0.7335201E+03  (-0.6571272E+03)
 number of electron     143.0000000 magnetization      13.0000000
 augmentation part      143.0000000 magnetization      13.0000000

 Free energy of the ion-electron system (eV)
  ---------------------------------------------------
  alpha Z        PSCENC =         9.53985614
  Ewald energy   TEWEN  =     25535.32164834
  -Hartree energ DENC   =    -41994.37854997
  -exchange      EXHF   =         0.00000000
  -V(xc)+E(xc)   XCENC  =       584.84304021
  PAW double counting   =     15965.26744864   -17340.97210982
  entropy T*S    EENTRO =         0.03929068
  eigenvalues    EBANDS =      -600.32510913
  atomic energy  EATOM  =     18082.44932260
  Solvation  Ediel_sol  =         0.00000000
  ---------------------------------------------------
  free energy    TOTEN  =       241.78483769 eV

  energy without entropy =      241.74554700  energy(sigma->0) =      241.77174079


--------------------------------------------------------------------------------------------------------




--------------------------------------- Iteration      1(   3)  ---------------------------------------


     EDDAV:  cpu time   12.0443: real time   12.0591
       DOS:  cpu time    0.0012: real time    0.0012
    --------------------------------------------
      LOOP:  cpu time   12.0455: real time   12.0603

 eigenvalue-minimisations  :   464
 total energy-change (2. order) :-0.2346711E+03  (-0.2245410E+03)
 number of electron     143.0000000 magnetization      13.0000000
 augmentation part      143.0000000 magnetization      13.0000000

 Free energy of the ion-electron system (eV)
  ---------------------------------------------------
  alpha Z        PSCENC =         9.53985614
  Ewald energy   TEWEN  =     25535.32164834
  -Hartree energ DENC   =    -41994.37854997
  -exchange      EXHF   =         0.00000000
  -V(xc)+E(xc)   XCENC  =       584.84304021
  PAW double counting   =     15965.26744864   -17340.97210982
  entropy T*S    EENTRO =        -0.04703772
  eigenvalues    EBANDS =      -834.90983113
  atomic energy  EATOM  =     18082.44932260
  Solvation  Ediel_sol  =         0.00000000
  ---------------------------------------------------
  free energy    TOTEN  =         7.11378728 eV

  energy without entropy =        7.16082500  energy(sigma->0) =        7.12946652


--------------------------------------------------------------------------------------------------------




--------------------------------------- Iteration      1(   4)  ---------------------------------------


     EDDAV:  cpu time   11.2416: real time   11.2527
       DOS:  cpu time    0.0015: real time    0.0015
    --------------------------------------------
      LOOP:  cpu time   11.2432: real time   11.2543

 eigenvalue-minimisations  :   424
 total energy-change (2. order) :-0.4230501E+02  (-0.3916516E+02)
 number of electron     143.0000000 magnetization      13.0000000
 augmentation part      143.0000000 magnetization      13.0000000

 Free energy of the ion-electron system (eV)
  ---------------------------------------------------
  alpha Z        PSCENC =         9.53985614
  Ewald energy   TEWEN  =     25535.32164834
  -Hartree energ DENC   =    -41994.37854997
  -exchange      EXHF   =         0.00000000
  -V(xc)+E(xc)   XCENC  =       584.84304021
  PAW double counting   =     15965.26744864   -17340.97210982
  entropy T*S    EENTRO =         0.02274149
  eigenvalues    EBANDS =      -877.28461907
  atomic energy  EATOM  =     18082.44932260
  Solvation  Ediel_sol  =         0.00000000
  ---------------------------------------------------
  free energy    TOTEN  =       -35.19122144 eV

  energy without entropy =      -35.21396294  energy(sigma->0) =      -35.19880194


--------------------------------------------------------------------------------------------------------




--------------------------------------- Iteration      1(   5)  ---------------------------------------


     EDDAV:  cpu time   12.2203: real time   12.2357
       DOS:  cpu time    0.0016: real time    0.0016
    CHARGE:  cpu time    0.9190: real time    0.9201
    MIXING:  cpu time    0.0409: real time    0.0409
    --------------------------------------------
      LOOP:  cpu time   13.1817: real time   13.1983

 eigenvalue-minimisations  :   472
 total energy-change (2. order) :-0.1700990E+01  (-0.1687896E+01)
 number of electron     143.0000154 magnetization      12.0816899
 augmentation part       87.5200435 magnetization      10.9056285

 Broyden mixing:
  rms(total) = 0.27892E+01    rms(broyden)= 0.27890E+01
  rms(prec ) = 0.28532E+01
  weight for this iteration     100.00

 Free energy of the ion-electron system (eV)
  ---------------------------------------------------
  alpha Z        PSCENC =         9.53985614
  Ewald energy   TEWEN  =     25535.32164834
  -Hartree energ DENC   =    -41994.37854997
  -exchange      EXHF   =         0.00000000
  -V(xc)+E(xc)   XCENC  =       584.84304021
  PAW double counting   =     15965.26744864   -17340.97210982
  entropy T*S    EENTRO =         0.01840778
  eigenvalues    EBANDS =      -878.98127540
  atomic energy  EATOM  =     18082.44932260
  Solvation  Ediel_sol  =         0.00000000
  ---------------------------------------------------
  free energy    TOTEN  =       -36.89221149 eV

  energy without entropy =      -36.91061927  energy(sigma->0) =      -36.89834742


--------------------------------------------------------------------------------------------------------




--------------------------------------- Iteration      1(   6)  ---------------------------------------


    POTLOK:  cpu time    2.5586: real time    2.5669
    SETDIJ:  cpu time    0.0246: real time    0.0247
     EDDAV:  cpu time   10.8115: real time   10.8232
       DOS:  cpu time    0.0029: real time    0.0029
    CHARGE:  cpu time    0.8990: real time    0.8998
    MIXING:  cpu time    0.0445: real time    0.0446
    --------------------------------------------
      LOOP:  cpu time   14.3412: real time   14.3620

 eigenvalue-minimisations  :   400
 total energy-change (2. order) : 0.1736306E+02  (-0.1188279E+02)
 number of electron     143.0000169 magnetization      11.5276183
 augmentation part       94.8372871 magnetization       6.6036795

 Broyden mixing:
  rms(total) = 0.11873E+01    rms(broyden)= 0.11870E+01
  rms(prec ) = 0.12487E+01
  weight for this iteration     100.00

 eigenvalues of (default mixing * dielectric matrix)
  average eigenvalue GAMMA=   0.8378
  0.8378

 Free energy of the ion-electron system (eV)
  ---------------------------------------------------
  alpha Z        PSCENC =         9.53985614
  Ewald energy   TEWEN  =     25535.32164834
  -Hartree energ DENC   =    -41780.35455737
  -exchange      EXHF   =         0.00000000
  -V(xc)+E(xc)   XCENC  =       583.51835240
  PAW double counting   =     16126.05054666   -17456.94825576
  entropy T*S    EENTRO =        -0.04226098
  eigenvalues    EBANDS =     -1119.06380850
  atomic energy  EATOM  =     18082.44932260
  Solvation  Ediel_sol  =         0.00000000
  ---------------------------------------------------
  free energy    TOTEN  =       -19.52915648 eV

  energy without entropy =      -19.48689550  energy(sigma->0) =      -19.51506949


--------------------------------------------------------------------------------------------------------




--------------------------------------- Iteration      1(   7)  ---------------------------------------


    POTLOK:  cpu time    2.5529: real time    2.5552
    SETDIJ:  cpu time    0.0229: real time    0.0250
     EDDAV:  cpu time   11.6201: real time   11.6338
       DOS:  cpu time    0.0028: real time    0.0028
    CHARGE:  cpu time    0.9145: real time    0.9154
    MIXING:  cpu time    0.0488: real time    0.0489
    --------------------------------------------
      LOOP:  cpu time   15.1621: real time   15.1811

 eigenvalue-minimisations  :   440
 total energy-change (2. order) : 0.6306112E+01  (-0.2987539E+01)
 number of electron     143.0000157 magnetization      10.9422796
 augmentation part       92.1513742 magnetization       5.6779213

 Broyden mixing:
  rms(total) = 0.51005E+00    rms(broyden)= 0.50993E+00
  rms(prec ) = 0.52993E+00
  weight for this iteration     100.00

 eigenvalues of (default mixing * dielectric matrix)
  average eigenvalue GAMMA=   0.7980
  0.9686  0.6275

 Free energy of the ion-electron system (eV)
  ---------------------------------------------------
  alpha Z        PSCENC =         9.53985614
  Ewald energy   TEWEN  =     25535.32164834
  -Hartree energ DENC   =    -41935.53683001
  -exchange      EXHF   =         0.00000000
  -V(xc)+E(xc)   XCENC  =       592.00324317
  PAW double counting   =     16435.38797604   -17818.24127004
  entropy T*S    EENTRO =        -0.03119326
  eigenvalues    EBANDS =      -914.11579728
  atomic energy  EATOM  =     18082.44932260
  Solvation  Ediel_sol  =         0.00000000
  ---------------------------------------------------
  free energy    TOTEN  =       -13.22304431 eV

  energy without entropy =      -13.19185105  energy(sigma->0) =      -13.21264655


--------------------------------------------------------------------------------------------------------




--------------------------------------- Iteration      1(   8)  ---------------------------------------


    POTLOK:  cpu time    2.5599: real time    2.5622
    SETDIJ:  cpu time    0.0250: real time    0.0250
     EDDAV:  cpu time   12.2878: real time   12.3007
       DOS:  cpu time    0.0031: real time    0.0031
    CHARGE:  cpu time    0.8944: real time    0.8953
    MIXING:  cpu time    0.0503: real time    0.0503
    --------------------------------------------
      LOOP:  cpu time   15.8204: real time   15.8365

 eigenvalue-minimisations  :   476
 total energy-change (2. order) : 0.4884124E+00  (-0.6592139E+00)
 number of electron     143.0000163 magnetization      10.4693603
 augmentation part       91.6956449 magnetization       4.8085500

 Broyden mixing:
  rms(total) = 0.43470E+00    rms(broyden)= 0.43458E+00
  rms(prec ) = 0.45350E+00
  weight for this iteration     100.00

 eigenvalues of (default mixing * dielectric matrix)
  average eigenvalue GAMMA=   0.7618
  1.1204  0.6822  0.4830

 Free energy of the ion-electron system (eV)
  ---------------------------------------------------
  alpha Z        PSCENC =         9.53985614
  Ewald energy   TEWEN  =     25535.32164834
  -Hartree energ DENC   =    -41963.01105725
  -exchange      EXHF   =         0.00000000
  -V(xc)+E(xc)   XCENC  =       592.52190846
  PAW double counting   =     16607.10377400   -17999.96049386
  entropy T*S    EENTRO =        -0.01067914
  eigenvalues    EBANDS =      -876.68891116
  atomic energy  EATOM  =     18082.44932260
  Solvation  Ediel_sol  =         0.00000000
  ---------------------------------------------------
  free energy    TOTEN  =       -12.73463189 eV

  energy without entropy =      -12.72395275  energy(sigma->0) =      -12.73107217


--------------------------------------------------------------------------------------------------------




--------------------------------------- Iteration      1(   9)  ---------------------------------------


    POTLOK:  cpu time    2.5390: real time    2.5419
    SETDIJ:  cpu time    0.0243: real time    0.0243
     EDDAV:  cpu time   13.5100: real time   13.5242
       DOS:  cpu time    0.0029: real time    0.0029
    CHARGE:  cpu time    0.8928: real time    0.8936
    MIXING:  cpu time    0.0540: real time    0.0541
    --------------------------------------------
      LOOP:  cpu time   17.0229: real time   17.0409

 eigenvalue-minimisations  :   536
 total energy-change (2. order) :-0.1274546E+01  (-0.1563481E+00)
 number of electron     143.0000160 magnetization       9.7461647
 augmentation part       91.6288652 magnetization       4.4187963

 Broyden mixing:
  rms(total) = 0.26587E+00    rms(broyden)= 0.26581E+00
  rms(prec ) = 0.27269E+00
  weight for this iteration     100.00

 eigenvalues of (default mixing * dielectric matrix)
  average eigenvalue GAMMA=   0.8586
  1.2098  0.9030  0.9030  0.4189

 Free energy of the ion-electron system (eV)
  ---------------------------------------------------
  alpha Z        PSCENC =         9.53985614
  Ewald energy   TEWEN  =     25535.32164834
  -Hartree energ DENC   =    -41970.24914101
  -exchange      EXHF   =         0.00000000
  -V(xc)+E(xc)   XCENC  =       590.87725447
  PAW double counting   =     16692.26986507   -18087.37494857
  entropy T*S    EENTRO =        -0.02913404
  eigenvalues    EBANDS =      -866.81390102
  atomic energy  EATOM  =     18082.44932260
  Solvation  Ediel_sol  =         0.00000000
  ---------------------------------------------------
  free energy    TOTEN  =       -14.00917802 eV

  energy without entropy =      -13.98004398  energy(sigma->0) =      -13.99946668


--------------------------------------------------------------------------------------------------------




--------------------------------------- Iteration      1(  10)  ---------------------------------------


    POTLOK:  cpu time    2.5446: real time    2.5479
    SETDIJ:  cpu time    0.0260: real time    0.0260
     EDDAV:  cpu time   13.4857: real time   13.5000
       DOS:  cpu time    0.0029: real time    0.0029
    CHARGE:  cpu time    0.8799: real time    0.8808
    MIXING:  cpu time    0.0597: real time    0.0597
    --------------------------------------------
      LOOP:  cpu time   16.9987: real time   17.0174

 eigenvalue-minimisations  :   536
 total energy-change (2. order) :-0.2238829E+01  (-0.1229319E+00)
 number of electron     143.0000159 magnetization       9.0596928
 augmentation part       91.8972413 magnetization       4.3294449

 Broyden mixing:
  rms(total) = 0.20520E+00    rms(broyden)= 0.20513E+00
  rms(prec ) = 0.21048E+00
  weight for this iteration     100.00

 eigenvalues of (default mixing * dielectric matrix)
  average eigenvalue GAMMA=   0.9268
  1.7021  1.1992  0.7382  0.5313  0.4630

 Free energy of the ion-electron system (eV)
  ---------------------------------------------------
  alpha Z        PSCENC =         9.53985614
  Ewald energy   TEWEN  =     25535.32164834
  -Hartree energ DENC   =    -41966.45631024
  -exchange      EXHF   =         0.00000000
  -V(xc)+E(xc)   XCENC  =       588.41331620
  PAW double counting   =     16746.94706211   -18140.17923066
  entropy T*S    EENTRO =        -0.03558666
  eigenvalues    EBANDS =      -872.24808535
  atomic energy  EATOM  =     18082.44932260
  Solvation  Ediel_sol  =         0.00000000
  ---------------------------------------------------
  free energy    TOTEN  =       -16.24800750 eV

  energy without entropy =      -16.21242085  energy(sigma->0) =      -16.23614529


--------------------------------------------------------------------------------------------------------




--------------------------------------- Iteration      1(  11)  ---------------------------------------


    POTLOK:  cpu time    2.5407: real time    2.5440
    SETDIJ:  cpu time    0.0244: real time    0.0245
     EDDAV:  cpu time   12.4529: real time   12.4650
       DOS:  cpu time    0.0014: real time    0.0014
    CHARGE:  cpu time    0.9039: real time    0.9065
    MIXING:  cpu time    0.0650: real time    0.0651
    --------------------------------------------
      LOOP:  cpu time   15.9883: real time   16.0064

 eigenvalue-minimisations  :   488
 total energy-change (2. order) :-0.2409144E+01  (-0.8962833E-01)
 number of electron     143.0000162 magnetization       8.5599670
 augmentation part       92.0102996 magnetization       4.4926598

 Broyden mixing:
  rms(total) = 0.17602E+00    rms(broyden)= 0.17592E+00
  rms(prec ) = 0.18005E+00
  weight for this iteration     100.00

 eigenvalues of (default mixing * dielectric matrix)
  average eigenvalue GAMMA=   0.8718
  1.7818  1.1719  0.7056  0.7056  0.4331  0.4331

 Free energy of the ion-electron system (eV)
  ---------------------------------------------------
  alpha Z        PSCENC =         9.53985614
  Ewald energy   TEWEN  =     25535.32164834
  -Hartree energ DENC   =    -41970.16626374
  -exchange      EXHF   =         0.00000000
  -V(xc)+E(xc)   XCENC  =       586.33523893
  PAW double counting   =     16781.78424805   -18174.90591735
  entropy T*S    EENTRO =        -0.01995302
  eigenvalues    EBANDS =      -868.99533154
  atomic energy  EATOM  =     18082.44932260
  Solvation  Ediel_sol  =         0.00000000
  ---------------------------------------------------
  free energy    TOTEN  =       -18.65715160 eV

  energy without entropy =      -18.63719857  energy(sigma->0) =      -18.65050059


--------------------------------------------------------------------------------------------------------




--------------------------------------- Iteration      1(  12)  ---------------------------------------


    POTLOK:  cpu time    2.5336: real time    2.5419
    SETDIJ:  cpu time    0.0248: real time    0.0249
     EDDAV:  cpu time   12.7698: real time   12.7826
       DOS:  cpu time    0.0019: real time    0.0019
    CHARGE:  cpu time    0.9109: real time    0.9118
    MIXING:  cpu time    0.0709: real time    0.0710
    --------------------------------------------
      LOOP:  cpu time   16.3121: real time   16.3341

 eigenvalue-minimisations  :   496
 total energy-change (2. order) :-0.1513966E+01  (-0.4303155E-01)
 number of electron     143.0000162 magnetization       6.9623805
 augmentation part       91.9281640 magnetization       3.1859216

 Broyden mixing:
  rms(total) = 0.14660E+00    rms(broyden)= 0.14658E+00
  rms(prec ) = 0.14914E+00
  weight for this iteration     100.00

 eigenvalues of (default mixing * dielectric matrix)
  average eigenvalue GAMMA=   1.1710
  3.2004  1.7596  0.8665  0.8665  0.5890  0.4575  0.4575

 Free energy of the ion-electron system (eV)
  ---------------------------------------------------
  alpha Z        PSCENC =         9.53985614
  Ewald energy   TEWEN  =     25535.32164834
  -Hartree energ DENC   =    -41979.32421327
  -exchange      EXHF   =         0.00000000
  -V(xc)+E(xc)   XCENC  =       585.37873925
  PAW double counting   =     16794.94086127   -18189.52762820
  entropy T*S    EENTRO =        -0.00962818
  eigenvalues    EBANDS =      -858.94007520
  atomic energy  EATOM  =     18082.44932260
  Solvation  Ediel_sol  =         0.00000000
  ---------------------------------------------------
  free energy    TOTEN  =       -20.17111726 eV

  energy without entropy =      -20.16148908  energy(sigma->0) =      -20.16790787


--------------------------------------------------------------------------------------------------------




--------------------------------------- Iteration      1(  13)  ---------------------------------------


    POTLOK:  cpu time    2.5374: real time    2.5412
    SETDIJ:  cpu time    0.0244: real time    0.0244
     EDDAV:  cpu time   12.7961: real time   12.8122
       DOS:  cpu time    0.0058: real time    0.0058
    CHARGE:  cpu time    0.9141: real time    0.9151
    MIXING:  cpu time    0.0794: real time    0.0794
    --------------------------------------------
      LOOP:  cpu time   16.3572: real time   16.3781

 eigenvalue-minimisations  :   496
 total energy-change (2. order) :-0.4310754E+01  (-0.2213969E+00)
 number of electron     143.0000162 magnetization       6.7610339
 augmentation part       91.7358886 magnetization       3.3620088

 Broyden mixing:
  rms(total) = 0.11984E+00    rms(broyden)= 0.11983E+00
  rms(prec ) = 0.12363E+00
  weight for this iteration     100.00

 eigenvalues of (default mixing * dielectric matrix)
  average eigenvalue GAMMA=   1.1018
  2.9240  1.9196  0.8932  0.8932  0.7100  0.4816  0.4816  0.5115

 Free energy of the ion-electron system (eV)
  ---------------------------------------------------
  alpha Z        PSCENC =         9.53985614
  Ewald energy   TEWEN  =     25535.32164834
  -Hartree energ DENC   =    -41993.87811651
  -exchange      EXHF   =         0.00000000
  -V(xc)+E(xc)   XCENC  =       582.21721751
  PAW double counting   =     16797.66167040   -18193.48076040
  entropy T*S    EENTRO =        -0.00613006
  eigenvalues    EBANDS =      -844.30657968
  atomic energy  EATOM  =     18082.44932260
  Solvation  Ediel_sol  =         0.00000000
  ---------------------------------------------------
  free energy    TOTEN  =       -24.48187166 eV

  energy without entropy =      -24.47574160  energy(sigma->0) =      -24.47982831


--------------------------------------------------------------------------------------------------------




--------------------------------------- Iteration      1(  14)  ---------------------------------------


    POTLOK:  cpu time    2.5306: real time    2.5372
    SETDIJ:  cpu time    0.0251: real time    0.0251
     EDDAV:  cpu time   12.4665: real time   12.4790
       DOS:  cpu time    0.0019: real time    0.0020
    CHARGE:  cpu time    0.9033: real time    0.9042
    MIXING:  cpu time    0.0830: real time    0.0831
    --------------------------------------------
      LOOP:  cpu time   16.0105: real time   16.0306

 eigenvalue-minimisations  :   480
 total energy-change (2. order) :-0.2086450E+01  (-0.6042952E-01)
 number of electron     143.0000161 magnetization       6.5495470
 augmentation part       91.8527882 magnetization       3.2434727

 Broyden mixing:
  rms(total) = 0.10345E+00    rms(broyden)= 0.10343E+00
  rms(prec ) = 0.10625E+00
  weight for this iteration     100.00

 eigenvalues of (default mixing * dielectric matrix)
  average eigenvalue GAMMA=   1.1087
  2.6092  2.6092  1.0411  1.0411  0.6383  0.6383  0.5244  0.4383  0.4383

 Free energy of the ion-electron system (eV)
  ---------------------------------------------------
  alpha Z        PSCENC =         9.53985614
  Ewald energy   TEWEN  =     25535.32164834
  -Hartree energ DENC   =    -41981.72051077
  -exchange      EXHF   =         0.00000000
  -V(xc)+E(xc)   XCENC  =       580.23182101
  PAW double counting   =     16762.21120351   -18154.95925423
  entropy T*S    EENTRO =        -0.00370730
  eigenvalues    EBANDS =      -859.63870128
  atomic energy  EATOM  =     18082.44932260
  Solvation  Ediel_sol  =         0.00000000
  ---------------------------------------------------
  free energy    TOTEN  =       -26.56832198 eV

  energy without entropy =      -26.56461468  energy(sigma->0) =      -26.56708621


--------------------------------------------------------------------------------------------------------




--------------------------------------- Iteration      1(  15)  ---------------------------------------


    POTLOK:  cpu time    2.5429: real time    2.5469
    SETDIJ:  cpu time    0.0244: real time    0.0244
     EDDAV:  cpu time   13.3221: real time   13.3372
       DOS:  cpu time    0.0019: real time    0.0019
    CHARGE:  cpu time    0.8612: real time    0.8636
    MIXING:  cpu time    0.0922: real time    0.0923
    --------------------------------------------
      LOOP:  cpu time   16.8447: real time   16.8663

 eigenvalue-minimisations  :   528
 total energy-change (2. order) :-0.1233473E+01  (-0.2480514E-01)
 number of electron     143.0000162 magnetization       5.8107272
 augmentation part       91.9267938 magnetization       2.5770515

 Broyden mixing:
  rms(total) = 0.81358E-01    rms(broyden)= 0.81352E-01
  rms(prec ) = 0.82786E-01
  weight for this iteration     100.00

 eigenvalues of (default mixing * dielectric matrix)
  average eigenvalue GAMMA=   1.2147
  3.2569  3.2569  1.0205  1.0205  0.8126  0.8126  0.6025  0.4775  0.4438  0.4438

 Free energy of the ion-electron system (eV)
  ---------------------------------------------------
  alpha Z        PSCENC =         9.53985614
  Ewald energy   TEWEN  =     25535.32164834
  -Hartree energ DENC   =    -41974.11598744
  -exchange      EXHF   =         0.00000000
  -V(xc)+E(xc)   XCENC  =       579.07919163
  PAW double counting   =     16735.62613265   -18127.20259966
  entropy T*S    EENTRO =        -0.00324214
  eigenvalues    EBANDS =      -868.49611752
  atomic energy  EATOM  =     18082.44932260
  Solvation  Ediel_sol  =         0.00000000
  ---------------------------------------------------
  free energy    TOTEN  =       -27.80179541 eV

  energy without entropy =      -27.79855327  energy(sigma->0) =      -27.80071470


--------------------------------------------------------------------------------------------------------




--------------------------------------- Iteration      1(  16)  ---------------------------------------


    POTLOK:  cpu time    2.5506: real time    2.5544
    SETDIJ:  cpu time    0.0251: real time    0.0252
     EDDAV:  cpu time   12.3720: real time   12.3889
       DOS:  cpu time    0.0009: real time    0.0009
    CHARGE:  cpu time    0.8894: real time    0.8903
    MIXING:  cpu time    0.0980: real time    0.0981
    --------------------------------------------
      LOOP:  cpu time   15.9361: real time   15.9579

 eigenvalue-minimisations  :   476
 total energy-change (2. order) :-0.2110598E+01  (-0.4803504E-01)
 number of electron     143.0000162 magnetization       5.0333191
 augmentation part       91.9088311 magnetization       2.1695814

 Broyden mixing:
  rms(total) = 0.78054E-01    rms(broyden)= 0.78033E-01
  rms(prec ) = 0.79565E-01
  weight for this iteration     100.00

 eigenvalues of (default mixing * dielectric matrix)
  average eigenvalue GAMMA=   1.2532
  3.5559  3.5559  1.4512  0.9605  0.9605  0.6929  0.6929  0.6058  0.4429  0.4429
  0.4237

 Free energy of the ion-electron system (eV)
  ---------------------------------------------------
  alpha Z        PSCENC =         9.53985614
  Ewald energy   TEWEN  =     25535.32164834
  -Hartree energ DENC   =    -41965.15405032
  -exchange      EXHF   =         0.00000000
  -V(xc)+E(xc)   XCENC  =       577.21539835
  PAW double counting   =     16690.75323500   -18082.56093200
  entropy T*S    EENTRO =        -0.02384132
  eigenvalues    EBANDS =      -877.45303039
  atomic energy  EATOM  =     18082.44932260
  Solvation  Ediel_sol  =         0.00000000
  ---------------------------------------------------
  free energy    TOTEN  =       -29.91239361 eV

  energy without entropy =      -29.88855228  energy(sigma->0) =      -29.90444650


--------------------------------------------------------------------------------------------------------




--------------------------------------- Iteration      1(  17)  ---------------------------------------


    POTLOK:  cpu time    2.5389: real time    2.5457
    SETDIJ:  cpu time    0.0247: real time    0.0248
     EDDAV:  cpu time   12.1216: real time   12.1349
       DOS:  cpu time    0.0009: real time    0.0009
    CHARGE:  cpu time    0.8588: real time    0.8596
    MIXING:  cpu time    0.1061: real time    0.1063
    --------------------------------------------
      LOOP:  cpu time   15.6510: real time   15.6721

 eigenvalue-minimisations  :   464
 total energy-change (2. order) :-0.7401737E+00  (-0.1325625E-01)
 number of electron     143.0000162 magnetization       4.6550128
 augmentation part       91.8467516 magnetization       2.1215134

 Broyden mixing:
  rms(total) = 0.65751E-01    rms(broyden)= 0.65717E-01
  rms(prec ) = 0.67564E-01
  weight for this iteration     100.00

 eigenvalues of (default mixing * dielectric matrix)
  average eigenvalue GAMMA=   1.2475
  4.9901  2.4907  1.7273  0.9600  0.9600  0.7102  0.7102  0.5650  0.5027  0.5027
  0.4255  0.4255

 Free energy of the ion-electron system (eV)
  ---------------------------------------------------
  alpha Z        PSCENC =         9.53985614
  Ewald energy   TEWEN  =     25535.32164834
  -Hartree energ DENC   =    -41964.76349102
  -exchange      EXHF   =         0.00000000
  -V(xc)+E(xc)   XCENC  =       576.56303282
  PAW double counting   =     16688.68029979   -18082.18435900
  entropy T*S    EENTRO =        -0.03047862
  eigenvalues    EBANDS =      -876.22839838
  atomic energy  EATOM  =     18082.44932260
  Solvation  Ediel_sol  =         0.00000000
  ---------------------------------------------------
  free energy    TOTEN  =       -30.65256734 eV

  energy without entropy =      -30.62208872  energy(sigma->0) =      -30.64240780


--------------------------------------------------------------------------------------------------------




--------------------------------------- Iteration      1(  18)  ---------------------------------------


    POTLOK:  cpu time    2.5403: real time    2.5499
    SETDIJ:  cpu time    0.0253: real time    0.0254
     EDDAV:  cpu time   13.6056: real time   13.6217
       DOS:  cpu time    0.0009: real time    0.0009
    CHARGE:  cpu time    0.8834: real time    0.8844
    MIXING:  cpu time    0.1196: real time    0.1197
    --------------------------------------------
      LOOP:  cpu time   17.1751: real time   17.2019

 eigenvalue-minimisations  :   544
 total energy-change (2. order) :-0.1618657E+00  (-0.2329916E-02)
 number of electron     143.0000161 magnetization       3.8301255
 augmentation part       91.8599302 magnetization       1.4390479

 Broyden mixing:
  rms(total) = 0.52398E-01    rms(broyden)= 0.52384E-01
  rms(prec ) = 0.54350E-01
  weight for this iteration     100.00

 eigenvalues of (default mixing * dielectric matrix)
  average eigenvalue GAMMA=   1.3535
  6.4435  1.8959  1.8959  1.0955  1.0955  1.1228  0.7790  0.7790  0.6305  0.5476
  0.4470  0.4470  0.4165

 Free energy of the ion-electron system (eV)
  ---------------------------------------------------
  alpha Z        PSCENC =         9.53985614
  Ewald energy   TEWEN  =     25535.32164834
  -Hartree energ DENC   =    -41963.55716465
  -exchange      EXHF   =         0.00000000
  -V(xc)+E(xc)   XCENC  =       576.34399845
  PAW double counting   =     16690.90150779   -18084.63375568
  entropy T*S    EENTRO =        -0.02892777
  eigenvalues    EBANDS =      -877.15091824
  atomic energy  EATOM  =     18082.44932260
  Solvation  Ediel_sol  =         0.00000000
  ---------------------------------------------------
  free energy    TOTEN  =       -30.81443301 eV

  energy without entropy =      -30.78550524  energy(sigma->0) =      -30.80479042


--------------------------------------------------------------------------------------------------------




--------------------------------------- Iteration      1(  19)  ---------------------------------------


    POTLOK:  cpu time    2.5433: real time    2.5480
    SETDIJ:  cpu time    0.0248: real time    0.0248
     EDDAV:  cpu time   12.7430: real time   12.7584
       DOS:  cpu time    0.0009: real time    0.0009
    CHARGE:  cpu time    0.8415: real time    0.8431
    MIXING:  cpu time    0.1244: real time    0.1246
    --------------------------------------------
      LOOP:  cpu time   16.2779: real time   16.2997

 eigenvalue-minimisations  :   500
 total energy-change (2. order) :-0.2889961E+00  (-0.4953600E-02)
 number of electron     143.0000161 magnetization       3.1461189
 augmentation part       91.8980219 magnetization       1.0332730

 Broyden mixing:
  rms(total) = 0.41339E-01    rms(broyden)= 0.41300E-01
  rms(prec ) = 0.43250E-01
  weight for this iteration     100.00

 eigenvalues of (default mixing * dielectric matrix)
  average eigenvalue GAMMA=   1.4868
  7.7739  2.3414  2.3414  1.3615  1.0807  1.0807  0.9193  0.9193  0.6199  0.6199
  0.4458  0.4458  0.4582  0.4074

 Free energy of the ion-electron system (eV)
  ---------------------------------------------------
  alpha Z        PSCENC =         9.53985614
  Ewald energy   TEWEN  =     25535.32164834
  -Hartree energ DENC   =    -41961.33184977
  -exchange      EXHF   =         0.00000000
  -V(xc)+E(xc)   XCENC  =       575.94129967
  PAW double counting   =     16694.40333975   -18088.09283254
  entropy T*S    EENTRO =        -0.02251560
  eigenvalues    EBANDS =      -879.31169767
  atomic energy  EATOM  =     18082.44932260
  Solvation  Ediel_sol  =         0.00000000
  ---------------------------------------------------
  free energy    TOTEN  =       -31.10342909 eV

  energy without entropy =      -31.08091349  energy(sigma->0) =      -31.09592389


--------------------------------------------------------------------------------------------------------




--------------------------------------- Iteration      1(  20)  ---------------------------------------


    POTLOK:  cpu time    2.5442: real time    2.5483
    SETDIJ:  cpu time    0.0251: real time    0.0251
     EDDAV:  cpu time   12.3977: real time   12.4096
       DOS:  cpu time    0.0009: real time    0.0009
    CHARGE:  cpu time    0.8869: real time    0.8879
    MIXING:  cpu time    0.1339: real time    0.1341
    --------------------------------------------
      LOOP:  cpu time   15.9888: real time   16.0059

 eigenvalue-minimisations  :   488
 total energy-change (2. order) :-0.4076546E+00  (-0.4836000E-02)
 number of electron     143.0000161 magnetization       2.8509008
 augmentation part       91.8314622 magnetization       0.8619474

 Broyden mixing:
  rms(total) = 0.24291E-01    rms(broyden)= 0.24268E-01
  rms(prec ) = 0.25728E-01
  weight for this iteration     100.00

 eigenvalues of (default mixing * dielectric matrix)
  average eigenvalue GAMMA=   1.5294
  8.9744  2.2534  2.2534  1.6349  1.0858  1.0858  0.9869  0.8342  0.8342  0.6158
  0.6158  0.4485  0.4485  0.4555  0.4145

 Free energy of the ion-electron system (eV)
  ---------------------------------------------------
  alpha Z        PSCENC =         9.53985614
  Ewald energy   TEWEN  =     25535.32164834
  -Hartree energ DENC   =    -41960.72054368
  -exchange      EXHF   =         0.00000000
  -V(xc)+E(xc)   XCENC  =       575.60529047
  PAW double counting   =     16698.76130772   -18093.25464689
  entropy T*S    EENTRO =        -0.02020798
  eigenvalues    EBANDS =      -879.19311038
  atomic energy  EATOM  =     18082.44932260
  Solvation  Ediel_sol  =         0.00000000
  ---------------------------------------------------
  free energy    TOTEN  =       -31.51108367 eV

  energy without entropy =      -31.49087568  energy(sigma->0) =      -31.50434767


--------------------------------------------------------------------------------------------------------




--------------------------------------- Iteration      1(  21)  ---------------------------------------


    POTLOK:  cpu time    2.5517: real time    2.5585
    SETDIJ:  cpu time    0.0251: real time    0.0251
     EDDAV:  cpu time   12.9523: real time   12.9663
       DOS:  cpu time    0.0068: real time    0.0068
    CHARGE:  cpu time    0.9038: real time    0.9047
    MIXING:  cpu time    0.1384: real time    0.1385
    --------------------------------------------
      LOOP:  cpu time   16.5781: real time   16.5999

 eigenvalue-minimisations  :   504
 total energy-change (2. order) :-0.2624966E+00  (-0.1858948E-02)
 number of electron     143.0000161 magnetization       2.5926334
 augmentation part       91.8553722 magnetization       0.7142307

 Broyden mixing:
  rms(total) = 0.17599E-01    rms(broyden)= 0.17582E-01
  rms(prec ) = 0.18676E-01
  weight for this iteration     100.00

 eigenvalues of (default mixing * dielectric matrix)
  average eigenvalue GAMMA=   1.5661
  9.8737  2.4380  2.4380  1.4751  1.4751  1.0822  1.0822  0.8230  0.8230  0.6754
  0.5701  0.5701  0.4449  0.4449  0.4291  0.4134

 Free energy of the ion-electron system (eV)
  ---------------------------------------------------
  alpha Z        PSCENC =         9.53985614
  Ewald energy   TEWEN  =     25535.32164834
  -Hartree energ DENC   =    -41957.02625053
  -exchange      EXHF   =         0.00000000
  -V(xc)+E(xc)   XCENC  =       575.28836600
  PAW double counting   =     16692.35945144   -18086.48202463
  entropy T*S    EENTRO =        -0.02073457
  eigenvalues    EBANDS =      -883.20321502
  atomic energy  EATOM  =     18082.44932260
  Solvation  Ediel_sol  =         0.00000000
  ---------------------------------------------------
  free energy    TOTEN  =       -31.77358022 eV

  energy without entropy =      -31.75284565  energy(sigma->0) =      -31.76666870


--------------------------------------------------------------------------------------------------------




--------------------------------------- Iteration      1(  22)  ---------------------------------------


    POTLOK:  cpu time    2.5392: real time    2.5439
    SETDIJ:  cpu time    0.0244: real time    0.0244
     EDDAV:  cpu time   12.4856: real time   12.4996
       DOS:  cpu time    0.0077: real time    0.0077
    CHARGE:  cpu time    0.9074: real time    0.9083
    MIXING:  cpu time    0.1546: real time    0.1548
    --------------------------------------------
      LOOP:  cpu time   16.1189: real time   16.1387

 eigenvalue-minimisations  :   484
 total energy-change (2. order) :-0.1442252E+00  (-0.5661122E-03)
 number of electron     143.0000161 magnetization       2.3303487
 augmentation part       91.8584131 magnetization       0.5161155

 Broyden mixing:
  rms(total) = 0.12380E-01    rms(broyden)= 0.12372E-01
  rms(prec ) = 0.13483E-01
  weight for this iteration     100.00

 eigenvalues of (default mixing * dielectric matrix)
  average eigenvalue GAMMA=   1.6041
 10.6123  2.5968  2.5968  1.6699  1.6699  1.0739  1.0739  0.8354  0.8354  0.7369
  0.6177  0.6177  0.5866  0.4470  0.4470  0.4411  0.4120

 Free energy of the ion-electron system (eV)
  ---------------------------------------------------
  alpha Z        PSCENC =         9.53985614
  Ewald energy   TEWEN  =     25535.32164834
  -Hartree energ DENC   =    -41955.62594398
  -exchange      EXHF   =         0.00000000
  -V(xc)+E(xc)   XCENC  =       575.13168727
  PAW double counting   =     16693.53280699   -18087.62685004
  entropy T*S    EENTRO =        -0.02191813
  eigenvalues    EBANDS =      -884.61841460
  atomic energy  EATOM  =     18082.44932260
  Solvation  Ediel_sol  =         0.00000000
  ---------------------------------------------------
  free energy    TOTEN  =       -31.91780541 eV

  energy without entropy =      -31.89588728  energy(sigma->0) =      -31.91049936


--------------------------------------------------------------------------------------------------------




--------------------------------------- Iteration      1(  23)  ---------------------------------------


    POTLOK:  cpu time    2.5440: real time    2.5474
    SETDIJ:  cpu time    0.0250: real time    0.0250
     EDDAV:  cpu time   12.6117: real time   12.6253
       DOS:  cpu time    0.0067: real time    0.0067
    CHARGE:  cpu time    0.9140: real time    0.9157
    MIXING:  cpu time    0.1652: real time    0.1654
    --------------------------------------------
      LOOP:  cpu time   16.2666: real time   16.2854

 eigenvalue-minimisations  :   488
 total energy-change (2. order) :-0.1541414E+00  (-0.3273096E-03)
 number of electron     143.0000161 magnetization       2.1010483
 augmentation part       91.8537004 magnetization       0.3201267

 Broyden mixing:
  rms(total) = 0.84507E-02    rms(broyden)= 0.84471E-02
  rms(prec ) = 0.92807E-02
  weight for this iteration     100.00

 eigenvalues of (default mixing * dielectric matrix)
  average eigenvalue GAMMA=   1.6650
 11.7094  2.8229  2.8229  1.9670  1.2913  1.2913  1.0916  1.0916  0.8506  0.8506
  0.7441  0.6013  0.6013  0.4482  0.4482  0.4793  0.4134  0.4448

 Free energy of the ion-electron system (eV)
  ---------------------------------------------------
  alpha Z        PSCENC =         9.53985614
  Ewald energy   TEWEN  =     25535.32164834
  -Hartree energ DENC   =    -41954.10689352
  -exchange      EXHF   =         0.00000000
  -V(xc)+E(xc)   XCENC  =       574.97400037
  PAW double counting   =     16697.69327300   -18091.74441893
  entropy T*S    EENTRO =        -0.02326864
  eigenvalues    EBANDS =      -886.17546616
  atomic energy  EATOM  =     18082.44932260
  Solvation  Ediel_sol  =         0.00000000
  ---------------------------------------------------
  free energy    TOTEN  =       -32.07194680 eV

  energy without entropy =      -32.04867816  energy(sigma->0) =      -32.06419058


--------------------------------------------------------------------------------------------------------




--------------------------------------- Iteration      1(  24)  ---------------------------------------


    POTLOK:  cpu time    2.5265: real time    2.5385
    SETDIJ:  cpu time    0.0246: real time    0.0246
     EDDAV:  cpu time   13.3503: real time   13.3639
       DOS:  cpu time    0.0069: real time    0.0069
    CHARGE:  cpu time    0.8776: real time    0.8785
    MIXING:  cpu time    0.1772: real time    0.1774
    --------------------------------------------
      LOOP:  cpu time   16.9631: real time   16.9898

 eigenvalue-minimisations  :   528
 total energy-change (2. order) :-0.1098282E+00  (-0.2214153E-03)
 number of electron     143.0000161 magnetization       1.9940983
 augmentation part       91.8597949 magnetization       0.2644663

 Broyden mixing:
  rms(total) = 0.57570E-02    rms(broyden)= 0.57512E-02
  rms(prec ) = 0.64132E-02
  weight for this iteration     100.00

 eigenvalues of (default mixing * dielectric matrix)
  average eigenvalue GAMMA=   1.6925
 12.2213  3.1319  2.4565  2.0990  1.7427  1.7427  1.0791  1.0791  0.8441  0.8441
  0.7942  0.7095  0.5927  0.5927  0.4472  0.4472  0.4799  0.4122  0.4416

 Free energy of the ion-electron system (eV)
  ---------------------------------------------------
  alpha Z        PSCENC =         9.53985614
  Ewald energy   TEWEN  =     25535.32164834
  -Hartree energ DENC   =    -41951.97882109
  -exchange      EXHF   =         0.00000000
  -V(xc)+E(xc)   XCENC  =       574.84219935
  PAW double counting   =     16697.95727123   -18091.85296588
  entropy T*S    EENTRO =        -0.02455584
  eigenvalues    EBANDS =      -888.43572984
  atomic energy  EATOM  =     18082.44932260
  Solvation  Ediel_sol  =         0.00000000
  ---------------------------------------------------
  free energy    TOTEN  =       -32.18177499 eV

  energy without entropy =      -32.15721915  energy(sigma->0) =      -32.17358971


--------------------------------------------------------------------------------------------------------




--------------------------------------- Iteration      1(  25)  ---------------------------------------


    POTLOK:  cpu time    2.5243: real time    2.5298
    SETDIJ:  cpu time    0.0245: real time    0.0245
     EDDAV:  cpu time    9.4095: real time    9.4195
       DOS:  cpu time    0.0067: real time    0.0067
    CHARGE:  cpu time    0.8620: real time    0.8630
    MIXING:  cpu time    0.1829: real time    0.1830
    --------------------------------------------
      LOOP:  cpu time   13.0098: real time   13.0265

 eigenvalue-minimisations  :   328
 total energy-change (2. order) :-0.4685589E-01  (-0.6014510E-04)
 number of electron     143.0000161 magnetization       1.9400483
 augmentation part       91.8603201 magnetization       0.2249343

 Broyden mixing:
  rms(total) = 0.35911E-02    rms(broyden)= 0.35890E-02
  rms(prec ) = 0.40737E-02
  weight for this iteration     100.00

 eigenvalues of (default mixing * dielectric matrix)
  average eigenvalue GAMMA=   1.7105
 12.3647  4.1677  2.4364  2.4364  1.5553  1.5553  1.0867  1.0867  0.8685  0.8685
  0.8734  0.8734  0.6186  0.6186  0.5747  0.4474  0.4474  0.4122  0.4755  0.4433

 Free energy of the ion-electron system (eV)
  ---------------------------------------------------
  alpha Z        PSCENC =         9.53985614
  Ewald energy   TEWEN  =     25535.32164834
  -Hartree energ DENC   =    -41950.57581211
  -exchange      EXHF   =         0.00000000
  -V(xc)+E(xc)   XCENC  =       574.78981023
  PAW double counting   =     16697.85588200   -18091.72679165
  entropy T*S    EENTRO =        -0.02495092
  eigenvalues    EBANDS =      -889.85759550
  atomic energy  EATOM  =     18082.44932260
  Solvation  Ediel_sol  =         0.00000000
  ---------------------------------------------------
  free energy    TOTEN  =       -32.22863087 eV

  energy without entropy =      -32.20367995  energy(sigma->0) =      -32.22031390


--------------------------------------------------------------------------------------------------------




--------------------------------------- Iteration      1(  26)  ---------------------------------------


    POTLOK:  cpu time    2.5320: real time    2.5348
    SETDIJ:  cpu time    0.0246: real time    0.0246
     EDDAV:  cpu time    8.9397: real time    8.9501
       DOS:  cpu time    0.0090: real time    0.0090
    CHARGE:  cpu time    0.8720: real time    0.8729
    MIXING:  cpu time    0.1949: real time    0.1951
    --------------------------------------------
      LOOP:  cpu time   12.5723: real time   12.5865

 eigenvalue-minimisations  :   304
 total energy-change (2. order) :-0.2436016E-01  (-0.3579137E-04)
 number of electron     143.0000161 magnetization       1.8784804
 augmentation part       91.8609768 magnetization       0.1637223

 Broyden mixing:
  rms(total) = 0.29985E-02    rms(broyden)= 0.29982E-02
  rms(prec ) = 0.33504E-02
  weight for this iteration     100.00

 eigenvalues of (default mixing * dielectric matrix)
  average eigenvalue GAMMA=   1.7253
 12.7003  4.6999  2.4534  2.4534  1.8994  1.3689  1.3689  1.0809  1.0809  0.8507
  0.8507  0.8832  0.6259  0.6259  0.5830  0.5014  0.4468  0.4468  0.4121  0.4601
  0.4386

 Free energy of the ion-electron system (eV)
  ---------------------------------------------------
  alpha Z        PSCENC =         9.53985614
  Ewald energy   TEWEN  =     25535.32164834
  -Hartree energ DENC   =    -41949.68812894
  -exchange      EXHF   =         0.00000000
  -V(xc)+E(xc)   XCENC  =       574.76183996
  PAW double counting   =     16697.97910073   -18091.84629689
  entropy T*S    EENTRO =        -0.02490092
  eigenvalues    EBANDS =      -890.74543204
  atomic energy  EATOM  =     18082.44932260
  Solvation  Ediel_sol  =         0.00000000
  ---------------------------------------------------
  free energy    TOTEN  =       -32.25299103 eV

  energy without entropy =      -32.22809011  energy(sigma->0) =      -32.24469072


--------------------------------------------------------------------------------------------------------




--------------------------------------- Iteration      1(  27)  ---------------------------------------


    POTLOK:  cpu time    2.5317: real time    2.5362
    SETDIJ:  cpu time    0.0248: real time    0.0248
     EDDAV:  cpu time    9.1003: real time    9.1098
       DOS:  cpu time    0.0090: real time    0.0091
    CHARGE:  cpu time    0.8790: real time    0.8819
    MIXING:  cpu time    0.2148: real time    0.2157
    --------------------------------------------
      LOOP:  cpu time   12.7595: real time   12.7775

 eigenvalue-minimisations  :   312
 total energy-change (2. order) :-0.1782124E-01  (-0.2861365E-04)
 number of electron     143.0000161 magnetization       1.8433090
 augmentation part       91.8589107 magnetization       0.1342126

 Broyden mixing:
  rms(total) = 0.19607E-02    rms(broyden)= 0.19603E-02
  rms(prec ) = 0.21908E-02
  weight for this iteration     100.00

 eigenvalues of (default mixing * dielectric matrix)
  average eigenvalue GAMMA=   1.7307
 12.8783  5.0824  2.5630  2.5630  1.7933  1.7933  1.3913  1.0815  1.0815  0.8488
  0.8488  0.8406  0.8406  0.6137  0.6137  0.6071  0.4471  0.4471  0.4735  0.4447
  0.4144  0.4076

 Free energy of the ion-electron system (eV)
  ---------------------------------------------------
  alpha Z        PSCENC =         9.53985614
  Ewald energy   TEWEN  =     25535.32164834
  -Hartree energ DENC   =    -41949.02895509
  -exchange      EXHF   =         0.00000000
  -V(xc)+E(xc)   XCENC  =       574.74436279
  PAW double counting   =     16698.20916001   -18092.13726990
  entropy T*S    EENTRO =        -0.02496539
  eigenvalues    EBANDS =      -891.34397177
  atomic energy  EATOM  =     18082.44932260
  Solvation  Ediel_sol  =         0.00000000
  ---------------------------------------------------
  free energy    TOTEN  =       -32.27081227 eV

  energy without entropy =      -32.24584689  energy(sigma->0) =      -32.26249048


--------------------------------------------------------------------------------------------------------




--------------------------------------- Iteration      1(  28)  ---------------------------------------


    POTLOK:  cpu time    2.5223: real time    2.5247
    SETDIJ:  cpu time    0.0245: real time    0.0245
     EDDAV:  cpu time    8.2692: real time    8.2775
       DOS:  cpu time    0.0093: real time    0.0093
    CHARGE:  cpu time    0.9062: real time    0.9079
    MIXING:  cpu time    0.2229: real time    0.2231
    --------------------------------------------
      LOOP:  cpu time   11.9542: real time   11.9669

 eigenvalue-minimisations  :   272
 total energy-change (2. order) :-0.9324103E-02  (-0.1685032E-04)
 number of electron     143.0000161 magnetization       1.8177722
 augmentation part       91.8582113 magnetization       0.1108779

 Broyden mixing:
  rms(total) = 0.16664E-02    rms(broyden)= 0.16663E-02
  rms(prec ) = 0.18112E-02
  weight for this iteration     100.00

 eigenvalues of (default mixing * dielectric matrix)
  average eigenvalue GAMMA=   1.7330
 12.9533  5.4572  2.6569  2.6569  1.8916  1.7067  1.7067  1.0806  1.0806  0.9339
  0.9339  0.8613  0.8613  0.6485  0.6485  0.5883  0.5883  0.4469  0.4469  0.4742
  0.4419  0.4123  0.3816

 Free energy of the ion-electron system (eV)
  ---------------------------------------------------
  alpha Z        PSCENC =         9.53985614
  Ewald energy   TEWEN  =     25535.32164834
  -Hartree energ DENC   =    -41948.46848072
  -exchange      EXHF   =         0.00000000
  -V(xc)+E(xc)   XCENC  =       574.73272358
  PAW double counting   =     16697.94693737   -18091.90021567
  entropy T*S    EENTRO =        -0.02498699
  eigenvalues    EBANDS =      -891.87694102
  atomic energy  EATOM  =     18082.44932260
  Solvation  Ediel_sol  =         0.00000000
  ---------------------------------------------------
  free energy    TOTEN  =       -32.28013638 eV

  energy without entropy =      -32.25514939  energy(sigma->0) =      -32.27180738


--------------------------------------------------------------------------------------------------------




--------------------------------------- Iteration      1(  29)  ---------------------------------------


    POTLOK:  cpu time    2.5215: real time    2.5247
    SETDIJ:  cpu time    0.0247: real time    0.0247
     EDDAV:  cpu time    8.3440: real time    8.3555
       DOS:  cpu time    0.0090: real time    0.0090
    CHARGE:  cpu time    0.8999: real time    0.9009
    MIXING:  cpu time    0.2351: real time    0.2354
    --------------------------------------------
      LOOP:  cpu time   12.0343: real time   12.0502

 eigenvalue-minimisations  :   276
 total energy-change (2. order) :-0.5321723E-02  (-0.1058980E-04)
 number of electron     143.0000161 magnetization       1.7925555
 augmentation part       91.8586437 magnetization       0.0874057

 Broyden mixing:
  rms(total) = 0.13384E-02    rms(broyden)= 0.13382E-02
  rms(prec ) = 0.14283E-02
  weight for this iteration     100.00

 eigenvalues of (default mixing * dielectric matrix)
  average eigenvalue GAMMA=   1.7521
 13.0850  6.0575  3.0734  2.4435  2.4435  1.7134  1.7134  1.0813  1.0813  1.0341
  1.0341  0.8471  0.8471  0.6851  0.6851  0.6025  0.6025  0.4470  0.4470  0.4798
  0.4119  0.4406  0.4406  0.3543

 Free energy of the ion-electron system (eV)
  ---------------------------------------------------
  alpha Z        PSCENC =         9.53985614
  Ewald energy   TEWEN  =     25535.32164834
  -Hartree energ DENC   =    -41948.06748946
  -exchange      EXHF   =         0.00000000
  -V(xc)+E(xc)   XCENC  =       574.72449368
  PAW double counting   =     16697.94971697   -18091.91137217
  entropy T*S    EENTRO =        -0.02501906
  eigenvalues    EBANDS =      -892.26661514
  atomic energy  EATOM  =     18082.44932260
  Solvation  Ediel_sol  =         0.00000000
  ---------------------------------------------------
  free energy    TOTEN  =       -32.28545810 eV

  energy without entropy =      -32.26043904  energy(sigma->0) =      -32.27711841


--------------------------------------------------------------------------------------------------------




--------------------------------------- Iteration      1(  30)  ---------------------------------------


    POTLOK:  cpu time    2.5334: real time    2.5379
    SETDIJ:  cpu time    0.0254: real time    0.0254
     EDDAV:  cpu time    8.0571: real time    8.0652
       DOS:  cpu time    0.0090: real time    0.0090
    CHARGE:  cpu time    0.8946: real time    0.8956
    MIXING:  cpu time    0.2585: real time    0.2587
    --------------------------------------------
      LOOP:  cpu time   11.7779: real time   11.7918

 eigenvalue-minimisations  :   264
 total energy-change (2. order) :-0.3717442E-02  (-0.7638923E-05)
 number of electron     143.0000161 magnetization       1.7779502
 augmentation part       91.8593579 magnetization       0.0752742

 Broyden mixing:
  rms(total) = 0.87749E-03    rms(broyden)= 0.87734E-03
  rms(prec ) = 0.92838E-03
  weight for this iteration     100.00

 eigenvalues of (default mixing * dielectric matrix)
  average eigenvalue GAMMA=   1.7652
 13.1743  6.5896  3.6268  2.5018  2.5018  1.6683  1.4918  1.4918  1.0814  1.0814
  0.8505  0.8505  0.8653  0.8653  0.6594  0.6594  0.6224  0.5938  0.4470  0.4470
  0.4756  0.4433  0.4130  0.4063  0.3229

 Free energy of the ion-electron system (eV)
  ---------------------------------------------------
  alpha Z        PSCENC =         9.53985614
  Ewald energy   TEWEN  =     25535.32164834
  -Hartree energ DENC   =    -41947.76337316
  -exchange      EXHF   =         0.00000000
  -V(xc)+E(xc)   XCENC  =       574.71797729
  PAW double counting   =     16698.11661063   -18092.08335768
  entropy T*S    EENTRO =        -0.02509556
  eigenvalues    EBANDS =      -892.56276413
  atomic energy  EATOM  =     18082.44932260
  Solvation  Ediel_sol  =         0.00000000
  ---------------------------------------------------
  free energy    TOTEN  =       -32.28917554 eV

  energy without entropy =      -32.26407998  energy(sigma->0) =      -32.28081035


--------------------------------------------------------------------------------------------------------




--------------------------------------- Iteration      1(  31)  ---------------------------------------


    POTLOK:  cpu time    2.5308: real time    2.5344
[...]
      1     -10.8460      1.00000
      2      -8.9032      1.00000
      3      -8.6922      1.00000
      4      -8.3896      1.00000
      5      -8.1654      1.00000
      6      -8.1405      1.00000
      7      -7.7116      1.00000
      8      -7.7081      1.00000
      9      -7.6763      1.00000
     10      -7.2801      1.00000
     11      -7.1913      1.00000
     12      -7.1331      1.00000
     13      -7.0612      1.00000
     14      -7.0282      1.00000
     15      -6.9906      1.00000
     16      -6.9595      1.00000
     17      -6.8979      1.00000
     18      -6.8886      1.00000
     19      -6.8656      1.00000
     20      -6.7620      1.00000
     21      -6.7119      1.00000
     22      -6.6621      1.00000
     23      -6.6161      1.00000
     24      -6.5410      1.00000
     25      -6.5194      1.00000
     26      -6.4436      1.00000
     27      -6.3265      1.00000
     28      -6.2892      1.00000
     29      -6.2665      1.00000
     30      -6.2393      1.00000
     31      -6.2070      1.00000
     32      -6.0869      1.00000
     33      -6.0472      1.00000
     34      -6.0392      1.00000
     35      -5.9762      1.00000
     36      -5.9486      1.00000
     37      -5.8637      1.00000
     38      -5.8559      1.00000
     39      -5.8404      1.00000
     40      -5.7487      1.00000
     41      -5.7339      1.00000
     42      -5.7243      1.00000
     43      -5.6796      1.00000
     44      -5.6778      1.00000
     45      -5.6433      1.00000
     46      -5.6367      1.00000
     47      -5.6203      1.00000
     48      -5.6044      1.00000
     49      -5.5645      1.00000
     50      -5.5496      1.00000
     51      -5.5073      1.00000
     52      -5.5009      1.00000
     53      -5.4637      1.00000
     54      -5.4567      1.00000
     55      -5.4505      1.00000
     56      -5.4126      1.00000
     57      -5.3913      1.00000
     58      -5.3899      1.00000
     59      -5.3700      1.00000
     60      -5.3280      1.00000
     61      -5.3067      1.00000
     62      -5.2986      1.00000
     63      -5.2981      1.00000
     64      -5.2861      1.00000
     65      -5.2512      1.00000
     66      -5.1708      1.00000
     67      -5.1699      1.00000
     68      -5.1407      1.00000
     69      -5.1185      1.00000
     70      -4.6549      1.00000
     71      -4.0985      1.02949
     72      -3.8299      0.59642
     73      -3.7359      0.21919
     74      -3.5460     -0.03457
     75      -2.9343     -0.00000
     76      -2.5314     -0.00000
     77      -2.0306     -0.00000
     78      -1.6689     -0.00000
     79      -1.5500     -0.00000
     80      -1.5052     -0.00000
     81      -1.4413     -0.00000
     82      -1.1925     -0.00000
     83      -0.9628     -0.00000
     84      -0.8879     -0.00000
     85      -0.7432     -0.00000
     86      -0.3016     -0.00000
     87      -0.1290     -0.00000
     88       0.0230     -0.00000
     89       0.1433     -0.00000
     90       0.2267     -0.00000
     91       0.2778     -0.00000
     92       0.2999     -0.00000

 spin component 2

 k-point     1 :       0.0000    0.0000    0.0000
  band No.  band energies     occupation 
      1     -10.8256      1.00000
      2      -8.8830      1.00000
      3      -8.6669      1.00000
      4      -8.3590      1.00000
      5      -8.1526      1.00000
      6      -8.1183      1.00000
      7      -7.6926      1.00000
      8      -7.6849      1.00000
      9      -7.6507      1.00000
     10      -7.2603      1.00000
     11      -7.1725      1.00000
     12      -7.1110      1.00000
     13      -7.0434      1.00000
     14      -7.0140      1.00000
     15      -6.9746      1.00000
     16      -6.9407      1.00000
     17      -6.8792      1.00000
     18      -6.8764      1.00000
     19      -6.8466      1.00000
     20      -6.7502      1.00000
     21      -6.6975      1.00000
     22      -6.6453      1.00000
     23      -6.6024      1.00000
     24      -6.5274      1.00000
     25      -6.5061      1.00000
     26      -6.4311      1.00000
     27      -6.3129      1.00000
     28      -6.2756      1.00000
     29      -6.2536      1.00000
     30      -6.2273      1.00000
     31      -6.1917      1.00000
     32      -6.0715      1.00000
     33      -6.0329      1.00000
     34      -6.0273      1.00000
     35      -5.9577      1.00000
     36      -5.9356      1.00000
     37      -5.8517      1.00000
     38      -5.8407      1.00000
     39      -5.8296      1.00000
     40      -5.7393      1.00000
     41      -5.7200      1.00000
     42      -5.7094      1.00000
     43      -5.6659      1.00000
     44      -5.6625      1.00000
     45      -5.6328      1.00000
     46      -5.6270      1.00000
     47      -5.6106      1.00000
     48      -5.5927      1.00000
     49      -5.5506      1.00000
     50      -5.5393      1.00000
     51      -5.4911      1.00000
     52      -5.4853      1.00000
     53      -5.4472      1.00000
     54      -5.4392      1.00000
     55      -5.4375      1.00000
     56      -5.3933      1.00000
     57      -5.3795      1.00000
     58      -5.3787      1.00000
     59      -5.3569      1.00000
     60      -5.3138      1.00000
     61      -5.2912      1.00000
     62      -5.2866      1.00000
     63      -5.2776      1.00000
     64      -5.2741      1.00000
     65      -5.2398      1.00000
     66      -5.1576      1.00000
     67      -5.1508      1.00000
     68      -5.1291      1.00000
     69      -5.0782      1.00000
     70      -4.6272      1.00000
     71      -4.0616      1.03512
     72      -3.7219      0.17340
     73      -3.6442      0.00643
     74      -3.4974     -0.02547
     75      -2.8630     -0.00000
     76      -2.5021     -0.00000
     77      -1.9921     -0.00000
     78      -1.5931     -0.00000
     79      -1.4961     -0.00000
     80      -1.4369     -0.00000
     81      -1.3542     -0.00000
     82      -1.1071     -0.00000
     83      -0.8691     -0.00000
     84      -0.7976     -0.00000
     85      -0.6815     -0.00000
     86      -0.1980     -0.00000
     87      -0.0520     -0.00000
     88       0.1654     -0.00000
     89       0.2905     -0.00000
     90       0.3809     -0.00000
     91       0.4257     -0.00000
     92       0.4340     -0.00000


--------------------------------------------------------------------------------------------------------


 soft charge-density along one line, spin component            1
         0         1         2         3         4         5         6         7         8         9
 total charge-density along one line
 
 soft charge-density along one line, spin component            2
         0         1         2         3         4         5         6         7         8         9
 total charge-density along one line
 
 pseudopotential strength for first ion, spin component:            1
-11.380   0.011   0.003  -0.000   0.004   1.687  -0.008  -0.003
  0.011 -11.318   0.004  -0.026   0.003  -0.008   1.641  -0.003
  0.003   0.004 -11.300   0.004   0.001  -0.003  -0.003   1.627
 -0.000  -0.026   0.004 -11.324   0.006  -0.000   0.019  -0.003
  0.004   0.003   0.001   0.006 -11.398  -0.003  -0.002  -0.001
  1.687  -0.008  -0.003  -0.000  -0.003   5.805   0.005   0.005
 -0.008   1.641  -0.003   0.019  -0.002   0.005   5.841   0.002
 -0.003  -0.003   1.627  -0.003  -0.001   0.005   0.002   5.850
 -0.000   0.019  -0.003   1.645  -0.005  -0.001  -0.017   0.002
 -0.003  -0.002  -0.001  -0.005   1.700   0.002   0.002   0.001
  0.002  -0.001  -0.009  -0.003   0.000  -0.007  -0.001   0.006
  0.004  -0.001  -0.016  -0.005   0.000  -0.013  -0.002   0.010
 -0.003   0.001   0.002  -0.000   0.003   0.006  -0.002  -0.003
 -0.000  -0.003   0.002  -0.004  -0.000  -0.000   0.005  -0.004
 -0.003  -0.000   0.002   0.001  -0.004   0.006  -0.000  -0.004
 -0.005   0.002   0.003  -0.000   0.005   0.010  -0.003  -0.005
 -0.000  -0.005   0.003  -0.005  -0.000  -0.000   0.008  -0.006
 -0.004  -0.000   0.003   0.002  -0.005   0.009  -0.000  -0.006
 pseudopotential strength for first ion, spin component:            2
-11.355   0.003   0.007  -0.008   0.001   1.667  -0.002  -0.006
  0.003 -11.288  -0.001  -0.014   0.001  -0.002   1.617   0.001
  0.007  -0.001 -11.279  -0.000   0.000  -0.006   0.001   1.609
 -0.008  -0.014  -0.000 -11.295   0.007   0.006   0.011   0.000
  0.001   0.001   0.000   0.007 -11.366  -0.000  -0.001  -0.000
  1.667  -0.002  -0.006   0.006  -0.000   5.821   0.001   0.006
 -0.002   1.617   0.001   0.011  -0.001   0.001   5.859  -0.001
 -0.006   0.001   1.609   0.000  -0.000   0.006  -0.001   5.864
  0.006   0.011   0.000   1.622  -0.005  -0.005  -0.011  -0.001
 -0.000  -0.001  -0.000  -0.005   1.675   0.001   0.002   0.001
  0.001   0.001  -0.008  -0.001   0.000  -0.006  -0.002   0.005
  0.002   0.002  -0.015  -0.002   0.000  -0.012  -0.004   0.010
 -0.003   0.001   0.002  -0.000   0.003   0.006  -0.002  -0.003
 -0.000  -0.003   0.002  -0.003   0.000  -0.000   0.005  -0.004
 -0.003  -0.000   0.002   0.001  -0.003   0.006  -0.000  -0.004
 -0.004   0.002   0.002  -0.000   0.004   0.009  -0.004  -0.005
 -0.000  -0.004   0.003  -0.004   0.000  -0.000   0.007  -0.006
 -0.004  -0.000   0.003   0.002  -0.004   0.009  -0.000  -0.006
 total augmentation occupancy for first ion, spin component:            1
  1.920   0.004  -0.008  -0.002   0.004  -0.019  -0.003   0.011   0.001  -0.002   0.012   0.012  -0.003   0.004   0.000   0.002
  0.004   1.937   0.005  -0.024   0.004  -0.003  -0.019  -0.003   0.002   0.003  -0.000   0.003   0.001  -0.009  -0.003  -0.001
 -0.008   0.005   1.934  -0.002  -0.001   0.011  -0.003  -0.016  -0.000   0.002   0.025  -0.010  -0.002   0.010  -0.002  -0.001
 -0.002  -0.024  -0.002   1.930  -0.001   0.001   0.002  -0.000  -0.018  -0.004   0.008   0.003  -0.004  -0.008  -0.001  -0.000
  0.004   0.004  -0.001  -0.001   1.895  -0.002   0.003   0.002  -0.004  -0.007   0.003   0.002   0.012   0.001  -0.011  -0.002
 -0.019  -0.003   0.011   0.001  -0.002   0.021  -0.001   0.003  -0.001   0.000  -0.050   0.004   0.017  -0.001   0.018  -0.001
 -0.003  -0.019  -0.003   0.002   0.003  -0.001   0.027   0.000  -0.007   0.001  -0.014   0.001  -0.002   0.005   0.001  -0.000
  0.011  -0.003  -0.016  -0.000   0.002   0.003   0.000   0.025  -0.001   0.001   0.008  -0.001  -0.009  -0.008  -0.011   0.001
  0.001   0.002  -0.000  -0.018  -0.004  -0.001  -0.007  -0.001   0.024  -0.002  -0.022   0.001   0.001   0.003  -0.002   0.000
 -0.002   0.003   0.002  -0.004  -0.007   0.000   0.001   0.001  -0.002   0.019  -0.011   0.001  -0.004  -0.001   0.009   0.001
  0.012  -0.000   0.025   0.008   0.003  -0.050  -0.014   0.008  -0.022  -0.011   1.862  -0.199   0.033  -0.003   0.038  -0.007
  0.012   0.003  -0.010   0.003   0.002   0.004   0.001  -0.001   0.001   0.001  -0.199   0.024  -0.012   0.002  -0.014   0.001
 -0.003   0.001  -0.002  -0.004   0.012   0.017  -0.002  -0.009   0.001  -0.004   0.033  -0.012   0.261  -0.011  -0.038  -0.018
  0.004  -0.009   0.010  -0.008   0.001  -0.001   0.005  -0.008   0.003  -0.001  -0.003   0.002  -0.011   0.280  -0.015   0.001
  0.000  -0.003  -0.002  -0.001  -0.011   0.018   0.001  -0.011  -0.002   0.009   0.038  -0.014  -0.038  -0.015   0.245   0.003
  0.002  -0.001  -0.001  -0.000  -0.002  -0.001  -0.000   0.001   0.000   0.001  -0.007   0.001  -0.018   0.001   0.003   0.001
 -0.000   0.003  -0.000   0.003   0.000   0.000  -0.001   0.000  -0.001   0.000   0.001  -0.000   0.001  -0.020   0.001  -0.000
  0.001  -0.000  -0.001  -0.000   0.002  -0.001   0.000   0.001   0.000  -0.001  -0.008   0.002   0.003   0.001  -0.017  -0.000
 total augmentation occupancy for first ion, spin component:            2
  0.003  -0.004   0.002  -0.004  -0.001  -0.002   0.002  -0.001   0.002   0.001  -0.003  -0.000   0.000  -0.002  -0.000   0.000
 -0.004   0.005  -0.003   0.005  -0.001   0.002  -0.003   0.001  -0.002   0.000   0.003   0.000   0.000   0.002   0.000   0.000
  0.002  -0.003   0.001  -0.002  -0.000  -0.001   0.001  -0.001   0.001   0.000  -0.000  -0.000  -0.000  -0.001  -0.000   0.000
 -0.004   0.005  -0.002   0.004   0.000   0.002  -0.002   0.001  -0.003  -0.000   0.003   0.000   0.000   0.002   0.001  -0.000
 -0.001  -0.001  -0.000   0.000   0.006   0.001   0.000   0.000  -0.000  -0.004   0.000   0.000  -0.001  -0.000   0.001  -0.000
 -0.002   0.002  -0.001   0.002   0.001   0.000  -0.001   0.000  -0.001  -0.000   0.001   0.000  -0.000   0.001   0.000  -0.000
  0.002  -0.003   0.001  -0.002   0.000  -0.001   0.001  -0.000   0.001  -0.000  -0.001  -0.000  -0.000  -0.001  -0.000   0.000
 -0.001   0.001  -0.001   0.001   0.000   0.000  -0.000   0.000  -0.000  -0.000   0.000   0.000   0.000   0.000   0.000  -0.000
  0.002  -0.002   0.001  -0.003  -0.000  -0.001   0.001  -0.000   0.001   0.000  -0.001  -0.000  -0.000  -0.001  -0.000   0.000
  0.001   0.000   0.000  -0.000  -0.004  -0.000  -0.000  -0.000   0.000   0.001  -0.000  -0.000   0.001   0.000  -0.001   0.000
 -0.003   0.003  -0.000   0.003   0.000   0.001  -0.001   0.000  -0.001  -0.000  -0.004   0.001   0.000   0.001   0.001   0.000
 -0.000   0.000  -0.000   0.000   0.000   0.000  -0.000   0.000  -0.000  -0.000   0.001  -0.000   0.000   0.000   0.000  -0.000
  0.000   0.000  -0.000   0.000  -0.001  -0.000  -0.000   0.000  -0.000   0.001   0.000   0.000  -0.001   0.000  -0.000   0.000
 -0.002   0.002  -0.001   0.002  -0.000   0.001  -0.001   0.000  -0.001   0.000   0.001   0.000   0.000   0.000   0.000  -0.000
 -0.000   0.000  -0.000   0.001   0.001   0.000  -0.000   0.000  -0.000  -0.001   0.001   0.000  -0.000   0.000  -0.001  -0.000
  0.000   0.000   0.000  -0.000  -0.000  -0.000   0.000  -0.000   0.000   0.000   0.000  -0.000   0.000  -0.000  -0.000  -0.000
 -0.000   0.000  -0.000   0.000   0.000   0.000  -0.000   0.000  -0.000   0.000  -0.000   0.000  -0.000   0.000  -0.000  -0.000
 -0.000  -0.000   0.000   0.000   0.000   0.000   0.000  -0.000   0.000  -0.000   0.000  -0.000  -0.000  -0.000   0.000   0.000


------------------------ aborting loop because EDIFF is reached ----------------------------------------


    CHARGE:  cpu time    0.9050: real time    0.9066
    FORLOC:  cpu time    0.0898: real time    0.0898
    FORNL :  cpu time    5.2485: real time    5.2525
    FORCOR:  cpu time    2.5023: real time    2.5076
    FORHAR:  cpu time    0.3342: real time    0.3353
    MIXING:  cpu time    0.0610: real time    0.0611
    OFIELD:  cpu time    0.0000: real time    0.0000

 VOLUME and BASIS-vectors are now :
 -----------------------------------------------------------------------------
  energy-cutoff  :      400.00
  volume of cell :    12955.59
      direct lattice vectors                 reciprocal lattice vectors
    22.450603711  0.000000000  0.000000000     0.044542232  0.000000000  0.000000000
     0.000000000 22.417159797  0.000000000     0.000000000  0.044608684  0.000000000
     0.000000000  0.000000000 25.742367771     0.000000000  0.000000000  0.038846465

  length of vectors
    22.450603711 22.417159797 25.742367771     0.044542232  0.044608684  0.038846465


 FORCES acting on ions
    electron-ion (+dipol)            ewald-force                    non-local-force                 convergence-correction
 -----------------------------------------------------------------------------------------------
   0.442E+03 0.356E+03 0.166E+03   -.443E+03 -.357E+03 -.165E+03   0.130E+01 0.121E+01 -.834E+00   0.627E-01 0.518E-01 0.606E-01
   -.126E+04 0.516E+03 0.526E+03   0.125E+04 -.514E+03 -.524E+03   0.762E+01 -.236E+01 -.154E+01   0.234E-01 0.506E-02 -.456E-01
   -.111E+04 -.939E+03 -.492E+01   0.111E+04 0.934E+03 0.346E+01   0.634E+01 0.514E+01 0.136E+01   -.298E-01 -.130E-01 0.612E-01
   0.350E+03 -.139E+04 0.286E+03   -.349E+03 0.138E+04 -.286E+03   -.124E+01 0.804E+01 -.170E+00   0.214E-02 0.283E-01 -.233E-01
   -.108E+04 0.367E+03 -.710E+03   0.107E+04 -.367E+03 0.709E+03   0.346E+01 0.685E+00 0.125E+01   -.427E-01 0.433E-01 -.555E-02
   0.886E+02 -.101E+04 -.881E+03   -.901E+02 0.100E+04 0.879E+03   0.145E+01 0.311E+01 0.151E+01   0.148E-01 -.405E-01 -.266E-01
   0.106E+04 -.135E+03 0.949E+03   -.105E+04 0.138E+03 -.944E+03   -.753E+01 -.295E+01 -.462E+01   0.286E-01 -.612E-01 0.809E-01
   -.461E+03 -.550E+03 0.128E+04   0.458E+03 0.546E+03 -.127E+04   0.298E+01 0.312E+01 -.543E+01   -.214E-01 -.430E-02 -.574E-01
   0.138E+04 -.268E+03 -.343E+03   -.137E+04 0.267E+03 0.343E+03   -.106E+02 0.974E+00 0.631E-01   0.334E-02 0.105E-01 -.794E-01
   0.752E+03 0.749E+03 -.902E+03   -.748E+03 -.745E+03 0.899E+03   -.415E+01 -.382E+01 0.310E+01   0.720E-01 0.606E-01 -.197E-01
   0.164E+03 0.920E+03 0.108E+04   -.160E+03 -.914E+03 -.108E+04   -.478E+01 -.628E+01 -.508E+01   -.238E-01 0.105E-01 0.130E+00
   -.257E+03 -.589E+02 -.132E+04   0.255E+03 0.585E+02 0.131E+04   0.205E+01 0.331E+00 0.115E+02   -.485E-01 -.333E-01 -.469E-01
   -.672E+02 0.144E+04 -.128E+03   0.680E+02 -.143E+04 0.129E+03   -.795E+00 -.105E+02 -.153E+01   -.193E-01 0.135E-01 -.802E-01
 -----------------------------------------------------------------------------------------------
   0.386E+01 0.324E+01 0.491E+00   0.000E+00 0.682E-12 0.171E-12   -.387E+01 -.333E+01 -.422E+00   0.216E-01 0.713E-01 -.522E-01
 
 
 POSITION                                       TOTAL-FORCE (eV/Angst)
 -----------------------------------------------------------------------------------
     10.89819     11.28474     11.63765        -0.020031     -0.023772      0.016860
     13.14624     10.64694     10.95471        -0.013120     -0.014871     -0.003285
     12.83485     12.89190     11.90187         0.047654      0.044723     -0.039156
     10.58080     13.68065     11.33095        -0.012524     -0.000656      0.013593
     12.79389     10.93898     13.44808        -0.023820      0.013809      0.057968
     11.10759     12.92629     13.68992         0.011098     -0.038050      0.044839
      9.44433     12.12763      9.88946         0.015092     -0.002213     -0.016384
     11.85903     12.35082      9.66002        -0.006469     -0.010520     -0.011001
      9.01625     12.30827     12.63805        -0.017387     -0.011659      0.051906
     10.41647     10.58782     13.92947         0.036883      0.040908      0.003184
     11.25766      9.99115      9.61893        -0.006108      0.045044     -0.036851
     11.88054     11.63925     15.55152        -0.002997     -0.013599     -0.110289
     11.69906      9.14455     12.25265        -0.008273     -0.029144      0.028617
 -----------------------------------------------------------------------------------
    total drift:                                0.017613     -0.017744      0.016630


--------------------------------------------------------------------------------------------------------



  FREE ENERGIE OF THE ION-ELECTRON SYSTEM (eV)
  ---------------------------------------------------
  free  energy   TOTEN  =       -32.46743989 eV

  energy  without entropy=      -32.45704380  energy(sigma->0) =      -32.46397452
 
 d Force = 0.1297902E-02[ 0.779E-04, 0.252E-02]  d Energy = 0.5413971E-03 0.757E-03
 d Force = 0.2363569E+02[ 0.236E+02, 0.236E+02]  d Ewald  = 0.2363559E+02 0.985E-04


--------------------------------------------------------------------------------------------------------


    POTLOK:  cpu time    2.5690: real time    2.5765


--------------------------------------------------------------------------------------------------------




--------------------------------------------------------------------------------------------------------


    WAVPRE:  cpu time    0.1740: real time    0.1812
    FEWALD:  cpu time    0.0019: real time    0.0019
    ORTHCH:  cpu time    0.9100: real time    0.9123
     LOOP+:  cpu time   95.8919: real time   96.0182


--------------------------------------- Iteration     14(   1)  --------------------------