<?xml version="1.0" encoding="ISO-8859-1"?>
<modeling>
 <generator>
  <i name="program" type="string">vasp </i>
  <i name="version" type="string">6.1.2  </i>
  <i name="subversion" type="string">22Jul20 (build Aug  2 2021 21:04:21) gamma-only                       parallel </i>
  <i name="platform" type="string">LinuxPGI </i>
  <i name="date" type="string">2021 12 20 </i>
  <i name="time" type="string">16:55:28 </i>
 </generator>
 <incar>
  <i type="int" name="ISPIN">     2</i>
  <i type="int" name="IBRION">     2</i>
  <i type="int" name="NSW">  1000</i>
  <i type="int" name="ISIF">     0</i>
  <i type="int" name="ISYM">     0</i>
  <i name="ENCUT">    400.00000000</i>
  <i type="logical" name="LREAL"> F  </i>
  <i type="int" name="ISMEAR">     1</i>
  <i name="SIGMA">      0.20000000</i>
  <i type="logical" name="LWAVE"> F  </i>
  <i type="logical" name="LCHARG"> F  </i>
  <i type="int" name="KPAR">     1</i>
  <i type="int" name="NCORE">     8</i>
  <i type="string" name="GGA"> PE</i>
  <i type="int" name="ISPIN">     2</i>
 </incar>
 <structure name="primitive_cell" >
  <crystal>
   <varray name="basis" >
    <v>      22.45060371       0.00000000       0.00000000 </v>
    <v>       0.00000000      22.41715980       0.00000000 </v>
    <v>       0.00000000       0.00000000      25.74236777 </v>
   </varray>
   <i name="volume">  12955.58721235 </i>
   <varray name="rec_basis" >
    <v>       0.04454223       0.00000000       0.00000000 </v>
    <v>       0.00000000       0.04460868       0.00000000 </v>
    <v>       0.00000000       0.00000000       0.03884647 </v>
   </varray>
  </crystal>
  <varray name="positions" >
   <v>       0.49186209       0.50812589       0.45635232 </v>
   <v>       0.58943352       0.47495491       0.42429429 </v>
   <v>       0.57503321       0.57883266       0.46174685 </v>
   <v>       0.47134953       0.61416108       0.43939285 </v>
   <v>       0.57072781       0.48893867       0.52036754 </v>
   <v>       0.49497508       0.57764948       0.53017713 </v>
   <v>       0.42106817       0.53283197       0.39016252 </v>
   <v>       0.52976178       0.55237580       0.37567753 </v>
   <v>       0.39938892       0.54770891       0.48664714 </v>
   <v>       0.46055990       0.47037999       0.53936673 </v>
   <v>       0.49489836       0.44575561       0.38098055 </v>
   <v>       0.52642863       0.51594349       0.60236653 </v>
   <v>       0.51932217       0.40679541       0.47206762 </v>
  </varray>
 </structure>
 <varray name="primitive_index" >
  <v type="int" >        1 </v>
  <v type="int" >        2 </v>
  <v type="int" >        3 </v>
  <v type="int" >        4 </v>
  <v type="int" >        5 </v>
  <v type="int" >        6 </v>
  <v type="int" >        7 </v>
  <v type="int" >        8 </v>
  <v type="int" >        9 </v>
  <v type="int" >       10 </v>
  <v type="int" >       11 </v>
  <v type="int" >       12 </v>
  <v type="int" >       13 </v>
 </varray>
 <kpoints>
  <generation param="Gamma">
   <v type="int" name="divisions">       1        1        1 </v>
   <v name="usershift">      0.00000000       0.00000000       0.00000000 </v>
   <v name="genvec1">      1.00000000       0.00000000       0.00000000 </v>
   <v name="genvec2">      0.00000000       1.00000000       0.00000000 </v>
   <v name="genvec3">      0.00000000       0.00000000       1.00000000 </v>
   <v name="shift">      0.00000000       0.00000000       0.00000000 </v>
  </generation>
  <varray name="kpointlist" >
   <v>       0.00000000       0.00000000       0.00000000 </v>
  </varray>
  <varray name="weights" >
   <v>       1.00000000 </v>
  </varray>
 </kpoints>
 <parameters>
  <separator name="general" >
   <i type="string" name="SYSTEM">unknown system</i>
   <i type="logical" name="LCOMPAT"> F  </i>
  </separator>
  <separator name="electronic" >
   <i type="string" name="PREC">normal</i>
   <i name="ENMAX">    400.00000000</i>
   <i name="ENAUG">    586.98000000</i>
   <i name="EDIFF">      0.00010000</i>
   <i type="int" name="IALGO">    38</i>
   <i type="int" name="IWAVPR">    11</i>
   <i type="int" name="NBANDS">    92</i>
   <i type="int" name="NBANDSLOW">    -1</i>
   <i type="int" name="NBANDSHIGH">    -1</i>
   <i name="NELECT">    143.00000000</i>
   <i type="int" name="TURBO">     0</i>
   <i type="int" name="IRESTART">     0</i>
   <i type="int" name="NREBOOT">     0</i>
   <i type="int" name="NMIN">     0</i>
   <i name="EREF">      0.00000000</i>
   <separator name="electronic smearing" >
    <i type="int" name="ISMEAR">     1</i>
    <i name="SIGMA">      0.20000000</i>
    <i name="KSPACING">      0.50000000</i>
    <i type="logical" name="KGAMMA"> T  </i>
    <i type="logical" name="KBLOWUP"> T  </i>
   </separator>
   <separator name="electronic projectors" >
    <i type="logical" name="LREAL"> F  </i>
    <v name="ROPT">      0.00000000</v>
    <i type="int" name="LMAXPAW">  -100</i>
    <i type="int" name="LMAXMIX">     2</i>
    <i type="logical" name="NLSPLINE"> F  </i>
   </separator>
   <separator name="electronic startup" >
    <i type="int" name="ISTART">     0</i>
    <i type="int" name="ICHARG">     2</i>
    <i type="int" name="INIWAV">     1</i>
   </separator>
   <separator name="electronic spin" >
    <i type="int" name="ISPIN">     2</i>
    <i type="logical" name="LNONCOLLINEAR"> F  </i>
    <v name="MAGMOM">      1.00000000      1.00000000      1.00000000      1.00000000      1.00000000      1.00000000      1.00000000      1.00000000      1.00000000      1.00000000      1.00000000      1.00000000      1.00000000</v>
    <i name="NUPDOWN">     -1.00000000</i>
    <i type="logical" name="LSORBIT"> F  </i>
    <v name="SAXIS">      0.00000000      0.00000000      1.00000000</v>
    <i type="logical" name="LSPIRAL"> F  </i>
    <v name="QSPIRAL">      0.00000000      0.00000000      0.00000000</v>
    <i type="logical" name="LZEROZ"> F  </i>
   </separator>
   <separator name="electronic exchange-correlation" >
    <i type="logical" name="LASPH"> F  </i>
    <i type="logical" name="LMETAGGA"> F  </i>
   </separator>
   <separator name="electronic convergence" >
    <i type="int" name="NELM">    60</i>
    <i type="int" name="NELMDL">     0</i>
    <i type="int" name="NELMIN">     2</i>
    <i name="ENINI">    400.00000000</i>
    <separator name="electronic convergence detail" >
     <i type="logical" name="LDIAG"> T  </i>
     <i type="logical" name="LSUBROT"> F  </i>
     <i name="WEIMIN">      0.00100000</i>
     <i name="EBREAK">      0.00000027</i>
     <i name="DEPER">      0.30000000</i>
     <i type="int" name="NRMM">     4</i>
     <i name="TIME">      0.40000000</i>
    </separator>
   </separator>
   <separator name="electronic mixer" >
    <i name="AMIX">      0.40000000</i>
    <i name="BMIX">      1.00000000</i>
    <i name="AMIN">      0.10000000</i>
    <i name="AMIX_MAG">      1.60000000</i>
    <i name="BMIX_MAG">      1.00000000</i>
    <separator name="electronic mixer details" >
     <i type="int" name="IMIX">     4</i>
     <i type="logical" name="MIXFIRST"> F  </i>
     <i type="int" name="MAXMIX">   -45</i>
     <i name="WC">    100.00000000</i>
     <i type="int" name="INIMIX">     1</i>
     <i type="int" name="MIXPRE">     1</i>
     <i type="int" name="MREMOVE">     5</i>
    </separator>
   </separator>
   <separator name="electronic dipolcorrection" >
    <i type="logical" name="LDIPOL"> F  </i>
    <i type="logical" name="LMONO"> F  </i>
    <i type="int" name="IDIPOL">     0</i>
    <i name="EPSILON">      1.00000000</i>
    <v name="DIPOL">   -100.00000000   -100.00000000   -100.00000000</v>
    <i name="EFIELD">      0.00000000</i>
   </separator>
  </separator>
  <separator name="grids" >
   <i type="int" name="NGX">   112</i>
   <i type="int" name="NGY">   112</i>
   <i type="int" name="NGZ">   126</i>
   <i type="int" name="NGXF">   224</i>
   <i type="int" name="NGYF">   224</i>
   <i type="int" name="NGZF">   252</i>
   <i type="logical" name="ADDGRID"> F  </i>
  </separator>
  <separator name="ionic" >
   <i type="int" name="NSW">  1000</i>
   <i type="int" name="IBRION">     2</i>
   <i type="int" name="MDALGO">     0</i>
   <i type="int" name="ISIF">     0</i>
   <i name="PSTRESS">      0.00000000</i>
   <i name="EDIFFG">      0.00100000</i>
   <i type="int" name="NFREE">     1</i>
   <i name="POTIM">      0.50000000</i>
   <i name="SMASS">     -3.00000000</i>
   <i name="SCALEE">      1.00000000</i>
  </separator>
  <separator name="ionic md" >
   <i name="TEBEG">      0.00010000</i>
   <i name="TEEND">      0.00010000</i>
   <i type="int" name="NBLOCK">     1</i>
   <i type="int" name="KBLOCK">  1000</i>
   <i type="int" name="NPACO">   256</i>
   <i name="APACO">     16.00000000</i>
  </separator>
  <separator name="symmetry" >
   <i type="int" name="ISYM">     0</i>
   <i name="SYMPREC">      0.00001000</i>
  </separator>
  <separator name="dos" >
   <i type="int" name="LORBIT">     0</i>
   <v name="RWIGS">     -1.00000000</v>
   <i type="int" name="NEDOS">   301</i>
   <i name="EMIN">     10.00000000</i>
   <i name="EMAX">    -10.00000000</i>
   <i name="EFERMI">      0.00000000</i>
  </separator>
  <separator name="writing" >
   <i type="int" name="NWRITE">     2</i>
   <i type="logical" name="LWAVE"> F  </i>
   <i type="logical" name="LDOWNSAMPLE"> F  </i>
   <i type="logical" name="LCHARG"> F  </i>
   <i type="logical" name="LPARD"> F  </i>
   <i type="logical" name="LVTOT"> F  </i>
   <i type="logical" name="LVHAR"> F  </i>
   <i type="logical" name="LELF"> F  </i>
   <i type="logical" name="LOPTICS"> F  </i>
   <v name="STM">      0.00000000      0.00000000      0.00000000      0.00000000      0.00000000      0.00000000      0.00000000</v>
  </separator>
  <separator name="performance" >
   <i type="int" name="NPAR">     2</i>
   <i type="int" name="NSIM">     4</i>
   <i type="int" name="NBLK">    -1</i>
   <i type="logical" name="LPLANE"> T  </i>
   <i type="logical" name="LSCALAPACK"> T  </i>
   <i type="logical" name="LSCAAWARE"> F  </i>
   <i type="logical" name="LSCALU"> F  </i>
   <i type="logical" name="LASYNC"> F  </i>
   <i type="logical" name="LORBITALREAL"> F  </i>
  </separator>
  <separator name="miscellaneous" >
   <i type="int" name="IDIOT">     3</i>
   <i type="int" name="PHON_NSTRUCT">    -1</i>
   <i type="logical" name="LMUSIC"> F  </i>
   <v name="POMASS">     63.54600000</v>
   <v name="DARWINR">      0.00000000</v>
   <v name="DARWINV">      1.00000000</v>
   <i type="logical" name="LCORR"> T  </i>
  </separator>
  <i type="logical" name="GGA_COMPAT"> T  </i>
  <i type="logical" name="LBERRY"> F  </i>
  <i type="int" name="ICORELEVEL">     0</i>
  <i type="logical" name="LDAU"> F  </i>
  <i type="int" name="I_CONSTRAINED_M">     0</i>
  <separator name="electronic exchange-correlation" >
   <i type="string" name="GGA">PE</i>
   <i type="int" name="VOSKOWN">     0</i>
   <i type="logical" name="LHFCALC"> F  </i>
   <i type="string" name="PRECFOCK"></i>
   <i type="logical" name="LSYMGRAD"> F  </i>
   <i type="logical" name="LHFONE"> F  </i>
   <i type="logical" name="LRHFCALC"> F  </i>
   <i type="logical" name="LTHOMAS"> F  </i>
   <i type="logical" name="LMODELHF"> F  </i>
   <i type="logical" name="LFOCKACE"> F  </i>
   <i name="ENCUT4O">     -1.00000000</i>
   <i type="int" name="EXXOEP">     0</i>
   <i type="int" name="FOURORBIT">     0</i>
   <i name="AEXX">      0.00000000</i>
   <i name="HFALPHA">      0.00000000</i>
   <i name="MCALPHA">      0.00000000</i>
   <i name="ALDAX">      1.00000000</i>
   <i name="AGGAX">      1.00000000</i>
   <i name="ALDAC">      1.00000000</i>
   <i name="AGGAC">      1.00000000</i>
   <i type="int" name="NKREDX">     1</i>
   <i type="int" name="NKREDY">     1</i>
   <i type="int" name="NKREDZ">     1</i>
   <i type="logical" name="SHIFTRED"> F  </i>
   <i type="logical" name="ODDONLY"> F  </i>
   <i type="logical" name="EVENONLY"> F  </i>
   <i type="int" name="LMAXFOCK">     0</i>
   <i type="int" name="NMAXFOCKAE">     0</i>
   <i type="logical" name="LFOCKAEDFT"> F  </i>
   <i name="HFSCREEN">      0.00000000</i>
   <i name="HFSCREENC">      0.00000000</i>
   <i type="int" name="NBANDSGWLOW">     0</i>
  </separator>
  <separator name="vdW DFT" >
   <i type="logical" name="LUSE_VDW"> F  </i>
   <i name="Zab_VDW">     -0.84910000</i>
   <i name="PARAM1">      0.12340000</i>
   <i name="PARAM2">      1.00000000</i>
   <i name="PARAM3">      0.00000000</i>
  </separator>
  <separator name="model GW" >
   <i type="int" name="MODEL_GW">     0</i>
   <i name="MODEL_EPS0">    597.95017903</i>
   <i name="MODEL_ALPHA">      1.00000000</i>
  </separator>
  <separator name="linear response parameters" >
   <i type="logical" name="LEPSILON"> F  </i>
   <i type="logical" name="LRPA"> F  </i>
   <i type="logical" name="LNABLA"> F  </i>
   <i type="logical" name="LVEL"> F  </i>
   <i type="int" name="KINTER">     0</i>
   <i name="CSHIFT">      0.10000000</i>
   <i name="OMEGAMAX">     -1.00000000</i>
   <i name="DEG_THRESHOLD">      0.00200000</i>
   <i name="RTIME">     -0.10000000</i>
   <i name="WPLASMAI">      0.00000000</i>
   <v name="DFIELD">      0.00000000      0.00000000      0.00000000</v>
   <v name="WPLASMA">      0.00000000      0.00000000      0.00000000      0.00000000      0.00000000      0.00000000      0.00000000      0.00000000      0.00000000</v>
  </separator>
  <separator name="orbital magnetization" >
   <i type="logical" name="NUCIND"> F  </i>
   <v name="MAGPOS">      0.00000000      0.00000000      0.00000000</v>
   <i type="logical" name="LNICSALL"> T  </i>
   <i type="logical" name="ORBITALMAG"> F  </i>
   <i type="logical" name="LMAGBLOCH"> F  </i>
   <i type="logical" name="LCHIMAG"> F  </i>
   <i type="logical" name="LGAUGE"> T  </i>
   <i type="int" name="MAGATOM">     0</i>
   <v name="MAGDIPOL">      0.00000000      0.00000000      0.00000000</v>
   <v name="AVECCONST">      0.00000000      0.00000000      0.00000000</v>
  </separator>
  <separator name="response functions" >
   <i type="logical" name="LFINITE_TEMPERATURE"> F  </i>
   <i type="logical" name="LADDER"> F  </i>
   <i type="logical" name="LRPAFORCE"> F  </i>
   <i type="logical" name="LFXC"> F  </i>
   <i type="logical" name="LHARTREE"> T  </i>
   <i type="int" name="IBSE">     0</i>
   <v type="int" name="KPOINT">    -1     0     0     0</v>
   <i type="logical" name="LTCTC"> F  </i>
   <i type="logical" name="LTCTE"> F  </i>
   <i type="logical" name="LTETE"> F  </i>
   <i type="logical" name="LTRIPLET"> F  </i>
   <i type="logical" name="LFXCEPS"> F  </i>
   <i type="logical" name="LFXHEG"> F  </i>
   <i type="int" name="NATURALO">     2</i>
   <i type="logical" name="LHOLEGF"> F  </i>
   <i type="logical" name="L2ORDER"> F  </i>
   <i type="logical" name="LDMP1"> F  </i>
   <i type="logical" name="LMP2LT"> F  </i>
   <i type="logical" name="LSMP2LT"> F  </i>
   <i type="logical" name="LGWLF"> F  </i>
   <i name="ENCUTGW">     -2.00000000</i>
   <i name="ENCUTGWSOFT">     -2.00000000</i>
   <i name="ENCUTLF">     -1.00000000</i>
   <i type="logical" name="LESF_SPLINES"> F  </i>
   <i type="int" name="LMAXMP2">    -1</i>
   <i name="SCISSOR">      0.00000000</i>
   <i type="int" name="NOMEGA">     0</i>
   <i type="int" name="NOMEGAR">     0</i>
   <i type="int" name="NBANDSGW">    -1</i>
   <i type="int" name="NBANDSO">    -1</i>
   <i type="int" name="NBANDSV">    -1</i>
   <i type="int" name="NELM">     1</i>
   <i type="int" name="NELMHF">     1</i>
   <i type="int" name="DIM">     3</i>
   <i type="int" name="IESPILON">     4</i>
   <i type="int" name="ANTIRES">     0</i>
   <i name="OMEGAMAX">    -30.00000000</i>
   <i name="OMEGAMIN">    -30.00000000</i>
   <i name="OMEGATL">   -200.00000000</i>
   <i type="int" name="OMEGAGRID">     0</i>
   <i name="CSHIFT">     -0.10000000</i>
   <i type="logical" name="LSELFENERGY"> F  </i>
   <i type="logical" name="LSPECTRAL"> F  </i>
   <i type="logical" name="LSPECTRALGW"> F  </i>
   <i type="logical" name="LSINGLES"> F  </i>
   <i type="logical" name="LFERMIGW"> F  </i>
   <i type="logical" name="ODDONLYGW"> F  </i>
   <i type="logical" name="EVENONLYGW"> F  </i>
   <i type="int" name="NKREDLFX">     1</i>
   <i type="int" name="NKREDLFY">     1</i>
   <i type="int" name="NKREDLFZ">     1</i>
   <i type="int" name="MAXMEM">  2800</i>
   <i type="int" name="TELESCOPE">     0</i>
   <i type="int" name="NTAUPAR">    -1</i>
   <i type="int" name="NOMEGAPAR">    -1</i>
   <i name="LAMBDA">      1.00000000</i>
  </separator>
  <separator name="External order field" >
   <i name="OFIELD_KAPPA">      0.00000000</i>
   <v name="OFIELD_K">      0.00000000      0.00000000      0.00000000</v>
   <i name="OFIELD_Q6_NEAR">      0.00000000</i>
   <i name="OFIELD_Q6_FAR">      0.00000000</i>
   <i name="OFIELD_A">      0.00000000</i>
  </separator>
 </parameters>
 <atominfo>
  <atoms>      13 </atoms>
  <types>       1 </types>
  <array name="atoms" >
   <dimension dim="1">ion</dimension>
   <field type="string">element</field>
   <field type="int">atomtype</field>
   <set>
    <rc><c>Cu</c><c>   1</c></rc>
    <rc><c>Cu</c><c>   1</c></rc>
    <rc><c>Cu</c><c>   1</c></rc>
    <rc><c>Cu</c><c>   1</c></rc>
    <rc><c>Cu</c><c>   1</c></rc>
    <rc><c>Cu</c><c>   1</c></rc>
    <rc><c>Cu</c><c>   1</c></rc>
    <rc><c>Cu</c><c>   1</c></rc>
    <rc><c>Cu</c><c>   1</c></rc>
    <rc><c>Cu</c><c>   1</c></rc>
    <rc><c>Cu</c><c>   1</c></rc>
    <rc><c>Cu</c><c>   1</c></rc>
    <rc><c>Cu</c><c>   1</c></rc>
   </set>
  </array>
  <array name="atomtypes" >
   <dimension dim="1">type</dimension>
   <field type="int">atomspertype</field>
   <field type="string">element</field>
   <field>mass</field>
   <field>valence</field>
   <field type="string">pseudopotential</field>
   <set>
    <rc><c>  13</c><c>Cu</c><c>     63.54600000</c><c>     11.00000000</c><c>  PAW_PBE Cu 22Jun2005                  </c></rc>
   </set>
  </array>
 </atominfo>
 <structure name="initialpos" >
  <crystal>
   <varray name="basis" >
    <v>      22.45060371       0.00000000       0.00000000 </v>
    <v>       0.00000000      22.41715980       0.00000000 </v>
    <v>       0.00000000       0.00000000      25.74236777 </v>
   </varray>
   <i name="volume">  12955.58721235 </i>
   <varray name="rec_basis" >
    <v>       0.04454223       0.00000000       0.00000000 </v>
    <v>       0.00000000       0.04460868       0.00000000 </v>
    <v>       0.00000000       0.00000000       0.03884647 </v>
   </varray>
  </crystal>
  <varray name="positions" >
   <v>       0.49186209       0.50812589       0.45635232 </v>
   <v>       0.58943352       0.47495491       0.42429429 </v>
   <v>       0.57503321       0.57883266       0.46174685 </v>
   <v>       0.47134953       0.61416108       0.43939285 </v>
   <v>       0.57072781       0.48893867       0.52036754 </v>
   <v>       0.49497508       0.57764948       0.53017713 </v>
   <v>       0.42106817       0.53283197       0.39016252 </v>
   <v>       0.52976178       0.55237580       0.37567753 </v>
   <v>       0.39938892       0.54770891       0.48664714 </v>
   <v>       0.46055990       0.47037999       0.53936673 </v>
   <v>       0.49489836       0.44575561       0.38098055 </v>
   <v>       0.52642863       0.51594349       0.60236653 </v>
   <v>       0.51932217       0.40679541       0.47206762 </v>
  </varray>
 </structure>
 <calculation>
  <scstep>
   <time name="dav">   10.13   10.14</time>
   <time name="total">   12.69   12.71</time>
   <energy>
    <i name="alphaZ">      9.53985614 </i>
    <i name="ewald">  25535.32164834 </i>
    <i name="hartreedc"> -41994.37854997 </i>
    <i name="XCdc">    584.84304021 </i>
    <i name="pawpsdc">  15965.26744864 </i>
    <i name="pawaedc"> -17340.97210982 </i>
    <i name="eentropy">     -0.00058475 </i>
    <i name="bandstr">    133.23491248 </i>
    <i name="atom">  18082.44932260 </i>
    <i name="e_fr_energy">    975.30498386 </i>
    <i name="e_wo_entrp">    975.30556861 </i>
    <i name="e_0_energy">    975.30517878 </i>
   </energy>
  </scstep>
  <scstep>
   <time name="dav">   10.59   10.60</time>
   <time name="total">   10.59   10.60</time>
   <energy>
    <i name="e_fr_energy">    241.78483769 </i>
    <i name="e_wo_entrp">    241.74554700 </i>
    <i name="e_0_energy">    241.77174079 </i>
   </energy>
  </scstep>
  <scstep>
   <time name="dav">   12.04   12.06</time>
   <time name="total">   12.05   12.06</time>
   <energy>
    <i name="e_fr_energy">      7.11378728 </i>
    <i name="e_wo_entrp">      7.16082500 </i>
    <i name="e_0_energy">      7.12946652 </i>
   </energy>
  </scstep>
  <scstep>
   <time name="dav">   11.24   11.25</time>
   <time name="total">   11.24   11.25</time>
   <energy>
    <i name="e_fr_energy">    -35.19122144 </i>
    <i name="e_wo_entrp">    -35.21396294 </i>
    <i name="e_0_energy">    -35.19880194 </i>
   </energy>
  </scstep>
  <scstep>
   <time name="dav">   12.22   12.24</time>
   <time name="total">   13.18   13.20</time>
   <energy>
    <i name="e_fr_energy">    -36.89221149 </i>
    <i name="e_wo_entrp">    -36.91061927 </i>
    <i name="e_0_energy">    -36.89834742 </i>
   </energy>
  </scstep>
  <scstep>
   <time name="dav">   10.81   10.82</time>
   <time name="total">   14.34   14.36</time>
   <energy>
    <i name="e_fr_energy">    -19.52915648 </i>
    <i name="e_wo_entrp">    -19.48689550 </i>
    <i name="e_0_energy">    -19.51506949 </i>
   </energy>
  </scstep>
  <scstep>
   <time name="dav">   11.62   11.63</time>
   <time name="total">   15.16   15.18</time>
   <energy>
    <i name="e_fr_energy">    -13.22304431 </i>
    <i name="e_wo_entrp">    -13.19185105 </i>
    <i name="e_0_energy">    -13.21264655 </i>
   </energy>
  </scstep>
  <scstep>
   <time name="dav">   12.29   12.30</time>
   <time name="total">   15.82   15.84</time>
   <energy>
    <i name="e_fr_energy">    -12.73463189 </i>
    <i name="e_wo_entrp">    -12.72395275 </i>
    <i name="e_0_energy">    -12.73107217 </i>
   </energy>
  </scstep>
  <scstep>
   <time name="dav">   13.51   13.52</time>
   <time name="total">   17.02   17.04</time>
   <energy>
    <i name="e_fr_energy">    -14.00917802 </i>
    <i name="e_wo_entrp">    -13.98004398 </i>
    <i name="e_0_energy">    -13.99946668 </i>
   </energy>
  </scstep>
  <scstep>
   <time name="dav">   13.49   13.50</time>
   <time name="total">   17.00   17.02</time>
   <energy>
    <i name="e_fr_energy">    -16.24800750 </i>
    <i name="e_wo_entrp">    -16.21242085 </i>
    <i name="e_0_energy">    -16.23614529 </i>
   </energy>
  </scstep>
  <scstep>
   <time name="dav">   12.45   12.47</time>
   <time name="total">   15.99   16.01</time>
   <energy>
    <i name="e_fr_energy">    -18.65715160 </i>
    <i name="e_wo_entrp">    -18.63719857 </i>
    <i name="e_0_energy">    -18.65050059 </i>
   </energy>
  </scstep>
  <scstep>
   <time name="dav">   12.77   12.78</time>
   <time name="total">   16.31   16.33</time>
   <energy>
    <i name="e_fr_energy">    -20.17111726 </i>
    <i name="e_wo_entrp">    -20.16148908 </i>
    <i name="e_0_energy">    -20.16790787 </i>
   </energy>
  </scstep>
  <scstep>
   <time name="dav">   12.80   12.81</time>
   <time name="total">   16.36   16.38</time>
   <energy>
    <i name="e_fr_energy">    -24.48187166 </i>
    <i name="e_wo_entrp">    -24.47574160 </i>
    <i name="e_0_energy">    -24.47982831 </i>
   </energy>
  </scstep>
  <scstep>
   <time name="dav">   12.47   12.48</time>
   <time name="total">   16.01   16.03</time>
   <energy>
    <i name="e_fr_energy">    -26.56832198 </i>
    <i name="e_wo_entrp">    -26.56461468 </i>
    <i name="e_0_energy">    -26.56708621 </i>
   </energy>
  </scstep>
  <scstep>
   <time name="dav">   13.32   13.34</time>
   <time name="total">   16.84   16.87</time>
   <energy>
    <i name="e_fr_energy">    -27.80179541 </i>
    <i name="e_wo_entrp">    -27.79855327 </i>
    <i name="e_0_energy">    -27.80071470 </i>
   </energy>
  </scstep>
  <scstep>
   <time name="dav">   12.37   12.39</time>
   <time name="total">   15.94   15.96</time>
   <energy>
    <i name="e_fr_energy">    -29.91239361 </i>
    <i name="e_wo_entrp">    -29.88855228 </i>
    <i name="e_0_energy">    -29.90444650 </i>
   </energy>
  </scstep>
  <scstep>
   <time name="dav">   12.12   12.13</time>
   <time name="total">   15.65   15.67</time>
   <energy>
    <i name="e_fr_energy">    -30.65256734 </i>
    <i name="e_wo_entrp">    -30.62208872 </i>
    <i name="e_0_energy">    -30.64240780 </i>
   </energy>
  </scstep>
  <scstep>
   <time name="dav">   13.61   13.62</time>
   <time name="total">   17.18   17.20</time>
   <energy>
    <i name="e_fr_energy">    -30.81443301 </i>
    <i name="e_wo_entrp">    -30.78550524 </i>
    <i name="e_0_energy">    -30.80479042 </i>
   </energy>
  </scstep>
  <scstep>
   <time name="dav">   12.74   12.76</time>
   <time name="total">   16.28   16.30</time>
   <energy>
    <i name="e_fr_energy">    -31.10342909 </i>
    <i name="e_wo_entrp">    -31.08091349 </i>
    <i name="e_0_energy">    -31.09592389 </i>
   </energy>
  </scstep>
  <scstep>
   <time name="dav">   12.40   12.41</time>
   <time name="total">   15.99   16.01</time>
   <energy>
    <i name="e_fr_energy">    -31.51108367 </i>
    <i name="e_wo_entrp">    -31.49087568 </i>
    <i name="e_0_energy">    -31.50434767 </i>
   </energy>
  </scstep>
  <scstep>
   <time name="dav">   12.95   12.97</time>
   <time name="total">   16.58   16.60</time>
   <energy>
    <i name="e_fr_energy">    -31.77358022 </i>
    <i name="e_wo_entrp">    -31.75284565 </i>
    <i name="e_0_energy">    -31.76666870 </i>
   </energy>
  </scstep>
  <scstep>
   <time name="dav">   12.49   12.50</time>
   <time name="total">   16.12   16.14</time>
   <energy>
    <i name="e_fr_energy">    -31.91780541 </i>
    <i name="e_wo_entrp">    -31.89588728 </i>
    <i name="e_0_energy">    -31.91049936 </i>
   </energy>
  </scstep>
  <scstep>
   <time name="dav">   12.61   12.63</time>
   <time name="total">   16.27   16.29</time>
   <energy>
    <i name="e_fr_energy">    -32.07194680 </i>
    <i name="e_wo_entrp">    -32.04867816 </i>
    <i name="e_0_energy">    -32.06419058 </i>
   </energy>
  </scstep>
  <scstep>
   <time name="dav">   13.35   13.36</time>
   <time name="total">   16.96   16.99</time>
   <energy>
    <i name="e_fr_energy">    -32.18177499 </i>
    <i name="e_wo_entrp">    -32.15721915 </i>
    <i name="e_0_energy">    -32.17358971 </i>
   </energy>
  </scstep>
  <scstep>
   <time name="dav">    9.41    9.42</time>
   <time name="total">   13.01   13.03</time>
   <energy>
    <i name="e_fr_energy">    -32.22863087 </i>
    <i name="e_wo_entrp">    -32.20367995 </i>
    <i name="e_0_energy">    -32.22031390 </i>
   </energy>
  </scstep>
  <scstep>
   <time name="dav">    8.94    8.95</time>
   <time name="total">   12.57   12.59</time>
   <energy>
    <i name="e_fr_energy">    -32.25299103 </i>
    <i name="e_wo_entrp">    -32.22809011 </i>
    <i name="e_0_energy">    -32.24469072 </i>
   </energy>
  </scstep>
  <scstep>
   <time name="dav">    9.10    9.11</time>
   <time name="total">   12.76   12.78</time>
   <energy>
    <i name="e_fr_energy">    -32.27081227 </i>
    <i name="e_wo_entrp">    -32.24584689 </i>
    <i name="e_0_energy">    -32.26249048 </i>
   </energy>
  </scstep>
  <scstep>
   <time name="dav">    8.27    8.28</time>
   <time name="total">   11.95   11.97</time>
   <energy>
    <i name="e_fr_energy">    -32.28013638 </i>
    <i name="e_wo_entrp">    -32.25514939 </i>
    <i name="e_0_energy">    -32.27180738 </i>
   </energy>
  </scstep>
  <scstep>
   <time name="dav">    8.34    8.36</time>
   <time name="total">   12.03   12.05</time>
   <energy>
    <i name="e_fr_energy">    -32.28545810 </i>
    <i name="e_wo_entrp">    -32.26043904 </i>
    <i name="e_0_energy">    -32.27711841 </i>
   </energy>
  </scstep>
  <scstep>
   <time name="dav">    8.06    8.07</time>
   <time name="total">   11.78   11.79</time>
   <energy>
    <i name="e_fr_energy">    -32.28917554 </i>
    <i name="e_wo_entrp">    -32.26407998 </i>
    <i name="e_0_energy">    -32.28081035 </i>
   </energy>
  </scstep>
  <scstep>
   <time name="dav">    8.13    8.13</time>
   <time name="total">   11.80   11.82</time>
   <energy>
    <i name="e_fr_energy">    -32.29105171 </i>
    <i name="e_wo_entrp">    -32.26590738 </i>
    <i name="e_0_energy">    -32.28267027 </i>
   </energy>
  </scstep>
  <scstep>
   <time name="dav">    7.96    7.98</time>
   <time name="total">   11.64   11.66</time>
   <energy>
    <i name="e_fr_energy">    -32.29219766 </i>
    <i name="e_wo_entrp">    -32.26701046 </i>
    <i name="e_0_energy">    -32.28380193 </i>
   </energy>
  </scstep>
  <scstep>
   <time name="dav">    7.88    7.89</time>
   <time name="total">   11.57   11.59</time>
   <energy>
    <i name="e_fr_energy">    -32.29343957 </i>
    <i name="e_wo_entrp">    -32.26822673 </i>
    <i name="e_0_energy">    -32.28503529 </i>
   </energy>
  </scstep>
  <scstep>
   <time name="dav">    7.83    7.84</time>
   <time name="total">   11.63   11.65</time>
   <energy>
    <i name="e_fr_energy">    -32.29411612 </i>
    <i name="e_wo_entrp">    -32.26888653 </i>
    <i name="e_0_energy">    -32.28570626 </i>
   </energy>
  </scstep>
  <scstep>
   <time name="dav">    7.78    7.79</time>
   <time name="total">   11.57   11.58</time>
   <energy>
    <i name="e_fr_energy">    -32.29433596 </i>
    <i name="e_wo_entrp">    -32.26909555 </i>
    <i name="e_0_energy">    -32.28592249 </i>
   </energy>
  </scstep>
  <scstep>
   <time name="dav">    7.76    7.77</time>
   <time name="total">   11.57   11.58</time>
   <energy>
    <i name="e_fr_energy">    -32.29446102 </i>
    <i name="e_wo_entrp">    -32.26920863 </i>
    <i name="e_0_energy">    -32.28604356 </i>
   </energy>
  </scstep>
  <scstep>
   <time name="dav">    7.80    7.81</time>
   <time name="total">   11.59   11.61</time>
   <energy>
    <i name="e_fr_energy">    -32.29463810 </i>
    <i name="e_wo_entrp">    -32.26936872 </i>
    <i name="e_0_energy">    -32.28621497 </i>
   </energy>
  </scstep>
  <scstep>
   <time name="dav">    7.47    7.48</time>
   <time name="total">   10.03   10.05</time>
   <energy>
    <i name="alphaZ">      9.53985614 </i>
    <i name="ewald">  25535.32164834 </i>
    <i name="hartreedc"> -41947.60334049 </i>
    <i name="XCdc">    574.71218827 </i>
    <i name="pawpsdc">  16698.37849258 </i>
    <i name="pawaedc"> -18092.33276403 </i>
    <i name="eentropy">     -0.02527513 </i>
    <i name="bandstr">   -892.73485348 </i>
    <i name="atom">  18082.44932260 </i>
    <i name="e_fr_energy">    -32.29472520 </i>
    <i name="e_wo_entrp">    -32.26945007 </i>
    <i name="e_0_energy">    -32.28630016 </i>
   </energy>
  </scstep>
  <structure>
   <crystal>
    <varray name="basis" >
     <v>      22.45060371       0.00000000       0.00000000 </v>
     <v>       0.00000000      22.41715980       0.00000000 </v>
     <v>       0.00000000       0.00000000      25.74236777 </v>
    </varray>
    <i name="volume">  12955.58721235 </i>
    <varray name="rec_basis" >
     <v>       0.04454223       0.00000000       0.00000000 </v>
     <v>       0.00000000       0.04460868       0.00000000 </v>
     <v>       0.00000000       0.00000000       0.03884647 </v>
    </varray>
   </crystal>
   <varray name="positions" >
    <v>       0.49186209       0.50812589       0.45635232 </v>
    <v>       0.58943352       0.47495491       0.42429429 </v>
    <v>       0.57503321       0.57883266       0.46174685 </v>
    <v>       0.47134953       0.61416108       0.43939285 </v>
    <v>       0.57072781       0.48893867       0.52036754 </v>
    <v>       0.49497508       0.57764948       0.53017713 </v>
    <v>       0.42106817       0.53283197       0.39016252 </v>
    <v>       0.52976178       0.55237580       0.37567753 </v>
    <v>       0.39938892       0.54770891       0.48664714 </v>
    <v>       0.46055990       0.47037999       0.53936673 </v>
    <v>       0.49489836       0.44575561       0.38098055 </v>
    <v>       0.52642863       0.51594349       0.60236653 </v>
    <v>       0.51932217       0.40679541       0.47206762 </v>
   </varray>
  </structure>
  <varray name="forces" >
   <v>      -0.15597799      -0.06403978      -0.25942938 </v>
   <v>      -0.29886476       0.16987684       0.09109075 </v>
   <v>      -0.09906878      -0.09814895      -0.12183514 </v>
   <v>       0.11025129      -0.32516982       0.02496064 </v>
   <v>      -0.08014560      -0.14356061       0.18015668 </v>
   <v>      -0.12213917      -0.09591710       0.20709367 </v>
   <v>       0.11001624       0.20400903      -0.13714377 </v>
   <v>      -0.16185292      -0.17960375       0.07241199 </v>
   <v>       0.21093873       0.00304979       0.11498263 </v>
   <v>       0.24799885       0.17909494       0.04312129 </v>
   <v>       0.22042063       0.12653806      -0.14766398 </v>
   <v>      -0.00777333       0.04277950      -0.19247619 </v>
   <v>       0.02619681       0.18109185       0.12473080 </v>
  </varray>
  <energy>
   <i name="e_fr_energy">    -32.29472520 </i>
   <i name="e_wo_entrp">    -32.26945007 </i>
   <i name="e_0_energy">    -32.28630016 </i>
  </energy>
  <time name="totalsc">  546.07  546.79</time>
 </calculation>
 <calculation>
  <scstep>
   <time name="dav">   10.73   10.74</time>
   <time name="total">   14.28   14.30</time>
   <energy>
    <i name="alphaZ">      9.53985614 </i>
    <i name="ewald">  25641.02927282 </i>
    <i name="hartreedc"> -42052.46331746 </i>
    <i name="XCdc">    574.90677905 </i>
    <i name="pawpsdc">  16698.38377983 </i>
    <i name="pawaedc"> -18092.33875785 </i>
    <i name="eentropy">     -0.02096044 </i>
    <i name="bandstr">   -893.79898538 </i>
    <i name="atom">  18082.44932260 </i>
    <i name="e_fr_energy">    -32.31301071 </i>
    <i name="e_wo_entrp">    -32.29205027 </i>
    <i name="e_0_energy">    -32.30602389 </i>
   </energy>
  </scstep>
  <scstep>
   <time name="dav">   13.96   13.97</time>
   <time name="total">   17.49   17.51</time>
   <energy>
    <i name="e_fr_energy">    -32.33258760 </i>
    <i name="e_wo_entrp">    -32.31050869 </i>
    <i name="e_0_energy">    -32.32522796 </i>
   </energy>
  </scstep>
  <scstep>
   <time name="dav">   11.43   11.45</time>
   <time name="total">   14.96   14.98</time>
   <energy>
    <i name="e_fr_energy">    -32.33036785 </i>
    <i name="e_wo_entrp">    -32.30846442 </i>
    <i name="e_0_energy">    -32.32306671 </i>
   </energy>
  </scstep>
  <scstep>
   <time name="dav">   11.97   11.98</time>
   <time name="total">   15.50   15.52</time>
   <energy>
    <i name="e_fr_energy">    -32.32909498 </i>
    <i name="e_wo_entrp">    -32.30714898 </i>
    <i name="e_0_energy">    -32.32177965 </i>
   </energy>
  </scstep>
  <scstep>
   <time name="dav">   11.16   11.17</time>
   <time name="total">   14.69   14.71</time>
   <energy>
    <i name="e_fr_energy">    -32.32625754 </i>
    <i name="e_wo_entrp">    -32.30437302 </i>
    <i name="e_0_energy">    -32.31896270 </i>
   </energy>
  </scstep>
  <scstep>
   <time name="dav">   11.26   11.27</time>
   <time name="total">   14.79   14.81</time>
   <energy>
    <i name="e_fr_energy">    -32.32236808 </i>
    <i name="e_wo_entrp">    -32.30020261 </i>
    <i name="e_0_energy">    -32.31497959 </i>
   </energy>
  </scstep>
  <scstep>
   <time name="dav">    8.38    8.39</time>
   <time name="total">   11.91   11.92</time>
   <energy>
    <i name="e_fr_energy">    -32.32142524 </i>
    <i name="e_wo_entrp">    -32.29919406 </i>
    <i name="e_0_energy">    -32.31401485 </i>
   </energy>
  </scstep>
  <scstep>
   <time name="dav">    7.95    7.95</time>
   <time name="total">   11.47   11.48</time>
   <energy>
    <i name="e_fr_energy">    -32.32174548 </i>
    <i name="e_wo_entrp">    -32.29936811 </i>
    <i name="e_0_energy">    -32.31428636 </i>
   </energy>
  </scstep>
  <scstep>
   <time name="dav">    7.96    7.96</time>
   <time name="total">   11.49   11.50</time>
   <energy>
    <i name="e_fr_energy">    -32.32239183 </i>
    <i name="e_wo_entrp">    -32.29983219 </i>
    <i name="e_0_energy">    -32.31487195 </i>
   </energy>
  </scstep>
  <scstep>
   <time name="dav">    8.13    8.14</time>
   <time name="total">   11.69   11.70</time>
   <energy>
    <i name="e_fr_energy">    -32.32385445 </i>
    <i name="e_wo_entrp">    -32.30089817 </i>
    <i name="e_0_energy">    -32.31620236 </i>
   </energy>
  </scstep>
  <scstep>
   <time name="dav">    8.42    8.43</time>
   <time name="total">   11.97   11.98</time>
   <energy>
    <i name="e_fr_energy">    -32.32552456 </i>
    <i name="e_wo_entrp">    -32.30195267 </i>
    <i name="e_0_energy">    -32.31766726 </i>
   </energy>
  </scstep>
  <scstep>
   <time name="dav">    8.59    8.60</time>
   <time name="total">   12.15   12.16</time>
   <energy>
    <i name="e_fr_energy">    -32.32589167 </i>
    <i name="e_wo_entrp">    -32.30223357 </i>
    <i name="e_0_energy">    -32.31800564 </i>
   </energy>
  </scstep>
  <scstep>
   <time name="dav">    8.11    8.11</time>
   <time name="total">   11.65   11.67</time>
   <energy>
    <i name="e_fr_energy">    -32.32712019 </i>
    <i name="e_wo_entrp">    -32.30323542 </i>
    <i name="e_0_energy">    -32.31915860 </i>
   </energy>
  </scstep>
  <scstep>
   <time name="dav">    8.32    8.33</time>
   <time name="total">   11.91   11.92</time>
   <energy>
    <i name="e_fr_energy">    -32.32888220 </i>
    <i name="e_wo_entrp">    -32.30460749 </i>
    <i name="e_0_energy">    -32.32079063 </i>
   </energy>
  </scstep>
  <scstep>
   <time name="dav">    8.12    8.13</time>
   <time name="total">   11.74   11.75</time>
   <energy>
    <i name="e_fr_energy">    -32.33019074 </i>
    <i name="e_wo_entrp">    -32.30563610 </i>
    <i name="e_0_energy">    -32.32200586 </i>
   </energy>
  </scstep>
  <scstep>
   <time name="dav">    8.36    8.37</time>
   <time name="total">   11.97   11.99</time>
   <energy>
    <i name="e_fr_energy">    -32.33127059 </i>
    <i name="e_wo_entrp">    -32.30653971 </i>
    <i name="e_0_energy">    -32.32302696 </i>
   </energy>
  </scstep>
  <scstep>
   <time name="dav">    7.68    7.69</time>
   <time name="total">   11.29   11.30</time>
   <energy>
    <i name="e_fr_energy">    -32.33204751 </i>
    <i name="e_wo_entrp">    -32.30724776 </i>
    <i name="e_0_energy">    -32.32378093 </i>
   </energy>
  </scstep>
  <scstep>
   <time name="dav">    7.79    7.79</time>
   <time name="total">   11.40   11.42</time>
   <energy>
    <i name="e_fr_energy">    -32.33268775 </i>
    <i name="e_wo_entrp">    -32.30783190 </i>
    <i name="e_0_energy">    -32.32440246 </i>
   </energy>
  </scstep>
  <scstep>
   <time name="dav">    8.14    8.15</time>
   <time name="total">   11.78   11.79</time>
   <energy>
    <i name="e_fr_energy">    -32.33317802 </i>
    <i name="e_wo_entrp">    -32.30828677 </i>
    <i name="e_0_energy">    -32.32488094 </i>
   </energy>
  </scstep>
  <scstep>
   <time name="dav">    7.90    7.91</time>
   <time name="total">   11.54   11.56</time>
   <energy>
    <i name="e_fr_energy">    -32.33371565 </i>
    <i name="e_wo_entrp">    -32.30877441 </i>
    <i name="e_0_energy">    -32.32540190 </i>
   </energy>
  </scstep>
  <scstep>
   <time name="dav">    8.10    8.11</time>
   <time name="total">   11.76   11.77</time>
   <energy>
    <i name="e_fr_energy">    -32.33412971 </i>
    <i name="e_wo_entrp">    -32.30915077 </i>
    <i name="e_0_energy">    -32.32580340 </i>
   </energy>
  </scstep>
  <scstep>
   <time name="dav">    7.91    7.92</time>
   <time name="total">   11.59   11.60</time>
   <energy>
    <i name="e_fr_energy">    -32.33437620 </i>
    <i name="e_wo_entrp">    -32.30937067 </i>
    <i name="e_0_energy">    -32.32604102 </i>
   </energy>
  </scstep>
  <scstep>
   <time name="dav">    7.67    7.68</time>
   <time name="total">   11.36   11.37</time>
   <energy>
    <i name="e_fr_energy">    -32.33448694 </i>
    <i name="e_wo_entrp">    -32.30947033 </i>
    <i name="e_0_energy">    -32.32614807 </i>
   </energy>
  </scstep>
  <scstep>
   <time name="dav">    7.69    7.70</time>
   <time name="total">   10.27   10.28</time>
   <energy>
    <i name="alphaZ">      9.53985614 </i>
    <i name="ewald">  25641.02927282 </i>
    <i name="hartreedc"> -42051.49719981 </i>
    <i name="XCdc">    574.82536793 </i>
    <i name="pawpsdc">  16722.12362891 </i>
    <i name="pawaedc"> -18116.52078462 </i>
    <i name="eentropy">     -0.02501917 </i>
    <i name="bandstr">   -894.25899728 </i>
    <i name="atom">  18082.44932260 </i>
    <i name="e_fr_energy">    -32.33455248 </i>
    <i name="e_wo_entrp">    -32.30953331 </i>
    <i name="e_0_energy">    -32.32621276 </i>
   </energy>
  </scstep>
  <structure>
   <crystal>
    <varray name="basis" >
     <v>      22.45060371       0.00000000       0.00000000 </v>
     <v>       0.00000000      22.41715980       0.00000000 </v>
     <v>       0.00000000       0.00000000      25.74236777 </v>
    </varray>
    <i name="volume">  12955.58721235 </i>
    <varray name="rec_basis" >
     <v>       0.04454223       0.00000000       0.00000000 </v>
     <v>       0.00000000       0.04460868       0.00000000 </v>
     <v>       0.00000000       0.00000000       0.03884647 </v>
    </varray>
   </crystal>
   <varray name="positions" >
    <v>       0.49152692       0.50798808       0.45586614 </v>
    <v>       0.58879131       0.47532049       0.42446500 </v>
    <v>       0.57482032       0.57862144       0.46151852 </v>
    <v>       0.47158644       0.61346130       0.43943962 </v>
    <v>       0.57055559       0.48862973       0.52070516 </v>
    <v>       0.49471262       0.57744306       0.53056524 </v>
    <v>       0.42130458       0.53327101       0.38990551 </v>
    <v>       0.52941399       0.55198928       0.37581324 </v>
    <v>       0.39984219       0.54771547       0.48686263 </v>
    <v>       0.46109281       0.47076541       0.53944755 </v>
    <v>       0.49537201       0.44602792       0.38070382 </v>
    <v>       0.52641193       0.51603555       0.60200582 </v>
    <v>       0.51937846       0.40718513       0.47230138 </v>
   </varray>
  </structure>
  <varray name="forces" >
   <v>      -0.12928243      -0.07771479      -0.09256356 </v>
   <v>      -0.19530903       0.11890474       0.06539104 </v>
   <v>      -0.07558647      -0.08377563      -0.05883145 </v>
   <v>       0.07265312      -0.22155402       0.02214764 </v>
   <v>      -0.05420556      -0.13091368       0.10960554 </v>
   <v>      -0.10745166      -0.06013569       0.14030518 </v>
   <v>       0.03049574       0.19927620      -0.17986677 </v>
   <v>      -0.11273249      -0.11754134      -0.02385346 </v>
   <v>       0.15823240       0.01065548       0.13149896 </v>
   <v>       0.18121540       0.13352417       0.01376503 </v>
   <v>       0.18096260       0.04986822      -0.19099651 </v>
   <v>       0.02285253       0.04797064      -0.06001271 </v>
   <v>       0.02815583       0.13143570       0.12341107 </v>
  </varray>
  <energy>
   <i name="e_fr_energy">    -32.33455248 </i>
   <i name="e_wo_entrp">    -32.30953331 </i>
   <i name="e_0_energy">    -32.32621276 </i>
  </energy>
  <time name="totalsc">  313.56  313.95</time>
 </calculation>
 <calculation>
  <scstep>
   <time name="dav">   10.62   10.64</time>
   <time name="total">   14.16   14.18</time>
   <energy>
    <i name="alphaZ">      9.53985614 </i>
    <i name="ewald">  25895.75098024 </i>
    <i name="hartreedc"> -42304.02529130 </i>
    <i name="XCdc">    575.32211487 </i>
    <i name="pawpsdc">  16722.12160075 </i>
    <i name="pawaedc"> -18116.51701174 </i>
    <i name="eentropy">     -0.01053298 </i>
    <i name="bandstr">   -896.86786983 </i>
    <i name="atom">  18082.44932260 </i>
    <i name="e_fr_energy">    -32.23683125 </i>
    <i name="e_wo_entrp">    -32.22629827 </i>
    <i name="e_0_energy">    -32.23332026 </i>
   </energy>
  </scstep>
  <scstep>
   <time name="dav">   13.87   13.89</time>
   <time name="total">   17.39   17.41</time>
   <energy>
    <i name="e_fr_energy">    -32.36953810 </i>
    <i name="e_wo_entrp">    -32.35606454 </i>
    <i name="e_0_energy">    -32.36504691 </i>
   </energy>
  </scstep>
  <scstep>
   <time name="dav">   11.27   11.28</time>
   <time name="total">   14.79   14.80</time>
   <energy>
    <i name="e_fr_energy">    -32.35744511 </i>
    <i name="e_wo_entrp">    -32.34466849 </i>
    <i name="e_0_energy">    -32.35318623 </i>
   </energy>
  </scstep>
  <scstep>
   <time name="dav">   11.66   11.68</time>
   <time name="total">   15.18   15.20</time>
   <energy>
    <i name="e_fr_energy">    -32.35398481 </i>
    <i name="e_wo_entrp">    -32.34113456 </i>
    <i name="e_0_energy">    -32.34970139 </i>
   </energy>
  </scstep>
  <scstep>
   <time name="dav">   11.04   11.05</time>
   <time name="total">   14.55   14.57</time>
   <energy>
    <i name="e_fr_energy">    -32.34700315 </i>
    <i name="e_wo_entrp">    -32.33457019 </i>
    <i name="e_0_energy">    -32.34285883 </i>
   </energy>
  </scstep>
  <scstep>
   <time name="dav">   15.16   15.18</time>
   <time name="total">   18.69   18.71</time>
   <energy>
    <i name="e_fr_energy">    -32.33624873 </i>
    <i name="e_wo_entrp">    -32.32367961 </i>
    <i name="e_0_energy">    -32.33205903 </i>
   </energy>
  </scstep>
  <scstep>
   <time name="dav">   11.44   11.46</time>
   <time name="total">   14.97   14.99</time>
   <energy>
    <i name="e_fr_energy">    -32.33381038 </i>
    <i name="e_wo_entrp">    -32.32111572 </i>
    <i name="e_0_energy">    -32.32957883 </i>
   </energy>
  </scstep>
  <scstep>
   <time name="dav">   11.24   11.26</time>
   <time name="total">   14.78   14.81</time>
   <energy>
    <i name="e_fr_energy">    -32.33516031 </i>
    <i name="e_wo_entrp">    -32.32217456 </i>
    <i name="e_0_energy">    -32.33083173 </i>
   </energy>
  </scstep>
  <scstep>
   <time name="dav">    9.34    9.35</time>
   <time name="total">   12.90   12.91</time>
   <energy>
    <i name="e_fr_energy">    -32.33719757 </i>
    <i name="e_wo_entrp">    -32.32386209 </i>
    <i name="e_0_energy">    -32.33275241 </i>
   </energy>
  </scstep>
  <scstep>
   <time name="dav">    8.05    8.05</time>
   <time name="total">   11.60   11.61</time>
   <energy>
    <i name="e_fr_energy">    -32.34038596 </i>
    <i name="e_wo_entrp">    -32.32655436 </i>
    <i name="e_0_energy">    -32.33577543 </i>
   </energy>
  </scstep>
  <scstep>
   <time name="dav">   11.50   11.51</time>
   <time name="total">   15.04   15.06</time>
   <energy>
    <i name="e_fr_energy">    -32.34484749 </i>
    <i name="e_wo_entrp">    -32.33023700 </i>
    <i name="e_0_energy">    -32.33997733 </i>
   </energy>
  </scstep>
  <scstep>
   <time name="dav">    8.10    8.10</time>
   <time name="total">   11.68   11.69</time>
   <energy>
    <i name="e_fr_energy">    -32.34689014 </i>
    <i name="e_wo_entrp">    -32.33197352 </i>
    <i name="e_0_energy">    -32.34191794 </i>
   </energy>
  </scstep>
  <scstep>
   <time name="dav">    9.12    9.13</time>
   <time name="total">   12.71   12.72</time>
   <energy>
    <i name="e_fr_energy">    -32.35211543 </i>
    <i name="e_wo_entrp">    -32.33658502 </i>
    <i name="e_0_energy">    -32.34693863 </i>
   </energy>
  </scstep>
  <scstep>
   <time name="dav">    8.26    8.27</time>
   <time name="total">   11.86   11.87</time>
   <energy>
    <i name="e_fr_energy">    -32.35648718 </i>
    <i name="e_wo_entrp">    -32.34016468 </i>
    <i name="e_0_energy">    -32.35104634 </i>
   </energy>
  </scstep>
  <scstep>
   <time name="dav">    8.88    8.89</time>
   <time name="total">   12.49   12.51</time>
   <energy>
    <i name="e_fr_energy">    -32.36019000 </i>
    <i name="e_wo_entrp">    -32.34299846 </i>
    <i name="e_0_energy">    -32.35445949 </i>
   </energy>
  </scstep>
  <scstep>
   <time name="dav">    8.27    8.28</time>
   <time name="total">   11.89   11.90</time>
   <energy>
    <i name="e_fr_energy">    -32.36266461 </i>
    <i name="e_wo_entrp">    -32.34496860 </i>
    <i name="e_0_energy">    -32.35676594 </i>
   </energy>
  </scstep>
  <scstep>
   <time name="dav">    8.26    8.27</time>
   <time name="total">   11.89   11.91</time>
   <energy>
    <i name="e_fr_energy">    -32.36405260 </i>
    <i name="e_wo_entrp">    -32.34613860 </i>
    <i name="e_0_energy">    -32.35808127 </i>
   </energy>
  </scstep>
  <scstep>
   <time name="dav">    7.76    7.77</time>
   <time name="total">   11.40   11.42</time>
   <energy>
    <i name="e_fr_energy">    -32.36515365 </i>
    <i name="e_wo_entrp">    -32.34707953 </i>
    <i name="e_0_energy">    -32.35912894 </i>
   </energy>
  </scstep>
  <scstep>
   <time name="dav">    7.91    7.92</time>
   <time name="total">   11.55   11.56</time>
   <energy>
    <i name="e_fr_energy">    -32.36711380 </i>
    <i name="e_wo_entrp">    -32.34879759 </i>
    <i name="e_0_energy">    -32.36100840 </i>
   </energy>
  </scstep>
  <scstep>
   <time name="dav">    8.26    8.27</time>
   <time name="total">   11.91   11.93</time>
   <energy>
    <i name="e_fr_energy">    -32.36814989 </i>
    <i name="e_wo_entrp">    -32.34967916 </i>
    <i name="e_0_energy">    -32.36199298 </i>
   </energy>
  </scstep>
  <scstep>
   <time name="dav">    8.29    8.30</time>
   <time name="total">   11.94   11.96</time>
   <energy>
    <i name="e_fr_energy">    -32.36874105 </i>
    <i name="e_wo_entrp">    -32.35018027 </i>
    <i name="e_0_energy">    -32.36255412 </i>
   </energy>
  </scstep>
  <scstep>
   <time name="dav">    7.94    7.95</time>
   <time name="total">   11.62   11.63</time>
   <energy>
    <i name="e_fr_energy">    -32.36930645 </i>
    <i name="e_wo_entrp">    -32.35069055 </i>
    <i name="e_0_energy">    -32.36310115 </i>
   </energy>
  </scstep>
  <scstep>
   <time name="dav">    7.73    7.74</time>
   <time name="total">   11.43   11.45</time>
   <energy>
    <i name="e_fr_energy">    -32.36966047 </i>
    <i name="e_wo_entrp">    -32.35100911 </i>
    <i name="e_0_energy">    -32.36344335 </i>
   </energy>
  </scstep>
  <scstep>
   <time name="dav">    7.38    7.39</time>
   <time name="total">   11.07   11.08</time>
   <energy>
    <i name="e_fr_energy">    -32.36986642 </i>
    <i name="e_wo_entrp">    -32.35119343 </i>
    <i name="e_0_energy">    -32.36364209 </i>
   </energy>
  </scstep>
  <scstep>
   <time name="dav">    7.87    7.88</time>
   <time name="total">   11.58   11.60</time>
   <energy>
    <i name="e_fr_energy">    -32.37005112 </i>
    <i name="e_wo_entrp">    -32.35135656 </i>
    <i name="e_0_energy">    -32.36381960 </i>
   </energy>
  </scstep>
  <scstep>
   <time name="dav">    7.89    7.90</time>
   <time name="total">   10.46   10.47</time>
   <energy>
    <i name="alphaZ">      9.53985614 </i>
    <i name="ewald">  25895.75098024 </i>
    <i name="hartreedc"> -42301.24522878 </i>
    <i name="XCdc">    575.12532980 </i>
    <i name="pawpsdc">  16784.82465430 </i>
    <i name="pawaedc"> -18180.39142464 </i>
    <i name="eentropy">     -0.01870388 </i>
    <i name="bandstr">   -898.40488848 </i>
    <i name="atom">  18082.44932260 </i>
    <i name="e_fr_energy">    -32.37010269 </i>
    <i name="e_wo_entrp">    -32.35139881 </i>
    <i name="e_0_energy">    -32.36386806 </i>
   </energy>
  </scstep>
  <structure>
   <crystal>
    <varray name="basis" >
     <v>      22.45060371       0.00000000       0.00000000 </v>
     <v>       0.00000000      22.41715980       0.00000000 </v>
     <v>       0.00000000       0.00000000      25.74236777 </v>
    </varray>
    <i name="volume">  12955.58721235 </i>
    <varray name="rec_basis" >
     <v>       0.04454223       0.00000000       0.00000000 </v>
     <v>       0.00000000       0.04460868       0.00000000 </v>
     <v>       0.00000000       0.00000000       0.03884647 </v>
    </varray>
   </crystal>
   <varray name="positions" >
    <v>       0.49072783       0.50765951       0.45470700 </v>
    <v>       0.58726019       0.47619209       0.42487199 </v>
    <v>       0.57431278       0.57811786       0.46097416 </v>
    <v>       0.47215127       0.61179293       0.43955115 </v>
    <v>       0.57014499       0.48789315       0.52151010 </v>
    <v>       0.49408689       0.57695093       0.53149054 </v>
    <v>       0.42186821       0.53431773       0.38929275 </v>
    <v>       0.52858480       0.55106778       0.37613678 </v>
    <v>       0.40092285       0.54773112       0.48737637 </v>
    <v>       0.46236334       0.47168431       0.53964021 </v>
    <v>       0.49650125       0.44667716       0.38004405 </v>
    <v>       0.52637211       0.51625505       0.60114583 </v>
    <v>       0.51951267       0.40811427       0.47285867 </v>
   </varray>
  </structure>
  <varray name="forces" >
   <v>      -0.10194575      -0.15752471       0.28503828 </v>
   <v>       0.07745193      -0.02621728       0.02266123 </v>
   <v>      -0.00819888      -0.03879169       0.09805483 </v>
   <v>      -0.01427224       0.07093995       0.03876148 </v>
   <v>       0.04606952      -0.08120252      -0.05607763 </v>
   <v>      -0.06037597       0.07173089      -0.04437609 </v>
   <v>      -0.18152125       0.17503444      -0.27810932 </v>
   <v>       0.03315830       0.05992465      -0.27768597 </v>
   <v>       0.01197204       0.03336945       0.16245854 </v>
   <v>      -0.00636895      -0.01821749      -0.06396999 </v>
   <v>       0.06598653      -0.16265720      -0.30798764 </v>
   <v>       0.11216070       0.06445808       0.30483764 </v>
   <v>       0.02588404       0.00915341       0.11639464 </v>
  </varray>
  <energy>
   <i name="e_fr_energy">    -32.37010269 </i>
   <i name="e_wo_entrp">    -32.35139881 </i>
   <i name="e_0_energy">    -32.36386806 </i>
  </energy>
  <time name="totalsc">  352.47  352.92</time>
 </calculation>
 <calculation>
  <scstep>
   <time name="dav">   10.63   10.64</time>
   <time name="total">   14.15   14.17</time>
   <energy>
    <i name="alphaZ">      9.53985614 </i>
    <i name="ewald">  25873.58777084 </i>
    <i name="hartreedc"> -42279.52780551 </i>
    <i name="XCdc">    575.12749563 </i>
    <i name="pawpsdc">  16784.82940453 </i>
    <i name="pawaedc"> -18180.39674949 </i>
    <i name="eentropy">     -0.01014298 </i>
    <i name="bandstr">   -897.95342442 </i>
    <i name="atom">  18082.44932260 </i>
    <i name="e_fr_energy">    -32.35427266 </i>
    <i name="e_wo_entrp">    -32.34412968 </i>
    <i name="e_0_energy">    -32.35089166 </i>
   </energy>
  </scstep>
  <scstep>
   <time name="dav">   13.88   13.90</time>
   <time name="total">   17.41   17.43</time>
   <energy>
    <i name="e_fr_energy">    -32.40035266 </i>
    <i name="e_wo_entrp">    -32.38824745 </i>
    <i name="e_0_energy">    -32.39631759 </i>
   </energy>
  </scstep>
  <scstep>
   <time name="dav">   11.35   11.36</time>
   <time name="total">   14.85   14.87</time>
   <energy>
    <i name="e_fr_energy">    -32.39780258 </i>
    <i name="e_wo_entrp">    -32.38560027 </i>
    <i name="e_0_energy">    -32.39373514 </i>
   </energy>
  </scstep>
  <scstep>
   <time name="dav">   12.54   12.55</time>
   <time name="total">   16.05   16.07</time>
   <energy>
    <i name="e_fr_energy">    -32.39707854 </i>
    <i name="e_wo_entrp">    -32.38497412 </i>
    <i name="e_0_energy">    -32.39304374 </i>
   </energy>
  </scstep>
  <scstep>
   <time name="dav">   12.38   12.39</time>
   <time name="total">   15.89   15.92</time>
   <energy>
    <i name="e_fr_energy">    -32.39563651 </i>
    <i name="e_wo_entrp">    -32.38390505 </i>
    <i name="e_0_energy">    -32.39172602 </i>
   </energy>
  </scstep>
  <scstep>
   <time name="dav">   15.41   15.43</time>
   <time name="total">   18.95   18.98</time>
   <energy>
    <i name="e_fr_energy">    -32.39299966 </i>
    <i name="e_wo_entrp">    -32.38123318 </i>
    <i name="e_0_energy">    -32.38907750 </i>
   </energy>
  </scstep>
  <scstep>
   <time name="dav">   11.10   11.11</time>
   <time name="total">   14.63   14.65</time>
   <energy>
    <i name="e_fr_energy">    -32.39243586 </i>
    <i name="e_wo_entrp">    -32.38060722 </i>
    <i name="e_0_energy">    -32.38849298 </i>
   </energy>
  </scstep>
  <scstep>
   <time name="dav">    8.39    8.40</time>
   <time name="total">   11.92   11.93</time>
   <energy>
    <i name="e_fr_energy">    -32.39228687 </i>
    <i name="e_wo_entrp">    -32.38012169 </i>
    <i name="e_0_energy">    -32.38823181 </i>
   </energy>
  </scstep>
  <scstep>
   <time name="dav">    7.98    7.99</time>
   <time name="total">   10.55   10.57</time>
   <energy>
    <i name="alphaZ">      9.53985614 </i>
    <i name="ewald">  25873.58777084 </i>
    <i name="hartreedc"> -42280.01762093 </i>
    <i name="XCdc">    575.14309727 </i>
    <i name="pawpsdc">  16786.08195952 </i>
    <i name="pawaedc"> -18181.72517107 </i>
    <i name="eentropy">     -0.01234602 </i>
    <i name="bandstr">   -897.43914057 </i>
    <i name="atom">  18082.44932260 </i>
    <i name="e_fr_energy">    -32.39227222 </i>
    <i name="e_wo_entrp">    -32.37992620 </i>
    <i name="e_0_energy">    -32.38815688 </i>
   </energy>
  </scstep>
  <structure>
   <crystal>
    <varray name="basis" >
     <v>      22.45060371       0.00000000       0.00000000 </v>
     <v>       0.00000000      22.41715980       0.00000000 </v>
     <v>       0.00000000       0.00000000      25.74236777 </v>
    </varray>
    <i name="volume">  12955.58721235 </i>
    <varray name="rec_basis" >
     <v>       0.04454223       0.00000000       0.00000000 </v>
     <v>       0.00000000       0.04460868       0.00000000 </v>
     <v>       0.00000000       0.00000000       0.03884647 </v>
    </varray>
   </crystal>
   <varray name="positions" >
    <v>       0.49011858       0.50709343       0.45490330 </v>
    <v>       0.58683595       0.47648217       0.42509469 </v>
    <v>       0.57407988       0.57780310       0.46098127 </v>
    <v>       0.47234673       0.61129430       0.43968951 </v>
    <v>       0.57010014       0.48736602       0.52171083 </v>
    <v>       0.49366281       0.57694245       0.53176900 </v>
    <v>       0.42160756       0.53522953       0.38837779 </v>
    <v>       0.52833111       0.55084895       0.37561128 </v>
    <v>       0.40140381       0.54782865       0.48797548 </v>
    <v>       0.46287310       0.47201584       0.53956817 </v>
    <v>       0.49714951       0.44650276       0.37903861 </v>
    <v>       0.52666113       0.51652196       0.60151327 </v>
    <v>       0.51963886       0.40852472       0.47336642 </v>
   </varray>
  </structure>
  <varray name="forces" >
   <v>      -0.08497464      -0.09293706       0.01931076 </v>
   <v>       0.08485859      -0.06494832      -0.02342458 </v>
   <v>      -0.01785875      -0.04135578       0.10753863 </v>
   <v>      -0.04137824       0.08897772       0.00638926 </v>
   <v>       0.07504154      -0.00959593      -0.01644156 </v>
   <v>       0.00967311       0.08709546      -0.03066969 </v>
   <v>      -0.10231249       0.13566595      -0.16251342 </v>
   <v>       0.01534469       0.04056063      -0.17697457 </v>
   <v>      -0.08246429       0.05249230       0.11104074 </v>
   <v>      -0.05133533      -0.07042625       0.04997673 </v>
   <v>       0.06501338      -0.09698325      -0.22004177 </v>
   <v>       0.10541555       0.06366270       0.26899212 </v>
   <v>       0.02497690      -0.09220819       0.06681736 </v>
  </varray>
  <energy>
   <i name="e_fr_energy">    -32.39227222 </i>
   <i name="e_wo_entrp">    -32.37992620 </i>
   <i name="e_0_energy">    -32.38815688 </i>
  </energy>
  <time name="totalsc">  147.14  147.35</time>
 </calculation>
 <calculation>
  <scstep>
   <time name="dav">   10.67   10.68</time>
   <time name="total">   14.20   14.22</time>
   <energy>
    <i name="alphaZ">      9.53985614 </i>
    <i name="ewald">  25848.14397604 </i>
    <i name="hartreedc"> -42254.85040146 </i>
    <i name="XCdc">    575.14483258 </i>
    <i name="pawpsdc">  16785.94897914 </i>
    <i name="pawaedc"> -18181.51494548 </i>
    <i name="eentropy">     -0.00523450 </i>
    <i name="bandstr">   -897.20019172 </i>
    <i name="atom">  18082.44932260 </i>
    <i name="e_fr_energy">    -32.34380666 </i>
    <i name="e_wo_entrp">    -32.33857216 </i>
    <i name="e_0_energy">    -32.34206183 </i>
   </energy>
  </scstep>
  <scstep>
   <time name="dav">   13.62   13.64</time>
   <time name="total">   17.14   17.16</time>
   <energy>
    <i name="e_fr_energy">    -32.40498478 </i>
    <i name="e_wo_entrp">    -32.39828834 </i>
    <i name="e_0_energy">    -32.40275263 </i>
   </energy>
  </scstep>
  <scstep>
   <time name="dav">   11.07   11.08</time>
   <time name="total">   14.58   14.60</time>
   <energy>
    <i name="e_fr_energy">    -32.40148497 </i>
    <i name="e_wo_entrp">    -32.39459590 </i>
    <i name="e_0_energy">    -32.39918861 </i>
   </energy>
  </scstep>
  <scstep>
   <time name="dav">   12.44   12.45</time>
   <time name="total">   15.98   15.99</time>
   <energy>
    <i name="e_fr_energy">    -32.40057455 </i>
    <i name="e_wo_entrp">    -32.39372595 </i>
    <i name="e_0_energy">    -32.39829168 </i>
   </energy>
  </scstep>
  <scstep>
   <time name="dav">   12.00   12.01</time>
   <time name="total">   15.52   15.54</time>
   <energy>
    <i name="e_fr_energy">    -32.39882321 </i>
    <i name="e_wo_entrp">    -32.39215652 </i>
    <i name="e_0_energy">    -32.39660098 </i>
   </energy>
  </scstep>
  <scstep>
   <time name="dav">   15.70   15.71</time>
   <time name="total">   19.22   19.24</time>
   <energy>
    <i name="e_fr_energy">    -32.39625402 </i>
    <i name="e_wo_entrp">    -32.38930961 </i>
    <i name="e_0_energy">    -32.39393922 </i>
   </energy>
  </scstep>
  <scstep>
   <time name="dav">   11.28   11.29</time>
   <time name="total">   14.81   14.83</time>
   <energy>
    <i name="e_fr_energy">    -32.39590058 </i>
    <i name="e_wo_entrp">    -32.38879748 </i>
    <i name="e_0_energy">    -32.39353288 </i>
   </energy>
  </scstep>
  <scstep>
   <time name="dav">    9.46    9.47</time>
   <time name="total">   13.01   13.03</time>
   <energy>
    <i name="e_fr_energy">    -32.39627993 </i>
    <i name="e_wo_entrp">    -32.38874937 </i>
    <i name="e_0_energy">    -32.39376974 </i>
   </energy>
  </scstep>
  <scstep>
   <time name="dav">    8.07    8.07</time>
   <time name="total">   11.64   11.65</time>
   <energy>
    <i name="e_fr_energy">    -32.39658431 </i>
    <i name="e_wo_entrp">    -32.38881023 </i>
    <i name="e_0_energy">    -32.39399295 </i>
   </energy>
  </scstep>
  <scstep>
   <time name="dav">    8.22    8.23</time>
   <time name="total">   11.77   11.78</time>
   <energy>
    <i name="e_fr_energy">    -32.39732328 </i>
    <i name="e_wo_entrp">    -32.38915089 </i>
    <i name="e_0_energy">    -32.39459915 </i>
   </energy>
  </scstep>
  <scstep>
   <time name="dav">    8.06    8.07</time>
   <time name="total">   11.63   11.64</time>
   <energy>
    <i name="e_fr_energy">    -32.39798120 </i>
    <i name="e_wo_entrp">    -32.38953985 </i>
    <i name="e_0_energy">    -32.39516742 </i>
   </energy>
  </scstep>
  <scstep>
   <time name="dav">    7.94    7.95</time>
   <time name="total">   11.53   11.54</time>
   <energy>
    <i name="e_fr_energy">    -32.39853387 </i>
    <i name="e_wo_entrp">    -32.38992541 </i>
    <i name="e_0_energy">    -32.39566438 </i>
   </energy>
  </scstep>
  <scstep>
   <time name="dav">    8.72    9.74</time>
   <time name="total">   12.30   13.33</time>
   <energy>
    <i name="e_fr_energy">    -32.40077635 </i>
    <i name="e_wo_entrp">    -32.39145582 </i>
    <i name="e_0_energy">    -32.39766951 </i>
   </energy>
  </scstep>
  <scstep>
   <time name="dav">    8.49    8.50</time>
   <time name="total">   12.10   12.11</time>
   <energy>
    <i name="e_fr_energy">    -32.40309373 </i>
    <i name="e_wo_entrp">    -32.39290154 </i>
    <i name="e_0_energy">    -32.39969633 </i>
   </energy>
  </scstep>
  <scstep>
   <time name="dav">    8.57    8.58</time>
   <time name="total">   12.16   12.18</time>
   <energy>
    <i name="e_fr_energy">    -32.40407650 </i>
    <i name="e_wo_entrp">    -32.39344365 </i>
    <i name="e_0_energy">    -32.40053222 </i>
   </energy>
  </scstep>
  <scstep>
   <time name="dav">    8.50    8.51</time>
   <time name="total">   12.12   12.13</time>
   <energy>
    <i name="e_fr_energy">    -32.40642180 </i>
    <i name="e_wo_entrp">    -32.39472191 </i>
    <i name="e_0_energy">    -32.40252184 </i>
   </energy>
  </scstep>
  <scstep>
   <time name="dav">    8.45    8.46</time>
   <time name="total">   12.09   12.10</time>
   <energy>
    <i name="e_fr_energy">    -32.40762361 </i>
    <i name="e_wo_entrp">    -32.39534284 </i>
    <i name="e_0_energy">    -32.40353002 </i>
   </energy>
  </scstep>
  <scstep>
   <time name="dav">    8.38    8.39</time>
   <time name="total">   12.02   12.03</time>
   <energy>
    <i name="e_fr_energy">    -32.40815423 </i>
    <i name="e_wo_entrp">    -32.39558921 </i>
    <i name="e_0_energy">    -32.40396589 </i>
   </energy>
  </scstep>
  <scstep>
   <time name="dav">    8.24    8.25</time>
   <time name="total">   11.88   11.90</time>
   <energy>
    <i name="e_fr_energy">    -32.40878307 </i>
    <i name="e_wo_entrp">    -32.39582527 </i>
    <i name="e_0_energy">    -32.40446380 </i>
   </energy>
  </scstep>
  <scstep>
   <time name="dav">    8.26    8.27</time>
   <time name="total">   11.90   11.93</time>
   <energy>
    <i name="e_fr_energy">    -32.40906789 </i>
    <i name="e_wo_entrp">    -32.39592491 </i>
    <i name="e_0_energy">    -32.40468689 </i>
   </energy>
  </scstep>
  <scstep>
   <time name="dav">    8.08    8.09</time>
   <time name="total">   11.73   11.75</time>
   <energy>
    <i name="e_fr_energy">    -32.40932624 </i>
    <i name="e_wo_entrp">    -32.39599691 </i>
    <i name="e_0_energy">    -32.40488313 </i>
   </energy>
  </scstep>
  <scstep>
   <time name="dav">    7.94    7.95</time>
   <time name="total">   11.61   11.62</time>
   <energy>
    <i name="e_fr_energy">    -32.40949627 </i>
    <i name="e_wo_entrp">    -32.39603609 </i>
    <i name="e_0_energy">    -32.40500955 </i>
   </energy>
  </scstep>
  <scstep>
   <time name="dav">    7.93    7.94</time>
   <time name="total">   11.63   11.64</time>
   <energy>
    <i name="e_fr_energy">    -32.40964314 </i>
    <i name="e_wo_entrp">    -32.39607944 </i>
    <i name="e_0_energy">    -32.40512191 </i>
   </energy>
  </scstep>
  <scstep>
   <time name="dav">    7.30    7.31</time>
   <time name="total">    9.87    9.88</time>
   <energy>
    <i name="alphaZ">      9.53985614 </i>
    <i name="ewald">  25848.14397604 </i>
    <i name="hartreedc"> -42254.95452835 </i>
    <i name="XCdc">    575.13044604 </i>
    <i name="pawpsdc">  16788.62358623 </i>
    <i name="pawaedc"> -18184.23209385 </i>
    <i name="eentropy">     -0.01359376 </i>
    <i name="bandstr">   -897.09666885 </i>
    <i name="atom">  18082.44932260 </i>
    <i name="e_fr_energy">    -32.40969777 </i>
    <i name="e_wo_entrp">    -32.39610401 </i>
    <i name="e_0_energy">    -32.40516652 </i>
   </energy>
  </scstep>
  <structure>
   <crystal>
    <varray name="basis" >
     <v>      22.45060371       0.00000000       0.00000000 </v>
     <v>       0.00000000      22.41715980       0.00000000 </v>
     <v>       0.00000000       0.00000000      25.74236777 </v>
    </varray>
    <i name="volume">  12955.58721235 </i>
    <varray name="rec_basis" >
     <v>       0.04454223       0.00000000       0.00000000 </v>
     <v>       0.00000000       0.04460868       0.00000000 </v>
     <v>       0.00000000       0.00000000       0.03884647 </v>
    </varray>
   </crystal>
   <varray name="positions" >
    <v>       0.48941812       0.50644259       0.45512898 </v>
    <v>       0.58634818       0.47681569       0.42535072 </v>
    <v>       0.57381210       0.57744121       0.46098945 </v>
    <v>       0.47257145       0.61072100       0.43984858 </v>
    <v>       0.57004858       0.48675996       0.52194161 </v>
    <v>       0.49317523       0.57693271       0.53208915 </v>
    <v>       0.42130787       0.53627785       0.38732584 </v>
    <v>       0.52803943       0.55059736       0.37500710 </v>
    <v>       0.40195679       0.54794079       0.48866430 </v>
    <v>       0.46345920       0.47239701       0.53948533 </v>
    <v>       0.49789483       0.44630223       0.37788262 </v>
    <v>       0.52699342       0.51682885       0.60193573 </v>
    <v>       0.51978395       0.40899664       0.47395019 </v>
   </varray>
  </structure>
  <varray name="forces" >
   <v>      -0.06143908      -0.01477959      -0.27697379 </v>
   <v>       0.09614071      -0.11068984      -0.07764053 </v>
   <v>      -0.02457317      -0.03582362       0.12064016 </v>
   <v>      -0.07700409       0.11244111      -0.03458424 </v>
   <v>       0.12428888       0.08590278       0.03507363 </v>
   <v>       0.09952809       0.11586157      -0.00960587 </v>
   <v>      -0.01870398       0.08846346      -0.06392319 </v>
   <v>       0.00519091       0.03095872      -0.06691784 </v>
   <v>      -0.20935119       0.07005882       0.05149407 </v>
   <v>      -0.12040651      -0.14139651       0.19459576 </v>
   <v>       0.06295002      -0.03624947      -0.12183992 </v>
   <v>       0.09774230       0.06409678       0.23244100 </v>
   <v>       0.02563712      -0.22884422       0.01724077 </v>
  </varray>
  <energy>
   <i name="e_fr_energy">    -32.40969777 </i>
   <i name="e_wo_entrp">    -32.39610401 </i>
   <i name="e_0_energy">    -32.40516652 </i>
  </energy>
  <time name="totalsc">  325.43  326.85</time>
 </calculation>
 <calculation>
  <scstep>
   <time name="dav">   10.62   10.64</time>
   <time name="total">   14.15   14.17</time>
   <energy>
    <i name="alphaZ">      9.53985614 </i>
    <i name="ewald">  25656.38921944 </i>
    <i name="hartreedc"> -42065.14465542 </i>
    <i name="XCdc">    574.85807989 </i>
    <i name="pawpsdc">  16788.62709930 </i>
    <i name="pawaedc"> -18184.23677675 </i>
    <i name="eentropy">     -0.01285176 </i>
    <i name="bandstr">   -894.86071548 </i>
    <i name="atom">  18082.44932260 </i>
    <i name="e_fr_energy">    -32.39142203 </i>
    <i name="e_wo_entrp">    -32.37857027 </i>
    <i name="e_0_energy">    -32.38713811 </i>
   </energy>
  </scstep>
  <scstep>
   <time name="dav">   13.51   13.53</time>
   <time name="total">   17.04   17.06</time>
   <energy>
    <i name="e_fr_energy">    -32.43831703 </i>
    <i name="e_wo_entrp">    -32.42542559 </i>
    <i name="e_0_energy">    -32.43401988 </i>
   </energy>
  </scstep>
  <scstep>
   <time name="dav">   10.73   10.75</time>
   <time name="total">   14.24   14.26</time>
   <energy>
    <i name="e_fr_energy">    -32.43649594 </i>
    <i name="e_wo_entrp">    -32.42329122 </i>
    <i name="e_0_energy">    -32.43209437 </i>
   </energy>
  </scstep>
  <scstep>
   <time name="dav">   11.69   11.70</time>
   <time name="total">   15.21   15.23</time>
   <energy>
    <i name="e_fr_energy">    -32.43619423 </i>
    <i name="e_wo_entrp">    -32.42321582 </i>
    <i name="e_0_energy">    -32.43186809 </i>
   </energy>
  </scstep>
  <scstep>
   <time name="dav">   12.36   12.38</time>
   <time name="total">   15.86   15.88</time>
   <energy>
    <i name="e_fr_energy">    -32.43566162 </i>
    <i name="e_wo_entrp">    -32.42290613 </i>
    <i name="e_0_energy">    -32.43140979 </i>
   </energy>
  </scstep>
  <scstep>
   <time name="dav">   16.38   16.40</time>
   <time name="total">   19.89   19.91</time>
   <energy>
    <i name="e_fr_energy">    -32.43533781 </i>
    <i name="e_wo_entrp">    -32.42262675 </i>
    <i name="e_0_energy">    -32.43110079 </i>
   </energy>
  </scstep>
  <scstep>
   <time name="dav">   10.36   10.37</time>
   <time name="total">   13.88   13.89</time>
   <energy>
    <i name="e_fr_energy">    -32.43523155 </i>
    <i name="e_wo_entrp">    -32.42254825 </i>
    <i name="e_0_energy">    -32.43100378 </i>
   </energy>
  </scstep>
  <scstep>
   <time name="dav">    8.27    8.28</time>
   <time name="total">   10.83   10.85</time>
   <energy>
    <i name="alphaZ">      9.53985614 </i>
    <i name="ewald">  25656.38921944 </i>
    <i name="hartreedc"> -42067.38036534 </i>
    <i name="XCdc">    574.96257948 </i>
    <i name="pawpsdc">  16755.09021520 </i>
    <i name="pawaedc"> -18150.11490395 </i>
    <i name="eentropy">     -0.01279236 </i>
    <i name="bandstr">   -893.35830714 </i>
    <i name="atom">  18082.44932260 </i>
    <i name="e_fr_energy">    -32.43517594 </i>
    <i name="e_wo_entrp">    -32.42238358 </i>
    <i name="e_0_energy">    -32.43091182 </i>
   </energy>
  </scstep>
  <structure>
   <crystal>
    <varray name="basis" >
     <v>      22.45060371       0.00000000       0.00000000 </v>
     <v>       0.00000000      22.41715980       0.00000000 </v>
     <v>       0.00000000       0.00000000      25.74236777 </v>
    </varray>
    <i name="volume">  12955.58721235 </i>
    <varray name="rec_basis" >
     <v>       0.04454223       0.00000000       0.00000000 </v>
     <v>       0.00000000       0.04460868       0.00000000 </v>
     <v>       0.00000000       0.00000000       0.03884647 </v>
    </varray>
   </crystal>
   <varray name="positions" >
    <v>       0.48884787       0.50605442       0.45443703 </v>
    <v>       0.58641656       0.47661777       0.42525704 </v>
    <v>       0.57359046       0.57713275       0.46134623 </v>
    <v>       0.47243035       0.61080006       0.43983028 </v>
    <v>       0.57043819       0.48673294       0.52216415 </v>
    <v>       0.49325506       0.57731642       0.53222763 </v>
    <v>       0.42108931       0.53712004       0.38659181 </v>
    <v>       0.52790509       0.55057036       0.37449726 </v>
    <v>       0.40154302       0.54823421       0.48917311 </v>
    <v>       0.46336067       0.47212084       0.54001087 </v>
    <v>       0.49849348       0.44607628       0.37692523 </v>
    <v>       0.52749378       0.51720357       0.60283472 </v>
    <v>       0.51994532       0.40847423       0.47430425 </v>
   </varray>
  </structure>
  <varray name="forces" >
   <v>      -0.07080833      -0.04317453      -0.13988246 </v>
   <v>       0.02207904      -0.09248692      -0.04628653 </v>
   <v>      -0.05694320      -0.05631574       0.08310755 </v>
   <v>      -0.06575850       0.04429376      -0.02043462 </v>
   <v>      -0.01102470       0.09573346       0.03606089 </v>
   <v>       0.09377735      -0.02446400      -0.01165330 </v>
   <v>       0.00986970       0.07527142      -0.02699156 </v>
   <v>       0.00697544       0.01929768       0.01201308 </v>
   <v>      -0.07757343       0.03654661       0.01575238 </v>
   <v>       0.00816456      -0.01093798       0.09546337 </v>
   <v>       0.08180288      -0.00201431      -0.05040561 </v>
   <v>       0.03625647       0.05158293       0.04117511 </v>
   <v>       0.02318271      -0.09333239       0.01208169 </v>
  </varray>
  <energy>
   <i name="e_fr_energy">    -32.43517594 </i>
   <i name="e_wo_entrp">    -32.42238358 </i>
   <i name="e_0_energy">    -32.43091182 </i>
  </energy>
  <time name="totalsc">  133.82  134.00</time>
 </calculation>
 <calculation>
  <scstep>
   <time name="dav">   10.58   10.59</time>
   <time name="total">   14.10   14.11</time>
   <energy>
    <i name="alphaZ">      9.53985614 </i>
    <i name="ewald">  25506.90275093 </i>
    <i name="hartreedc"> -41919.27687431 </i>
    <i name="XCdc">    574.75040969 </i>
    <i name="pawpsdc">  16755.14839287 </i>
    <i name="pawaedc"> -18150.15774227 </i>
    <i name="eentropy">     -0.01246310 </i>
    <i name="bandstr">   -891.75899993 </i>
    <i name="atom">  18082.44932260 </i>
    <i name="e_fr_energy">    -32.41534737 </i>
    <i name="e_wo_entrp">    -32.40288427 </i>
    <i name="e_0_energy">    -32.41119300 </i>
   </energy>
  </scstep>
  <scstep>
   <time name="dav">   13.72   13.73</time>
   <time name="total">   17.23   17.25</time>
   <energy>
    <i name="e_fr_energy">    -32.44343151 </i>
    <i name="e_wo_entrp">    -32.43095298 </i>
    <i name="e_0_energy">    -32.43927200 </i>
   </energy>
  </scstep>
  <scstep>
   <time name="dav">   10.74   10.75</time>
   <time name="total">   14.26   14.28</time>
   <energy>
    <i name="e_fr_energy">    -32.44218329 </i>
    <i name="e_wo_entrp">    -32.42947350 </i>
    <i name="e_0_energy">    -32.43794670 </i>
   </energy>
  </scstep>
  <scstep>
   <time name="dav">   12.20   12.21</time>
   <time name="total">   15.71   15.73</time>
   <energy>
    <i name="e_fr_energy">    -32.44197860 </i>
    <i name="e_wo_entrp">    -32.42939242 </i>
    <i name="e_0_energy">    -32.43778321 </i>
   </energy>
  </scstep>
  <scstep>
   <time name="dav">   11.02   11.03</time>
   <time name="total">   14.53   14.55</time>
   <energy>
    <i name="e_fr_energy">    -32.44162342 </i>
    <i name="e_wo_entrp">    -32.42913696 </i>
    <i name="e_0_energy">    -32.43746127 </i>
   </energy>
  </scstep>
  <scstep>
   <time name="dav">   14.66   14.67</time>
   <time name="total">   18.16   18.19</time>
   <energy>
    <i name="e_fr_energy">    -32.44134823 </i>
    <i name="e_wo_entrp">    -32.42883363 </i>
    <i name="e_0_energy">    -32.43717669 </i>
   </energy>
  </scstep>
  <scstep>
   <time name="dav">    8.23    8.24</time>
   <time name="total">   11.74   11.75</time>
   <energy>
    <i name="e_fr_energy">    -32.44124485 </i>
    <i name="e_wo_entrp">    -32.42872791 </i>
    <i name="e_0_energy">    -32.43707254 </i>
   </energy>
  </scstep>
  <scstep>
   <time name="dav">    7.44    7.45</time>
   <time name="total">   10.00   10.01</time>
   <energy>
    <i name="alphaZ">      9.53985614 </i>
    <i name="ewald">  25506.90275093 </i>
    <i name="hartreedc"> -41920.99607572 </i>
    <i name="XCdc">    574.82999613 </i>
    <i name="pawpsdc">  16729.59508721 </i>
    <i name="pawaedc"> -18124.12406512 </i>
    <i name="eentropy">     -0.01261946 </i>
    <i name="bandstr">   -890.62547012 </i>
    <i name="atom">  18082.44932260 </i>
    <i name="e_fr_energy">    -32.44121741 </i>
    <i name="e_wo_entrp">    -32.42859795 </i>
    <i name="e_0_energy">    -32.43701092 </i>
   </energy>
  </scstep>
  <structure>
   <crystal>
    <varray name="basis" >
     <v>      22.45060371       0.00000000       0.00000000 </v>
     <v>       0.00000000      22.41715980       0.00000000 </v>
     <v>       0.00000000       0.00000000      25.74236777 </v>
    </varray>
    <i name="volume">  12955.58721235 </i>
    <varray name="rec_basis" >
     <v>       0.04454223       0.00000000       0.00000000 </v>
     <v>       0.00000000       0.04460868       0.00000000 </v>
     <v>       0.00000000       0.00000000       0.03884647 </v>
    </varray>
   </crystal>
   <varray name="positions" >
    <v>       0.48840062       0.50574997       0.45389434 </v>
    <v>       0.58647020       0.47646253       0.42518357 </v>
    <v>       0.57341663       0.57689081       0.46162605 </v>
    <v>       0.47231968       0.61086207       0.43981592 </v>
    <v>       0.57074377       0.48671174       0.52233870 </v>
    <v>       0.49331767       0.57761736       0.53233624 </v>
    <v>       0.42091788       0.53778059       0.38601610 </v>
    <v>       0.52779973       0.55054918       0.37409738 </v>
    <v>       0.40121849       0.54846434       0.48957217 </v>
    <v>       0.46328339       0.47190423       0.54042306 </v>
    <v>       0.49896300       0.44589907       0.37617434 </v>
    <v>       0.52788621       0.51749747       0.60353980 </v>
    <v>       0.52007189       0.40806451       0.47458195 </v>
   </varray>
  </structure>
[...]
   <time name="total">   14.15   14.17</time>
   <energy>
    <i name="alphaZ">      9.53985614 </i>
    <i name="ewald">  25525.21334581 </i>
    <i name="hartreedc"> -41938.91845625 </i>
    <i name="XCdc">    574.91452064 </i>
    <i name="pawpsdc">  16739.20493813 </i>
    <i name="pawaedc"> -18133.92938517 </i>
    <i name="eentropy">     -0.00893142 </i>
    <i name="bandstr">   -890.91267628 </i>
    <i name="atom">  18082.44932260 </i>
    <i name="e_fr_energy">    -32.44746579 </i>
    <i name="e_wo_entrp">    -32.43853437 </i>
    <i name="e_0_energy">    -32.44448865 </i>
   </energy>
  </scstep>
  <scstep>
   <time name="dav">   13.40   13.42</time>
   <time name="total">   16.91   16.92</time>
   <energy>
    <i name="e_fr_energy">    -32.46289711 </i>
    <i name="e_wo_entrp">    -32.45364539 </i>
    <i name="e_0_energy">    -32.45981320 </i>
   </energy>
  </scstep>
  <scstep>
   <time name="dav">   11.00   11.01</time>
   <time name="total">   14.52   14.54</time>
   <energy>
    <i name="e_fr_energy">    -32.46184913 </i>
    <i name="e_wo_entrp">    -32.45265283 </i>
    <i name="e_0_energy">    -32.45878370 </i>
   </energy>
  </scstep>
  <scstep>
   <time name="dav">   12.00   12.01</time>
   <time name="total">   15.51   15.53</time>
   <energy>
    <i name="e_fr_energy">    -32.46173077 </i>
    <i name="e_wo_entrp">    -32.45250877 </i>
    <i name="e_0_energy">    -32.45865677 </i>
   </energy>
  </scstep>
  <scstep>
   <time name="dav">    9.13    9.14</time>
   <time name="total">   12.64   12.66</time>
   <energy>
    <i name="e_fr_energy">    -32.46154631 </i>
    <i name="e_wo_entrp">    -32.45230048 </i>
    <i name="e_0_energy">    -32.45846437 </i>
   </energy>
  </scstep>
  <scstep>
   <time name="dav">   13.38   13.40</time>
   <time name="total">   16.93   16.94</time>
   <energy>
    <i name="e_fr_energy">    -32.46138777 </i>
    <i name="e_wo_entrp">    -32.45197627 </i>
    <i name="e_0_energy">    -32.45825060 </i>
   </energy>
  </scstep>
  <scstep>
   <time name="dav">    7.45    7.46</time>
   <time name="total">   10.01   10.02</time>
   <energy>
    <i name="alphaZ">      9.53985614 </i>
    <i name="ewald">  25525.21334581 </i>
    <i name="hartreedc"> -41938.38311161 </i>
    <i name="XCdc">    574.88680349 </i>
    <i name="pawpsdc">  16743.88045460 </i>
    <i name="pawaedc"> -18138.61816418 </i>
    <i name="eentropy">     -0.00947383 </i>
    <i name="bandstr">   -891.42038501 </i>
    <i name="atom">  18082.44932260 </i>
    <i name="e_fr_energy">    -32.46135198 </i>
    <i name="e_wo_entrp">    -32.45187815 </i>
    <i name="e_0_energy">    -32.45819404 </i>
   </energy>
  </scstep>
  <structure>
   <crystal>
    <varray name="basis" >
     <v>      22.45060371       0.00000000       0.00000000 </v>
     <v>       0.00000000      22.41715980       0.00000000 </v>
     <v>       0.00000000       0.00000000      25.74236777 </v>
    </varray>
    <i name="volume">  12955.58721235 </i>
    <varray name="rec_basis" >
     <v>       0.04454223       0.00000000       0.00000000 </v>
     <v>       0.00000000       0.04460868       0.00000000 </v>
     <v>       0.00000000       0.00000000       0.03884647 </v>
    </varray>
   </crystal>
   <varray name="positions" >
    <v>       0.48652846       0.50428646       0.45269217 </v>
    <v>       0.58601742       0.47522858       0.42502011 </v>
    <v>       0.57200651       0.57548457       0.46261891 </v>
    <v>       0.47145640       0.61072846       0.43981034 </v>
    <v>       0.56980014       0.48793431       0.52273956 </v>
    <v>       0.49453505       0.57650367       0.53210422 </v>
    <v>       0.42093368       0.53988516       0.38497934 </v>
    <v>       0.52790412       0.55075700       0.37445411 </v>
    <v>       0.40125505       0.54893621       0.49024051 </v>
    <v>       0.46432750       0.47254974       0.54114737 </v>
    <v>       0.50083466       0.44585260       0.37490152 </v>
    <v>       0.52855134       0.51852892       0.60364415 </v>
    <v>       0.52065883       0.40777821       0.47524727 </v>
   </varray>
  </structure>
  <varray name="forces" >
   <v>      -0.03293287      -0.03249695       0.01171225 </v>
   <v>      -0.02693277       0.02060481       0.07294336 </v>
   <v>       0.01102523       0.00532355      -0.06300462 </v>
   <v>       0.01888723      -0.03994558       0.04390712 </v>
   <v>       0.03706575      -0.04293753      -0.07504311 </v>
   <v>      -0.02380444       0.04985182      -0.04553069 </v>
   <v>      -0.03369528       0.02785798      -0.04427670 </v>
   <v>       0.03515261       0.01884110       0.07226757 </v>
   <v>       0.04834208      -0.00862395       0.04206953 </v>
   <v>      -0.07275355      -0.04552465      -0.05209494 </v>
   <v>      -0.01723455      -0.02148492      -0.07877620 </v>
   <v>       0.03521186       0.02496674       0.06521003 </v>
   <v>       0.02166871       0.04356759       0.05061642 </v>
  </varray>
  <energy>
   <i name="e_fr_energy">    -32.46135198 </i>
   <i name="e_wo_entrp">    -32.45187815 </i>
   <i name="e_0_energy">    -32.45819404 </i>
  </energy>
  <time name="totalsc">  113.47  113.61</time>
 </calculation>
 <calculation>
  <scstep>
   <time name="dav">   10.57   10.58</time>
   <time name="total">   14.10   14.11</time>
   <energy>
    <i name="alphaZ">      9.53985614 </i>
    <i name="ewald">  25543.45686121 </i>
    <i name="hartreedc"> -41956.77408089 </i>
    <i name="XCdc">    574.94432408 </i>
    <i name="pawpsdc">  16744.07468714 </i>
    <i name="pawaedc"> -18138.88860305 </i>
    <i name="eentropy">     -0.00877978 </i>
    <i name="bandstr">   -891.23872636 </i>
    <i name="atom">  18082.44932260 </i>
    <i name="e_fr_energy">    -32.44513892 </i>
    <i name="e_wo_entrp">    -32.43635914 </i>
    <i name="e_0_energy">    -32.44221232 </i>
   </energy>
  </scstep>
  <scstep>
   <time name="dav">   13.51   13.53</time>
   <time name="total">   17.02   17.04</time>
   <energy>
    <i name="e_fr_energy">    -32.46480493 </i>
    <i name="e_wo_entrp">    -32.45562956 </i>
    <i name="e_0_energy">    -32.46174647 </i>
   </energy>
  </scstep>
  <scstep>
   <time name="dav">   10.73   10.74</time>
   <time name="total">   14.24   14.26</time>
   <energy>
    <i name="e_fr_energy">    -32.46348580 </i>
    <i name="e_wo_entrp">    -32.45440010 </i>
    <i name="e_0_energy">    -32.46045723 </i>
   </energy>
  </scstep>
  <scstep>
   <time name="dav">   11.70   11.71</time>
   <time name="total">   15.21   15.22</time>
   <energy>
    <i name="e_fr_energy">    -32.46332723 </i>
    <i name="e_wo_entrp">    -32.45420699 </i>
    <i name="e_0_energy">    -32.46028715 </i>
   </energy>
  </scstep>
  <scstep>
   <time name="dav">   10.29   10.30</time>
   <time name="total">   13.80   13.82</time>
   <energy>
    <i name="e_fr_energy">    -32.46308016 </i>
    <i name="e_wo_entrp">    -32.45392369 </i>
    <i name="e_0_energy">    -32.46002800 </i>
   </energy>
  </scstep>
  <scstep>
   <time name="dav">   13.49   13.50</time>
   <time name="total">   17.02   17.04</time>
   <energy>
    <i name="e_fr_energy">    -32.46286601 </i>
    <i name="e_wo_entrp">    -32.45349707 </i>
    <i name="e_0_energy">    -32.45974303 </i>
   </energy>
  </scstep>
  <scstep>
   <time name="dav">    7.21    7.21</time>
   <time name="total">    9.77    9.79</time>
   <energy>
    <i name="alphaZ">      9.53985614 </i>
    <i name="ewald">  25543.45686121 </i>
    <i name="hartreedc"> -41956.11053671 </i>
    <i name="XCdc">    574.91306156 </i>
    <i name="pawpsdc">  16749.66986853 </i>
    <i name="pawaedc"> -18144.52063000 </i>
    <i name="eentropy">     -0.00944841 </i>
    <i name="bandstr">   -891.85117370 </i>
    <i name="atom">  18082.44932260 </i>
    <i name="e_fr_energy">    -32.46281879 </i>
    <i name="e_wo_entrp">    -32.45337038 </i>
    <i name="e_0_energy">    -32.45966932 </i>
   </energy>
  </scstep>
  <structure>
   <crystal>
    <varray name="basis" >
     <v>      22.45060371       0.00000000       0.00000000 </v>
     <v>       0.00000000      22.41715980       0.00000000 </v>
     <v>       0.00000000       0.00000000      25.74236777 </v>
    </varray>
    <i name="volume">  12955.58721235 </i>
    <varray name="rec_basis" >
     <v>       0.04454223       0.00000000       0.00000000 </v>
     <v>       0.00000000       0.04460868       0.00000000 </v>
     <v>       0.00000000       0.00000000       0.03884647 </v>
    </varray>
   </crystal>
   <varray name="positions" >
    <v>       0.48589339       0.50374453       0.45251764 </v>
    <v>       0.58581717       0.47492481       0.42515780 </v>
    <v>       0.57155272       0.57502484       0.46281654 </v>
    <v>       0.47125885       0.61058230       0.43992007 </v>
    <v>       0.56957128       0.48818505       0.52258005 </v>
    <v>       0.49482014       0.57626020       0.53182203 </v>
    <v>       0.42082866       0.54056553       0.38459263 </v>
    <v>       0.52806218       0.55090859       0.37469976 </v>
    <v>       0.40149090       0.54904274       0.49048299 </v>
    <v>       0.46447067       0.47264878       0.54115231 </v>
    <v>       0.50132617       0.44574258       0.37441125 </v>
    <v>       0.52883030       0.51889758       0.60391532 </v>
    <v>       0.52088672       0.40792634       0.47553122 </v>
   </varray>
  </structure>
  <varray name="forces" >
   <v>      -0.01171088      -0.00260485      -0.05774328 </v>
   <v>      -0.02019549       0.03145427       0.05431814 </v>
   <v>       0.06363704       0.05277391      -0.10353264 </v>
   <v>       0.02352103      -0.03317372       0.03158942 </v>
   <v>       0.06668846      -0.05552838      -0.01268122 </v>
   <v>      -0.03617782       0.07821133       0.02712569 </v>
   <v>      -0.01418849       0.00270363      -0.03263842 </v>
   <v>       0.01053768      -0.00719616       0.07147620 </v>
   <v>      -0.00467984      -0.00792323       0.05477735 </v>
   <v>      -0.08936991      -0.06104735      -0.00783095 </v>
   <v>      -0.02811492       0.00248869      -0.07896108 </v>
   <v>       0.02835020       0.01361466       0.00719464 </v>
   <v>       0.01170295      -0.01377281       0.04690615 </v>
  </varray>
  <energy>
   <i name="e_fr_energy">    -32.46281879 </i>
   <i name="e_wo_entrp">    -32.45337038 </i>
   <i name="e_0_energy">    -32.45966932 </i>
  </energy>
  <time name="totalsc">  113.92  114.06</time>
 </calculation>
 <calculation>
  <scstep>
   <time name="dav">   10.53   10.54</time>
   <time name="total">   14.05   14.07</time>
   <energy>
    <i name="alphaZ">      9.53985614 </i>
    <i name="ewald">  25517.93139561 </i>
    <i name="hartreedc"> -41931.22550347 </i>
    <i name="XCdc">    574.89028020 </i>
    <i name="pawpsdc">  16749.93972046 </i>
    <i name="pawaedc"> -18144.87878182 </i>
    <i name="eentropy">     -0.00947860 </i>
    <i name="bandstr">   -891.09845322 </i>
    <i name="atom">  18082.44932260 </i>
    <i name="e_fr_energy">    -32.46164212 </i>
    <i name="e_wo_entrp">    -32.45216351 </i>
    <i name="e_0_energy">    -32.45848258 </i>
   </energy>
  </scstep>
  <scstep>
   <time name="dav">   13.49   13.50</time>
   <time name="total">   16.99   17.01</time>
   <energy>
    <i name="e_fr_energy">    -32.46715577 </i>
    <i name="e_wo_entrp">    -32.45742440 </i>
    <i name="e_0_energy">    -32.46391198 </i>
   </energy>
  </scstep>
  <scstep>
   <time name="dav">   10.53   10.54</time>
   <time name="total">   14.05   14.06</time>
   <energy>
    <i name="e_fr_energy">    -32.46693238 </i>
    <i name="e_wo_entrp">    -32.45723343 </i>
    <i name="e_0_energy">    -32.46369940 </i>
   </energy>
  </scstep>
  <scstep>
   <time name="dav">   10.13   10.14</time>
   <time name="total">   12.70   12.71</time>
   <energy>
    <i name="alphaZ">      9.53985614 </i>
    <i name="ewald">  25517.93139561 </i>
    <i name="hartreedc"> -41931.10774485 </i>
    <i name="XCdc">    574.88625068 </i>
    <i name="pawpsdc">  16747.73161075 </i>
    <i name="pawaedc"> -18142.50791709 </i>
    <i name="eentropy">     -0.00973921 </i>
    <i name="bandstr">   -891.37993311 </i>
    <i name="atom">  18082.44932260 </i>
    <i name="e_fr_energy">    -32.46689849 </i>
    <i name="e_wo_entrp">    -32.45715928 </i>
    <i name="e_0_energy">    -32.46365208 </i>
   </energy>
  </scstep>
  <structure>
   <crystal>
    <varray name="basis" >
     <v>      22.45060371       0.00000000       0.00000000 </v>
     <v>       0.00000000      22.41715980       0.00000000 </v>
     <v>       0.00000000       0.00000000      25.74236777 </v>
    </varray>
    <i name="volume">  12955.58721235 </i>
    <varray name="rec_basis" >
     <v>       0.04454223       0.00000000       0.00000000 </v>
     <v>       0.00000000       0.04460868       0.00000000 </v>
     <v>       0.00000000       0.00000000       0.03884647 </v>
    </varray>
   </crystal>
   <varray name="positions" >
    <v>       0.48565272       0.50356426       0.45229122 </v>
    <v>       0.58568516       0.47493584       0.42536241 </v>
    <v>       0.57162556       0.57505914       0.46257205 </v>
    <v>       0.47127634       0.61042311       0.44004844 </v>
    <v>       0.56972564       0.48807527       0.52249199 </v>
    <v>       0.49478731       0.57644950       0.53181321 </v>
    <v>       0.42074721       0.54078992       0.38437353 </v>
    <v>       0.52814800       0.55093204       0.37498940 </v>
    <v>       0.40154958       0.54904946       0.49072211 </v>
    <v>       0.46421210       0.47247224       0.54113065 </v>
    <v>       0.50138604       0.44571626       0.37402205 </v>
    <v>       0.52901492       0.51906055       0.60402242 </v>
    <v>       0.52099859       0.40792630       0.47576011 </v>
   </varray>
  </structure>
  <varray name="forces" >
   <v>      -0.01618219      -0.01407804      -0.02145331 </v>
   <v>      -0.01440288       0.00785083       0.02378925 </v>
   <v>       0.05594069       0.04844270      -0.06743533 </v>
   <v>       0.00593598      -0.01372628       0.02263340 </v>
   <v>       0.01892704      -0.01974261       0.02461431 </v>
   <v>      -0.01146252       0.01549867       0.03645041 </v>
   <v>      -0.00153123       0.00049981      -0.02346388 </v>
   <v>       0.00381234      -0.00647451       0.02668878 </v>
   <v>      -0.01433817      -0.00981746       0.05534028 </v>
   <v>      -0.02075973      -0.00627127       0.00010211 </v>
   <v>      -0.01708318       0.02333040      -0.05969793 </v>
   <v>       0.01083756      -0.00209864      -0.05536998 </v>
   <v>       0.00030629      -0.02341358       0.03780189 </v>
  </varray>
  <energy>
   <i name="e_fr_energy">    -32.46689849 </i>
   <i name="e_wo_entrp">    -32.45715928 </i>
   <i name="e_0_energy">    -32.46365208 </i>
  </energy>
  <time name="totalsc">   70.50   71.04</time>
 </calculation>
 <calculation>
  <scstep>
   <time name="dav">   10.63   10.64</time>
   <time name="total">   14.14   14.15</time>
   <energy>
    <i name="alphaZ">      9.53985614 </i>
    <i name="ewald">  25494.29580171 </i>
    <i name="hartreedc"> -41907.66216835 </i>
    <i name="XCdc">    574.85145358 </i>
    <i name="pawpsdc">  16746.93642261 </i>
    <i name="pawaedc"> -18141.68254417 </i>
    <i name="eentropy">     -0.00976974 </i>
    <i name="bandstr">   -891.18191475 </i>
    <i name="atom">  18082.44932260 </i>
    <i name="e_fr_energy">    -32.46354038 </i>
    <i name="e_wo_entrp">    -32.45377064 </i>
    <i name="e_0_energy">    -32.46028380 </i>
   </energy>
  </scstep>
  <scstep>
   <time name="dav">   13.42   13.44</time>
   <time name="total">   16.95   16.97</time>
   <energy>
    <i name="e_fr_energy">    -32.46818575 </i>
    <i name="e_wo_entrp">    -32.45819298 </i>
    <i name="e_0_energy">    -32.46485482 </i>
   </energy>
  </scstep>
  <scstep>
   <time name="dav">   10.96   10.97</time>
   <time name="total">   14.47   14.48</time>
   <energy>
    <i name="e_fr_energy">    -32.46796143 </i>
    <i name="e_wo_entrp">    -32.45800078 </i>
    <i name="e_0_energy">    -32.46464122 </i>
   </energy>
  </scstep>
  <scstep>
   <time name="dav">    7.76    7.77</time>
   <time name="total">   11.28   11.30</time>
   <energy>
    <i name="e_fr_energy">    -32.46782214 </i>
    <i name="e_wo_entrp">    -32.45777713 </i>
    <i name="e_0_energy">    -32.46447380 </i>
   </energy>
  </scstep>
  <scstep>
   <time name="dav">    8.21    8.22</time>
   <time name="total">   11.74   11.75</time>
   <energy>
    <i name="e_fr_energy">    -32.46752427 </i>
    <i name="e_wo_entrp">    -32.45734035 </i>
    <i name="e_0_energy">    -32.46412963 </i>
   </energy>
  </scstep>
  <scstep>
   <time name="dav">   11.95   11.97</time>
   <time name="total">   14.53   14.54</time>
   <energy>
    <i name="alphaZ">      9.53985614 </i>
    <i name="ewald">  25494.29580171 </i>
    <i name="hartreedc"> -41908.17905884 </i>
    <i name="XCdc">    574.87267353 </i>
    <i name="pawpsdc">  16742.18529732 </i>
    <i name="pawaedc"> -18136.91090567 </i>
    <i name="eentropy">     -0.01039609 </i>
    <i name="bandstr">   -890.71003059 </i>
    <i name="atom">  18082.44932260 </i>
    <i name="e_fr_energy">    -32.46743989 </i>
    <i name="e_wo_entrp">    -32.45704380 </i>
    <i name="e_0_energy">    -32.46397452 </i>
   </energy>
  </scstep>
  <structure>
   <crystal>
    <varray name="basis" >
     <v>      22.45060371       0.00000000       0.00000000 </v>
     <v>       0.00000000      22.41715980       0.00000000 </v>
     <v>       0.00000000       0.00000000      25.74236777 </v>
    </varray>
    <i name="volume">  12955.58721235 </i>
    <varray name="rec_basis" >
     <v>       0.04454223       0.00000000       0.00000000 </v>
     <v>       0.00000000       0.04460868       0.00000000 </v>
     <v>       0.00000000       0.00000000       0.03884647 </v>
    </varray>
   </crystal>
   <varray name="positions" >
    <v>       0.48542980       0.50339730       0.45208151 </v>
    <v>       0.58556290       0.47494605       0.42555193 </v>
    <v>       0.57169303       0.57509090       0.46234561 </v>
    <v>       0.47129254       0.61027567       0.44016734 </v>
    <v>       0.56986860       0.48797360       0.52241044 </v>
    <v>       0.49475689       0.57662484       0.53180504 </v>
    <v>       0.42067176       0.54099776       0.38417061 </v>
    <v>       0.52822748       0.55095375       0.37525766 </v>
    <v>       0.40160394       0.54905568       0.49094359 </v>
    <v>       0.46397261       0.47230872       0.54111058 </v>
    <v>       0.50144149       0.44569188       0.37366157 </v>
    <v>       0.52918592       0.51921148       0.60412161 </v>
    <v>       0.52110220       0.40792626       0.47597212 </v>
   </varray>
  </structure>
  <varray name="forces" >
   <v>      -0.02003110      -0.02377200       0.01686005 </v>
   <v>      -0.01311986      -0.01487133      -0.00328536 </v>
   <v>       0.04765385       0.04472285      -0.03915648 </v>
   <v>      -0.01252375      -0.00065592       0.01359251 </v>
   <v>      -0.02382017       0.01380882       0.05796790 </v>
   <v>       0.01109823      -0.03804976       0.04483919 </v>
   <v>       0.01509246      -0.00221345      -0.01638363 </v>
   <v>      -0.00646931      -0.01052002      -0.01100058 </v>
   <v>      -0.01738653      -0.01165851       0.05190608 </v>
   <v>       0.03688347       0.04090810       0.00318361 </v>
   <v>      -0.00610780       0.04504420      -0.03685150 </v>
   <v>      -0.00299653      -0.01359935      -0.11028912 </v>
   <v>      -0.00827296      -0.02914364       0.02861733 </v>
  </varray>
  <energy>
   <i name="e_fr_energy">    -32.46743989 </i>
   <i name="e_wo_entrp">    -32.45704380 </i>
   <i name="e_0_energy">    -32.46397452 </i>
  </energy>
  <time name="totalsc">   95.89   96.02</time>
 </calculation>
