unknown system                          
            1
    22.450604    0.000000    0.000000
     0.000000   22.417160    0.000000
     0.000000    0.000000   25.742368
   Cu
    13
Direct configuration=     1
   0.49186209  0.50812589  0.45635232
   0.58943352  0.47495491  0.42429429
   0.57503321  0.57883266  0.46174685
   0.47134953  0.61416108  0.43939285
   0.57072781  0.48893867  0.52036754
   0.49497508  0.57764948  0.53017713
   0.42106817  0.53283197  0.39016252
   0.52976178  0.55237580  0.37567753
   0.39938892  0.54770891  0.48664714
   0.46055990  0.47037999  0.53936673
   0.49489836  0.44575561  0.38098055
   0.52642863  0.51594349  0.60236653
   0.51932217  0.40679541  0.47206762
Direct configuration=     2
   0.49152692  0.50798808  0.45586614
   0.58879131  0.47532049  0.42446500
   0.57482032  0.57862144  0.46151852
   0.47158644  0.61346130  0.43943962
   0.57055559  0.48862973  0.52070516
   0.49471262  0.57744306  0.53056524
   0.42130458  0.53327101  0.38990551
   0.52941399  0.55198928  0.37581324
   0.39984219  0.54771547  0.48686263
   0.46109281  0.47076541  0.53944755
   0.49537201  0.44602792  0.38070382
   0.52641193  0.51603555  0.60200582
   0.51937846  0.40718513  0.47230138
Direct configuration=     3
   0.49072783  0.50765951  0.45470700
   0.58726019  0.47619209  0.42487199
   0.57431278  0.57811786  0.46097416
   0.47215127  0.61179293  0.43955115
   0.57014499  0.48789315  0.52151010
   0.49408689  0.57695093  0.53149054
   0.42186821  0.53431773  0.38929275
   0.52858480  0.55106778  0.37613678
   0.40092285  0.54773112  0.48737637
   0.46236334  0.47168431  0.53964021
   0.49650125  0.44667716  0.38004405
   0.52637211  0.51625505  0.60114583
   0.51951267  0.40811427  0.47285867
Direct configuration=     4
   0.49011858  0.50709343  0.45490330
   0.58683595  0.47648217  0.42509469
   0.57407988  0.57780310  0.46098127
   0.47234673  0.61129430  0.43968951
   0.57010014  0.48736602  0.52171083
   0.49366281  0.57694245  0.53176900
   0.42160756  0.53522953  0.38837779
   0.52833111  0.55084895  0.37561128
   0.40140381  0.54782865  0.48797548
   0.46287310  0.47201584  0.53956817
   0.49714951  0.44650276  0.37903861
   0.52666113  0.51652196  0.60151327
   0.51963886  0.40852472  0.47336642
Direct configuration=     5
   0.48941812  0.50644259  0.45512898
   0.58634818  0.47681569  0.42535072
   0.57381210  0.57744121  0.46098945
   0.47257145  0.61072100  0.43984858
   0.57004858  0.48675996  0.52194161
   0.49317523  0.57693271  0.53208915
   0.42130787  0.53627785  0.38732584
   0.52803943  0.55059736  0.37500710
   0.40195679  0.54794079  0.48866430
   0.46345920  0.47239701  0.53948533
   0.49789483  0.44630223  0.37788262
   0.52699342  0.51682885  0.60193573
   0.51978395  0.40899664  0.47395019
Direct configuration=     6
   0.48884787  0.50605442  0.45443703
   0.58641656  0.47661777  0.42525704
   0.57359046  0.57713275  0.46134623
   0.47243035  0.61080006  0.43983028
   0.57043819  0.48673294  0.52216415
   0.49325506  0.57731642  0.53222763
   0.42108931  0.53712004  0.38659181
   0.52790509  0.55057036  0.37449726
   0.40154302  0.54823421  0.48917311
   0.46336067  0.47212084  0.54001087
   0.49849348  0.44607628  0.37692523
   0.52749378  0.51720357  0.60283472
   0.51994532  0.40847423  0.47430425
Direct configuration=     7
   0.48840062  0.50574997  0.45389434
   0.58647020  0.47646253  0.42518357
   0.57341663  0.57689081  0.46162605
   0.47231968  0.61086207  0.43981592
   0.57074377  0.48671174  0.52233870
   0.49331767  0.57761736  0.53233624
   0.42091788  0.53778059  0.38601610
   0.52779973  0.55054918  0.37409738
   0.40121849  0.54846434  0.48957217
   0.46328339  0.47190423  0.54042306
   0.49896300  0.44589907  0.37617434
   0.52788621  0.51749747  0.60353980
   0.52007189  0.40806451  0.47458195
Direct configuration=     8
   0.48789541  0.50537066  0.45348981
   0.58636404  0.47609011  0.42507312
   0.57302767  0.57650539  0.46194178
   0.47205400  0.61086065  0.43977608
   0.57045779  0.48709798  0.52254837
   0.49369011  0.57727069  0.53234352
   0.42096006  0.53836003  0.38574836
   0.52778577  0.55057741  0.37415083
   0.40115160  0.54861006  0.48974711
   0.46363762  0.47211962  0.54070121
   0.49951732  0.44591891  0.37585096
   0.52804738  0.51776936  0.60348698
   0.52022039  0.40790301  0.47474147
Direct configuration=     9
   0.48709302  0.50476822  0.45284733
   0.58619544  0.47549863  0.42489771
   0.57240992  0.57589326  0.46244321
   0.47163203  0.61085840  0.43971280
   0.57000359  0.48771141  0.52288137
   0.49428160  0.57672011  0.53235509
   0.42102705  0.53928032  0.38532313
   0.52776361  0.55062223  0.37423573
   0.40104538  0.54884150  0.49002495
   0.46420022  0.47246170  0.54114299
   0.50039770  0.44595041  0.37533737
   0.52830335  0.51820117  0.60340309
   0.52045624  0.40764652  0.47499483
Direct configuration=    10
   0.48652846  0.50428646  0.45269217
   0.58601742  0.47522858  0.42502011
   0.57200651  0.57548457  0.46261891
   0.47145640  0.61072846  0.43981034
   0.56980014  0.48793431  0.52273956
   0.49453505  0.57650367  0.53210422
   0.42093368  0.53988516  0.38497934
   0.52790412  0.55075700  0.37445411
   0.40125505  0.54893621  0.49024051
   0.46432750  0.47254974  0.54114737
   0.50083466  0.44585260  0.37490152
   0.52855134  0.51852892  0.60364415
   0.52065883  0.40777821  0.47524727
Direct configuration=    11
   0.48589339  0.50374453  0.45251764
   0.58581717  0.47492481  0.42515780
   0.57155272  0.57502484  0.46281654
   0.47125885  0.61058230  0.43992007
   0.56957128  0.48818505  0.52258005
   0.49482014  0.57626020  0.53182203
   0.42082866  0.54056553  0.38459263
   0.52806218  0.55090859  0.37469976
   0.40149090  0.54904274  0.49048299
   0.46447067  0.47264878  0.54115231
   0.50132617  0.44574258  0.37441125
   0.52883030  0.51889758  0.60391532
   0.52088672  0.40792634  0.47553122
Direct configuration=    12
   0.48565272  0.50356426  0.45229122
   0.58568516  0.47493584  0.42536241
   0.57162556  0.57505914  0.46257205
   0.47127634  0.61042311  0.44004844
   0.56972564  0.48807527  0.52249199
   0.49478731  0.57644950  0.53181321
   0.42074721  0.54078992  0.38437353
   0.52814800  0.55093204  0.37498940
   0.40154958  0.54904946  0.49072211
   0.46421210  0.47247224  0.54113065
   0.50138604  0.44571626  0.37402205
   0.52901492  0.51906055  0.60402242
   0.52099859  0.40792630  0.47576011
Direct configuration=    13
   0.48542980  0.50339730  0.45208151
   0.58556290  0.47494605  0.42555193
   0.57169303  0.57509090  0.46234561
   0.47129254  0.61027567  0.44016734
   0.56986860  0.48797360  0.52241044
   0.49475689  0.57662484  0.53180504
   0.42067176  0.54099776  0.38417061
   0.52822748  0.55095375  0.37525766
   0.40160394  0.54905568  0.49094359
   0.46397261  0.47230872  0.54111058
   0.50144149  0.44569188  0.37366157
   0.52918592  0.51921148  0.60412161
   0.52110220  0.40792626  0.47597212
