   8   8   0   0
  0.1440986E+04  0.2390486E-08  0.2307204E-08  0.2090150E-08  0.5000000E-15
   1.0000000000000000E-004
  CAR 
 unknown system                          
      1.90151355    -12.71219580  301     -5.56867930      1.00000000
    -12.712  0.0000E+00  0.0000E+00  0.0000E+00  0.0000E+00
    -12.663  0.0000E+00  0.0000E+00  0.0000E+00  0.0000E+00
    -12.615  0.0000E+00  0.0000E+00  0.0000E+00  0.0000E+00
    -12.566  0.0000E+00  0.0000E+00  0.0000E+00  0.0000E+00
    -12.517  0.0000E+00  0.0000E+00  0.0000E+00  0.0000E+00
    -12.469  0.0000E+00  0.0000E+00  0.0000E+00  0.0000E+00
    -12.420  0.0000E+00  0.0000E+00  0.0000E+00  0.0000E+00
    -12.371  0.0000E+00  0.0000E+00  0.0000E+00  0.0000E+00
    -12.322 -0.3271E-29 -0.3271E-29 -0.1594E-30 -0.1594E-30
    -12.274 -0.1477E-27 -0.1477E-27 -0.7355E-29 -0.7355E-29
    -12.225 -0.6033E-26 -0.6033E-26 -0.3012E-27 -0.3012E-27
    -12.176 -0.2185E-24 -0.2185E-24 -0.1094E-25 -0.1094E-25
    -12.128 -0.7017E-23 -0.7017E-23 -0.3528E-24 -0.3528E-24
    -12.079 -0.1998E-21 -0.1998E-21 -0.1009E-22 -0.1009E-22
    -12.030 -0.5045E-20 -0.5045E-20 -0.2558E-21 -0.2558E-21
    -11.982 -0.1129E-18 -0.1129E-18 -0.5754E-20 -0.5754E-20
    -11.933 -0.2238E-17 -0.2238E-17 -0.1148E-18 -0.1148E-18
    -11.884 -0.3818E-16 -0.3818E-16 -0.1975E-17 -0.1975E-17
    -11.835 -0.5925E-15 -0.5925E-15 -0.3084E-16 -0.3084E-16
    -11.787 -0.8143E-14 -0.8143E-14 -0.4275E-15 -0.4275E-15
    -11.738 -0.9899E-13 -0.9899E-13 -0.5249E-14 -0.5249E-14
    -11.689 -0.1064E-11 -0.1064E-11 -0.5709E-13 -0.5709E-13
    -11.641 -0.1011E-10 -0.1011E-10 -0.5497E-12 -0.5497E-12
    -11.592 -0.8486E-10 -0.8486E-10 -0.4684E-11 -0.4684E-11
    -11.543 -0.6285E-09 -0.6285E-09 -0.3530E-10 -0.3530E-10
    -11.494 -0.4104E-08 -0.4104E-08 -0.2352E-09 -0.2352E-09
    -11.446 -0.2359E-07 -0.2359E-07 -0.1384E-08 -0.1384E-08
    -11.397 -0.1192E-06 -0.1192E-06 -0.7189E-08 -0.7189E-08
    -11.348 -0.5278E-06 -0.5278E-06 -0.3290E-07 -0.3290E-07
    -11.300 -0.2044E-05 -0.2044E-05 -0.1325E-06 -0.1325E-06
    -11.251 -0.6889E-05 -0.6889E-05 -0.4680E-06 -0.4680E-06
    -11.202 -0.2008E-04 -0.2008E-04 -0.1446E-05 -0.1446E-05
    -11.153 -0.5010E-04 -0.5010E-04 -0.3887E-05 -0.3887E-05
    -11.105 -0.1051E-03 -0.1051E-03 -0.9009E-05 -0.9009E-05
    -11.056 -0.1791E-03 -0.1791E-03 -0.1773E-04 -0.1773E-04
    -11.007 -0.2259E-03 -0.2259E-03 -0.2874E-04 -0.2874E-04
    -10.959 -0.1378E-03 -0.1378E-03 -0.3545E-04 -0.3545E-04
    -10.910  0.2379E-03  0.2379E-03 -0.2386E-04 -0.2386E-04
    -10.861  0.1013E-02  0.1013E-02  0.2550E-04  0.2550E-04
    -10.812  0.2131E-02  0.2131E-02  0.1293E-03  0.1293E-03
    -10.764  0.3296E-02  0.3296E-02  0.2899E-03  0.2899E-03
    -10.715  0.4070E-02  0.4070E-02  0.4881E-03  0.4881E-03
    -10.666  0.4114E-02  0.4114E-02  0.6885E-03  0.6885E-03
    -10.618  0.3403E-02  0.3403E-02  0.8543E-03  0.8543E-03
    -10.569  0.2242E-02  0.2242E-02  0.9636E-03  0.9636E-03
    -10.520  0.1060E-02  0.1060E-02  0.1015E-02  0.1015E-02
    -10.471  0.1644E-03  0.1644E-03  0.1023E-02  0.1023E-02
    -10.423 -0.3547E-03 -0.3547E-03  0.1006E-02  0.1006E-02
    -10.374 -0.5444E-03 -0.5444E-03  0.9794E-03  0.9794E-03
    -10.325 -0.4318E-03 -0.4318E-03  0.9584E-03  0.9584E-03
    -10.277  0.6132E-04  0.6132E-04  0.9614E-03  0.9614E-03
    -10.228  0.1063E-02  0.1063E-02  0.1013E-02  0.1013E-02
    -10.179  0.2597E-02  0.2597E-02  0.1140E-02  0.1140E-02
    -10.130  0.4445E-02  0.4445E-02  0.1356E-02  0.1356E-02
    -10.082  0.6147E-02  0.6147E-02  0.1656E-02  0.1656E-02
    -10.033  0.7168E-02  0.7168E-02  0.2005E-02  0.2005E-02
     -9.984  0.7154E-02  0.7154E-02  0.2353E-02  0.2353E-02
     -9.936  0.6111E-02  0.6111E-02  0.2651E-02  0.2651E-02
     -9.887  0.4403E-02  0.4403E-02  0.2865E-02  0.2865E-02
     -9.838  0.2573E-02  0.2573E-02  0.2991E-02  0.2991E-02
     -9.789  0.1084E-02  0.1084E-02  0.3044E-02  0.3044E-02
     -9.741  0.1533E-03  0.1533E-03  0.3051E-02  0.3051E-02
     -9.692 -0.2619E-03 -0.2619E-03  0.3038E-02  0.3038E-02
     -9.643 -0.3505E-03 -0.3505E-03  0.3021E-02  0.3021E-02
     -9.595 -0.3138E-03 -0.3138E-03  0.3006E-02  0.3006E-02
     -9.546 -0.2808E-03 -0.2808E-03  0.2992E-02  0.2992E-02
     -9.497 -0.2808E-03 -0.2808E-03  0.2979E-02  0.2979E-02
     -9.448 -0.2469E-03 -0.2469E-03  0.2967E-02  0.2967E-02
     -9.400 -0.3868E-04 -0.3868E-04  0.2965E-02  0.2965E-02
     -9.351  0.4924E-03  0.4924E-03  0.2989E-02  0.2989E-02
     -9.302  0.1391E-02  0.1391E-02  0.3056E-02  0.3056E-02
     -9.254  0.2501E-02  0.2501E-02  0.3178E-02  0.3178E-02
     -9.205  0.3497E-02  0.3497E-02  0.3349E-02  0.3349E-02
     -9.156  0.4075E-02  0.4075E-02  0.3547E-02  0.3547E-02
     -9.107  0.4171E-02  0.4171E-02  0.3750E-02  0.3750E-02
     -9.059  0.4012E-02  0.4012E-02  0.3946E-02  0.3946E-02
     -9.010  0.3937E-02  0.3937E-02  0.4137E-02  0.4137E-02
     -8.961  0.4182E-02  0.4182E-02  0.4341E-02  0.4341E-02
     -8.913  0.4801E-02  0.4801E-02  0.4575E-02  0.4575E-02
     -8.864  0.5737E-02  0.5737E-02  0.4855E-02  0.4855E-02
     -8.815  0.6853E-02  0.6853E-02  0.5188E-02  0.5188E-02
     -8.766  0.7892E-02  0.7892E-02  0.5573E-02  0.5573E-02
     -8.718  0.8509E-02  0.8509E-02  0.5987E-02  0.5987E-02
     -8.669  0.8487E-02  0.8487E-02  0.6401E-02  0.6401E-02
     -8.620  0.7958E-02  0.7958E-02  0.6788E-02  0.6788E-02
     -8.572  0.7371E-02  0.7371E-02  0.7147E-02  0.7147E-02
     -8.523  0.7174E-02  0.7174E-02  0.7497E-02  0.7497E-02
     -8.474  0.7496E-02  0.7496E-02  0.7862E-02  0.7862E-02
     -8.426  0.8090E-02  0.8090E-02  0.8256E-02  0.8256E-02
     -8.377  0.8549E-02  0.8549E-02  0.8673E-02  0.8673E-02
     -8.328  0.8598E-02  0.8598E-02  0.9091E-02  0.9091E-02
     -8.279  0.8272E-02  0.8272E-02  0.9494E-02  0.9494E-02
     -8.231  0.7882E-02  0.7882E-02  0.9878E-02  0.9878E-02
     -8.182  0.7807E-02  0.7807E-02  0.1026E-01  0.1026E-01
     -8.133  0.8226E-02  0.8226E-02  0.1066E-01  0.1066E-01
     -8.085  0.8952E-02  0.8952E-02  0.1110E-01  0.1110E-01
     -8.036  0.9465E-02  0.9465E-02  0.1156E-01  0.1156E-01
     -7.987  0.9172E-02  0.9172E-02  0.1200E-01  0.1200E-01
     -7.938  0.7761E-02  0.7761E-02  0.1238E-01  0.1238E-01
     -7.890  0.5479E-02  0.5479E-02  0.1265E-01  0.1265E-01
     -7.841  0.3160E-02  0.3160E-02  0.1280E-01  0.1280E-01
     -7.792  0.1950E-02  0.1950E-02  0.1290E-01  0.1290E-01
     -7.744  0.2817E-02  0.2817E-02  0.1303E-01  0.1303E-01
     -7.695  0.6039E-02  0.6039E-02  0.1333E-01  0.1333E-01
     -7.646  0.1093E-01  0.1093E-01  0.1386E-01  0.1386E-01
     -7.597  0.1605E-01  0.1605E-01  0.1464E-01  0.1464E-01
     -7.549  0.1982E-01  0.1982E-01  0.1561E-01  0.1561E-01
     -7.500  0.2131E-01  0.2131E-01  0.1665E-01  0.1665E-01
     -7.451  0.2068E-01  0.2068E-01  0.1765E-01  0.1765E-01
     -7.403  0.1895E-01  0.1895E-01  0.1858E-01  0.1858E-01
     -7.354  0.1742E-01  0.1742E-01  0.1943E-01  0.1943E-01
     -7.305  0.1703E-01  0.1703E-01  0.2026E-01  0.2026E-01
     -7.256  0.1788E-01  0.1788E-01  0.2113E-01  0.2113E-01
     -7.208  0.1927E-01  0.1927E-01  0.2206E-01  0.2206E-01
     -7.159  0.2015E-01  0.2015E-01  0.2305E-01  0.2305E-01
     -7.110  0.1969E-01  0.1969E-01  0.2401E-01  0.2401E-01
     -7.062  0.1765E-01  0.1765E-01  0.2487E-01  0.2487E-01
     -7.013  0.1444E-01  0.1444E-01  0.2557E-01  0.2557E-01
     -6.964  0.1075E-01  0.1075E-01  0.2609E-01  0.2609E-01
     -6.915  0.7353E-02  0.7353E-02  0.2645E-01  0.2645E-01
     -6.867  0.4949E-02  0.4949E-02  0.2669E-01  0.2669E-01
     -6.818  0.4201E-02  0.4201E-02  0.2690E-01  0.2690E-01
     -6.769  0.5552E-02  0.5552E-02  0.2717E-01  0.2717E-01
     -6.721  0.8956E-02  0.8956E-02  0.2760E-01  0.2760E-01
     -6.672  0.1376E-01  0.1376E-01  0.2827E-01  0.2827E-01
     -6.623  0.1897E-01  0.1897E-01  0.2920E-01  0.2920E-01
     -6.574  0.2363E-01  0.2363E-01  0.3035E-01  0.3035E-01
     -6.526  0.2713E-01  0.2713E-01  0.3167E-01  0.3167E-01
     -6.477  0.2915E-01  0.2915E-01  0.3309E-01  0.3309E-01
     -6.428  0.2946E-01  0.2946E-01  0.3453E-01  0.3453E-01
     -6.380  0.2791E-01  0.2791E-01  0.3588E-01  0.3588E-01
     -6.331  0.2458E-01  0.2458E-01  0.3708E-01  0.3708E-01
     -6.282  0.1995E-01  0.1995E-01  0.3805E-01  0.3805E-01
     -6.233  0.1481E-01  0.1481E-01  0.3878E-01  0.3878E-01
     -6.185  0.1009E-01  0.1009E-01  0.3927E-01  0.3927E-01
     -6.136  0.6508E-02  0.6508E-02  0.3958E-01  0.3958E-01
     -6.087  0.4517E-02  0.4517E-02  0.3980E-01  0.3980E-01
     -6.039  0.4274E-02  0.4274E-02  0.4001E-01  0.4001E-01
     -5.990  0.5629E-02  0.5629E-02  0.4029E-01  0.4029E-01
     -5.941  0.8038E-02  0.8038E-02  0.4068E-01  0.4068E-01
     -5.892  0.1059E-01  0.1059E-01  0.4119E-01  0.4119E-01
     -5.844  0.1231E-01  0.1231E-01  0.4179E-01  0.4179E-01
     -5.795  0.1257E-01  0.1257E-01  0.4241E-01  0.4241E-01
     -5.746  0.1137E-01  0.1137E-01  0.4296E-01  0.4296E-01
     -5.698  0.9160E-02  0.9160E-02  0.4341E-01  0.4341E-01
     -5.649  0.6560E-02  0.6560E-02  0.4373E-01  0.4373E-01
     -5.600  0.4094E-02  0.4094E-02  0.4392E-01  0.4392E-01
     -5.551  0.2094E-02  0.2094E-02  0.4403E-01  0.4403E-01
     -5.503  0.7142E-03  0.7142E-03  0.4406E-01  0.4406E-01
     -5.454 -0.5481E-04 -0.5481E-04  0.4406E-01  0.4406E-01
     -5.405 -0.3475E-03 -0.3475E-03  0.4404E-01  0.4404E-01
     -5.357 -0.3561E-03 -0.3561E-03  0.4402E-01  0.4402E-01
     -5.308 -0.2526E-03 -0.2526E-03  0.4401E-01  0.4401E-01
     -5.259 -0.1431E-03 -0.1431E-03  0.4401E-01  0.4401E-01
     -5.210 -0.6776E-04 -0.6776E-04  0.4400E-01  0.4400E-01
     -5.162 -0.2739E-04 -0.2739E-04  0.4400E-01  0.4400E-01
     -5.113 -0.9560E-05 -0.9560E-05  0.4400E-01  0.4400E-01
     -5.064 -0.2900E-05 -0.2900E-05  0.4400E-01  0.4400E-01
     -5.016 -0.7679E-06 -0.7679E-06  0.4400E-01  0.4400E-01
     -4.967 -0.1781E-06 -0.1781E-06  0.4400E-01  0.4400E-01
     -4.918 -0.3629E-07 -0.3629E-07  0.4400E-01  0.4400E-01
     -4.870 -0.6675E-08 -0.6675E-08  0.4400E-01  0.4400E-01
     -4.821 -0.2282E-08 -0.2282E-08  0.4400E-01  0.4400E-01
     -4.772 -0.7982E-08 -0.7982E-08  0.4400E-01  0.4400E-01
     -4.723 -0.4303E-07 -0.4303E-07  0.4400E-01  0.4400E-01
     -4.675 -0.2073E-06 -0.2073E-06  0.4400E-01  0.4400E-01
     -4.626 -0.8749E-06 -0.8749E-06  0.4400E-01  0.4400E-01
     -4.577 -0.3224E-05 -0.3224E-05  0.4400E-01  0.4400E-01
     -4.529 -0.1032E-04 -0.1032E-04  0.4400E-01  0.4400E-01
     -4.480 -0.2848E-04 -0.2848E-04  0.4400E-01  0.4400E-01
     -4.431 -0.6692E-04 -0.6692E-04  0.4399E-01  0.4399E-01
     -4.382 -0.1310E-03 -0.1310E-03  0.4399E-01  0.4399E-01
     -4.334 -0.2034E-03 -0.2034E-03  0.4398E-01  0.4398E-01
     -4.285 -0.2172E-03 -0.2172E-03  0.4397E-01  0.4397E-01
     -4.236 -0.4315E-04 -0.4315E-04  0.4397E-01  0.4397E-01
     -4.188  0.4703E-03  0.4703E-03  0.4399E-01  0.4399E-01
     -4.139  0.1388E-02  0.1388E-02  0.4406E-01  0.4406E-01
     -4.090  0.2569E-02  0.2569E-02  0.4418E-01  0.4418E-01
     -4.041  0.3643E-02  0.3643E-02  0.4436E-01  0.4436E-01
     -3.993  0.4177E-02  0.4177E-02  0.4456E-01  0.4456E-01
     -3.944  0.3926E-02  0.3926E-02  0.4475E-01  0.4475E-01
     -3.895  0.2993E-02  0.2993E-02  0.4490E-01  0.4490E-01
     -3.847  0.1757E-02  0.1757E-02  0.4498E-01  0.4498E-01
     -3.798  0.6357E-03  0.6357E-03  0.4502E-01  0.4502E-01
     -3.749 -0.1095E-03 -0.1095E-03  0.4501E-01  0.4501E-01
     -3.700 -0.3994E-03 -0.3994E-03  0.4499E-01  0.4499E-01
     -3.652 -0.2377E-03 -0.2377E-03  0.4498E-01  0.4498E-01
     -3.603  0.3590E-03  0.3590E-03  0.4500E-01  0.4500E-01
     -3.554  0.1321E-02  0.1321E-02  0.4506E-01  0.4506E-01
     -3.506  0.2447E-02  0.2447E-02  0.4518E-01  0.4518E-01
     -3.457  0.3432E-02  0.3432E-02  0.4535E-01  0.4535E-01
     -3.408  0.4064E-02  0.4064E-02  0.4555E-01  0.4555E-01
     -3.359  0.4420E-02  0.4420E-02  0.4576E-01  0.4576E-01
     -3.311  0.4839E-02  0.4839E-02  0.4600E-01  0.4600E-01
     -3.262  0.5619E-02  0.5619E-02  0.4627E-01  0.4627E-01
     -3.213  0.6679E-02  0.6679E-02  0.4660E-01  0.4660E-01
     -3.165  0.7516E-02  0.7516E-02  0.4696E-01  0.4696E-01
     -3.116  0.7539E-02  0.7539E-02  0.4733E-01  0.4733E-01
     -3.067  0.6499E-02  0.6499E-02  0.4765E-01  0.4765E-01
     -3.018  0.4672E-02  0.4672E-02  0.4787E-01  0.4787E-01
     -2.970  0.2667E-02  0.2667E-02  0.4800E-01  0.4800E-01
     -2.921  0.1046E-02  0.1046E-02  0.4805E-01  0.4805E-01
     -2.872  0.6977E-04  0.6976E-04  0.4806E-01  0.4806E-01
     -2.824 -0.3242E-03 -0.3242E-03  0.4804E-01  0.4804E-01
     -2.775 -0.3597E-03 -0.3597E-03  0.4802E-01  0.4802E-01
     -2.726 -0.2559E-03 -0.2559E-03  0.4801E-01  0.4801E-01
     -2.677 -0.1451E-03 -0.1451E-03  0.4800E-01  0.4800E-01
     -2.629 -0.7682E-04 -0.7682E-04  0.4800E-01  0.4800E-01
     -2.580 -0.5724E-04 -0.5724E-04  0.4800E-01  0.4800E-01
     -2.531 -0.8169E-04 -0.8169E-04  0.4799E-01  0.4799E-01
     -2.483 -0.1422E-03 -0.1422E-03  0.4799E-01  0.4799E-01
     -2.434 -0.2105E-03 -0.2105E-03  0.4798E-01  0.4798E-01
     -2.385 -0.2098E-03 -0.2098E-03  0.4797E-01  0.4797E-01
     -2.336 -0.3695E-05 -0.3694E-05  0.4797E-01  0.4797E-01
     -2.288  0.5563E-03  0.5563E-03  0.4799E-01  0.4799E-01
     -2.239  0.1517E-02  0.1517E-02  0.4807E-01  0.4807E-01
     -2.190  0.2707E-02  0.2707E-02  0.4820E-01  0.4820E-01
     -2.142  0.3741E-02  0.3741E-02  0.4838E-01  0.4838E-01
     -2.093  0.4194E-02  0.4194E-02  0.4859E-01  0.4859E-01
     -2.044  0.3862E-02  0.3862E-02  0.4877E-01  0.4877E-01
     -1.995  0.2895E-02  0.2895E-02  0.4892E-01  0.4892E-01
     -1.947  0.1700E-02  0.1700E-02  0.4900E-01  0.4900E-01
     -1.898  0.6843E-03  0.6843E-03  0.4903E-01  0.4903E-01
     -1.849  0.5781E-04  0.5781E-04  0.4903E-01  0.4903E-01
     -1.801 -0.1993E-03 -0.1993E-03  0.4902E-01  0.4902E-01
     -1.752 -0.2325E-03 -0.2325E-03  0.4901E-01  0.4901E-01
     -1.703 -0.1946E-03 -0.1946E-03  0.4900E-01  0.4900E-01
     -1.654 -0.1872E-03 -0.1872E-03  0.4899E-01  0.4899E-01
     -1.606 -0.2564E-03 -0.2564E-03  0.4898E-01  0.4898E-01
     -1.557 -0.3951E-03 -0.3951E-03  0.4896E-01  0.4896E-01
     -1.508 -0.5176E-03 -0.5176E-03  0.4894E-01  0.4894E-01
     -1.460 -0.4189E-03 -0.4189E-03  0.4892E-01  0.4892E-01
     -1.411  0.2225E-03  0.2225E-03  0.4893E-01  0.4893E-01
     -1.362  0.1727E-02  0.1727E-02  0.4901E-01  0.4901E-01
     -1.314  0.4180E-02  0.4180E-02  0.4922E-01  0.4922E-01
     -1.265  0.7197E-02  0.7197E-02  0.4957E-01  0.4957E-01
     -1.216  0.9922E-02  0.9922E-02  0.5005E-01  0.5005E-01
     -1.167  0.1136E-01  0.1136E-01  0.5060E-01  0.5060E-01
     -1.119  0.1095E-01  0.1095E-01  0.5114E-01  0.5114E-01
     -1.070  0.8916E-02  0.8916E-02  0.5157E-01  0.5157E-01
     -1.021  0.6234E-02  0.6234E-02  0.5187E-01  0.5187E-01
     -0.973  0.4022E-02  0.4022E-02  0.5207E-01  0.5207E-01
     -0.924  0.2915E-02  0.2915E-02  0.5221E-01  0.5221E-01
     -0.875  0.2799E-02  0.2799E-02  0.5235E-01  0.5235E-01
     -0.826  0.3095E-02  0.3095E-02  0.5250E-01  0.5250E-01
     -0.778  0.3330E-02  0.3330E-02  0.5266E-01  0.5266E-01
     -0.729  0.3529E-02  0.3529E-02  0.5283E-01  0.5283E-01
     -0.680  0.4096E-02  0.4096E-02  0.5303E-01  0.5303E-01
     -0.632  0.5305E-02  0.5305E-02  0.5329E-01  0.5329E-01
     -0.583  0.6863E-02  0.6863E-02  0.5363E-01  0.5363E-01
     -0.534  0.7972E-02  0.7972E-02  0.5401E-01  0.5401E-01
     -0.485  0.7867E-02  0.7867E-02  0.5440E-01  0.5440E-01
     -0.437  0.6392E-02  0.6392E-02  0.5471E-01  0.5471E-01
     -0.388  0.4131E-02  0.4131E-02  0.5491E-01  0.5491E-01
     -0.339  0.2029E-02  0.2029E-02  0.5501E-01  0.5501E-01
     -0.291  0.8599E-03  0.8599E-03  0.5505E-01  0.5505E-01
     -0.242  0.8824E-03  0.8824E-03  0.5509E-01  0.5509E-01
     -0.193  0.1817E-02  0.1817E-02  0.5518E-01  0.5518E-01
     -0.144  0.3043E-02  0.3043E-02  0.5533E-01  0.5533E-01
     -0.096  0.3895E-02  0.3895E-02  0.5552E-01  0.5552E-01
     -0.047  0.3964E-02  0.3964E-02  0.5571E-01  0.5571E-01
      0.002  0.3252E-02  0.3252E-02  0.5587E-01  0.5587E-01
      0.050  0.2116E-02  0.2116E-02  0.5597E-01  0.5597E-01
      0.099  0.1009E-02  0.1009E-02  0.5602E-01  0.5602E-01
      0.148  0.2367E-03  0.2367E-03  0.5604E-01  0.5604E-01
      0.197 -0.1381E-03 -0.1381E-03  0.5603E-01  0.5603E-01
      0.245 -0.2260E-03 -0.2260E-03  0.5602E-01  0.5602E-01
      0.294 -0.1791E-03 -0.1791E-03  0.5601E-01  0.5601E-01
      0.343 -0.1051E-03 -0.1051E-03  0.5600E-01  0.5600E-01
      0.391 -0.5010E-04 -0.5010E-04  0.5600E-01  0.5600E-01
      0.440 -0.2008E-04 -0.2008E-04  0.5600E-01  0.5600E-01
      0.489 -0.6889E-05 -0.6889E-05  0.5600E-01  0.5600E-01
      0.538 -0.2044E-05 -0.2044E-05  0.5600E-01  0.5600E-01
      0.586 -0.5278E-06 -0.5278E-06  0.5600E-01  0.5600E-01
      0.635 -0.1192E-06 -0.1192E-06  0.5600E-01  0.5600E-01
      0.684 -0.2359E-07 -0.2359E-07  0.5600E-01  0.5600E-01
      0.732 -0.4104E-08 -0.4104E-08  0.5600E-01  0.5600E-01
      0.781 -0.6285E-09 -0.6285E-09  0.5600E-01  0.5600E-01
      0.830 -0.8486E-10 -0.8486E-10  0.5600E-01  0.5600E-01
      0.879 -0.1011E-10 -0.1011E-10  0.5600E-01  0.5600E-01
      0.927 -0.1064E-11 -0.1064E-11  0.5600E-01  0.5600E-01
      0.976 -0.9899E-13 -0.9898E-13  0.5600E-01  0.5600E-01
      1.025 -0.8141E-14 -0.8141E-14  0.5600E-01  0.5600E-01
      1.073 -0.5926E-15 -0.5926E-15  0.5600E-01  0.5600E-01
      1.122 -0.3647E-16 -0.3647E-16  0.5600E-01  0.5600E-01
      1.171 -0.4558E-17 -0.4558E-17  0.5600E-01  0.5600E-01
      1.220  0.0000E+00  0.0000E+00  0.5600E-01  0.5600E-01
      1.268  0.0000E+00  0.0000E+00  0.5600E-01  0.5600E-01
      1.317  0.0000E+00  0.0000E+00  0.5600E-01  0.5600E-01
      1.366  0.0000E+00  0.0000E+00  0.5600E-01  0.5600E-01
      1.414  0.0000E+00  0.0000E+00  0.5600E-01  0.5600E-01
      1.463  0.0000E+00  0.0000E+00  0.5600E-01  0.5600E-01
      1.512  0.0000E+00  0.0000E+00  0.5600E-01  0.5600E-01
      1.561  0.0000E+00  0.0000E+00  0.5600E-01  0.5600E-01
      1.609  0.0000E+00  0.0000E+00  0.5600E-01  0.5600E-01
      1.658  0.0000E+00  0.0000E+00  0.5600E-01  0.5600E-01
      1.707  0.0000E+00  0.0000E+00  0.5600E-01  0.5600E-01
      1.755  0.0000E+00  0.0000E+00  0.5600E-01  0.5600E-01
      1.804  0.0000E+00  0.0000E+00  0.5600E-01  0.5600E-01
      1.853  0.0000E+00  0.0000E+00  0.5600E-01  0.5600E-01
      1.902  0.0000E+00  0.0000E+00  0.5600E-01  0.5600E-01
