    8    8 1000    2
  0.1440986E+04  0.2390486E-08  0.2307204E-08  0.2090150E-08  0.5000000E-15
   1.0000000000000000E-004
  CAR 
 unknown system                          
     88      1     56
 
  0.1262379E-14  0.1262379E-14  0.1262379E-14  0.1000000E+01
    1      -10.712196    -10.712196   1.000000   1.000000
    2      -10.091577    -10.091577   1.000000   1.000000
    3       -9.975750     -9.975750   1.000000   1.000000
    4       -9.177466     -9.177466   1.000000   1.000000
    5       -8.932605     -8.932605   1.000000   1.000000
    6       -8.741279     -8.741279   1.000000   1.000000
    7       -8.696583     -8.696583   1.000000   1.000000
    8       -8.509394     -8.509394   1.000000   1.000000
    9       -8.391191     -8.391191   1.000000   1.000000
   10       -8.295400     -8.295400   1.000000   1.000000
   11       -8.139325     -8.139325   1.000000   1.000000
   12       -8.023841     -8.023841   1.000000   1.000000
   13       -7.955194     -7.955194   1.000000   1.000000
   14       -7.602102     -7.602102   1.000000   1.000000
   15       -7.588200     -7.588200   1.000000   1.000000
   16       -7.586465     -7.586465   1.000000   1.000000
   17       -7.505720     -7.505720   1.000000   1.000000
   18       -7.497975     -7.497975   1.000000   1.000000
   19       -7.399201     -7.399201   1.000000   1.000000
   20       -7.376133     -7.376133   1.000000   1.000000
   21       -7.262570     -7.262570   1.000000   1.000000
   22       -7.202675     -7.202675   1.000000   1.000000
   23       -7.195083     -7.195083   1.000000   1.000000
   24       -7.137738     -7.137738   1.000000   1.000000
   25       -7.105770     -7.105770   1.000000   1.000000
   26       -7.031634     -7.031634   1.000000   1.000000
   27       -6.924444     -6.924444   1.000000   1.000000
   28       -6.683742     -6.683742   1.000000   1.000000
   29       -6.634870     -6.634870   1.000000   1.000000
   30       -6.626296     -6.626296   1.000000   1.000000
   31       -6.586182     -6.586182   1.000000   1.000000
   32       -6.505123     -6.505123   1.000000   1.000000
   33       -6.472388     -6.472388   1.000000   1.000000
   34       -6.464217     -6.464217   1.000000   1.000000
   35       -6.457998     -6.457998   1.000000   1.000000
   36       -6.404767     -6.404767   1.000000   1.000000
   37       -6.325376     -6.325376   1.000001   1.000001
   38       -6.318732     -6.318732   1.000001   1.000001
   39       -6.315962     -6.315962   1.000001   1.000001
   40       -6.140270     -6.140270   1.000202   1.000202
   41       -5.909719     -5.909719   1.018322   1.018322
   42       -5.870803     -5.870803   1.027176   1.027176
   43       -5.811732     -5.811732   1.035444   1.035444
   44       -5.688164     -5.688164   0.918855   0.918855
   45       -4.007506     -4.007506  -0.000000  -0.000000
   46       -3.432999     -3.432999  -0.000000  -0.000000
   47       -3.197216     -3.197216  -0.000000  -0.000000
   48       -3.113665     -3.113665  -0.000000  -0.000000
   49       -2.113356     -2.113356  -0.000000  -0.000000
   50       -1.239034     -1.239034  -0.000000  -0.000000
   51       -1.159318     -1.159318  -0.000000  -0.000000
   52       -1.137007     -1.137007  -0.000000  -0.000000
   53       -0.827756     -0.827757  -0.000000  -0.000000
   54       -0.536068     -0.536068  -0.000000  -0.000000
   55       -0.529616     -0.529617  -0.000000  -0.000000
   56       -0.098486     -0.098487   0.000000   0.000000
