       N       E                     dE             d eps       ncg     rms          rms(c)
DAV:   1     0.748562407159E+03    0.74856E+03   -0.13343E+04   224   0.707E+02
DAV:   2     0.463087966591E+03   -0.28547E+03   -0.26759E+03   424   0.766E+01
DAV:   3     0.134742882603E+03   -0.32835E+03   -0.30934E+03   416   0.680E+01
DAV:   4     0.722576118666E+01   -0.12752E+03   -0.12324E+03   320   0.529E+01
DAV:   5    -0.139437859666E+02   -0.21170E+02   -0.19466E+02   320   0.201E+01    0.221E+01
DAV:   6    -0.648681599652E+01    0.74570E+01   -0.44259E+01   224   0.171E+01    0.148E+01
DAV:   7    -0.392044569545E+01    0.25664E+01   -0.23920E+00   248   0.492E+00    0.651E+00
DAV:   8    -0.757457833814E+01   -0.36541E+01   -0.12319E+00   256   0.314E+00    0.217E+00
DAV:   9    -0.964359259111E+01   -0.20690E+01   -0.44317E-01   256   0.188E+00    0.114E+00
DAV:  10    -0.118332994229E+02   -0.21897E+01   -0.62121E-01   240   0.210E+00    0.771E-01
DAV:  11    -0.130494579760E+02   -0.12162E+01   -0.25479E-01   232   0.119E+00    0.560E-01
DAV:  12    -0.140311686317E+02   -0.98171E+00   -0.20117E-01   240   0.107E+00    0.400E-01
DAV:  13    -0.144476765093E+02   -0.41651E+00   -0.50870E-02   240   0.589E-01    0.296E-01
DAV:  14    -0.145944910979E+02   -0.14681E+00   -0.88248E-03   240   0.290E-01    0.226E-01
DAV:  15    -0.147952718110E+02   -0.20078E+00   -0.13224E-02   232   0.307E-01    0.155E-01
DAV:  16    -0.149550684307E+02   -0.15980E+00   -0.66820E-03   232   0.244E-01    0.995E-02
DAV:  17    -0.150241752421E+02   -0.69107E-01   -0.18984E-03   224   0.108E-01    0.643E-02
DAV:  18    -0.150842435862E+02   -0.60068E-01   -0.98030E-04   224   0.914E-02    0.355E-02
DAV:  19    -0.150992237881E+02   -0.14980E-01   -0.22948E-04   200   0.376E-02    0.207E-02
DAV:  20    -0.151088754149E+02   -0.96516E-02   -0.12196E-04   176   0.236E-02    0.139E-02
DAV:  21    -0.151168735244E+02   -0.79981E-02   -0.73465E-05   176   0.174E-02    0.803E-03
DAV:  22    -0.151218631051E+02   -0.49896E-02   -0.35751E-05   168   0.121E-02    0.522E-03
DAV:  23    -0.151243049489E+02   -0.24418E-02   -0.14255E-05   176   0.853E-03    0.346E-03
DAV:  24    -0.151258840718E+02   -0.15791E-02   -0.87131E-06   152   0.667E-03    0.199E-03
DAV:  25    -0.151266097517E+02   -0.72568E-03   -0.45016E-06   168   0.493E-03    0.123E-03
DAV:  26    -0.151268717510E+02   -0.26200E-03   -0.17556E-06   160   0.300E-03    0.796E-04
DAV:  27    -0.151269896606E+02   -0.11791E-03   -0.89911E-07   144   0.220E-03    0.431E-04
DAV:  28    -0.151270508039E+02   -0.61143E-04   -0.44261E-07   144   0.145E-03
   1 F= -.15127051E+02 E0= -.15129434E+02  d E =-.151271E+02  mag=     1.8555
       N       E                     dE             d eps       ncg     rms          rms(c)
DAV:   1    -0.154019967060E+02   -0.27501E+00   -0.40149E+02   224   0.705E+01    0.486E+00
DAV:   2    -0.157736130410E+02   -0.37162E+00   -0.39724E+00   240   0.956E+00    0.321E+00
DAV:   3    -0.157494448327E+02    0.24168E-01   -0.26655E-01   240   0.216E+00    0.168E+00
DAV:   4    -0.157483548066E+02    0.10900E-02   -0.30469E-02   248   0.897E-01    0.364E-01
DAV:   5    -0.157458623674E+02    0.24924E-02   -0.11478E-02   232   0.376E-01    0.179E-01
DAV:   6    -0.157467288886E+02   -0.86652E-03   -0.39937E-03   240   0.194E-01    0.534E-02
DAV:   7    -0.157473659505E+02   -0.63706E-03   -0.99847E-05   160   0.440E-02    0.296E-02
DAV:   8    -0.157483330312E+02   -0.96708E-03   -0.51859E-05   160   0.255E-02    0.172E-02
DAV:   9    -0.157492267273E+02   -0.89370E-03   -0.21498E-05   168   0.157E-02    0.971E-03
DAV:  10    -0.157499756421E+02   -0.74891E-03   -0.16617E-05   160   0.117E-02    0.739E-03
DAV:  11    -0.157514614263E+02   -0.14858E-02   -0.34314E-05   168   0.136E-02    0.618E-03
DAV:  12    -0.157526238203E+02   -0.11624E-02   -0.30492E-05   152   0.122E-02    0.436E-03
DAV:  13    -0.157532332282E+02   -0.60941E-03   -0.14531E-05   168   0.906E-03    0.259E-03
DAV:  14    -0.157537630895E+02   -0.52986E-03   -0.13052E-05   152   0.805E-03    0.174E-03
DAV:  15    -0.157541011615E+02   -0.33807E-03   -0.85788E-06   176   0.631E-03    0.124E-03
DAV:  16    -0.157543022595E+02   -0.20110E-03   -0.44135E-06   152   0.458E-03    0.885E-04
DAV:  17    -0.157545075944E+02   -0.20533E-03   -0.48240E-06   160   0.417E-03    0.507E-04
DAV:  18    -0.157545647367E+02   -0.57142E-04   -0.20993E-06   160   0.298E-03
   2 F= -.15754565E+02 E0= -.15752552E+02  d E =-.627514E+00  mag=     1.7451
       N       E                     dE             d eps       ncg     rms          rms(c)
DAV:   1    -0.157522838051E+02    0.22238E-02   -0.14422E+01   224   0.131E+01    0.781E-01
DAV:   2    -0.157668486321E+02   -0.14565E-01   -0.15987E-01   256   0.190E+00    0.463E-01
DAV:   3    -0.157658259572E+02    0.10227E-02   -0.94391E-03   232   0.421E-01    0.280E-01
DAV:   4    -0.157653396708E+02    0.48629E-03   -0.14645E-03   248   0.175E-01    0.624E-02
DAV:   5    -0.157652920840E+02    0.47587E-04   -0.34185E-04   224   0.680E-02
   3 F= -.15765292E+02 E0= -.15762593E+02  d E =-.638241E+00  mag=     1.7360
       N       E                     dE             d eps       ncg     rms          rms(c)
DAV:   1    -0.157810126633E+02   -0.15673E-01   -0.97475E+00   232   0.108E+01    0.323E-01
DAV:   2    -0.157903691678E+02   -0.93565E-02   -0.11094E-01   232   0.162E+00    0.253E-01
DAV:   3    -0.157895944395E+02    0.77473E-03   -0.34567E-03   256   0.285E-01    0.155E-01
DAV:   4    -0.157886869548E+02    0.90748E-03   -0.92463E-04   232   0.119E-01    0.751E-02
DAV:   5    -0.157884655364E+02    0.22142E-03   -0.16709E-04   160   0.538E-02    0.247E-02
DAV:   6    -0.157886314236E+02   -0.16589E-03   -0.27679E-05   160   0.234E-02    0.166E-02
DAV:   7    -0.157889908524E+02   -0.35943E-03   -0.26258E-05   152   0.182E-02    0.711E-03
DAV:   8    -0.157892490891E+02   -0.25824E-03   -0.64057E-06   160   0.972E-03    0.475E-03
DAV:   9    -0.157896082854E+02   -0.35920E-03   -0.68094E-06   144   0.728E-03    0.393E-03
DAV:  10    -0.157899471076E+02   -0.33882E-03   -0.49558E-06   160   0.527E-03    0.329E-03
DAV:  11    -0.157907051051E+02   -0.75800E-03   -0.23308E-05   160   0.980E-03    0.205E-03
DAV:  12    -0.157909917704E+02   -0.28667E-03   -0.85659E-06   176   0.621E-03    0.141E-03
DAV:  13    -0.157911450059E+02   -0.15324E-03   -0.40535E-06   160   0.432E-03    0.811E-04
DAV:  14    -0.157912534855E+02   -0.10848E-03   -0.21780E-06   160   0.318E-03    0.557E-04
DAV:  15    -0.157913419257E+02   -0.88440E-04   -0.15680E-06   168   0.245E-03
   4 F= -.15791342E+02 E0= -.15787375E+02  d E =-.260498E-01  mag=     1.6840
       N       E                     dE             d eps       ncg     rms          rms(c)
DAV:   1    -0.157985324081E+02   -0.72789E-02   -0.12563E+01   224   0.123E+01    0.367E-01
DAV:   2    -0.158109439230E+02   -0.12412E-01   -0.14283E-01   256   0.184E+00    0.290E-01
DAV:   3    -0.158100632180E+02    0.88070E-03   -0.44637E-03   248   0.325E-01    0.178E-01
DAV:   4    -0.158089580061E+02    0.11052E-02   -0.11899E-03   240   0.135E-01    0.867E-02
DAV:   5    -0.158085877679E+02    0.37024E-03   -0.21977E-04   160   0.619E-02    0.280E-02
DAV:   6    -0.158086970782E+02   -0.10931E-03   -0.35172E-05   152   0.268E-02    0.186E-02
DAV:   7    -0.158089805733E+02   -0.28350E-03   -0.31200E-05   152   0.203E-02    0.743E-03
DAV:   8    -0.158091684358E+02   -0.18786E-03   -0.69596E-06   160   0.107E-02    0.442E-03
DAV:   9    -0.158094201840E+02   -0.25175E-03   -0.60720E-06   152   0.744E-03    0.348E-03
DAV:  10    -0.158096338431E+02   -0.21366E-03   -0.30620E-06   160   0.470E-03    0.300E-03
DAV:  11    -0.158101694327E+02   -0.53559E-03   -0.15564E-05   168   0.799E-03    0.207E-03
DAV:  12    -0.158104369582E+02   -0.26753E-03   -0.73110E-06   168   0.564E-03    0.139E-03
DAV:  13    -0.158106045641E+02   -0.16761E-03   -0.41574E-06   160   0.426E-03    0.840E-04
DAV:  14    -0.158107177579E+02   -0.11319E-03   -0.24298E-06   168   0.323E-03    0.555E-04
DAV:  15    -0.158107968886E+02   -0.79131E-04   -0.12831E-06   160   0.243E-03
   5 F= -.15810797E+02 E0= -.15805654E+02  d E =-.455048E-01  mag=     1.6395
       N       E                     dE             d eps       ncg     rms          rms(c)
DAV:   1    -0.157700997281E+02    0.40618E-01   -0.50352E+01   224   0.247E+01    0.750E-01
DAV:   2    -0.158194226649E+02   -0.49323E-01   -0.57023E-01   256   0.367E+00    0.586E-01
DAV:   3    -0.158164232096E+02    0.29995E-02   -0.17975E-02   248   0.653E-01    0.356E-01
DAV:   4    -0.158128487260E+02    0.35745E-02   -0.47545E-03   240   0.272E-01    0.175E-01
DAV:   5    -0.158118416301E+02    0.10071E-02   -0.96351E-04   248   0.120E-01    0.607E-02
DAV:   6    -0.158121856083E+02   -0.34398E-03   -0.63398E-05   168   0.339E-02    0.385E-02
DAV:   7    -0.158131929385E+02   -0.10073E-02   -0.16165E-04   160   0.452E-02    0.136E-02
DAV:   8    -0.158138436031E+02   -0.65066E-03   -0.26931E-05   168   0.228E-02    0.905E-03
DAV:   9    -0.158145355298E+02   -0.69193E-03   -0.17424E-05   160   0.140E-02    0.775E-03
DAV:  10    -0.158154518942E+02   -0.91636E-03   -0.16882E-05   160   0.106E-02    0.621E-03
DAV:  11    -0.158171905686E+02   -0.17387E-02   -0.65344E-05   168   0.183E-02    0.433E-03
DAV:  12    -0.158179035735E+02   -0.71300E-03   -0.26134E-05   176   0.110E-02    0.308E-03
DAV:  13    -0.158183330904E+02   -0.42952E-03   -0.11247E-05   160   0.768E-03    0.182E-03
DAV:  14    -0.158186751708E+02   -0.34208E-03   -0.84052E-06   160   0.621E-03    0.123E-03
DAV:  15    -0.158189067502E+02   -0.23158E-03   -0.44461E-06   160   0.460E-03    0.789E-04
DAV:  16    -0.158190396520E+02   -0.13290E-03   -0.24664E-06   160   0.341E-03    0.506E-04
DAV:  17    -0.158191510591E+02   -0.11141E-03   -0.20730E-06   168   0.277E-03    0.314E-04
DAV:  18    -0.158191827942E+02   -0.31735E-04   -0.78877E-07   160   0.191E-03
   6 F= -.15819183E+02 E0= -.15811708E+02  d E =-.538907E-01  mag=     1.5402
       N       E                     dE             d eps       ncg     rms          rms(c)
DAV:   1    -0.158164647011E+02    0.26864E-02   -0.47383E+00   224   0.756E+00    0.230E-01
DAV:   2    -0.158211441001E+02   -0.46794E-02   -0.54056E-02   240   0.113E+00    0.181E-01
DAV:   3    -0.158207760613E+02    0.36804E-03   -0.17147E-03   248   0.202E-01    0.110E-01
DAV:   4    -0.158202004794E+02    0.57558E-03   -0.45456E-04   248   0.846E-02    0.537E-02
DAV:   5    -0.158199536632E+02    0.24682E-03   -0.85908E-05   160   0.400E-02    0.171E-02
DAV:   6    -0.158199894623E+02   -0.35799E-04   -0.13924E-05   160   0.169E-02
   7 F= -.15819989E+02 E0= -.15812930E+02  d E =-.546974E-01  mag=     1.5520
       N       E                     dE             d eps       ncg     rms          rms(c)
DAV:   1    -0.158311669751E+02   -0.11213E-01   -0.52696E+00   224   0.796E+00    0.175E-01
DAV:   2    -0.158370169228E+02   -0.58499E-02   -0.58790E-02   248   0.118E+00    0.160E-01
DAV:   3    -0.158370429609E+02   -0.26038E-04   -0.16440E-03   256   0.197E-01    0.107E-01
DAV:   4    -0.158368924061E+02    0.15055E-03   -0.37299E-04   200   0.709E-02    0.637E-02
DAV:   5    -0.158365940220E+02    0.29838E-03   -0.28886E-04   200   0.624E-02    0.222E-02
DAV:   6    -0.158366006594E+02   -0.66374E-05   -0.20346E-05   144   0.211E-02
   8 F= -.15836601E+02 E0= -.15829074E+02  d E =-.166112E-01  mag=     1.5435
       N       E                     dE             d eps       ncg     rms          rms(c)
DAV:   1    -0.158266778735E+02    0.99161E-02   -0.47483E+01   224   0.239E+01    0.552E-01
DAV:   2    -0.158722489385E+02   -0.45571E-01   -0.53153E-01   240   0.353E+00    0.484E-01
DAV:   3    -0.158691889181E+02    0.30600E-02   -0.14960E-02   248   0.594E-01    0.318E-01
DAV:   4    -0.158646696127E+02    0.45193E-02   -0.32786E-03   248   0.213E-01    0.188E-01
DAV:   5    -0.158621261350E+02    0.25435E-02   -0.20448E-03   256   0.156E-01    0.687E-02
DAV:   6    -0.158624004842E+02   -0.27435E-03   -0.48071E-05   168   0.325E-02    0.492E-02
DAV:   7    -0.158639365376E+02   -0.15361E-02   -0.14817E-04   168   0.421E-02    0.207E-02
DAV:   8    -0.158651022146E+02   -0.11657E-02   -0.45806E-05   152   0.263E-02    0.137E-02
DAV:   9    -0.158664400545E+02   -0.13378E-02   -0.34387E-05   168   0.186E-02    0.125E-02
DAV:  10    -0.158687815783E+02   -0.23415E-02   -0.68537E-05   160   0.210E-02    0.925E-03
DAV:  11    -0.158715588381E+02   -0.27773E-02   -0.14199E-04   168   0.284E-02    0.529E-03
DAV:  12    -0.158727690356E+02   -0.12102E-02   -0.57282E-05   168   0.180E-02    0.376E-03
DAV:  13    -0.158733882096E+02   -0.61917E-03   -0.21484E-05   168   0.109E-02    0.237E-03
DAV:  14    -0.158738748967E+02   -0.48669E-03   -0.10388E-05   168   0.744E-03    0.154E-03
DAV:  15    -0.158742368851E+02   -0.36199E-03   -0.58383E-06   168   0.545E-03    0.981E-04
DAV:  16    -0.158744324127E+02   -0.19553E-03   -0.35283E-06   168   0.412E-03    0.658E-04
DAV:  17    -0.158745829830E+02   -0.15057E-03   -0.20703E-06   160   0.305E-03    0.414E-04
DAV:  18    -0.158746545199E+02   -0.71537E-04   -0.13813E-06   168   0.226E-03
   9 F= -.15874655E+02 E0= -.15863993E+02  d E =-.546651E-01  mag=     1.3826
       N       E                     dE             d eps       ncg     rms          rms(c)
DAV:   1    -0.156993789071E+02    0.17520E+00   -0.19154E+02   224   0.484E+01    0.122E+00
DAV:   2    -0.158851872410E+02   -0.18581E+00   -0.21146E+00   240   0.703E+00    0.100E+00
DAV:   3    -0.158754059414E+02    0.97813E-02   -0.60766E-02   248   0.119E+00    0.640E-01
DAV:   4    -0.158605101759E+02    0.14896E-01   -0.14631E-02   248   0.450E-01    0.362E-01
DAV:   5    -0.158548582366E+02    0.56519E-02   -0.61976E-03   240   0.275E-01    0.132E-01
DAV:   6    -0.158557960822E+02   -0.93785E-03   -0.19883E-04   192   0.616E-02    0.906E-02
DAV:   7    -0.158597411303E+02   -0.39450E-02   -0.61903E-04   240   0.816E-02    0.361E-02
DAV:   8    -0.158623130662E+02   -0.25719E-02   -0.56938E-05   168   0.266E-02    0.266E-02
DAV:   9    -0.158650980273E+02   -0.27850E-02   -0.65071E-05   160   0.226E-02    0.240E-02
DAV:  10    -0.158705001977E+02   -0.54022E-02   -0.15722E-04   160   0.352E-02    0.193E-02
DAV:  11    -0.158785894387E+02   -0.80892E-02   -0.61304E-04   184   0.646E-02    0.110E-02
DAV:  12    -0.158815177646E+02   -0.29283E-02   -0.12875E-04   168   0.293E-02    0.860E-03
DAV:  13    -0.158834081838E+02   -0.18904E-02   -0.62404E-05   168   0.197E-02    0.584E-03
DAV:  14    -0.158847696728E+02   -0.13615E-02   -0.48940E-05   168   0.183E-02    0.376E-03
DAV:  15    -0.158856863947E+02   -0.91672E-03   -0.21445E-05   168   0.120E-02    0.219E-03
DAV:  16    -0.158863320905E+02   -0.64570E-03   -0.10753E-05   152   0.779E-03    0.150E-03
DAV:  17    -0.158866902328E+02   -0.35814E-03   -0.70252E-06   168   0.575E-03    0.117E-03
DAV:  18    -0.158868257806E+02   -0.13555E-03   -0.27965E-06   160   0.377E-03    0.696E-04
DAV:  19    -0.158869466089E+02   -0.12083E-03   -0.30766E-06   160   0.334E-03    0.567E-04
DAV:  20    -0.158870031575E+02   -0.56549E-04   -0.12861E-06   160   0.241E-03
  10 F= -.15887003E+02 E0= -.15871690E+02  d E =-.670137E-01  mag=     1.0320
       N       E                     dE             d eps       ncg     rms          rms(c)
DAV:   1    -0.158642514553E+02    0.22695E-01   -0.29315E+01   224   0.188E+01    0.451E-01
DAV:   2    -0.158937450927E+02   -0.29494E-01   -0.32803E-01   240   0.277E+00    0.399E-01
DAV:   3    -0.158920067236E+02    0.17384E-02   -0.93071E-03   248   0.470E-01    0.265E-01
DAV:   4    -0.158888854592E+02    0.31213E-02   -0.23348E-03   240   0.181E-01    0.148E-01
DAV:   5    -0.158868916249E+02    0.19938E-02   -0.12008E-03   256   0.124E-01    0.546E-02
DAV:   6    -0.158868658590E+02    0.25766E-04   -0.33779E-05   160   0.267E-02
  11 F= -.15886866E+02 E0= -.15871697E+02  d E =-.668764E-01  mag=     1.0694
       N       E                     dE             d eps       ncg     rms          rms(c)
DAV:   1    -0.158944598049E+02   -0.75682E-02   -0.76591E+00   224   0.956E+00    0.211E-01
DAV:   2    -0.159033985181E+02   -0.89387E-02   -0.86069E-02   232   0.141E+00    0.168E-01
DAV:   3    -0.159038847729E+02   -0.48625E-03   -0.25356E-03   256   0.237E-01    0.118E-01
DAV:   4    -0.159047323570E+02   -0.84758E-03   -0.56290E-04   232   0.897E-02    0.598E-02
DAV:   5    -0.159057791304E+02   -0.10468E-02   -0.35813E-04   184   0.728E-02    0.219E-02
DAV:   6    -0.159059799581E+02   -0.20083E-03   -0.32248E-05   160   0.282E-02    0.148E-02
DAV:   7    -0.159062286201E+02   -0.24866E-03   -0.13989E-05   136   0.143E-02    0.661E-03
DAV:   8    -0.159063862455E+02   -0.15763E-03   -0.35057E-06   152   0.804E-03    0.424E-03
DAV:   9    -0.159066569038E+02   -0.27066E-03   -0.41959E-06   144   0.675E-03    0.345E-03
DAV:  10    -0.159068790478E+02   -0.22214E-03   -0.22199E-06   160   0.412E-03    0.303E-03
DAV:  11    -0.159072222296E+02   -0.34318E-03   -0.54930E-06   144   0.521E-03    0.239E-03
DAV:  12    -0.159076289585E+02   -0.40673E-03   -0.10391E-05   168   0.654E-03    0.179E-03
DAV:  13    -0.159078776637E+02   -0.24871E-03   -0.96040E-06   176   0.634E-03    0.119E-03
DAV:  14    -0.159079368133E+02   -0.59150E-04   -0.48224E-06   176   0.460E-03
  12 F= -.15907937E+02 E0= -.15893476E+02  d E =-.210710E-01  mag=     1.1189
       N       E                     dE             d eps       ncg     rms          rms(c)
DAV:   1    -0.158662269795E+02    0.41651E-01   -0.69141E+01   224   0.288E+01    0.649E-01
DAV:   2    -0.159371863110E+02   -0.70959E-01   -0.77654E-01   240   0.422E+00    0.518E-01
DAV:   3    -0.159330999970E+02    0.40863E-02   -0.22673E-02   248   0.711E-01    0.357E-01
DAV:   4    -0.159276629689E+02    0.54370E-02   -0.49160E-03   264   0.266E-01    0.184E-01
DAV:   5    -0.159242522398E+02    0.34107E-02   -0.30866E-03   256   0.207E-01    0.716E-02
DAV:   6    -0.159243527630E+02   -0.10052E-03   -0.11517E-04   168   0.531E-02    0.487E-02
DAV:   7    -0.159250830359E+02   -0.73027E-03   -0.19895E-04   168   0.501E-02    0.205E-02
DAV:   8    -0.159255113155E+02   -0.42828E-03   -0.33133E-05   168   0.265E-02    0.156E-02
DAV:   9    -0.159262558326E+02   -0.74452E-03   -0.33072E-05   152   0.191E-02    0.138E-02
DAV:  10    -0.159276752650E+02   -0.14194E-02   -0.48941E-05   160   0.199E-02    0.114E-02
DAV:  11    -0.159300696175E+02   -0.23944E-02   -0.16094E-04   160   0.352E-02    0.853E-03
DAV:  12    -0.159315285915E+02   -0.14590E-02   -0.90817E-05   168   0.243E-02    0.630E-03
DAV:  13    -0.159327688057E+02   -0.12402E-02   -0.63383E-05   168   0.203E-02    0.394E-03
DAV:  14    -0.159334267816E+02   -0.65798E-03   -0.30235E-05   168   0.145E-02    0.274E-03
DAV:  15    -0.159340143036E+02   -0.58752E-03   -0.14818E-05   168   0.973E-03    0.182E-03
DAV:  16    -0.159344712678E+02   -0.45696E-03   -0.10342E-05   168   0.724E-03    0.137E-03
DAV:  17    -0.159346899912E+02   -0.21872E-03   -0.70435E-06   168   0.585E-03    0.953E-04
DAV:  18    -0.159347825370E+02   -0.92546E-04   -0.35383E-06   160   0.428E-03
  13 F= -.15934783E+02 E0= -.15918349E+02  d E =-.479167E-01  mag=     0.9022
       N       E                     dE             d eps       ncg     rms          rms(c)
DAV:   1    -0.156334138966E+02    0.30128E+00   -0.28054E+02   224   0.586E+01    0.142E+00
DAV:   2    -0.159135356552E+02   -0.28012E+00   -0.30831E+00   240   0.843E+00    0.110E+00
DAV:   3    -0.158984367519E+02    0.15099E-01   -0.91295E-02   248   0.143E+00    0.733E-01
DAV:   4    -0.158789010033E+02    0.19536E-01   -0.22065E-02   248   0.561E-01    0.371E-01
DAV:   5    -0.158695199619E+02    0.93810E-02   -0.96569E-03   240   0.384E-01    0.145E-01
DAV:   6    -0.158700498904E+02   -0.52993E-03   -0.52050E-04   256   0.110E-01    0.955E-02
DAV:   7    -0.158725559671E+02   -0.25061E-02   -0.60439E-04   240   0.811E-02    0.419E-02
DAV:   8    -0.158741952696E+02   -0.16393E-02   -0.57724E-05   168   0.334E-02    0.332E-02
DAV:   9    -0.158763997973E+02   -0.22045E-02   -0.62620E-05   152   0.238E-02    0.302E-02
DAV:  10    -0.158821936438E+02   -0.57938E-02   -0.25038E-04   160   0.455E-02    0.252E-02
DAV:  11    -0.158899739409E+02   -0.77803E-02   -0.62676E-04   200   0.691E-02    0.194E-02
DAV:  12    -0.158940813487E+02   -0.41074E-02   -0.22839E-04   152   0.430E-02    0.158E-02
DAV:  13    -0.158983123799E+02   -0.42310E-02   -0.36158E-04   192   0.487E-02    0.118E-02
DAV:  14    -0.159004223137E+02   -0.21099E-02   -0.13734E-04   168   0.333E-02    0.969E-03
DAV:  15    -0.159022778393E+02   -0.18555E-02   -0.15110E-04   168   0.326E-02    0.759E-03
DAV:  16    -0.159037130621E+02   -0.14352E-02   -0.23023E-04   176   0.374E-02    0.575E-03
DAV:  17    -0.159039024318E+02   -0.18937E-03   -0.10068E-04   176   0.225E-02    0.498E-03
DAV:  18    -0.159041393608E+02   -0.23693E-03   -0.73576E-05   152   0.182E-02    0.390E-03
DAV:  19    -0.159043546927E+02   -0.21533E-03   -0.13345E-04   160   0.241E-02    0.425E-03
DAV:  20    -0.159044346036E+02   -0.79911E-04   -0.28171E-05   160   0.118E-02
  14 F= -.15904435E+02 E0= -.15886981E+02  d E =-.175687E-01  mag=     0.2163
       N       E                     dE             d eps       ncg     rms          rms(c)
DAV:   1    -0.157773292268E+02    0.12703E+00   -0.16331E+02   224   0.445E+01    0.108E+00
DAV:   2    -0.159476108567E+02   -0.17028E+00   -0.18298E+00   240   0.645E+00    0.814E-01
DAV:   3    -0.159414327617E+02    0.61781E-02   -0.57102E-02   248   0.112E+00    0.559E-01
DAV:   4    -0.159356000299E+02    0.58327E-02   -0.13559E-02   264   0.485E-01    0.283E-01
DAV:   5    -0.159340238719E+02    0.15762E-02   -0.86392E-03   240   0.404E-01    0.105E-01
DAV:   6    -0.159337960705E+02    0.22780E-03   -0.50303E-04   176   0.132E-01    0.683E-02
DAV:   7    -0.159336356745E+02    0.16040E-03   -0.53695E-04   232   0.792E-02    0.198E-02
DAV:   8    -0.159335555683E+02    0.80106E-04   -0.17423E-05   152   0.249E-02
  15 F= -.15933556E+02 E0= -.15911790E+02  d E =-.466897E-01  mag=     0.2537
       N       E                     dE             d eps       ncg     rms          rms(c)
DAV:   1    -0.159346139053E+02   -0.97823E-03   -0.16225E+01   224   0.139E+01    0.316E-01
DAV:   2    -0.159523823929E+02   -0.17768E-01   -0.18343E-01   240   0.205E+00    0.233E-01
DAV:   3    -0.159520902059E+02    0.29219E-03   -0.55107E-03   248   0.356E-01    0.160E-01
DAV:   4    -0.159520052819E+02    0.84924E-04   -0.10642E-03   248   0.136E-01    0.847E-02
DAV:   5    -0.159524152581E+02   -0.40998E-03   -0.81777E-04   240   0.115E-01    0.281E-02
DAV:   6    -0.159524560172E+02   -0.40759E-04   -0.52363E-05   160   0.363E-02
  16 F= -.15952456E+02 E0= -.15932456E+02  d E =-.189004E-01  mag=     0.2720
       N       E                     dE             d eps       ncg     rms          rms(c)
DAV:   1    -0.158329286183E+02    0.11949E+00   -0.14723E+02   224   0.422E+01    0.983E-01
DAV:   2    -0.159864444425E+02   -0.15352E+00   -0.16347E+00   248   0.612E+00    0.701E-01
DAV:   3    -0.159809666710E+02    0.54778E-02   -0.48350E-02   248   0.105E+00    0.474E-01
DAV:   4    -0.159763634663E+02    0.46032E-02   -0.99736E-03   264   0.400E-01    0.240E-01
DAV:   5    -0.159755125344E+02    0.85093E-03   -0.57172E-03   256   0.301E-01    0.812E-02
DAV:   6    -0.159755441918E+02   -0.31657E-04   -0.37884E-04   232   0.868E-02
  17 F= -.15975544E+02 E0= -.15960911E+02  d E =-.419886E-01  mag=     0.2547
       N       E                     dE             d eps       ncg     rms          rms(c)
DAV:   1    -0.159586752479E+02    0.16837E-01   -0.34371E+01   224   0.203E+01    0.456E-01
DAV:   2    -0.159942161758E+02   -0.35541E-01   -0.38543E-01   240   0.299E+00    0.358E-01
DAV:   3    -0.159923980870E+02    0.18181E-02   -0.11071E-02   248   0.498E-01    0.248E-01
DAV:   4    -0.159904300317E+02    0.19681E-02   -0.29222E-03   248   0.202E-01    0.115E-01
DAV:   5    -0.159897756211E+02    0.65441E-03   -0.13276E-03   248   0.141E-01    0.454E-02
DAV:   6    -0.159897666820E+02    0.89392E-05   -0.63964E-05   160   0.369E-02
  18 F= -.15989767E+02 E0= -.15977521E+02  d E =-.142225E-01  mag=     0.2246
       N       E                     dE             d eps       ncg     rms          rms(c)
DAV:   1    -0.159648910084E+02    0.24885E-01   -0.29399E+01   224   0.188E+01    0.430E-01
DAV:   2    -0.159952389093E+02   -0.30348E-01   -0.32914E-01   240   0.276E+00    0.335E-01
DAV:   3    -0.159936451372E+02    0.15938E-02   -0.94914E-03   240   0.460E-01    0.231E-01
DAV:   4    -0.159919896399E+02    0.16555E-02   -0.26439E-03   240   0.192E-01    0.103E-01
DAV:   5    -0.159916158398E+02    0.37380E-03   -0.10414E-03   248   0.126E-01    0.423E-02
DAV:   6    -0.159917329517E+02   -0.11711E-03   -0.62810E-05   152   0.357E-02    0.274E-02
DAV:   7    -0.159920440408E+02   -0.31109E-03   -0.69699E-05   152   0.294E-02    0.141E-02
DAV:   8    -0.159923037314E+02   -0.25969E-03   -0.14408E-05   152   0.156E-02    0.117E-02
DAV:   9    -0.159928273398E+02   -0.52361E-03   -0.22780E-05   152   0.128E-02    0.110E-02
DAV:  10    -0.159938195094E+02   -0.99217E-03   -0.53185E-05   160   0.166E-02    0.935E-03
DAV:  11    -0.159955789977E+02   -0.17595E-02   -0.19235E-04   160   0.297E-02    0.794E-03
DAV:  12    -0.159963823937E+02   -0.80340E-03   -0.77387E-05   168   0.188E-02    0.602E-03
DAV:  13    -0.159969683658E+02   -0.58597E-03   -0.43408E-05   160   0.146E-02    0.457E-03
DAV:  14    -0.159977037857E+02   -0.73542E-03   -0.66851E-05   168   0.172E-02    0.392E-03
DAV:  15    -0.159982072009E+02   -0.50342E-03   -0.42720E-05   168   0.134E-02    0.262E-03
DAV:  16    -0.159985572530E+02   -0.35005E-03   -0.44155E-05   176   0.133E-02    0.172E-03
DAV:  17    -0.159986625292E+02   -0.10528E-03   -0.20349E-05   160   0.924E-03    0.106E-03
DAV:  18    -0.159987075851E+02   -0.45056E-04   -0.62112E-06   152   0.559E-03
  19 F= -.15998708E+02 E0= -.15988542E+02  d E =-.231634E-01  mag=     0.0036
       N       E                     dE             d eps       ncg     rms          rms(c)
DAV:   1    -0.159993088524E+02   -0.64632E-03   -0.84908E+00   224   0.101E+01    0.171E-01
DAV:   2    -0.160083077153E+02   -0.89989E-02   -0.94860E-02   248   0.149E+00    0.170E-01
DAV:   3    -0.160079995823E+02    0.30813E-03   -0.26333E-03   240   0.248E-01    0.124E-01
DAV:   4    -0.160076824397E+02    0.31714E-03   -0.38182E-04   208   0.777E-02    0.803E-02
DAV:   5    -0.160075904212E+02    0.92019E-04   -0.96416E-04   240   0.112E-01
  20 F= -.16007590E+02 E0= -.15998683E+02  d E =-.888284E-02  mag=     0.0033
       N       E                     dE             d eps       ncg     rms          rms(c)
DAV:   1    -0.159554003176E+02    0.52282E-01   -0.76649E+01   224   0.303E+01    0.527E-01
DAV:   2    -0.160359403305E+02   -0.80540E-01   -0.84494E-01   248   0.444E+00    0.506E-01
DAV:   3    -0.160333595565E+02    0.25808E-02   -0.23087E-02   240   0.728E-01    0.367E-01
DAV:   4    -0.160303400642E+02    0.30195E-02   -0.39679E-03   256   0.241E-01    0.224E-01
DAV:   5    -0.160294756570E+02    0.86441E-03   -0.67086E-03   240   0.292E-01    0.655E-02
DAV:   6    -0.160295119789E+02   -0.36322E-04   -0.14930E-04   160   0.684E-02
  21 F= -.16029512E+02 E0= -.16024415E+02  d E =-.308044E-01  mag=     0.0026
       N       E                     dE             d eps       ncg     rms          rms(c)
DAV:   1    -0.157573044239E+02    0.27217E+00   -0.31022E+02   224   0.616E+01    0.110E+00
DAV:   2    -0.160714948860E+02   -0.31419E+00   -0.32712E+00   240   0.877E+00    0.103E+00
DAV:   3    -0.160618766365E+02    0.96182E-02   -0.87525E-02   240   0.140E+00    0.739E-01
DAV:   4    -0.160491993119E+02    0.12677E-01   -0.19332E-02   256   0.511E-01    0.414E-01
DAV:   5    -0.160467634356E+02    0.24359E-02   -0.18560E-02   240   0.476E-01    0.141E-01
DAV:   6    -0.160468671925E+02   -0.10376E-03   -0.62243E-04   240   0.129E-01    0.951E-02
DAV:   7    -0.160470617342E+02   -0.19454E-03   -0.19169E-04   152   0.690E-02    0.266E-02
DAV:   8    -0.160472108800E+02   -0.14915E-03   -0.62813E-05   176   0.310E-02    0.732E-03
DAV:   9    -0.160473025768E+02   -0.91697E-04   -0.94145E-06   128   0.129E-02
  22 F= -.16047303E+02 E0= -.16049293E+02  d E =-.485950E-01  mag=     0.0011
       N       E                     dE             d eps       ncg     rms          rms(c)
DAV:   1    -0.160263589054E+02    0.20852E-01   -0.64989E+01   224   0.279E+01    0.543E-01
DAV:   2    -0.160938334727E+02   -0.67475E-01   -0.72360E-01   240   0.409E+00    0.513E-01
DAV:   3    -0.160913537471E+02    0.24797E-02   -0.20508E-02   240   0.684E-01    0.361E-01
DAV:   4    -0.160885536574E+02    0.28001E-02   -0.48708E-03   240   0.273E-01    0.208E-01
DAV:   5    -0.160881758371E+02    0.37782E-03   -0.51238E-03   240   0.271E-01    0.664E-02
DAV:   6    -0.160881949183E+02   -0.19081E-04   -0.15469E-04   176   0.681E-02
  23 F= -.16088195E+02 E0= -.16092734E+02  d E =-.408923E-01  mag=     0.0006
       N       E                     dE             d eps       ncg     rms          rms(c)
DAV:   1    -0.156086178600E+02    0.47956E+00   -0.60111E+02   224   0.866E+01    0.172E+00
DAV:   2    -0.161887259058E+02   -0.58011E+00   -0.61335E+00   240   0.119E+01    0.154E+00
DAV:   3    -0.161701714896E+02    0.18554E-01   -0.16698E-01   272   0.192E+00    0.107E+00
DAV:   4    -0.161461541851E+02    0.24017E-01   -0.47219E-02   256   0.816E-01    0.585E-01
DAV:   5    -0.161436542202E+02    0.25000E-02   -0.27262E-02   240   0.618E-01    0.212E-01
DAV:   6    -0.161436290753E+02    0.25145E-04   -0.13346E-03   240   0.176E-01    0.148E-01
DAV:   7    -0.161440256316E+02   -0.39656E-03   -0.44635E-04   208   0.964E-02    0.361E-02
DAV:   8    -0.161442818086E+02   -0.25618E-03   -0.57395E-05   176   0.331E-02    0.114E-02
DAV:   9    -0.161445024595E+02   -0.22065E-03   -0.18895E-05   176   0.147E-02    0.552E-03
DAV:  10    -0.161447904045E+02   -0.28795E-03   -0.24127E-05   160   0.116E-02    0.394E-03
DAV:  11    -0.161449933170E+02   -0.20291E-03   -0.18994E-05   176   0.891E-03    0.222E-03
DAV:  12    -0.161451449383E+02   -0.15162E-03   -0.17540E-05   168   0.795E-03    0.171E-03
DAV:  13    -0.161452084328E+02   -0.63494E-04   -0.71589E-06   176   0.581E-03
  24 F= -.16145208E+02 E0= -.16157382E+02  d E =-.979059E-01  mag=     0.0000
       N       E                     dE             d eps       ncg     rms          rms(c)
DAV:   1    -0.161539467646E+02   -0.88018E-02   -0.22836E+01   224   0.165E+01    0.286E-01
DAV:   2    -0.161780228735E+02   -0.24076E-01   -0.25251E-01   240   0.242E+00    0.269E-01
DAV:   3    -0.161772220098E+02    0.80086E-03   -0.67896E-03   240   0.389E-01    0.202E-01
DAV:   4    -0.161763131690E+02    0.90884E-03   -0.13330E-03   240   0.141E-01    0.115E-01
DAV:   5    -0.161761247600E+02    0.18841E-03   -0.18872E-03   240   0.161E-01    0.359E-02
DAV:   6    -0.161761353172E+02   -0.10557E-04   -0.38456E-05   160   0.360E-02
  25 F= -.16176135E+02 E0= -.16189710E+02  d E =-.309269E-01  mag=     0.0000
       N       E                     dE             d eps       ncg     rms          rms(c)
DAV:   1    -0.160565125695E+02    0.11961E+00   -0.20759E+02   224   0.501E+01    0.882E-01
DAV:   2    -0.162703247911E+02   -0.21381E+00   -0.22300E+00   256   0.719E+00    0.820E-01
DAV:   3    -0.162638220185E+02    0.65028E-02   -0.59615E-02   272   0.114E+00    0.610E-01
DAV:   4    -0.162554248735E+02    0.83971E-02   -0.13176E-02   240   0.428E-01    0.335E-01
DAV:   5    -0.162539062219E+02    0.15187E-02   -0.13828E-02   240   0.428E-01    0.114E-01
DAV:   6    -0.162539514216E+02   -0.45200E-04   -0.33715E-04   192   0.100E-01
  26 F= -.16253951E+02 E0= -.16270437E+02  d E =-.108743E+00  mag=     0.0000
       N       E                     dE             d eps       ncg     rms          rms(c)
DAV:   1    -0.155311073475E+02    0.72280E+00   -0.85859E+02   224   0.105E+02    0.214E+00
DAV:   2    -0.163498566657E+02   -0.81875E+00   -0.84793E+00   256   0.140E+01    0.176E+00
DAV:   3    -0.163270191097E+02    0.22838E-01   -0.22543E-01   272   0.218E+00    0.122E+00
DAV:   4    -0.162964227666E+02    0.30596E-01   -0.64228E-02   256   0.914E-01    0.628E-01
DAV:   5    -0.162940098052E+02    0.24130E-02   -0.24401E-02   240   0.549E-01    0.256E-01
DAV:   6    -0.162941772936E+02   -0.16749E-03   -0.14132E-03   256   0.151E-01    0.141E-01
DAV:   7    -0.162945617206E+02   -0.38443E-03   -0.21428E-04   160   0.828E-02    0.446E-02
DAV:   8    -0.162948268464E+02   -0.26513E-03   -0.76641E-05   176   0.367E-02    0.187E-02
DAV:   9    -0.162950504728E+02   -0.22363E-03   -0.22280E-05   144   0.167E-02    0.737E-03
DAV:  10    -0.162953617967E+02   -0.31132E-03   -0.34501E-05   160   0.144E-02    0.545E-03
DAV:  11    -0.162956232721E+02   -0.26148E-03   -0.30331E-05   160   0.112E-02    0.362E-03
DAV:  12    -0.162957480859E+02   -0.12481E-03   -0.14009E-05   176   0.828E-03    0.205E-03
DAV:  13    -0.162958052589E+02   -0.57173E-04   -0.63606E-06   144   0.551E-03
  27 F= -.16295805E+02 E0= -.16300788E+02  d E =-.150597E+00  mag=     0.0000
       N       E                     dE             d eps       ncg     rms          rms(c)
DAV:   1    -0.162264301327E+02    0.69318E-01   -0.79540E+01   224   0.309E+01    0.622E-01
DAV:   2    -0.163102967885E+02   -0.83867E-01   -0.88233E-01   256   0.451E+00    0.505E-01
DAV:   3    -0.163074524176E+02    0.28444E-02   -0.24538E-02   256   0.740E-01    0.357E-01
DAV:   4    -0.163046097575E+02    0.28427E-02   -0.52409E-03   240   0.277E-01    0.186E-01
DAV:   5    -0.163043079785E+02    0.30178E-03   -0.42669E-03   256   0.236E-01    0.613E-02
DAV:   6    -0.163042887725E+02    0.19206E-04   -0.18753E-04   176   0.607E-02
  28 F= -.16304289E+02 E0= -.16311165E+02  d E =-.159080E+00  mag=     0.0000
       N       E                     dE             d eps       ncg     rms          rms(c)
DAV:   1    -0.163458347922E+02   -0.41527E-01   -0.96811E+00   224   0.108E+01    0.393E-01
DAV:   2    -0.163556828389E+02   -0.98480E-02   -0.11444E-01   240   0.162E+00    0.248E-01
DAV:   3    -0.163553523053E+02    0.33053E-03   -0.41241E-03   256   0.298E-01    0.150E-01
DAV:   4    -0.163552593564E+02    0.92949E-04   -0.91636E-04   224   0.125E-01
  29 F= -.16355259E+02 E0= -.16361447E+02  d E =-.509706E-01  mag=     0.0000
       N       E                     dE             d eps       ncg     rms          rms(c)
DAV:   1    -0.163454472361E+02    0.99051E-02   -0.87447E+01   224   0.325E+01    0.140E+00
DAV:   2    -0.164346318817E+02   -0.89185E-01   -0.10458E+00   256   0.486E+00    0.808E-01
DAV:   3    -0.164311742076E+02    0.34577E-02   -0.40260E-02   256   0.918E-01    0.475E-01
DAV:   4    -0.164301560655E+02    0.10181E-02   -0.81583E-03   240   0.386E-01    0.145E-01
DAV:   5    -0.164301645191E+02   -0.84537E-05   -0.48733E-04   256   0.105E-01
  30 F= -.16430165E+02 E0= -.16435074E+02  d E =-.125876E+00  mag=     0.0000
       N       E                     dE             d eps       ncg     rms          rms(c)
DAV:   1    -0.164414053488E+02   -0.11249E-01   -0.64228E+00   224   0.877E+00    0.330E-01
DAV:   2    -0.164480112397E+02   -0.66059E-02   -0.76882E-02   256   0.132E+00    0.213E-01
DAV:   3    -0.164478317450E+02    0.17949E-03   -0.27560E-03   240   0.250E-01    0.126E-01
DAV:   4    -0.164478197719E+02    0.11973E-04   -0.57004E-04   240   0.101E-01
  31 F= -.16447820E+02 E0= -.16452584E+02  d E =-.176553E-01  mag=     0.0000
       N       E                     dE             d eps       ncg     rms          rms(c)
DAV:   1    -0.164418528573E+02    0.59789E-02   -0.14899E+01   224   0.134E+01    0.514E-01
DAV:   2    -0.164569710350E+02   -0.15118E-01   -0.17848E-01   256   0.200E+00    0.327E-01
DAV:   3    -0.164565372616E+02    0.43377E-03   -0.64478E-03   256   0.384E-01    0.192E-01
DAV:   4    -0.164563896356E+02    0.14763E-03   -0.12536E-03   240   0.151E-01    0.682E-02
DAV:   5    -0.164564384177E+02   -0.48782E-04   -0.85136E-05   144   0.524E-02
  32 F= -.16456438E+02 E0= -.16461001E+02  d E =-.262739E-01  mag=     0.0000
       N       E                     dE             d eps       ncg     rms          rms(c)
DAV:   1    -0.164584177878E+02   -0.20282E-02   -0.80140E+00   224   0.977E+00    0.296E-01
DAV:   2    -0.164666039702E+02   -0.81862E-02   -0.94928E-02   240   0.149E+00    0.251E-01
DAV:   3    -0.164663418085E+02    0.26216E-03   -0.31275E-03   256   0.279E-01    0.148E-01
DAV:   4    -0.164661417218E+02    0.20009E-03   -0.73061E-04   240   0.109E-01    0.770E-02
DAV:   5    -0.164661833397E+02   -0.41618E-04   -0.21164E-04   144   0.653E-02
  33 F= -.16466183E+02 E0= -.16470581E+02  d E =-.974492E-02  mag=     0.0000
       N       E                     dE             d eps       ncg     rms          rms(c)
DAV:   1    -0.164599926969E+02    0.61490E-02   -0.91341E+00   224   0.104E+01    0.320E-01
DAV:   2    -0.164692922520E+02   -0.92996E-02   -0.10800E-01   240   0.158E+00    0.268E-01
DAV:   3    -0.164689891502E+02    0.30310E-03   -0.35550E-03   256   0.296E-01    0.158E-01
DAV:   4    -0.164687508341E+02    0.23832E-03   -0.83830E-04   240   0.117E-01    0.811E-02
DAV:   5    -0.164687866044E+02   -0.35770E-04   -0.22439E-04   144   0.680E-02
  34 F= -.16468787E+02 E0= -.16473049E+02  d E =-.123482E-01  mag=     0.0000
       N       E                     dE             d eps       ncg     rms          rms(c)
DAV:   1    -0.164694966482E+02   -0.74581E-03   -0.96096E+00   224   0.106E+01    0.333E-01
DAV:   2    -0.164794403458E+02   -0.99437E-02   -0.10841E-01   256   0.156E+00    0.234E-01
DAV:   3    -0.164790153453E+02    0.42500E-03   -0.37077E-03   240   0.269E-01    0.152E-01
DAV:   4    -0.164788256036E+02    0.18974E-03   -0.11930E-03   240   0.134E-01    0.518E-02
DAV:   5    -0.164788545767E+02   -0.28973E-04   -0.68987E-05   144   0.491E-02
  35 F= -.16478855E+02 E0= -.16482946E+02  d E =-.100680E-01  mag=     0.0000
       N       E                     dE             d eps       ncg     rms          rms(c)
DAV:   1    -0.164694265283E+02    0.93991E-02   -0.14347E+01   224   0.129E+01    0.386E-01
DAV:   2    -0.164843201397E+02   -0.14894E-01   -0.16138E-01   256   0.190E+00    0.274E-01
DAV:   3    -0.164836966728E+02    0.62347E-03   -0.53293E-03   240   0.321E-01    0.182E-01
DAV:   4    -0.164833740417E+02    0.32263E-03   -0.17817E-03   240   0.161E-01    0.619E-02
DAV:   5    -0.164834129088E+02   -0.38867E-04   -0.10881E-04   144   0.581E-02
  36 F= -.16483413E+02 E0= -.16487390E+02  d E =-.146263E-01  mag=     0.0000
       N       E                     dE             d eps       ncg     rms          rms(c)
DAV:   1    -0.164813037379E+02    0.20703E-02   -0.11098E+01   224   0.115E+01    0.292E-01
DAV:   2    -0.164929354912E+02   -0.11632E-01   -0.12681E-01   240   0.169E+00    0.214E-01
DAV:   3    -0.164925457920E+02    0.38970E-03   -0.38391E-03   256   0.282E-01    0.146E-01
DAV:   4    -0.164922439708E+02    0.30182E-03   -0.10476E-03   240   0.118E-01    0.548E-02
DAV:   5    -0.164922813275E+02   -0.37357E-04   -0.16139E-04   160   0.537E-02
  37 F= -.16492281E+02 E0= -.16496193E+02  d E =-.886842E-02  mag=     0.0000
       N       E                     dE             d eps       ncg     rms          rms(c)
DAV:   1    -0.164742863054E+02    0.17958E-01   -0.21459E+01   224   0.160E+01    0.407E-01
DAV:   2    -0.164967764576E+02   -0.22490E-01   -0.24405E-01   240   0.234E+00    0.298E-01
DAV:   3    -0.164960118158E+02    0.76464E-03   -0.73353E-03   256   0.387E-01    0.202E-01
DAV:   4    -0.164953977800E+02    0.61404E-03   -0.20967E-03   240   0.166E-01    0.744E-02
DAV:   5    -0.164954533868E+02   -0.55607E-04   -0.32026E-04   224   0.703E-02
  38 F= -.16495453E+02 E0= -.16499331E+02  d E =-.120405E-01  mag=     0.0000
       N       E                     dE             d eps       ncg     rms          rms(c)
DAV:   1    -0.164932618778E+02    0.21359E-02   -0.71824E+00   224   0.918E+00    0.191E-01
DAV:   2    -0.165008044817E+02   -0.75426E-02   -0.80721E-02   256   0.136E+00    0.170E-01
DAV:   3    -0.165005942120E+02    0.21027E-03   -0.22247E-03   256   0.221E-01    0.119E-01
DAV:   4    -0.165003506137E+02    0.24360E-03   -0.52880E-04   240   0.846E-02    0.604E-02
DAV:   5    -0.165003766547E+02   -0.26041E-04   -0.34830E-04   208   0.669E-02
  39 F= -.16500377E+02 E0= -.16504248E+02  d E =-.492327E-02  mag=     0.0000
       N       E                     dE             d eps       ncg     rms          rms(c)
DAV:   1    -0.164419842876E+02    0.58366E-01   -0.65029E+01   224   0.277E+01    0.576E-01
DAV:   2    -0.165098134094E+02   -0.67829E-01   -0.71939E-01   256   0.406E+00    0.510E-01
DAV:   3    -0.165077805533E+02    0.20329E-02   -0.19778E-02   256   0.652E-01    0.358E-01
DAV:   4    -0.165052319289E+02    0.25486E-02   -0.51708E-03   240   0.262E-01    0.175E-01
DAV:   5    -0.165051268151E+02    0.10511E-03   -0.28462E-03   240   0.187E-01    0.688E-02
DAV:   6    -0.165051213945E+02    0.54206E-05   -0.26164E-04   224   0.611E-02
  40 F= -.16505121E+02 E0= -.16508987E+02  d E =-.966801E-02  mag=     0.0000
       N       E                     dE             d eps       ncg     rms          rms(c)
DAV:   1    -0.165045916433E+02    0.53517E-03   -0.69970E+00   224   0.899E+00    0.181E-01
DAV:   2    -0.165119534984E+02   -0.73619E-02   -0.76534E-02   256   0.132E+00    0.159E-01
DAV:   3    -0.165117192550E+02    0.23424E-03   -0.20573E-03   256   0.206E-01    0.115E-01
DAV:   4    -0.165114742167E+02    0.24504E-03   -0.62608E-04   224   0.934E-02    0.534E-02
DAV:   5    -0.165115207972E+02   -0.46580E-04   -0.31863E-04   208   0.612E-02
  41 F= -.16511521E+02 E0= -.16515386E+02  d E =-.639940E-02  mag=     0.0000
       N       E                     dE             d eps       ncg     rms          rms(c)
DAV:   1    -0.164628161376E+02    0.48658E-01   -0.63312E+01   224   0.271E+01    0.546E-01
DAV:   2    -0.165288169306E+02   -0.66001E-01   -0.68345E-01   256   0.394E+00    0.472E-01
DAV:   3    -0.165266139576E+02    0.22030E-02   -0.18376E-02   256   0.611E-01    0.341E-01
DAV:   4    -0.165240280573E+02    0.25859E-02   -0.58087E-03   224   0.286E-01    0.154E-01
DAV:   5    -0.165239918157E+02    0.36242E-04   -0.25340E-03   256   0.170E-01    0.670E-02
DAV:   6    -0.165239710095E+02    0.20806E-04   -0.35731E-04   208   0.655E-02
  42 F= -.16523971E+02 E0= -.16527836E+02  d E =-.188496E-01  mag=     0.0000
       N       E                     dE             d eps       ncg     rms          rms(c)
DAV:   1    -0.162720476510E+02    0.25194E+00   -0.25791E+02   224   0.552E+01    0.114E+00
DAV:   2    -0.165359957156E+02   -0.26395E+00   -0.27210E+00   256   0.783E+00    0.930E-01
DAV:   3    -0.165271506471E+02    0.88451E-02   -0.73558E-02   240   0.121E+00    0.659E-01
DAV:   4    -0.165171518036E+02    0.99988E-02   -0.24409E-02   256   0.587E-01    0.290E-01
DAV:   5    -0.165169086921E+02    0.24311E-03   -0.69648E-03   224   0.285E-01    0.121E-01
DAV:   6    -0.165168767666E+02    0.31925E-04   -0.11760E-03   256   0.116E-01    0.559E-02
DAV:   7    -0.165170576422E+02   -0.18088E-03   -0.52731E-05   176   0.352E-02    0.140E-02
DAV:   8    -0.165171905360E+02   -0.13289E-03   -0.20663E-05   176   0.180E-02    0.497E-03
DAV:   9    -0.165173167785E+02   -0.12624E-03   -0.10314E-05   144   0.102E-02    0.289E-03
DAV:  10    -0.165174642926E+02   -0.14751E-03   -0.15671E-05   176   0.848E-03    0.224E-03
DAV:  11    -0.165175722591E+02   -0.10797E-03   -0.11266E-05   144   0.689E-03    0.120E-03
DAV:  12    -0.165176264201E+02   -0.54161E-04   -0.62578E-06   176   0.524E-03
  43 F= -.16517626E+02 E0= -.16521492E+02  d E =-.125050E-01  mag=     0.0000
       N       E                     dE             d eps       ncg     rms          rms(c)
DAV:   1    -0.164082805095E+02    0.10929E+00   -0.12338E+02   224   0.379E+01    0.755E-01
DAV:   2    -0.165360447279E+02   -0.12776E+00   -0.13312E+00   240   0.548E+00    0.656E-01
DAV:   3    -0.165320066215E+02    0.40381E-02   -0.35949E-02   240   0.860E-01    0.469E-01
DAV:   4    -0.165271310242E+02    0.48756E-02   -0.98354E-03   224   0.357E-01    0.224E-01
DAV:   5    -0.165268039537E+02    0.32707E-03   -0.49646E-03   240   0.238E-01    0.877E-02
DAV:   6    -0.165267741071E+02    0.29847E-04   -0.51613E-04   224   0.798E-02
  44 F= -.16526774E+02 E0= -.16530639E+02  d E =-.216527E-01  mag=     0.0000
       N       E                     dE             d eps       ncg     rms          rms(c)
DAV:   1    -0.165207286709E+02    0.60753E-02   -0.18473E+01   224   0.146E+01    0.247E-01
DAV:   2    -0.165403276456E+02   -0.19599E-01   -0.19950E-01   240   0.211E+00    0.221E-01
DAV:   3    -0.165397797624E+02    0.54788E-03   -0.51586E-03   240   0.323E-01    0.172E-01
DAV:   4    -0.165391095543E+02    0.67021E-03   -0.12450E-03   240   0.124E-01    0.795E-02
DAV:   5    -0.165390839863E+02    0.25568E-04   -0.97260E-04   240   0.102E-01
  45 F= -.16539084E+02 E0= -.16542949E+02  d E =-.123099E-01  mag=     0.0000
       N       E                     dE             d eps       ncg     rms          rms(c)
DAV:   1    -0.163979448580E+02    0.14116E+00   -0.16846E+02   224   0.444E+01    0.797E-01
DAV:   2    -0.165737157417E+02   -0.17577E+00   -0.17941E+00   256   0.633E+00    0.675E-01
DAV:   3    -0.165684349094E+02    0.52808E-02   -0.46885E-02   240   0.965E-01    0.509E-01
DAV:   4    -0.165619926800E+02    0.64422E-02   -0.12172E-02   256   0.388E-01    0.232E-01
DAV:   5    -0.165613364554E+02    0.65622E-03   -0.62432E-03   224   0.260E-01    0.872E-02
DAV:   6    -0.165613718257E+02   -0.35370E-04   -0.35306E-04   224   0.699E-02
  46 F= -.16561372E+02 E0= -.16565239E+02  d E =-.345977E-01  mag=     0.0000
       N       E                     dE             d eps       ncg     rms          rms(c)
DAV:   1    -0.165326809455E+02    0.28656E-01   -0.31659E+01   224   0.191E+01    0.328E-01
DAV:   2    -0.165662461429E+02   -0.33565E-01   -0.34202E-01   256   0.277E+00    0.289E-01
DAV:   3    -0.165651987621E+02    0.10474E-02   -0.88339E-03   256   0.420E-01    0.223E-01
DAV:   4    -0.165639539865E+02    0.12448E-02   -0.22957E-03   256   0.167E-01    0.998E-02
DAV:   5    -0.165638850517E+02    0.68935E-04   -0.15467E-03   256   0.128E-01    0.400E-02
DAV:   6    -0.165639147435E+02   -0.29692E-04   -0.83876E-05   160   0.356E-02
  47 F= -.16563915E+02 E0= -.16567783E+02  d E =-.371406E-01  mag=     0.0000
       N       E                     dE             d eps       ncg     rms          rms(c)
DAV:   1    -0.165629762195E+02    0.90883E-03   -0.10905E+01   256   0.112E+01    0.170E-01
DAV:   2    -0.165745237609E+02   -0.11548E-01   -0.11750E-01   256   0.162E+00    0.170E-01
DAV:   3    -0.165741904196E+02    0.33334E-03   -0.29081E-03   256   0.244E-01    0.136E-01
DAV:   4    -0.165737582965E+02    0.43212E-03   -0.59156E-04   240   0.857E-02    0.705E-02
DAV:   5    -0.165737101145E+02    0.48182E-04   -0.90423E-04   256   0.984E-02
  48 F= -.16573710E+02 E0= -.16577580E+02  d E =-.979537E-02  mag=     0.0000
       N       E                     dE             d eps       ncg     rms          rms(c)
DAV:   1    -0.165035964305E+02    0.70162E-01   -0.99030E+01   224   0.338E+01    0.534E-01
DAV:   2    -0.166072940709E+02   -0.10370E+00   -0.10550E+00   256   0.487E+00    0.516E-01
DAV:   3    -0.166043905107E+02    0.29036E-02   -0.26231E-02   256   0.733E-01    0.404E-01
DAV:   4    -0.166004029709E+02    0.39875E-02   -0.54954E-03   256   0.260E-01    0.210E-01
DAV:   5    -0.165996088796E+02    0.79409E-03   -0.63743E-03   256   0.259E-01    0.739E-02
DAV:   6    -0.165996619538E+02   -0.53074E-04   -0.23693E-04   208   0.609E-02
  49 F= -.16599662E+02 E0= -.16603541E+02  d E =-.357472E-01  mag=     0.0000
       N       E                     dE             d eps       ncg     rms          rms(c)
DAV:   1    -0.162508007646E+02    0.34881E+00   -0.40773E+02   224   0.697E+01    0.121E+00
DAV:   2    -0.166634584876E+02   -0.41266E+00   -0.41995E+00   256   0.969E+00    0.109E+00
DAV:   3    -0.166518634276E+02    0.11595E-01   -0.10482E-01   256   0.146E+00    0.814E-01
DAV:   4    -0.166364751224E+02    0.15388E-01   -0.24127E-02   224   0.553E-01    0.432E-01
DAV:   5    -0.166337062035E+02    0.27689E-02   -0.15570E-02   256   0.408E-01    0.161E-01
DAV:   6    -0.166339565588E+02   -0.25036E-03   -0.41879E-04   208   0.841E-02    0.732E-02
DAV:   7    -0.166341267562E+02   -0.17020E-03   -0.46942E-05   176   0.378E-02    0.257E-02
DAV:   8    -0.166342526974E+02   -0.12594E-03   -0.28469E-05   160   0.203E-02    0.636E-03
DAV:   9    -0.166343842889E+02   -0.13159E-03   -0.11705E-05   176   0.107E-02    0.414E-03
DAV:  10    -0.166344674878E+02   -0.83199E-04   -0.63319E-06   160   0.615E-03
  50 F= -.16634467E+02 E0= -.16638406E+02  d E =-.705527E-01  mag=     0.0000
       N       E                     dE             d eps       ncg     rms          rms(c)
DAV:   1    -0.149016508203E+02    0.17327E+01   -0.17845E+03   224   0.152E+02    0.452E+00
DAV:   2    -0.166763916301E+02   -0.17747E+01   -0.18043E+01   256   0.198E+01    0.318E+00
DAV:   3    -0.166448458886E+02    0.31546E-01   -0.43213E-01   240   0.305E+00    0.198E+00
DAV:   4    -0.166025317966E+02    0.42314E-01   -0.72889E-02   240   0.115E+00    0.134E+00
DAV:   5    -0.165930361746E+02    0.94956E-02   -0.36591E-02   240   0.642E-01    0.580E-01
DAV:   6    -0.165934255345E+02   -0.38936E-03   -0.11980E-03   272   0.152E-01    0.325E-01
DAV:   7    -0.165939077914E+02   -0.48226E-03   -0.22453E-04   176   0.882E-02    0.102E-01
DAV:   8    -0.165941745129E+02   -0.26672E-03   -0.53926E-05   160   0.287E-02    0.326E-02
DAV:   9    -0.165944208621E+02   -0.24635E-03   -0.28445E-05   160   0.171E-02    0.875E-03
DAV:  10    -0.165946117272E+02   -0.19087E-03   -0.16472E-05   176   0.119E-02    0.505E-03
DAV:  11    -0.165947939449E+02   -0.18222E-03   -0.15425E-05   160   0.925E-03    0.245E-03
DAV:  12    -0.165949054915E+02   -0.11155E-03   -0.11167E-05   176   0.689E-03    0.306E-03
DAV:  13    -0.165949583861E+02   -0.52895E-04   -0.50424E-06   160   0.508E-03
  51 F= -.16594958E+02 E0= -.16599388E+02  d E =-.310436E-01  mag=     0.0000
       N       E                     dE             d eps       ncg     rms          rms(c)
DAV:   1    -0.156985388710E+02    0.89637E+00   -0.10073E+03   224   0.112E+02    0.314E+00
DAV:   2    -0.166948812851E+02   -0.99634E+00   -0.10237E+01   240   0.149E+01    0.159E+00
DAV:   3    -0.166654854033E+02    0.29396E-01   -0.27233E-01   256   0.235E+00    0.106E+00
DAV:   4    -0.166413560901E+02    0.24129E-01   -0.53020E-02   224   0.870E-01    0.498E-01
DAV:   5    -0.166391583482E+02    0.21977E-02   -0.93238E-03   256   0.377E-01    0.188E-01
DAV:   6    -0.166394510430E+02   -0.29269E-03   -0.46275E-04   192   0.124E-01    0.915E-02
DAV:   7    -0.166397822583E+02   -0.33122E-03   -0.17163E-04   176   0.559E-02    0.343E-02
DAV:   8    -0.166399699402E+02   -0.18768E-03   -0.45341E-05   160   0.282E-02    0.120E-02
DAV:   9    -0.166401057954E+02   -0.13586E-03   -0.19992E-05   160   0.148E-02    0.414E-03
DAV:  10    -0.166402674148E+02   -0.16162E-03   -0.19758E-05   160   0.102E-02    0.342E-03
DAV:  11    -0.166403550072E+02   -0.87592E-04   -0.10339E-05   176   0.705E-03
  52 F= -.16640355E+02 E0= -.16644354E+02  d E =-.764403E-01  mag=    -0.0000
       N       E                     dE             d eps       ncg     rms          rms(c)
DAV:   1    -0.165786793565E+02    0.61588E-01   -0.11831E+02   224   0.372E+01    0.616E-01
DAV:   2    -0.167032928698E+02   -0.12461E+00   -0.12684E+00   256   0.533E+00    0.559E-01
DAV:   3    -0.166996412284E+02    0.36516E-02   -0.31870E-02   256   0.806E-01    0.434E-01
DAV:   4    -0.166949359005E+02    0.47053E-02   -0.72152E-03   256   0.300E-01    0.211E-01
DAV:   5    -0.166941746127E+02    0.76129E-03   -0.63674E-03   256   0.259E-01    0.731E-02
DAV:   6    -0.166941939196E+02   -0.19307E-04   -0.27174E-04   192   0.633E-02
  53 F= -.16694194E+02 E0= -.16698285E+02  d E =-.538389E-01  mag=     0.0000
       N       E                     dE             d eps       ncg     rms          rms(c)
DAV:   1    -0.157061343921E+02    0.98804E+00   -0.11484E+03   224   0.120E+02    0.300E+00
DAV:   2    -0.168218342530E+02   -0.11157E+01   -0.11386E+01   256   0.159E+01    0.205E+00
DAV:   3    -0.167936918564E+02    0.28142E-01   -0.28613E-01   240   0.243E+00    0.134E+00
DAV:   4    -0.167611715331E+02    0.32520E-01   -0.64248E-02   240   0.985E-01    0.752E-01
DAV:   5    -0.167572663720E+02    0.39052E-02   -0.21708E-02   240   0.503E-01    0.302E-01
DAV:   6    -0.167576339080E+02   -0.36754E-03   -0.83221E-04   240   0.117E-01    0.169E-01
DAV:   7    -0.167580061627E+02   -0.37225E-03   -0.11994E-04   160   0.568E-02    0.566E-02
DAV:   8    -0.167582289476E+02   -0.22278E-03   -0.38649E-05   160   0.203E-02    0.191E-02
DAV:   9    -0.167584373840E+02   -0.20844E-03   -0.20065E-05   176   0.132E-02    0.429E-03
DAV:  10    -0.167585866715E+02   -0.14929E-03   -0.15408E-05   176   0.103E-02    0.442E-03
DAV:  11    -0.167587601107E+02   -0.17344E-03   -0.18505E-05   176   0.122E-02    0.209E-03
DAV:  12    -0.167588403192E+02   -0.80209E-04   -0.12300E-05   176   0.123E-02
  54 F= -.16758840E+02 E0= -.16763653E+02  d E =-.118485E+00  mag=     0.0000
       N       E                     dE             d eps       ncg     rms          rms(c)
DAV:   1    -0.165633294485E+02    0.19543E+00   -0.28744E+02   224   0.583E+01    0.113E+00
DAV:   2    -0.168624082595E+02   -0.29908E+00   -0.30565E+00   256   0.827E+00    0.849E-01
DAV:   3    -0.168526651102E+02    0.97431E-02   -0.78796E-02   240   0.125E+00    0.627E-01
DAV:   4    -0.168423115739E+02    0.10354E-01   -0.20308E-02   256   0.497E-01    0.265E-01
DAV:   5    -0.168413511683E+02    0.96041E-03   -0.72554E-03   240   0.284E-01    0.873E-02
DAV:   6    -0.168414833704E+02   -0.13220E-03   -0.33462E-04   224   0.696E-02    0.389E-02
DAV:   7    -0.168415947864E+02   -0.11142E-03   -0.25430E-05   160   0.268E-02    0.126E-02
DAV:   8    -0.168416694754E+02   -0.74689E-04   -0.15991E-05   160   0.196E-02
  55 F= -.16841669E+02 E0= -.16847946E+02  d E =-.828292E-01  mag=    -0.0000
       N       E                     dE             d eps       ncg     rms          rms(c)
DAV:   1    -0.159545660596E+02    0.88703E+00   -0.10194E+03   224   0.113E+02    0.286E+00
DAV:   2    -0.169525609370E+02   -0.99799E+00   -0.10246E+01   256   0.152E+01    0.172E+00
DAV:   3    -0.169225833618E+02    0.29978E-01   -0.26467E-01   240   0.230E+00    0.115E+00
DAV:   4    -0.168932924264E+02    0.29291E-01   -0.66076E-02   256   0.932E-01    0.549E-01
DAV:   5    -0.168911071250E+02    0.21853E-02   -0.12677E-02   240   0.409E-01    0.230E-01
DAV:   6    -0.168915081953E+02   -0.40107E-03   -0.55029E-04   232   0.109E-01    0.122E-01
DAV:   7    -0.168918489630E+02   -0.34077E-03   -0.12820E-04   160   0.581E-02    0.397E-02
DAV:   8    -0.168920691817E+02   -0.22022E-03   -0.38433E-05   176   0.291E-02    0.171E-02
DAV:   9    -0.168922809254E+02   -0.21174E-03   -0.25249E-05   176   0.227E-02    0.560E-03
DAV:  10    -0.168925446821E+02   -0.26376E-03   -0.34247E-05   176   0.223E-02    0.801E-03
DAV:  11    -0.168926561742E+02   -0.11149E-03   -0.13419E-05   160   0.165E-02    0.601E-03
DAV:  12    -0.168928386367E+02   -0.18246E-03   -0.24985E-05   160   0.129E-02    0.214E-03
DAV:  13    -0.168928908267E+02   -0.52190E-04   -0.73373E-06   160   0.974E-03
  56 F= -.16892891E+02 E0= -.16908684E+02  d E =-.134051E+00  mag=    -0.0000
       N       E                     dE             d eps       ncg     rms          rms(c)
DAV:   1    -0.167535266888E+02    0.13931E+00   -0.23303E+02   224   0.532E+01    0.126E+00
DAV:   2    -0.169982082901E+02   -0.24468E+00   -0.25653E+00   240   0.766E+00    0.926E-01
DAV:   3    -0.169892149999E+02    0.89933E-02   -0.71099E-02   240   0.120E+00    0.640E-01
DAV:   4    -0.169808249601E+02    0.83900E-02   -0.26224E-02   240   0.564E-01    0.217E-01
DAV:   5    -0.169810599144E+02   -0.23495E-03   -0.34293E-03   240   0.208E-01    0.975E-02
DAV:   6    -0.169809562624E+02    0.10365E-03   -0.92699E-04   240   0.105E-01    0.362E-02
DAV:   7    -0.169810404980E+02   -0.84236E-04   -0.53800E-05   160   0.376E-02
  57 F= -.16981040E+02 E0= -.16999301E+02  d E =-.881497E-01  mag=    -0.0000
       N       E                     dE             d eps       ncg     rms          rms(c)
DAV:   1    -0.169626430296E+02    0.18313E-01   -0.25057E+01   224   0.173E+01    0.372E-01
DAV:   2    -0.169892941583E+02   -0.26651E-01   -0.27807E-01   240   0.253E+00    0.303E-01
DAV:   3    -0.169883042584E+02    0.98990E-03   -0.75917E-03   240   0.400E-01    0.217E-01
DAV:   4    -0.169873564190E+02    0.94784E-03   -0.25309E-03   256   0.180E-01    0.888E-02
DAV:   5    -0.169874204778E+02   -0.64059E-04   -0.84991E-04   256   0.112E-01
  58 F= -.16987420E+02 E0= -.17005987E+02  d E =-.945297E-01  mag=    -0.0000
       N       E                     dE             d eps       ncg     rms          rms(c)
DAV:   1    -0.169400117977E+02    0.47345E-01   -0.11793E+02   224   0.377E+01    0.874E-01
DAV:   2    -0.170665593071E+02   -0.12655E+00   -0.13118E+00   240   0.546E+00    0.608E-01
DAV:   3    -0.170619365688E+02    0.46227E-02   -0.37827E-02   240   0.891E-01    0.421E-01
DAV:   4    -0.170583526604E+02    0.35839E-02   -0.10273E-02   240   0.466E-01    0.252E-01
DAV:   5    -0.170579369572E+02    0.41570E-03   -0.74895E-03   240   0.397E-01    0.841E-02
DAV:   6    -0.170579224363E+02    0.14521E-04   -0.43180E-04   192   0.120E-01
  59 F= -.17057922E+02 E0= -.17076001E+02  d E =-.705020E-01  mag=    -0.0000
       N       E                     dE             d eps       ncg     rms          rms(c)
DAV:   1    -0.164270537863E+02    0.63088E+00   -0.62249E+02   224   0.885E+01    0.256E+00
DAV:   2    -0.170712561713E+02   -0.64420E+00   -0.66978E+00   240   0.122E+01    0.142E+00
DAV:   3    -0.170464188419E+02    0.24837E-01   -0.18854E-01   240   0.197E+00    0.937E-01
DAV:   4    -0.170296921660E+02    0.16727E-01   -0.53080E-02   240   0.114E+00    0.511E-01
DAV:   5    -0.170290499242E+02    0.64224E-03   -0.17164E-02   240   0.881E-01    0.216E-01
DAV:   6    -0.170285292922E+02    0.52063E-03   -0.21493E-03   224   0.329E-01    0.940E-02
DAV:   7    -0.170288204013E+02   -0.29111E-03   -0.92899E-04   240   0.102E-01    0.304E-02
DAV:   8    -0.170289750025E+02   -0.15460E-03   -0.58045E-05   160   0.511E-02    0.130E-02
DAV:   9    -0.170291498791E+02   -0.17488E-03   -0.19252E-05   160   0.167E-02    0.520E-03
DAV:  10    -0.170293500900E+02   -0.20021E-03   -0.18015E-05   160   0.117E-02    0.290E-03
DAV:  11    -0.170294722058E+02   -0.12212E-03   -0.10474E-05   176   0.711E-03    0.205E-03
DAV:  12    -0.170296251429E+02   -0.15294E-03   -0.19260E-05   160   0.863E-03    0.133E-03
DAV:  13    -0.170296751328E+02   -0.49990E-04   -0.66298E-06   176   0.596E-03
  60 F= -.17029675E+02 E0= -.17043070E+02  d E =-.422547E-01  mag=    -0.0000
       N       E                     dE             d eps       ncg     rms          rms(c)
DAV:   1    -0.168589620135E+02    0.17066E+00   -0.23050E+02   224   0.528E+01    0.119E+00
DAV:   2    -0.171003510223E+02   -0.24139E+00   -0.25279E+00   240   0.760E+00    0.107E+00
DAV:   3    -0.170912462146E+02    0.91048E-02   -0.77583E-02   256   0.143E+00    0.716E-01
DAV:   4    -0.170838524210E+02    0.73938E-02   -0.15433E-02   256   0.655E-01    0.553E-01
DAV:   5    -0.170804840634E+02    0.33684E-02   -0.28492E-02   256   0.698E-01    0.139E-01
DAV:   6    -0.170804988957E+02   -0.14832E-04   -0.96468E-04   256   0.169E-01
  61 F= -.17080499E+02 E0= -.17097374E+02  d E =-.930784E-01  mag=    -0.0000
       N       E                     dE             d eps       ncg     rms          rms(c)
DAV:   1    -0.169940930760E+02    0.86391E-01   -0.15660E+02   224   0.435E+01    0.821E-01
DAV:   2    -0.171595050276E+02   -0.16541E+00   -0.17062E+00   240   0.627E+00    0.698E-01
DAV:   3    -0.171540547971E+02    0.54502E-02   -0.44419E-02   256   0.975E-01    0.527E-01
DAV:   4    -0.171477081528E+02    0.63466E-02   -0.12200E-02   240   0.444E-01    0.258E-01
DAV:   5    -0.171468320803E+02    0.87607E-03   -0.76580E-03   256   0.456E-01    0.143E-01
DAV:   6    -0.171468462196E+02   -0.14139E-04   -0.80639E-04   256   0.203E-01
  62 F= -.17146846E+02 E0= -.17163272E+02  d E =-.663473E-01  mag=    -0.0000
       N       E                     dE             d eps       ncg     rms          rms(c)
DAV:   1    -0.169648971762E+02    0.18193E+00   -0.21010E+02   224   0.506E+01    0.973E-01
DAV:   2    -0.171872838961E+02   -0.22239E+00   -0.22898E+00   240   0.728E+00    0.820E-01
DAV:   3    -0.171800340168E+02    0.72499E-02   -0.59204E-02   240   0.112E+00    0.606E-01
DAV:   4    -0.171708045625E+02    0.92295E-02   -0.19901E-02   256   0.497E-01    0.250E-01
DAV:   5    -0.171704292368E+02    0.37533E-03   -0.69702E-03   224   0.325E-01    0.118E-01
DAV:   6    -0.171703945944E+02    0.34642E-04   -0.49624E-04   256   0.181E-01
  63 F= -.17170395E+02 E0= -.17185970E+02  d E =-.898957E-01  mag=    -0.0000
       N       E                     dE             d eps       ncg     rms          rms(c)
DAV:   1    -0.170288903183E+02    0.14154E+00   -0.17441E+02   224   0.460E+01    0.974E-01
DAV:   2    -0.172137220512E+02   -0.18483E+00   -0.19146E+00   256   0.669E+00    0.851E-01
DAV:   3    -0.172071631587E+02    0.65589E-02   -0.51258E-02   240   0.106E+00    0.609E-01
DAV:   4    -0.171998655316E+02    0.72976E-02   -0.16325E-02   240   0.606E-01    0.378E-01
DAV:   5    -0.171989390127E+02    0.92652E-03   -0.92577E-03   240   0.566E-01    0.141E-01
DAV:   6    -0.171990048708E+02   -0.65858E-04   -0.70001E-04   240   0.213E-01
  64 F= -.17199005E+02 E0= -.17215127E+02  d E =-.286103E-01  mag=    -0.0000
       N       E                     dE             d eps       ncg     rms          rms(c)
DAV:   1    -0.171988055242E+02    0.13349E-03   -0.33546E-01   224   0.201E+00    0.429E-02
DAV:   2    -0.171991953806E+02   -0.38986E-03   -0.33841E-03   240   0.299E-01    0.520E-02
DAV:   3    -0.171991938402E+02    0.15404E-05   -0.95907E-05   160   0.648E-02
  65 F= -.17199194E+02 E0= -.17215337E+02  d E =-.287992E-01  mag=    -0.0000
       N       E                     dE             d eps       ncg     rms          rms(c)
DAV:   1    -0.171254997142E+02    0.73696E-01   -0.10315E+02   224   0.352E+01    0.749E-01
DAV:   2    -0.172360165031E+02   -0.11052E+00   -0.11444E+00   256   0.515E+00    0.611E-01
DAV:   3    -0.172318874419E+02    0.41291E-02   -0.31036E-02   240   0.802E-01    0.441E-01
DAV:   4    -0.172276798614E+02    0.42076E-02   -0.11429E-02   256   0.448E-01    0.236E-01
DAV:   5    -0.172275104960E+02    0.16937E-03   -0.41338E-03   240   0.411E-01    0.115E-01
DAV:   6    -0.172274739464E+02    0.36550E-04   -0.43880E-04   192   0.189E-01
  66 F= -.17227474E+02 E0= -.17243242E+02  d E =-.282801E-01  mag=    -0.0000
       N       E                     dE             d eps       ncg     rms          rms(c)
DAV:   1    -0.172236679067E+02    0.38426E-02   -0.40941E+00   224   0.698E+00    0.153E-01
DAV:   2    -0.172281435141E+02   -0.44756E-02   -0.46379E-02   256   0.104E+00    0.120E-01
DAV:   3    -0.172279762422E+02    0.16727E-03   -0.12628E-03   256   0.161E-01    0.871E-02
DAV:   4    -0.172278662970E+02    0.10995E-03   -0.53401E-04   240   0.819E-02    0.271E-02
DAV:   5    -0.172279217485E+02   -0.55452E-04   -0.69222E-05   160   0.376E-02
  67 F= -.17227922E+02 E0= -.17243575E+02  d E =-.287279E-01  mag=    -0.0000
       N       E                     dE             d eps       ncg     rms          rms(c)
DAV:   1    -0.171412486561E+02    0.86618E-01   -0.10990E+02   224   0.364E+01    0.745E-01
DAV:   2    -0.172592013768E+02   -0.11795E+00   -0.12086E+00   256   0.529E+00    0.610E-01
DAV:   3    -0.172545814827E+02    0.46199E-02   -0.32332E-02   240   0.821E-01    0.451E-01
DAV:   4    -0.172501281097E+02    0.44534E-02   -0.12120E-02   240   0.496E-01    0.285E-01
DAV:   5    -0.172495966384E+02    0.53147E-03   -0.64488E-03   240   0.511E-01    0.136E-01
DAV:   6    -0.172495502512E+02    0.46387E-04   -0.75595E-04   240   0.216E-01
  68 F= -.17249550E+02 E0= -.17266820E+02  d E =-.216285E-01  mag=    -0.0000
       N       E                     dE             d eps       ncg     rms          rms(c)
DAV:   1    -0.172486883982E+02    0.90824E-03   -0.90836E-01   224   0.329E+00    0.747E-02
DAV:   2    -0.172497417089E+02   -0.10533E-02   -0.10577E-02   256   0.493E-01    0.551E-02
DAV:   3    -0.172497197374E+02    0.21972E-04   -0.26078E-04   160   0.788E-02
  69 F= -.17249720E+02 E0= -.17267057E+02  d E =-.217980E-01  mag=    -0.0000
       N       E                     dE             d eps       ncg     rms          rms(c)
DAV:   1    -0.172094928555E+02    0.40249E-01   -0.63335E+01   224   0.277E+01    0.519E-01
DAV:   2    -0.172772593495E+02   -0.67766E-01   -0.69576E-01   240   0.404E+00    0.464E-01
DAV:   3    -0.172747601192E+02    0.24992E-02   -0.18269E-02   256   0.634E-01    0.352E-01
DAV:   4    -0.172724033771E+02    0.23567E-02   -0.52603E-03   240   0.376E-01    0.262E-01
DAV:   5    -0.172715397389E+02    0.86364E-03   -0.57206E-03   240   0.422E-01    0.102E-01
DAV:   6    -0.172716116426E+02   -0.71904E-04   -0.71757E-04   240   0.155E-01
  70 F= -.17271612E+02 E0= -.17288887E+02  d E =-.218919E-01  mag=    -0.0000
       N       E                     dE             d eps       ncg     rms          rms(c)
DAV:   1    -0.172612932697E+02    0.10246E-01   -0.14092E+01   224   0.130E+01    0.243E-01
DAV:   2    -0.172766945037E+02   -0.15401E-01   -0.15793E-01   240   0.192E+00    0.213E-01
DAV:   3    -0.172761680487E+02    0.52645E-03   -0.41126E-03   256   0.297E-01    0.161E-01
DAV:   4    -0.172756193563E+02    0.54869E-03   -0.12954E-03   240   0.155E-01    0.922E-02
DAV:   5    -0.172755853165E+02    0.34040E-04   -0.83288E-04   240   0.166E-01
  71 F= -.17275585E+02 E0= -.17292925E+02  d E =-.258656E-01  mag=    -0.0000
       N       E                     dE             d eps       ncg     rms          rms(c)
DAV:   1    -0.172289169059E+02    0.46702E-01   -0.69243E+01   224   0.289E+01    0.642E-01
DAV:   2    -0.173035624870E+02   -0.74646E-01   -0.77934E-01   240   0.432E+00    0.674E-01
DAV:   3    -0.173008739956E+02    0.26885E-02   -0.23981E-02   240   0.878E-01    0.399E-01
DAV:   4    -0.172988538182E+02    0.20202E-02   -0.58883E-03   240   0.494E-01    0.410E-01
DAV:   5    -0.172971136901E+02    0.17401E-02   -0.90724E-03   240   0.478E-01    0.915E-02
DAV:   6    -0.172972709984E+02   -0.15731E-03   -0.69477E-04   240   0.137E-01    0.733E-02
DAV:   7    -0.172972747861E+02   -0.37877E-05   -0.66095E-05   144   0.459E-02
  72 F= -.17297275E+02 E0= -.17314159E+02  d E =-.216895E-01  mag=    -0.0000
       N       E                     dE             d eps       ncg     rms          rms(c)
DAV:   1    -0.172625847800E+02    0.34686E-01   -0.37929E+01   224   0.213E+01    0.469E-01
DAV:   2    -0.173034573380E+02   -0.40873E-01   -0.42867E-01   240   0.321E+00    0.508E-01
DAV:   3    -0.173019290871E+02    0.15283E-02   -0.12954E-02   240   0.647E-01    0.304E-01
DAV:   4    -0.173006812861E+02    0.12478E-02   -0.30405E-03   256   0.346E-01    0.304E-01
DAV:   5    -0.172997483462E+02    0.93294E-03   -0.51356E-03   240   0.355E-01    0.722E-02
DAV:   6    -0.172998428604E+02   -0.94514E-04   -0.40663E-04   160   0.115E-01
  73 F= -.17299843E+02 E0= -.17316489E+02  d E =-.242575E-01  mag=    -0.0000
       N       E                     dE             d eps       ncg     rms          rms(c)
DAV:   1    -0.172763339698E+02    0.23414E-01   -0.32087E+01   224   0.196E+01    0.354E-01
DAV:   2    -0.173110170587E+02   -0.34683E-01   -0.35525E-01   224   0.286E+00    0.296E-01
DAV:   3    -0.173099159914E+02    0.11011E-02   -0.92116E-03   256   0.438E-01    0.225E-01
DAV:   4    -0.173086966293E+02    0.12194E-02   -0.23648E-03   224   0.184E-01    0.107E-01
DAV:   5    -0.173086337267E+02    0.62903E-04   -0.13985E-03   240   0.179E-01    0.551E-02
DAV:   6    -0.173086531225E+02   -0.19396E-04   -0.15786E-04   144   0.948E-02
  74 F= -.17308653E+02 E0= -.17325214E+02  d E =-.881026E-02  mag=    -0.0000
       N       E                     dE             d eps       ncg     rms          rms(c)
DAV:   1    -0.172866896698E+02    0.21944E-01   -0.24308E+01   224   0.170E+01    0.301E-01
DAV:   2    -0.173128416138E+02   -0.26152E-01   -0.26785E-01   240   0.249E+00    0.261E-01
DAV:   3    -0.173119761018E+02    0.86551E-03   -0.69370E-03   256   0.382E-01    0.201E-01
DAV:   4    -0.173110152605E+02    0.96084E-03   -0.18042E-03   224   0.165E-01    0.103E-01
DAV:   5    -0.173109242206E+02    0.91040E-04   -0.12703E-03   240   0.174E-01    0.490E-02
DAV:   6    -0.173109513484E+02   -0.27128E-04   -0.16519E-04   144   0.842E-02
  75 F= -.17310951E+02 E0= -.17327417E+02  d E =-.111085E-01  mag=    -0.0000
       N       E                     dE             d eps       ncg     rms          rms(c)
DAV:   1    -0.173140265007E+02   -0.31023E-02   -0.55430E+00   224   0.810E+00    0.187E-01
DAV:   2    -0.173199220002E+02   -0.58955E-02   -0.63117E-02   224   0.121E+00    0.153E-01
DAV:   3    -0.173197295897E+02    0.19241E-03   -0.18395E-03   256   0.200E-01    0.103E-01
DAV:   4    -0.173195940396E+02    0.13555E-03   -0.50363E-04   224   0.118E-01    0.757E-02
DAV:   5    -0.173195813393E+02    0.12700E-04   -0.36897E-04   144   0.111E-01
  76 F= -.17319581E+02 E0= -.17336100E+02  d E =-.862999E-02  mag=    -0.0000
       N       E                     dE             d eps       ncg     rms          rms(c)
DAV:   1    -0.172807691302E+02    0.38825E-01   -0.46957E+01   224   0.236E+01    0.573E-01
DAV:   2    -0.173303536673E+02   -0.49585E-01   -0.53181E-01   224   0.350E+00    0.455E-01
DAV:   3    -0.173286381892E+02    0.17155E-02   -0.15637E-02   256   0.581E-01    0.299E-01
DAV:   4    -0.173273454918E+02    0.12927E-02   -0.49251E-03   240   0.362E-01    0.224E-01
DAV:   5    -0.173270488080E+02    0.29668E-03   -0.33651E-03   240   0.327E-01    0.648E-02
DAV:   6    -0.173270944079E+02   -0.45600E-04   -0.25682E-04   144   0.993E-02
  77 F= -.17327094E+02 E0= -.17343668E+02  d E =-.161431E-01  mag=    -0.0000
       N       E                     dE             d eps       ncg     rms          rms(c)
DAV:   1    -0.173288750257E+02   -0.18262E-02   -0.20678E+00   224   0.494E+00    0.989E-02
DAV:   2    -0.173311491210E+02   -0.22741E-02   -0.23571E-02   240   0.737E-01    0.883E-02
DAV:   3    -0.173310742317E+02    0.74889E-04   -0.76024E-04   240   0.144E-01
  78 F= -.17331074E+02 E0= -.17347702E+02  d E =-.397982E-02  mag=    -0.0000
       N       E                     dE             d eps       ncg     rms          rms(c)
DAV:   1    -0.173212895653E+02    0.98596E-02   -0.18740E+01   224   0.149E+01    0.291E-01
DAV:   2    -0.173410719432E+02   -0.19782E-01   -0.20571E-01   224   0.219E+00    0.279E-01
DAV:   3    -0.173402298316E+02    0.84211E-03   -0.62345E-03   240   0.392E-01    0.204E-01
DAV:   4    -0.173396473071E+02    0.58252E-03   -0.12100E-03   240   0.184E-01    0.166E-01
DAV:   5    -0.173392578937E+02    0.38941E-03   -0.27553E-03   240   0.222E-01    0.378E-02
DAV:   6    -0.173393054449E+02   -0.47551E-04   -0.12817E-04   144   0.647E-02
  79 F= -.17339305E+02 E0= -.17356163E+02  d E =-.122110E-01  mag=    -0.0000
       N       E                     dE             d eps       ncg     rms          rms(c)
DAV:   1    -0.172671388941E+02    0.72119E-01   -0.75227E+01   224   0.299E+01    0.589E-01
DAV:   2    -0.173478869494E+02   -0.80748E-01   -0.84345E-01   224   0.439E+00    0.523E-01
DAV:   3    -0.173449931469E+02    0.28938E-02   -0.27818E-02   240   0.818E-01    0.370E-01
DAV:   4    -0.173431744683E+02    0.18187E-02   -0.45451E-03   240   0.342E-01    0.303E-01
DAV:   5    -0.173414861897E+02    0.16883E-02   -0.92691E-03   240   0.386E-01    0.766E-02
DAV:   6    -0.173415860434E+02   -0.99854E-04   -0.62618E-04   176   0.135E-01
  80 F= -.17341586E+02 E0= -.17358873E+02  d E =-.144916E-01  mag=    -0.0000
       N       E                     dE             d eps       ncg     rms          rms(c)
DAV:   1    -0.173407926852E+02    0.69350E-03   -0.11887E+01   224   0.118E+01    0.215E-01
DAV:   2    -0.173537118765E+02   -0.12919E-01   -0.13280E-01   224   0.174E+00    0.186E-01
DAV:   3    -0.173533000926E+02    0.41178E-03   -0.35330E-03   256   0.272E-01    0.141E-01
DAV:   4    -0.173529137986E+02    0.38629E-03   -0.80756E-04   256   0.121E-01    0.881E-02
DAV:   5    -0.173528579806E+02    0.55818E-04   -0.94253E-04   240   0.142E-01
  81 F= -.17352858E+02 E0= -.17370278E+02  d E =-.112719E-01  mag=    -0.0000
       N       E                     dE             d eps       ncg     rms          rms(c)
DAV:   1    -0.172626162631E+02    0.90298E-01   -0.10822E+02   224   0.359E+01    0.640E-01
DAV:   2    -0.173778840871E+02   -0.11527E+00   -0.11854E+00   224   0.521E+00    0.577E-01
DAV:   3    -0.173741215720E+02    0.37625E-02   -0.31736E-02   256   0.815E-01    0.440E-01
DAV:   4    -0.173701226681E+02    0.39989E-02   -0.66114E-03   256   0.350E-01    0.277E-01
DAV:   5    -0.173689195327E+02    0.12031E-02   -0.83485E-03   256   0.405E-01    0.972E-02
DAV:   6    -0.173690454829E+02   -0.12595E-03   -0.89814E-04   256   0.159E-01    0.664E-02
DAV:   7    -0.173690894938E+02   -0.44011E-04   -0.11112E-04   144   0.496E-02
  82 F= -.17369089E+02 E0= -.17387004E+02  d E =-.275035E-01  mag=    -0.0000
       N       E                     dE             d eps       ncg     rms          rms(c)
DAV:   1    -0.173593973302E+02    0.96482E-02   -0.30455E+01   224   0.190E+01    0.390E-01
DAV:   2    -0.173921217323E+02   -0.32724E-01   -0.34453E-01   224   0.283E+00    0.378E-01
DAV:   3    -0.173909290837E+02    0.11926E-02   -0.10483E-02   256   0.504E-01    0.255E-01
DAV:   4    -0.173898273986E+02    0.11017E-02   -0.21834E-03   240   0.230E-01    0.202E-01
DAV:   5    -0.173894005074E+02    0.42689E-03   -0.36327E-03   240   0.251E-01    0.443E-02
DAV:   6    -0.173894642856E+02   -0.63778E-04   -0.10782E-04   144   0.572E-02
  83 F= -.17389464E+02 E0= -.17407331E+02  d E =-.203748E-01  mag=    -0.0000
       N       E                     dE             d eps       ncg     rms          rms(c)
DAV:   1    -0.173256367110E+02    0.63764E-01   -0.72094E+01   224   0.293E+01    0.617E-01
DAV:   2    -0.174024705549E+02   -0.76834E-01   -0.80423E-01   224   0.431E+00    0.539E-01
DAV:   3    -0.173996962077E+02    0.27743E-02   -0.22627E-02   256   0.700E-01    0.375E-01
DAV:   4    -0.173968259299E+02    0.28703E-02   -0.56940E-03   240   0.317E-01    0.223E-01
DAV:   5    -0.173965056080E+02    0.32032E-03   -0.44984E-03   240   0.278E-01    0.663E-02
DAV:   6    -0.173965360652E+02   -0.30457E-04   -0.18400E-04   160   0.786E-02
  84 F= -.17396536E+02 E0= -.17413230E+02  d E =-.274466E-01  mag=    -0.0000
       N       E                     dE             d eps       ncg     rms          rms(c)
DAV:   1    -0.173935475455E+02    0.29581E-02   -0.17036E+01   224   0.143E+01    0.710E-01
DAV:   2    -0.174090829823E+02   -0.15535E-01   -0.22929E-01   224   0.236E+00    0.614E-01
DAV:   3    -0.174082668659E+02    0.81612E-03   -0.13526E-02   256   0.672E-01    0.289E-01
DAV:   4    -0.174079576864E+02    0.30918E-03   -0.29497E-03   240   0.287E-01    0.175E-01
DAV:   5    -0.174079454760E+02    0.12210E-04   -0.80757E-04   224   0.162E-01
  85 F= -.17407945E+02 E0= -.17425576E+02  d E =-.114094E-01  mag=    -0.0000
       N       E                     dE             d eps       ncg     rms          rms(c)
DAV:   1    -0.174087218495E+02   -0.76416E-03   -0.11916E+00   224   0.377E+00    0.185E-01
DAV:   2    -0.174098290549E+02   -0.11072E-02   -0.15375E-02   240   0.619E-01    0.165E-01
DAV:   3    -0.174097771603E+02    0.51895E-04   -0.91520E-04   256   0.176E-01
  86 F= -.17409777E+02 E0= -.17427243E+02  d E =-.132411E-01  mag=    -0.0000
       N       E                     dE             d eps       ncg     rms          rms(c)
DAV:   1    -0.174109338825E+02   -0.11048E-02   -0.28842E+00   224   0.585E+00    0.186E-01
DAV:   2    -0.174139538757E+02   -0.30200E-02   -0.34272E-02   256   0.885E-01    0.131E-01
DAV:   3    -0.174138500446E+02    0.10383E-03   -0.11538E-03   240   0.159E-01    0.818E-02
DAV:   4    -0.174138032053E+02    0.46839E-04   -0.31124E-04   224   0.740E-02
  87 F= -.17413803E+02 E0= -.17431400E+02  d E =-.402605E-02  mag=     0.0000
       N       E                     dE             d eps       ncg     rms          rms(c)
DAV:   1    -0.174119684978E+02    0.18815E-02   -0.29455E+00   224   0.592E+00    0.197E-01
DAV:   2    -0.174150275209E+02   -0.30590E-02   -0.35221E-02   256   0.892E-01    0.136E-01
DAV:   3    -0.174149275888E+02    0.99932E-04   -0.11804E-03   240   0.158E-01    0.828E-02
DAV:   4    -0.174148836777E+02    0.43911E-04   -0.27580E-04   176   0.712E-02
  88 F= -.17414884E+02 E0= -.17432551E+02  d E =-.510652E-02  mag=     0.0000
       N       E                     dE             d eps       ncg     rms          rms(c)
DAV:   1    -0.174157572216E+02   -0.82963E-03   -0.15187E+00   224   0.426E+00    0.995E-02
DAV:   2    -0.174174025543E+02   -0.16453E-02   -0.17249E-02   240   0.623E-01    0.715E-02
DAV:   3    -0.174173431762E+02    0.59378E-04   -0.49168E-04   240   0.993E-02
  89 F= -.17417343E+02 E0= -.17435031E+02  d E =-.245950E-02  mag=     0.0000
       N       E                     dE             d eps       ncg     rms          rms(c)
DAV:   1    -0.174139005149E+02    0.35020E-02   -0.61600E+00   224   0.857E+00    0.205E-01
DAV:   2    -0.174204655654E+02   -0.65651E-02   -0.68557E-02   240   0.125E+00    0.157E-01
DAV:   3    -0.174201535035E+02    0.31206E-03   -0.20146E-03   256   0.201E-01    0.110E-01
DAV:   4    -0.174199508554E+02    0.20265E-03   -0.76431E-04   240   0.111E-01    0.472E-02
DAV:   5    -0.174199656902E+02   -0.14835E-04   -0.19871E-04   160   0.763E-02
  90 F= -.17419966E+02 E0= -.17437644E+02  d E =-.508201E-02  mag=     0.0000
       N       E                     dE             d eps       ncg     rms          rms(c)
DAV:   1    -0.174214752140E+02   -0.15244E-02   -0.23393E+00   224   0.527E+00    0.126E-01
DAV:   2    -0.174240152428E+02   -0.25400E-02   -0.27010E-02   240   0.789E-01    0.106E-01
DAV:   3    -0.174239207519E+02    0.94491E-04   -0.85236E-04   256   0.144E-01
  91 F= -.17423921E+02 E0= -.17441480E+02  d E =-.395506E-02  mag=     0.0000
       N       E                     dE             d eps       ncg     rms          rms(c)
DAV:   1    -0.174152533653E+02    0.87619E-02   -0.13780E+01   224   0.128E+01    0.309E-01
DAV:   2    -0.174298315251E+02   -0.14578E-01   -0.15318E-01   240   0.189E+00    0.262E-01
DAV:   3    -0.174291421276E+02    0.68940E-03   -0.45019E-03   256   0.312E-01    0.182E-01
DAV:   4    -0.174285786744E+02    0.56345E-03   -0.16395E-03   256   0.161E-01    0.896E-02
DAV:   5    -0.174286056501E+02   -0.26976E-04   -0.63830E-04   256   0.116E-01
  92 F= -.17428606E+02 E0= -.17445423E+02  d E =-.863996E-02  mag=    -0.0000
       N       E                     dE             d eps       ncg     rms          rms(c)
DAV:   1    -0.174295132506E+02   -0.93458E-03   -0.15719E+00   224   0.435E+00    0.158E-01
DAV:   2    -0.174311301549E+02   -0.16169E-02   -0.19089E-02   256   0.662E-01    0.119E-01
DAV:   3    -0.174310836741E+02    0.46481E-04   -0.73310E-04   256   0.134E-01
  93 F= -.17431084E+02 E0= -.17447987E+02  d E =-.247802E-02  mag=    -0.0000
       N       E                     dE             d eps       ncg     rms          rms(c)
DAV:   1    -0.174311247480E+02    0.54069E-05   -0.17590E-01   224   0.146E+00    0.819E-02
DAV:   2    -0.174313026440E+02   -0.17790E-03   -0.20329E-03   256   0.214E-01    0.502E-02
DAV:   3    -0.174312999464E+02    0.26976E-05   -0.90260E-05   128   0.407E-02
  94 F= -.17431300E+02 E0= -.17448216E+02  d E =-.269430E-02  mag=    -0.0000
       N       E                     dE             d eps       ncg     rms          rms(c)
DAV:   1    -0.174318384344E+02   -0.53579E-03   -0.16031E+00   224   0.434E+00    0.928E-02
DAV:   2    -0.174335586140E+02   -0.17202E-02   -0.18099E-02   256   0.642E-01    0.789E-02
DAV:   3    -0.174334928735E+02    0.65741E-04   -0.51347E-04   256   0.104E-01
  95 F= -.17433493E+02 E0= -.17450442E+02  d E =-.219293E-02  mag=    -0.0000
       N       E                     dE             d eps       ncg     rms          rms(c)
DAV:   1    -0.174213083732E+02    0.12250E-01   -0.14437E+01   224   0.130E+01    0.291E-01
DAV:   2    -0.174366361103E+02   -0.15328E-01   -0.16088E-01   256   0.192E+00    0.247E-01
DAV:   3    -0.174359708528E+02    0.66526E-03   -0.45732E-03   256   0.307E-01    0.178E-01
DAV:   4    -0.174353817526E+02    0.58910E-03   -0.15115E-03   240   0.147E-01    0.779E-02
DAV:   5    -0.174353998696E+02   -0.18117E-04   -0.52832E-04   240   0.971E-02
  96 F= -.17435400E+02 E0= -.17452336E+02  d E =-.409992E-02  mag=    -0.0000
       N       E                     dE             d eps       ncg     rms          rms(c)
DAV:   1    -0.174357866954E+02   -0.40494E-03   -0.29108E-01   224   0.183E+00    0.403E-02
DAV:   2    -0.174361298537E+02   -0.34316E-03   -0.34657E-03   240   0.274E-01    0.258E-02
DAV:   3    -0.174361267855E+02    0.30682E-05   -0.84859E-05   112   0.424E-02
  97 F= -.17436127E+02 E0= -.17453029E+02  d E =-.726916E-03  mag=    -0.0000
       N       E                     dE             d eps       ncg     rms          rms(c)
DAV:   1    -0.174364044896E+02   -0.27464E-03   -0.93541E-01   224   0.329E+00    0.559E-02
DAV:   2    -0.174374077959E+02   -0.10033E-02   -0.10141E-02   224   0.479E-01    0.538E-02
DAV:   3    -0.174373657700E+02    0.42026E-04   -0.24037E-04   192   0.717E-02
  98 F= -.17437366E+02 E0= -.17454179E+02  d E =-.196590E-02  mag=    -0.0000
       N       E                     dE             d eps       ncg     rms          rms(c)
DAV:   1    -0.174383061827E+02   -0.89839E-03   -0.68417E-02   224   0.903E-01    0.415E-02
DAV:   2    -0.174383740492E+02   -0.67866E-04   -0.81615E-04   256   0.136E-01
  99 F= -.17438374E+02 E0= -.17455091E+02  d E =-.100828E-02  mag=    -0.0000
       N       E                     dE             d eps       ncg     rms          rms(c)
DAV:   1    -0.174397693984E+02   -0.14632E-02   -0.43029E-01   224   0.227E+00    0.102E-01
DAV:   2    -0.174401779724E+02   -0.40857E-03   -0.51328E-03   256   0.341E-01    0.736E-02
DAV:   3    -0.174401636506E+02    0.14322E-04   -0.21135E-04   176   0.714E-02
 100 F= -.17440164E+02 E0= -.17456657E+02  d E =-.279788E-02  mag=    -0.0000
