 vasp.6.1.2 22Jul20 (build Jan 14 2022 17:24:41) gamma-only                      
 executed on             LinuxPGI date 2022.01.26  09:25:48
 running on    8 total cores
 distrk:  each k-point on    8 cores,    1 groups
 distr:  one band on NCORE=   8 cores,    1 groups


--------------------------------------------------------------------------------------------------------


 INCAR:
 POTCAR:    PAW_PBE Au 04Oct2007                  
 -----------------------------------------------------------------------------
|                                                                             |
|           W    W    AA    RRRRR   N    N  II  N    N   GGGG   !!!           |
|           W    W   A  A   R    R  NN   N  II  NN   N  G    G  !!!           |
|           W    W  A    A  R    R  N N  N  II  N N  N  G       !!!           |
|           W WW W  AAAAAA  RRRRR   N  N N  II  N  N N  G  GGG   !            |
|           WW  WW  A    A  R   R   N   NN  II  N   NN  G    G                |
|           W    W  A    A  R    R  N    N  II  N    N   GGGG   !!!           |
|                                                                             |
|     You use a magnetic or noncollinear calculation, but did not specify     |
|     the initial magnetic moment with the MAGMOM tag. Note that a            |
|     default of 1 will be used for all atoms. This ferromagnetic setup       |
|     may break the symmetry of the crystal, in particular it may rule        |
|     out finding an antiferromagnetic solution. Thence, we recommend         |
|     setting the initial magnetic moment manually or verifying carefully     |
|     that this magnetic setup is desired.                                    |
|                                                                             |
 -----------------------------------------------------------------------------

 -----------------------------------------------------------------------------
|                                                                             |
|           W    W    AA    RRRRR   N    N  II  N    N   GGGG   !!!           |
|           W    W   A  A   R    R  NN   N  II  NN   N  G    G  !!!           |
|           W    W  A    A  R    R  N N  N  II  N N  N  G       !!!           |
|           W WW W  AAAAAA  RRRRR   N  N N  II  N  N N  G  GGG   !            |
|           WW  WW  A    A  R   R   N   NN  II  N   NN  G    G                |
|           W    W  A    A  R    R  N    N  II  N    N   GGGG   !!!           |
|                                                                             |
|     For optimal performance we recommend to set                             |
|       NCORE = 4 - approx SQRT(number of cores).                             |
|     NCORE specifies how many cores store one orbital (NPAR=cpu/NCORE).      |
|     This setting can greatly improve the performance of VASP for DFT.       |
|     The default, NCORE=1 might be grossly inefficient on modern             |
|     multi-core architectures or massively parallel machines. Do your        |
|     own testing!!!!                                                         |
|     Unfortunately you need to use the default for GW and RPA                |
|     calculations (for HF NCORE is supported but not extensively tested      |
|     yet).                                                                   |
|                                                                             |
 -----------------------------------------------------------------------------

 POTCAR:    PAW_PBE Au 04Oct2007                  
   SHA256 =  d0044ae04e2bdce24051b198fc5c053d722a5bc6fe3c3b100514a13fc5d2db88 Au/POTCAR             
   COPYR  = (c) Copyright 04Oct2007 Georg Kresse                                                    
   COPYR  = This file is part of the software VASP. Any use, copying, and all other rights are regul
   COPYR  = If you do not have a valid VASP license, you may not use, copy or distribute this file. 
   VRHFIN =Au: s1d10                                                                                
   LEXCH  = PE                                                                                      
   EATOM  =   926.0867 eV,   68.0654 Ry                                                             
                                                                                                    
   TITEL  = PAW_PBE Au 04Oct2007                                                                    
   LULTRA =        F    use ultrasoft PP ?                                                          
   IUNSCR =        1    unscreen: 0-lin 1-nonlin 2-no                                               
   RPACOR =    2.330    partial core radius                                                         
   POMASS =  196.966; ZVAL   =   11.000    mass and valenz                                          
   RCORE  =    2.500    outmost cutoff radius                                                       
   RWIGS  =    2.840; RWIGS  =    1.503    wigner-seitz radius (au A)                               
   ENMAX  =  229.943; ENMIN  =  172.457 eV                                                          
   ICORE  =        3    local potential                                                             
   LCOR   =        T    correct aug charges                                                         
   LPAW   =        T    paw PP                                                                      
   EAUG   =  356.670                                                                                
   DEXC   =    0.000                                                                                
   RMAX   =    2.562    core radius for proj-oper                                                   
   RAUG   =    1.300    factor for augmentation sphere                                              
   RDEP   =    2.598    radius for radial grids                                                     
   RDEPT  =    2.193    core radius for aug-charge                                                  
                                                                                                    
   Atomic configuration                                                                             
   16 entries                                                                                       
     n  l   j            E        occ.                                                              
     1  0  0.50    -80748.5001   2.0000                                                             
     2  0  0.50    -14244.7466   2.0000                                                             
     2  1  1.50    -12310.9591   6.0000                                                             
     3  0  0.50     -3362.1768   2.0000                                                             
     3  1  1.50     -2801.5463   6.0000                                                             
     3  2  2.50     -2203.8206  10.0000                                                             
     4  0  0.50      -729.8168   2.0000                                                             
     4  1  1.50      -546.0527   6.0000                                                             
     4  2  2.50      -325.7302  10.0000                                                             
     4  3  3.50       -81.1472  14.0000                                                             
     5  0  0.50      -108.3201   2.0000                                                             
     5  1  1.50       -59.7479   6.0000                                                             
     5  2  2.50        -6.8783  10.0000                                                             
     6  0  0.50        -5.7602   1.0000                                                             
     6  1  1.50        -6.8029   0.0000                                                             
     5  3  2.50        -1.3606   0.0000                                                             
   Description                                                                                      
     l       E           TYP  RCUT    TYP  RCUT                                                     
     2     -6.8782861     23  2.500                                                                 
     2     -8.2388687     23  2.500                                                                 
     0     -5.7601759     23  2.500                                                                 
     0     -0.8493231     23  2.500                                                                 
     1     -2.7211652     23  2.500                                                                 
     1     27.2116520     23  2.500                                                                 
     3     -1.3605826     23  2.500                                                                 
  local pseudopotential read in
  partial core-charges read in
  partial kinetic energy density read in
  atomic valenz-charges read in
  non local Contribution for L=            2  read in
    real space projection operators read in
  non local Contribution for L=            2  read in
    real space projection operators read in
  non local Contribution for L=            0  read in
    real space projection operators read in
  non local Contribution for L=            0  read in
    real space projection operators read in
  non local Contribution for L=            1  read in
    real space projection operators read in
  non local Contribution for L=            1  read in
    real space projection operators read in
    PAW grid and wavefunctions read in
 
   number of l-projection  operators is LMAX  =            6
   number of lm-projection operators is LMMAX =           18
 
  PAW_PBE Au 04Oct2007                  :
 energy of atom  1       EATOM= -926.0867
 kinetic energy error for atom=    0.0062 (will be added to EATOM!!)
 
 
 POSCAR: Au
  positions in cartesian coordinates
  No initial velocities read in
 exchange correlation table for  LEXCH =        8
   RHO(1)=    0.500       N(1)  =     2000
   RHO(2)=  100.500       N(2)  =     4000
 


--------------------------------------------------------------------------------------------------------


 ion  position               nearest neighbor table
   1  0.551  0.480  0.567-   3 2.58   6 2.64   8 2.70   2 2.73   7 2.77
   2  0.450  0.510  0.516-   4 2.55   5 2.56   7 2.71   1 2.73   6 2.82   8 2.85
   3  0.607  0.422  0.483-   1 2.58   7 2.59   8 2.63
   4  0.399  0.423  0.469-   8 2.51   2 2.55
   5  0.445  0.621  0.516-   6 2.48   2 2.56
   6  0.543  0.585  0.518-   5 2.48   1 2.64   7 2.65   2 2.82
   7  0.538  0.497  0.436-   3 2.59   6 2.65   8 2.70   2 2.71   1 2.77
   8  0.499  0.400  0.493-   4 2.51   3 2.63   1 2.70   7 2.70   2 2.85
 

IMPORTANT INFORMATION: All symmetrisations will be switched off!
NOSYMM: (Re-)initialisation of all symmetry stuff for point group C_1.


----------------------------------------------------------------------------------------

                                     Primitive cell                                     

  volume of cell :   11527.8866

  direct lattice vectors                    reciprocal lattice vectors
    23.904855270  0.000000000  0.000000000     0.041832506  0.000000000  0.000000000
     0.000000000 23.072042193  0.000000000     0.000000000  0.043342500  0.000000000
     0.000000000  0.000000000 20.901504072     0.000000000  0.000000000  0.047843447

  length of vectors
    23.904855270 23.072042193 20.901504072     0.041832506  0.043342500  0.047843447

  position of ions in fractional coordinates (direct lattice)
     0.550624833  0.479640765  0.566730257
     0.449641955  0.510481058  0.516313973
     0.606944001  0.421717253  0.483035898
     0.398734017  0.423298963  0.468888695
     0.445016606  0.621291044  0.515683757
     0.542865684  0.585087903  0.518466245
     0.538265836  0.497341939  0.436474651
     0.499205784  0.400148261  0.492608514

  ion indices of the primitive-cell ions
   primitive index   ion index
                 1           1
                 2           2
                 3           3
                 4           4
                 5           5
                 6           6
                 7           7
                 8           8

----------------------------------------------------------------------------------------

 
 
 KPOINTS: KPOINTS created by Atomic Simulation Env

Automatic generation of k-mesh.
Space group operators:
 irot       det(A)        alpha          n_x          n_y          n_z        tau_x        tau_y        tau_z
    1     1.000000     0.000000     1.000000     0.000000     0.000000     0.000000     0.000000     0.000000
 
 Subroutine IBZKPT returns following result:
 ===========================================
 
 Found      1 irreducible k-points:
 
 Following reciprocal coordinates:
            Coordinates               Weight
  0.000000  0.000000  0.000000      1.000000
 
 Following cartesian coordinates:
            Coordinates               Weight
  0.000000  0.000000  0.000000      1.000000
 


--------------------------------------------------------------------------------------------------------




 Dimension of arrays:
   k-points           NKPTS =      1   k-points in BZ     NKDIM =      1   number of bands    NBANDS=     56
   number of dos      NEDOS =    301   number of ions     NIONS =      8
   non local maximal  LDIM  =      6   non local SUM 2l+1 LMDIM =     18
   total plane-waves  NPLWV = ******
   max r-space proj   IRMAX =      1   max aug-charges    IRDMAX=   8449
   dimension x,y,z NGX =   120 NGY =  120 NGZ =  108
   dimension x,y,z NGXF=   240 NGYF=  240 NGZF=  216
   support grid    NGXF=   240 NGYF=  240 NGZF=  216
   ions per type =               8
   NGX,Y,Z   is equivalent  to a cutoff of   8.35,  8.65,  8.59 a.u.
   NGXF,Y,Z  is equivalent  to a cutoff of  16.69, 17.29, 17.18 a.u.

 SYSTEM =  unknown system                          
 POSCAR =  Au                                      

 Startparameter for this run:
   NWRITE =      2    write-flag & timer
   PREC   = normal    normal or accurate (medium, high low for compatibility)
   ISTART =      0    job   : 0-new  1-cont  2-samecut
   ICHARG =      2    charge: 1-file 2-atom 10-const
   ISPIN  =      2    spin polarized calculation?
   LNONCOLLINEAR =      F non collinear calculations
   LSORBIT =      F    spin-orbit coupling
   INIWAV =      1    electr: 0-lowe 1-rand  2-diag
   LASPH  =      F    aspherical Exc in radial PAW
   METAGGA=      F    non-selfconsistent MetaGGA calc.

 Electronic Relaxation 1
   ENCUT  =  400.0 eV  29.40 Ry    5.42 a.u.  38.98 37.62 34.09*2*pi/ulx,y,z
   ENINI  =  400.0     initial cutoff
   ENAUG  =  356.7 eV  augmentation charge cutoff
   NELM   =     60;   NELMIN=  2; NELMDL=  0     # of ELM steps 
   EDIFF  = 0.1E-03   stopping-criterion for ELM
   LREAL  =      F    real-space projection
   NLSPLINE    = F    spline interpolate recip. space projectors
   LCOMPAT=      F    compatible to vasp.4.4
   GGA_COMPAT  = T    GGA compatible to vasp.4.4-vasp.4.6
   LMAXPAW     = -100 max onsite density
   LMAXMIX     =    2 max onsite mixed and CHGCAR
   VOSKOWN=      0    Vosko Wilk Nusair interpolation
   ROPT   =    0.00000
 Ionic relaxation
   EDIFFG = 0.1E-02   stopping-criterion for IOM
   NSW    =   1000    number of steps for IOM
   NBLOCK =      1;   KBLOCK =   1000    inner block; outer block 
   IBRION =      2    ionic relax: 0-MD 1-quasi-New 2-CG
   NFREE  =      1    steps in history (QN), initial steepest desc. (CG)
   ISIF   =      0    stress and relaxation
   IWAVPR =     11    prediction:  0-non 1-charg 2-wave 3-comb
   ISYM   =      0    0-nonsym 1-usesym 2-fastsym
   LCORR  =      T    Harris-Foulkes like correction to forces

   POTIM  = 0.5000    time-step for ionic-motion
   TEIN   =    0.0    initial temperature
   TEBEG  =    0.0;   TEEND  =   0.0 temperature during run
   SMASS  =  -3.00    Nose mass-parameter (am)
   estimated Nose-frequenzy (Omega)   =  0.10E-29 period in steps = 0.13E+47 mass=  -0.131E-25a.u.
   SCALEE = 1.0000    scale energy and forces
   NPACO  =    256;   APACO  = 16.0  distance and # of slots for P.C.
   PSTRESS=    0.0 pullay stress

  Mass of Ions in am
   POMASS = 196.97
  Ionic Valenz
   ZVAL   =  11.00
  Atomic Wigner-Seitz radii
   RWIGS  =  -1.00
  virtual crystal weights 
   VCA    =   1.00
   NELECT =      88.0000    total number of electrons
   NUPDOWN=      -1.0000    fix difference up-down

 DOS related values:
   EMIN   =  10.00;   EMAX   =-10.00  energy-range for DOS
   EFERMI =   0.00
   ISMEAR =     1;   SIGMA  =   0.20  broadening in eV -4-tet -1-fermi 0-gaus

 Electronic relaxation 2 (details)
   IALGO  =     38    algorithm
   LDIAG  =      T    sub-space diagonalisation (order eigenvalues)
   LSUBROT=      F    optimize rotation matrix (better conditioning)
   TURBO    =      0    0=normal 1=particle mesh
   IRESTART =      0    0=no restart 2=restart with 2 vectors
   NREBOOT  =      0    no. of reboots
   NMIN     =      0    reboot dimension
   EREF     =   0.00    reference energy to select bands
   IMIX   =      4    mixing-type and parameters
     AMIX     =   0.40;   BMIX     =  1.00
     AMIX_MAG =   1.60;   BMIX_MAG =  1.00
     AMIN     =   0.10
     WC   =   100.;   INIMIX=   1;  MIXPRE=   1;  MAXMIX= -45

 Intra band minimization:
   WEIMIN = 0.0010     energy-eigenvalue tresh-hold
   EBREAK =  0.45E-06  absolut break condition
   DEPER  =   0.30     relativ break condition  

   TIME   =   0.40     timestep for ELM

  volume/ion in A,a.u.               =    1440.99      9724.25
  Fermi-wavevector in a.u.,A,eV,Ry     =   0.322344  0.609141  1.413719  0.103905
  Thomas-Fermi vector in A             =   1.210636
 
 Write flags
   LWAVE        =      F    write WAVECAR
   LDOWNSAMPLE  =      F    k-point downsampling of WAVECAR
   LCHARG       =      F    write CHGCAR
   LVTOT        =      F    write LOCPOT, total local potential
   LVHAR        =      F    write LOCPOT, Hartree potential only
   LELF         =      F    write electronic localiz. function (ELF)
   LORBIT       =      0    0 simple, 1 ext, 2 COOP (PROOUT), +10 PAW based schemes


 Dipole corrections
   LMONO  =      F    monopole corrections only (constant potential shift)
   LDIPOL =      F    correct potential (dipole corrections)
   IDIPOL =      0    1-x, 2-y, 3-z, 4-all directions 
   EPSILON=  1.0000000 bulk dielectric constant

 Exchange correlation treatment:
   GGA     =    PE    GGA type
   LEXCH   =     8    internal setting for exchange type
   VOSKOWN=      0    Vosko Wilk Nusair interpolation
   LHFCALC =     F    Hartree Fock is set to
   LHFONE  =     F    Hartree Fock one center treatment
   AEXX    =    0.0000 exact exchange contribution

 Linear response parameters
   LEPSILON=     F    determine dielectric tensor
   LRPA    =     F    only Hartree local field effects (RPA)
   LNABLA  =     F    use nabla operator in PAW spheres
   LVEL    =     F    velocity operator in full k-point grid
   LINTERFAST=   F  fast interpolation
   KINTER  =     0    interpolate to denser k-point grid
   CSHIFT  =0.1000    complex shift for real part using Kramers Kronig
   OMEGAMAX=  -1.0    maximum frequency
   DEG_THRESHOLD= 0.2000000E-02 threshold for treating states as degnerate
   RTIME   =   -0.100 relaxation time in fs
  (WPLASMAI=    0.000 imaginary part of plasma frequency in eV, 0.658/RTIME)
   DFIELD  = 0.0000000 0.0000000 0.0000000 field for delta impulse in time
 
 Orbital magnetization related:
   ORBITALMAG=     F  switch on orbital magnetization
   LCHIMAG   =     F  perturbation theory with respect to B field
   DQ        =  0.001000  dq finite difference perturbation B field
   LLRAUG    =     F  two centre corrections for induced B field



--------------------------------------------------------------------------------------------------------


 conjugate gradient relaxation of ions
 charge density and potential will be updated during run
 spin polarized calculation
 Variant of blocked Davidson
 Davidson routine will perform the subspace rotation
 perform sub-space diagonalisation
    after iterative eigenvector-optimisation
 modified Broyden-mixing scheme, WC =      100.0
 initial mixing is a Kerker type mixing with AMIX =  0.4000 and BMIX =      1.0000
 Hartree-type preconditioning will be used
 using additional bands            12
 reciprocal scheme for non local part
 use partial core corrections
 calculate Harris-corrections to forces 
   (improved forces if not selfconsistent)
 use gradient corrections 
 use of overlap-Matrix (Vanderbilt PP)
 Methfessel and Paxton  Order N= 1 SIGMA  =   0.20


--------------------------------------------------------------------------------------------------------


  energy-cutoff  :      400.00
  volume of cell :    11527.89
      direct lattice vectors                 reciprocal lattice vectors
    23.904855270  0.000000000  0.000000000     0.041832506  0.000000000  0.000000000
     0.000000000 23.072042193  0.000000000     0.000000000  0.043342500  0.000000000
     0.000000000  0.000000000 20.901504072     0.000000000  0.000000000  0.047843447

  length of vectors
    23.904855270 23.072042193 20.901504072     0.041832506  0.043342500  0.047843447


 
 k-points in units of 2pi/SCALE and weight: KPOINTS created by Atomic Simulation Env
   0.00000000  0.00000000  0.00000000       1.000
 
 k-points in reciprocal lattice and weights: KPOINTS created by Atomic Simulation Env
   0.00000000  0.00000000  0.00000000       1.000
 
 position of ions in fractional coordinates (direct lattice) 
   0.55062483  0.47964077  0.56673026
   0.44964196  0.51048106  0.51631397
   0.60694400  0.42171725  0.48303590
   0.39873402  0.42329896  0.46888870
   0.44501661  0.62129104  0.51568376
   0.54286568  0.58508790  0.51846624
   0.53826584  0.49734194  0.43647465
   0.49920578  0.40014826  0.49260851
 
 position of ions in cartesian coordinates  (Angst):
  13.16260695 11.06629197 11.84551478
  10.74862586 11.77784051 10.79173860
  14.50890851  9.72987825 10.09617679
   9.53167896  9.76637154  9.80047898
  10.63805755 14.33445319 10.77856614
  12.97712561 13.49917278 10.83672433
  12.86716691 11.47469420  9.12297670
  11.93344201  9.23223755 10.29625886
 


--------------------------------------------------------------------------------------------------------


 use parallel FFT for orbitals z direction half grid
 k-point   1 :   0.0000 0.0000 0.0000  plane waves:  104670

 maximum and minimum number of plane-waves per node :     13090    13079

 maximum number of plane-waves:    104670
 maximum index in each direction: 
   IXMAX=   38   IYMAX=   37   IZMAX=   34
   IXMIN=  -38   IYMIN=  -37   IZMIN=    0


 parallel 3D FFT for wavefunctions:
    minimum data exchange during FFTs selected (reduces bandwidth)
 parallel 3D FFT for charge:
    minimum data exchange during FFTs selected (reduces bandwidth)


 total amount of memory used by VASP MPI-rank0   242195. kBytes
=======================================================================

   base      :      30000. kBytes
   nonl-proj :       3558. kBytes
   fftplans  :      56772. kBytes
   grid      :     128390. kBytes
   one-center:         15. kBytes
   wavefun   :      23460. kBytes
 
     INWAV:  cpu time    0.0000: real time    0.0000
 Broyden mixing: mesh for mixing (old mesh)
   NGX = 77   NGY = 75   NGZ = 69
  (NGX  =240   NGY  =240   NGZ  =216)
  gives a total of 398475 points

 initial charge density was supplied:
 charge density of overlapping atoms calculated
 number of electron      88.0000000 magnetization       8.0000000
 keeping initial charge density in first step


--------------------------------------------------------------------------------------------------------


 Maximum index for augmentation-charges          1055 (set IRDMAX)


--------------------------------------------------------------------------------------------------------


 First call to EWALD:  gamma=   0.078
 Maximum number of real-space cells 3x 3x 3
 Maximum number of reciprocal cells 3x 3x 3

    FEWALD:  cpu time    0.0012: real time    0.0012


--------------------------------------- Iteration      1(   1)  ---------------------------------------


    POTLOK:  cpu time    4.1250: real time    4.1374
    SETDIJ:  cpu time    0.0269: real time    0.0269
     EDDAV:  cpu time    6.2083: real time    6.2176
       DOS:  cpu time    0.0054: real time    0.0054
    --------------------------------------------
      LOOP:  cpu time   10.3656: real time   10.3874

 eigenvalue-minimisations  :   224
 total energy-change (2. order) : 0.7485624E+03  (-0.1334319E+04)
 number of electron      88.0000000 magnetization       8.0000000
 augmentation part       88.0000000 magnetization       8.0000000

 Free energy of the ion-electron system (eV)
  ---------------------------------------------------
  alpha Z        PSCENC =         6.46666210
  Ewald energy   TEWEN  =      8240.37115523
  -Hartree energ DENC   =    -15318.24976684
  -exchange      EXHF   =         0.00000000
  -V(xc)+E(xc)   XCENC  =       118.65619550
  PAW double counting   =      6992.17180065    -6807.49900724
  entropy T*S    EENTRO =        -0.01484380
  eigenvalues    EBANDS =       108.01606142
  atomic energy  EATOM  =      7408.64415014
  Solvation  Ediel_sol  =         0.00000000
  ---------------------------------------------------
  free energy    TOTEN  =       748.56240716 eV

  energy without entropy =      748.57725096  energy(sigma->0) =      748.56735509


--------------------------------------------------------------------------------------------------------




--------------------------------------- Iteration      1(   2)  ---------------------------------------


     EDDAV:  cpu time   10.0427: real time   10.0620
       DOS:  cpu time    0.0041: real time    0.0041
    --------------------------------------------
      LOOP:  cpu time   10.0469: real time   10.0662

 eigenvalue-minimisations  :   424
 total energy-change (2. order) :-0.2854744E+03  (-0.2675867E+03)
 number of electron      88.0000000 magnetization       8.0000000
 augmentation part       88.0000000 magnetization       8.0000000

 Free energy of the ion-electron system (eV)
  ---------------------------------------------------
  alpha Z        PSCENC =         6.46666210
  Ewald energy   TEWEN  =      8240.37115523
  -Hartree energ DENC   =    -15318.24976684
  -exchange      EXHF   =         0.00000000
  -V(xc)+E(xc)   XCENC  =       118.65619550
  PAW double counting   =      6992.17180065    -6807.49900724
  entropy T*S    EENTRO =        -0.03272333
  eigenvalues    EBANDS =      -177.44049961
  atomic energy  EATOM  =      7408.64415014
  Solvation  Ediel_sol  =         0.00000000
  ---------------------------------------------------
  free energy    TOTEN  =       463.08796659 eV

  energy without entropy =      463.12068993  energy(sigma->0) =      463.09887437


--------------------------------------------------------------------------------------------------------




--------------------------------------- Iteration      1(   3)  ---------------------------------------


     EDDAV:  cpu time    9.8370: real time    9.8553
       DOS:  cpu time    0.0099: real time    0.0099
    --------------------------------------------
      LOOP:  cpu time    9.8469: real time    9.8652

 eigenvalue-minimisations  :   416
 total energy-change (2. order) :-0.3283451E+03  (-0.3093403E+03)
 number of electron      88.0000000 magnetization       8.0000000
 augmentation part       88.0000000 magnetization       8.0000000

 Free energy of the ion-electron system (eV)
  ---------------------------------------------------
  alpha Z        PSCENC =         6.46666210
  Ewald energy   TEWEN  =      8240.37115523
  -Hartree energ DENC   =    -15318.24976684
  -exchange      EXHF   =         0.00000000
  -V(xc)+E(xc)   XCENC  =       118.65619550
  PAW double counting   =      6992.17180065    -6807.49900724
  entropy T*S    EENTRO =        -0.01410884
  eigenvalues    EBANDS =      -505.80419810
  atomic energy  EATOM  =      7408.64415014
  Solvation  Ediel_sol  =         0.00000000
  ---------------------------------------------------
  free energy    TOTEN  =       134.74288260 eV

  energy without entropy =      134.75699144  energy(sigma->0) =      134.74758555


--------------------------------------------------------------------------------------------------------




--------------------------------------- Iteration      1(   4)  ---------------------------------------


     EDDAV:  cpu time    7.9943: real time    8.0057
       DOS:  cpu time    0.0051: real time    0.0051
    --------------------------------------------
      LOOP:  cpu time    7.9994: real time    8.0107

 eigenvalue-minimisations  :   320
 total energy-change (2. order) :-0.1275171E+03  (-0.1232414E+03)
 number of electron      88.0000000 magnetization       8.0000000
 augmentation part       88.0000000 magnetization       8.0000000

 Free energy of the ion-electron system (eV)
  ---------------------------------------------------
  alpha Z        PSCENC =         6.46666210
  Ewald energy   TEWEN  =      8240.37115523
  -Hartree energ DENC   =    -15318.24976684
  -exchange      EXHF   =         0.00000000
  -V(xc)+E(xc)   XCENC  =       118.65619550
  PAW double counting   =      6992.17180065    -6807.49900724
  entropy T*S    EENTRO =         0.04688364
  eigenvalues    EBANDS =      -633.38231199
  atomic energy  EATOM  =      7408.64415014
  Solvation  Ediel_sol  =         0.00000000
  ---------------------------------------------------
  free energy    TOTEN  =         7.22576119 eV

  energy without entropy =        7.17887755  energy(sigma->0) =        7.21013331


--------------------------------------------------------------------------------------------------------




--------------------------------------- Iteration      1(   5)  ---------------------------------------


     EDDAV:  cpu time    7.9660: real time    7.9818
       DOS:  cpu time    0.0040: real time    0.0040
    CHARGE:  cpu time    0.8803: real time    0.8812
    MIXING:  cpu time    0.0723: real time    0.0723
    --------------------------------------------
      LOOP:  cpu time    8.9226: real time    8.9394

 eigenvalue-minimisations  :   320
 total energy-change (2. order) :-0.2116955E+02  (-0.1946577E+02)
 number of electron      88.0000022 magnetization       7.3578054
 augmentation part       31.1947421 magnetization       5.8264801

 Broyden mixing:
  rms(total) = 0.22073E+01    rms(broyden)= 0.22073E+01
  rms(prec ) = 0.22256E+01
  weight for this iteration     100.00

 Free energy of the ion-electron system (eV)
  ---------------------------------------------------
  alpha Z        PSCENC =         6.46666210
  Ewald energy   TEWEN  =      8240.37115523
  -Hartree energ DENC   =    -15318.24976684
  -exchange      EXHF   =         0.00000000
  -V(xc)+E(xc)   XCENC  =       118.65619550
  PAW double counting   =      6992.17180065    -6807.49900724
  entropy T*S    EENTRO =         0.00173466
  eigenvalues    EBANDS =      -654.50671016
  atomic energy  EATOM  =      7408.64415014
  Solvation  Ediel_sol  =         0.00000000
  ---------------------------------------------------
  free energy    TOTEN  =       -13.94378597 eV

  energy without entropy =      -13.94552062  energy(sigma->0) =      -13.94436419


--------------------------------------------------------------------------------------------------------




--------------------------------------- Iteration      1(   6)  ---------------------------------------


    POTLOK:  cpu time    4.0972: real time    4.1046
    SETDIJ:  cpu time    0.0266: real time    0.0266
     EDDAV:  cpu time    6.1434: real time    6.1563
       DOS:  cpu time    0.0008: real time    0.0008
    CHARGE:  cpu time    0.8458: real time    0.8494
    MIXING:  cpu time    0.0707: real time    0.0708
    --------------------------------------------
      LOOP:  cpu time   11.1845: real time   11.2084

 eigenvalue-minimisations  :   224
 total energy-change (2. order) : 0.7456970E+01  (-0.4425894E+01)
 number of electron      88.0000023 magnetization       6.6531507
 augmentation part       32.3463404 magnetization       4.2041502

 Broyden mixing:
  rms(total) = 0.14832E+01    rms(broyden)= 0.14832E+01
  rms(prec ) = 0.14862E+01
  weight for this iteration     100.00

 eigenvalues of (default mixing * dielectric matrix)
  average eigenvalue GAMMA=   1.0011
  1.0011

 Free energy of the ion-electron system (eV)
  ---------------------------------------------------
  alpha Z        PSCENC =         6.46666210
  Ewald energy   TEWEN  =      8240.37115523
  -Hartree energ DENC   =    -15264.48841578
  -exchange      EXHF   =         0.00000000
  -V(xc)+E(xc)   XCENC  =       122.61705458
  PAW double counting   =      7410.99078175    -7234.39896417
  entropy T*S    EENTRO =         0.01271734
  eigenvalues    EBANDS =      -696.70195718
  atomic energy  EATOM  =      7408.64415014
  Solvation  Ediel_sol  =         0.00000000
  ---------------------------------------------------
  free energy    TOTEN  =        -6.48681600 eV

  energy without entropy =       -6.49953334  energy(sigma->0) =       -6.49105511


--------------------------------------------------------------------------------------------------------




--------------------------------------- Iteration      1(   7)  ---------------------------------------


    POTLOK:  cpu time    4.1028: real time    4.1092
    SETDIJ:  cpu time    0.0270: real time    0.0270
     EDDAV:  cpu time    6.5968: real time    6.6080
       DOS:  cpu time    0.0087: real time    0.0087
    CHARGE:  cpu time    0.8551: real time    0.8563
    MIXING:  cpu time    0.0740: real time    0.0741
    --------------------------------------------
      LOOP:  cpu time   11.6643: real time   11.6833

 eigenvalue-minimisations  :   248
 total energy-change (2. order) : 0.2566370E+01  (-0.2391995E+00)
 number of electron      88.0000023 magnetization       5.8979234
 augmentation part       32.2485108 magnetization       3.4887360

 Broyden mixing:
  rms(total) = 0.65061E+00    rms(broyden)= 0.65061E+00
  rms(prec ) = 0.65178E+00
  weight for this iteration     100.00

 eigenvalues of (default mixing * dielectric matrix)
  average eigenvalue GAMMA=   1.2096
  1.7183  0.7008

 Free energy of the ion-electron system (eV)
  ---------------------------------------------------
  alpha Z        PSCENC =         6.46666210
  Ewald energy   TEWEN  =      8240.37115523
  -Hartree energ DENC   =    -15282.30468273
  -exchange      EXHF   =         0.00000000
  -V(xc)+E(xc)   XCENC  =       125.26814338
  PAW double counting   =      7812.97697241    -7640.81387829
  entropy T*S    EENTRO =         0.01152896
  eigenvalues    EBANDS =      -674.54049690
  atomic energy  EATOM  =      7408.64415014
  Solvation  Ediel_sol  =         0.00000000
  ---------------------------------------------------
  free energy    TOTEN  =        -3.92044570 eV

  energy without entropy =       -3.93197465  energy(sigma->0) =       -3.92428868


--------------------------------------------------------------------------------------------------------




--------------------------------------- Iteration      1(   8)  ---------------------------------------


    POTLOK:  cpu time    4.0874: real time    4.0962
    SETDIJ:  cpu time    0.0274: real time    0.0274
     EDDAV:  cpu time    6.7676: real time    6.7774
       DOS:  cpu time    0.0082: real time    0.0082
    CHARGE:  cpu time    0.8585: real time    0.8618
    MIXING:  cpu time    0.0791: real time    0.0793
    --------------------------------------------
      LOOP:  cpu time   11.8282: real time   11.8503

 eigenvalue-minimisations  :   256
 total energy-change (2. order) :-0.3654133E+01  (-0.1231921E+00)
 number of electron      88.0000023 magnetization       5.4922899
 augmentation part       32.1774321 magnetization       3.1863914

 Broyden mixing:
  rms(total) = 0.21736E+00    rms(broyden)= 0.21736E+00
  rms(prec ) = 0.21925E+00
  weight for this iteration     100.00

 eigenvalues of (default mixing * dielectric matrix)
  average eigenvalue GAMMA=   1.2495
  2.1231  0.9952  0.6303

 Free energy of the ion-electron system (eV)
  ---------------------------------------------------
  alpha Z        PSCENC =         6.46666210
  Ewald energy   TEWEN  =      8240.37115523
  -Hartree energ DENC   =    -15290.80778810
  -exchange      EXHF   =         0.00000000
  -V(xc)+E(xc)   XCENC  =       122.49185814
  PAW double counting   =      8095.08161780    -7925.93645913
  entropy T*S    EENTRO =         0.01176210
  eigenvalues    EBANDS =      -663.89753661
  atomic energy  EATOM  =      7408.64415014
  Solvation  Ediel_sol  =         0.00000000
  ---------------------------------------------------
  free energy    TOTEN  =        -7.57457834 eV

  energy without entropy =       -7.58634044  energy(sigma->0) =       -7.57849904


--------------------------------------------------------------------------------------------------------




--------------------------------------- Iteration      1(   9)  ---------------------------------------


    POTLOK:  cpu time    4.0502: real time    4.0547
    SETDIJ:  cpu time    0.0271: real time    0.0271
     EDDAV:  cpu time    6.7323: real time    6.7415
       DOS:  cpu time    0.0044: real time    0.0044
    CHARGE:  cpu time    0.8680: real time    0.8691
    MIXING:  cpu time    0.0843: real time    0.0844
    --------------------------------------------
      LOOP:  cpu time   11.7663: real time   11.7813

 eigenvalue-minimisations  :   256
 total energy-change (2. order) :-0.2069014E+01  (-0.4431686E-01)
 number of electron      88.0000023 magnetization       4.8674104
 augmentation part       32.1828235 magnetization       2.6171754

 Broyden mixing:
  rms(total) = 0.11378E+00    rms(broyden)= 0.11378E+00
  rms(prec ) = 0.11549E+00
  weight for this iteration     100.00

 eigenvalues of (default mixing * dielectric matrix)
  average eigenvalue GAMMA=   1.2915
  2.3242  1.3558  0.8690  0.6171

 Free energy of the ion-electron system (eV)
  ---------------------------------------------------
  alpha Z        PSCENC =         6.46666210
  Ewald energy   TEWEN  =      8240.37115523
  -Hartree energ DENC   =    -15288.18206722
  -exchange      EXHF   =         0.00000000
  -V(xc)+E(xc)   XCENC  =       120.76497734
  PAW double counting   =      8130.42088655    -7961.84827756
  entropy T*S    EENTRO =         0.01233693
  eigenvalues    EBANDS =      -666.29341609
  atomic energy  EATOM  =      7408.64415014
  Solvation  Ediel_sol  =         0.00000000
  ---------------------------------------------------
  free energy    TOTEN  =        -9.64359259 eV

  energy without entropy =       -9.65592952  energy(sigma->0) =       -9.64770490


--------------------------------------------------------------------------------------------------------




--------------------------------------- Iteration      1(  10)  ---------------------------------------


    POTLOK:  cpu time    4.0637: real time    4.0683
    SETDIJ:  cpu time    0.0269: real time    0.0270
     EDDAV:  cpu time    6.4387: real time    6.4486
       DOS:  cpu time    0.0111: real time    0.0111
    CHARGE:  cpu time    0.8578: real time    0.8591
    MIXING:  cpu time    0.0890: real time    0.0891
    --------------------------------------------
      LOOP:  cpu time   11.4872: real time   11.5031

 eigenvalue-minimisations  :   240
 total energy-change (2. order) :-0.2189707E+01  (-0.6212067E-01)
 number of electron      88.0000023 magnetization       4.3466107
 augmentation part       32.2094049 magnetization       2.1538802

 Broyden mixing:
  rms(total) = 0.77147E-01    rms(broyden)= 0.77146E-01
  rms(prec ) = 0.77876E-01
  weight for this iteration     100.00

 eigenvalues of (default mixing * dielectric matrix)
  average eigenvalue GAMMA=   1.3216
  2.6576  1.5911  0.8612  0.8612  0.6369

 Free energy of the ion-electron system (eV)
  ---------------------------------------------------
  alpha Z        PSCENC =         6.46666210
  Ewald energy   TEWEN  =      8240.37115523
  -Hartree energ DENC   =    -15283.55274334
  -exchange      EXHF   =         0.00000000
  -V(xc)+E(xc)   XCENC  =       118.86556375
  PAW double counting   =      8138.30759126    -7970.19198559
  entropy T*S    EENTRO =         0.01992937
  eigenvalues    EBANDS =      -670.76362233
  atomic energy  EATOM  =      7408.64415014
  Solvation  Ediel_sol  =         0.00000000
  ---------------------------------------------------
  free energy    TOTEN  =       -11.83329942 eV

  energy without entropy =      -11.85322879  energy(sigma->0) =      -11.83994255


--------------------------------------------------------------------------------------------------------




--------------------------------------- Iteration      1(  11)  ---------------------------------------


    POTLOK:  cpu time    4.0582: real time    4.0629
    SETDIJ:  cpu time    0.0265: real time    0.0265
     EDDAV:  cpu time    6.2753: real time    6.2844
       DOS:  cpu time    0.0008: real time    0.0008
    CHARGE:  cpu time    0.8501: real time    0.8511
    MIXING:  cpu time    0.0953: real time    0.0954
    --------------------------------------------
      LOOP:  cpu time   11.3063: real time   11.3212

 eigenvalue-minimisations  :   232
 total energy-change (2. order) :-0.1216159E+01  (-0.2547923E-01)
 number of electron      88.0000023 magnetization       3.6918992
 augmentation part       32.2117198 magnetization       1.4973826

 Broyden mixing:
  rms(total) = 0.56041E-01    rms(broyden)= 0.56040E-01
  rms(prec ) = 0.56811E-01
  weight for this iteration     100.00

 eigenvalues of (default mixing * dielectric matrix)
  average eigenvalue GAMMA=   1.3769
  2.7983  1.8973  1.1788  1.0563  0.6910  0.6400

 Free energy of the ion-electron system (eV)
  ---------------------------------------------------
  alpha Z        PSCENC =         6.46666210
  Ewald energy   TEWEN  =      8240.37115523
  -Hartree energ DENC   =    -15281.20347505
  -exchange      EXHF   =         0.00000000
  -V(xc)+E(xc)   XCENC  =       117.78620909
  PAW double counting   =      8127.67380510    -7959.65779351
  entropy T*S    EENTRO =         0.03701453
  eigenvalues    EBANDS =      -673.16718561
  atomic energy  EATOM  =      7408.64415014
  Solvation  Ediel_sol  =         0.00000000
  ---------------------------------------------------
  free energy    TOTEN  =       -13.04945798 eV

  energy without entropy =      -13.08647251  energy(sigma->0) =      -13.06179615


--------------------------------------------------------------------------------------------------------




--------------------------------------- Iteration      1(  12)  ---------------------------------------


    POTLOK:  cpu time    4.0791: real time    4.0841
    SETDIJ:  cpu time    0.0271: real time    0.0272
     EDDAV:  cpu time    6.4302: real time    6.4389
       DOS:  cpu time    0.0008: real time    0.0008
    CHARGE:  cpu time    0.8557: real time    0.8569
    MIXING:  cpu time    0.1076: real time    0.1077
    --------------------------------------------
      LOOP:  cpu time   11.5005: real time   11.5156

 eigenvalue-minimisations  :   240
 total energy-change (2. order) :-0.9817107E+00  (-0.2011711E-01)
 number of electron      88.0000023 magnetization       3.2371771
 augmentation part       32.2154594 magnetization       1.1015762

 Broyden mixing:
  rms(total) = 0.40016E-01    rms(broyden)= 0.40015E-01
  rms(prec ) = 0.40608E-01
  weight for this iteration     100.00

 eigenvalues of (default mixing * dielectric matrix)
  average eigenvalue GAMMA=   1.4488
  3.4119  2.3691  1.4045  0.9961  0.7558  0.6487  0.5559

 Free energy of the ion-electron system (eV)
  ---------------------------------------------------
  alpha Z        PSCENC =         6.46666210
  Ewald energy   TEWEN  =      8240.37115523
  -Hartree energ DENC   =    -15277.63481444
  -exchange      EXHF   =         0.00000000
  -V(xc)+E(xc)   XCENC  =       116.84268641
  PAW double counting   =      8099.28955502    -7931.13338441
  entropy T*S    EENTRO =         0.03196406
  eigenvalues    EBANDS =      -676.90914274
  atomic energy  EATOM  =      7408.64415014
  Solvation  Ediel_sol  =         0.00000000
  ---------------------------------------------------
  free energy    TOTEN  =       -14.03116863 eV

  energy without entropy =      -14.06313269  energy(sigma->0) =      -14.04182332


--------------------------------------------------------------------------------------------------------




--------------------------------------- Iteration      1(  13)  ---------------------------------------


    POTLOK:  cpu time    4.0639: real time    4.0720
    SETDIJ:  cpu time    0.0268: real time    0.0268
     EDDAV:  cpu time    6.4199: real time    6.4306
       DOS:  cpu time    0.0089: real time    0.0089
    CHARGE:  cpu time    0.8517: real time    0.8549
    MIXING:  cpu time    0.1139: real time    0.1140
    --------------------------------------------
      LOOP:  cpu time   11.4850: real time   11.5072

 eigenvalue-minimisations  :   240
 total energy-change (2. order) :-0.4165079E+00  (-0.5087036E-02)
 number of electron      88.0000023 magnetization       2.9578854
 augmentation part       32.2225281 magnetization       0.8973473

 Broyden mixing:
  rms(total) = 0.29626E-01    rms(broyden)= 0.29625E-01
  rms(prec ) = 0.30369E-01
  weight for this iteration     100.00

 eigenvalues of (default mixing * dielectric matrix)
  average eigenvalue GAMMA=   1.4582
  4.0023  2.3798  1.5132  0.9237  0.7623  0.7623  0.6609  0.6609

 Free energy of the ion-electron system (eV)
  ---------------------------------------------------
  alpha Z        PSCENC =         6.46666210
  Ewald energy   TEWEN  =      8240.37115523
  -Hartree energ DENC   =    -15275.15822367
  -exchange      EXHF   =         0.00000000
  -V(xc)+E(xc)   XCENC  =       116.39835792
  PAW double counting   =      8088.54645100    -7920.34845657
  entropy T*S    EENTRO =         0.02430502
  eigenvalues    EBANDS =      -679.39207768
  atomic energy  EATOM  =      7408.64415014
  Solvation  Ediel_sol  =         0.00000000
  ---------------------------------------------------
  free energy    TOTEN  =       -14.44767651 eV

  energy without entropy =      -14.47198153  energy(sigma->0) =      -14.45577818


--------------------------------------------------------------------------------------------------------




--------------------------------------- Iteration      1(  14)  ---------------------------------------


    POTLOK:  cpu time    4.0592: real time    4.0665
    SETDIJ:  cpu time    0.0269: real time    0.0269
     EDDAV:  cpu time    6.4300: real time    6.4406
       DOS:  cpu time    0.0009: real time    0.0009
    CHARGE:  cpu time    0.8393: real time    0.8403
    MIXING:  cpu time    0.1202: real time    0.1204
    --------------------------------------------
      LOOP:  cpu time   11.4764: real time   11.4956

 eigenvalue-minimisations  :   240
 total energy-change (2. order) :-0.1468146E+00  (-0.8824842E-03)
 number of electron      88.0000023 magnetization       2.5708140
 augmentation part       32.2225831 magnetization       0.5409761

 Broyden mixing:
  rms(total) = 0.22566E-01    rms(broyden)= 0.22566E-01
  rms(prec ) = 0.23141E-01
  weight for this iteration     100.00

 eigenvalues of (default mixing * dielectric matrix)
  average eigenvalue GAMMA=   1.5570
  5.0918  2.4273  1.1583  1.1583  1.1304  1.0373  0.7632  0.6232  0.6232

 Free energy of the ion-electron system (eV)
  ---------------------------------------------------
  alpha Z        PSCENC =         6.46666210
  Ewald energy   TEWEN  =      8240.37115523
  -Hartree energ DENC   =    -15274.08588899
  -exchange      EXHF   =         0.00000000
  -V(xc)+E(xc)   XCENC  =       116.23113369
  PAW double counting   =      8089.98041246    -7921.77781384
  entropy T*S    EENTRO =         0.02164088
  eigenvalues    EBANDS =      -680.44594276
  atomic energy  EATOM  =      7408.64415014
  Solvation  Ediel_sol  =         0.00000000
  ---------------------------------------------------
  free energy    TOTEN  =       -14.59449110 eV

  energy without entropy =      -14.61613197  energy(sigma->0) =      -14.60170472


--------------------------------------------------------------------------------------------------------




--------------------------------------- Iteration      1(  15)  ---------------------------------------


    POTLOK:  cpu time    4.0794: real time    4.0865
    SETDIJ:  cpu time    0.0265: real time    0.0265
     EDDAV:  cpu time    6.2931: real time    6.3014
       DOS:  cpu time    0.0009: real time    0.0009
    CHARGE:  cpu time    0.8638: real time    0.8648
    MIXING:  cpu time    0.1274: real time    0.1276
    --------------------------------------------
      LOOP:  cpu time   11.3910: real time   11.4077

 eigenvalue-minimisations  :   232
 total energy-change (2. order) :-0.2007807E+00  (-0.1322439E-02)
 number of electron      88.0000023 magnetization       2.2458493
 augmentation part       32.2243767 magnetization       0.2692590

 Broyden mixing:
  rms(total) = 0.15545E-01    rms(broyden)= 0.15544E-01
  rms(prec ) = 0.16004E-01
  weight for this iteration     100.00

 eigenvalues of (default mixing * dielectric matrix)
  average eigenvalue GAMMA=   1.6998
  6.2832  2.2742  2.2742  1.5876  0.9866  0.8147  0.8147  0.7350  0.6141  0.6141

 Free energy of the ion-electron system (eV)
  ---------------------------------------------------
  alpha Z        PSCENC =         6.46666210
  Ewald energy   TEWEN  =      8240.37115523
  -Hartree energ DENC   =    -15272.48437232
  -exchange      EXHF   =         0.00000000
  -V(xc)+E(xc)   XCENC  =       116.00262635
  PAW double counting   =      8093.77039609    -7925.54745115
  entropy T*S    EENTRO =         0.01609604
  eigenvalues    EBANDS =      -682.03453428
  atomic energy  EATOM  =      7408.64415014
  Solvation  Ediel_sol  =         0.00000000
  ---------------------------------------------------
  free energy    TOTEN  =       -14.79527181 eV

  energy without entropy =      -14.81136785  energy(sigma->0) =      -14.80063716


--------------------------------------------------------------------------------------------------------




--------------------------------------- Iteration      1(  16)  ---------------------------------------


    POTLOK:  cpu time    4.0732: real time    4.0785
    SETDIJ:  cpu time    0.0268: real time    0.0268
     EDDAV:  cpu time    6.2867: real time    6.2947
       DOS:  cpu time    0.0092: real time    0.0092
    CHARGE:  cpu time    0.8497: real time    0.8508
    MIXING:  cpu time    0.1301: real time    0.1302
    --------------------------------------------
      LOOP:  cpu time   11.3756: real time   11.3902

 eigenvalue-minimisations  :   232
 total energy-change (2. order) :-0.1597966E+00  (-0.6681977E-03)
 number of electron      88.0000023 magnetization       2.1264879
 augmentation part       32.2206494 magnetization       0.1844449

 Broyden mixing:
  rms(total) = 0.99515E-02    rms(broyden)= 0.99510E-02
  rms(prec ) = 0.10249E-01
  weight for this iteration     100.00

 eigenvalues of (default mixing * dielectric matrix)
  average eigenvalue GAMMA=   1.7574
  7.3629  2.3915  2.0389  2.0389  1.0041  0.9296  0.9296  0.7489  0.6733  0.6069
  0.6069

 Free energy of the ion-electron system (eV)
  ---------------------------------------------------
  alpha Z        PSCENC =         6.46666210
  Ewald energy   TEWEN  =      8240.37115523
  -Hartree energ DENC   =    -15271.55169783
  -exchange      EXHF   =         0.00000000
  -V(xc)+E(xc)   XCENC  =       115.82968644
  PAW double counting   =      8101.44276749    -7933.21871516
  entropy T*S    EENTRO =         0.01226974
  eigenvalues    EBANDS =      -682.95134657
  atomic energy  EATOM  =      7408.64415014
  Solvation  Ediel_sol  =         0.00000000
  ---------------------------------------------------
  free energy    TOTEN  =       -14.95506843 eV

  energy without entropy =      -14.96733817  energy(sigma->0) =      -14.95915834


--------------------------------------------------------------------------------------------------------




--------------------------------------- Iteration      1(  17)  ---------------------------------------


    POTLOK:  cpu time    4.0564: real time    4.0630
    SETDIJ:  cpu time    0.0267: real time    0.0267
     EDDAV:  cpu time    6.1005: real time    6.1112
       DOS:  cpu time    0.0011: real time    0.0012
    CHARGE:  cpu time    0.8406: real time    0.8416
    MIXING:  cpu time    0.1478: real time    0.1481
    --------------------------------------------
      LOOP:  cpu time   11.1732: real time   11.1917

 eigenvalue-minimisations  :   224
 total energy-change (2. order) :-0.6910681E-01  (-0.1898353E-03)
 number of electron      88.0000023 magnetization       1.9837715
 augmentation part       32.2221810 magnetization       0.0647646

 Broyden mixing:
  rms(total) = 0.64277E-02    rms(broyden)= 0.64276E-02
  rms(prec ) = 0.67089E-02
  weight for this iteration     100.00

 eigenvalues of (default mixing * dielectric matrix)
  average eigenvalue GAMMA=   1.8338
  8.4425  2.6372  2.6372  1.6550  1.1634  1.0662  1.0662  0.8184  0.6653  0.6653
  0.6100  0.5786

 Free energy of the ion-electron system (eV)
  ---------------------------------------------------
  alpha Z        PSCENC =         6.46666210
  Ewald energy   TEWEN  =      8240.37115523
  -Hartree energ DENC   =    -15271.00294536
  -exchange      EXHF   =         0.00000000
  -V(xc)+E(xc)   XCENC  =       115.75373009
  PAW double counting   =      8101.22172547    -7932.99585492
  entropy T*S    EENTRO =         0.00964779
  eigenvalues    EBANDS =      -683.49244577
  atomic energy  EATOM  =      7408.64415014
  Solvation  Ediel_sol  =         0.00000000
  ---------------------------------------------------
  free energy    TOTEN  =       -15.02417524 eV

  energy without entropy =      -15.03382303  energy(sigma->0) =      -15.02739117


--------------------------------------------------------------------------------------------------------




--------------------------------------- Iteration      1(  18)  ---------------------------------------


    POTLOK:  cpu time    4.0511: real time    4.0646
    SETDIJ:  cpu time    0.0261: real time    0.0261
     EDDAV:  cpu time    6.1188: real time    6.1314
       DOS:  cpu time    0.0127: real time    0.0127
    CHARGE:  cpu time    0.8490: real time    0.8502
    MIXING:  cpu time    0.1480: real time    0.1504
    --------------------------------------------
      LOOP:  cpu time   11.2058: real time   11.2355

 eigenvalue-minimisations  :   224
 total energy-change (2. order) :-0.6006834E-01  (-0.9802978E-04)
 number of electron      88.0000023 magnetization       1.9356646
 augmentation part       32.2211448 magnetization       0.0316346

 Broyden mixing:
  rms(total) = 0.35537E-02    rms(broyden)= 0.35535E-02
  rms(prec ) = 0.37923E-02
  weight for this iteration     100.00

 eigenvalues of (default mixing * dielectric matrix)
  average eigenvalue GAMMA=   1.8775
  9.2693  3.1723  2.3651  1.8880  1.4692  1.0036  1.0036  0.9747  0.7847  0.6808
  0.6446  0.6000  0.5511

 Free energy of the ion-electron system (eV)
  ---------------------------------------------------
  alpha Z        PSCENC =         6.46666210
  Ewald energy   TEWEN  =      8240.37115523
  -Hartree energ DENC   =    -15270.50596609
  -exchange      EXHF   =         0.00000000
  -V(xc)+E(xc)   XCENC  =       115.68887350
  PAW double counting   =      8102.61140045    -7934.38830172
  entropy T*S    EENTRO =         0.00792985
  eigenvalues    EBANDS =      -683.98014704
  atomic energy  EATOM  =      7408.64415014
  Solvation  Ediel_sol  =         0.00000000
  ---------------------------------------------------
  free energy    TOTEN  =       -15.08424359 eV

  energy without entropy =      -15.09217344  energy(sigma->0) =      -15.08688687


--------------------------------------------------------------------------------------------------------




--------------------------------------- Iteration      1(  19)  ---------------------------------------


    POTLOK:  cpu time    4.0619: real time    4.0682
    SETDIJ:  cpu time    0.0271: real time    0.0271
     EDDAV:  cpu time    5.6228: real time    5.6347
       DOS:  cpu time    0.0052: real time    0.0052
    CHARGE:  cpu time    0.8311: real time    0.8345
    MIXING:  cpu time    0.1697: real time    0.1700
    --------------------------------------------
      LOOP:  cpu time   10.7179: real time   10.7397

 eigenvalue-minimisations  :   200
 total energy-change (2. order) :-0.1498020E-01  (-0.2294826E-04)
 number of electron      88.0000023 magnetization       1.9055200
 augmentation part       32.2213455 magnetization       0.0071436

 Broyden mixing:
  rms(total) = 0.20669E-02    rms(broyden)= 0.20668E-02
  rms(prec ) = 0.22909E-02
  weight for this iteration     100.00

 eigenvalues of (default mixing * dielectric matrix)
  average eigenvalue GAMMA=   1.8889
  9.5871  3.5435  2.2406  2.2406  1.6740  1.0515  1.0515  1.0374  0.7903  0.7680
  0.6584  0.6584  0.5948  0.5481

 Free energy of the ion-electron system (eV)
  ---------------------------------------------------
  alpha Z        PSCENC =         6.46666210
  Ewald energy   TEWEN  =      8240.37115523
  -Hartree energ DENC   =    -15270.25498942
  -exchange      EXHF   =         0.00000000
  -V(xc)+E(xc)   XCENC  =       115.67341903
  PAW double counting   =      8101.65567892    -7933.43150199
  entropy T*S    EENTRO =         0.00729789
  eigenvalues    EBANDS =      -684.23109569
  atomic energy  EATOM  =      7408.64415014
  Solvation  Ediel_sol  =         0.00000000
  ---------------------------------------------------
  free energy    TOTEN  =       -15.09922379 eV

  energy without entropy =      -15.10652168  energy(sigma->0) =      -15.10165642


--------------------------------------------------------------------------------------------------------




--------------------------------------- Iteration      1(  20)  ---------------------------------------


    POTLOK:  cpu time    4.0643: real time    4.0748
    SETDIJ:  cpu time    0.0263: real time    0.0263
     EDDAV:  cpu time    5.1986: real time    5.2061
       DOS:  cpu time    0.0034: real time    0.0034
    CHARGE:  cpu time    0.8461: real time    0.8473
    MIXING:  cpu time    0.1777: real time    0.1780
    --------------------------------------------
      LOOP:  cpu time   10.3164: real time   10.3359

 eigenvalue-minimisations  :   176
 total energy-change (2. order) :-0.9651627E-02  (-0.1219579E-04)
 number of electron      88.0000023 magnetization       1.8825491
 augmentation part       32.2212956 magnetization      -0.0148061

 Broyden mixing:
  rms(total) = 0.13935E-02    rms(broyden)= 0.13935E-02
  rms(prec ) = 0.15527E-02
  weight for this iteration     100.00

 eigenvalues of (default mixing * dielectric matrix)
  average eigenvalue GAMMA=   1.9196
  9.8402  3.9223  2.4833  2.1064  2.1064  1.3516  1.0119  1.0119  0.9169  0.9169
  0.6991  0.6350  0.6283  0.6193  0.5446

 Free energy of the ion-electron system (eV)
  ---------------------------------------------------
  alpha Z        PSCENC =         6.46666210
  Ewald energy   TEWEN  =      8240.37115523
  -Hartree energ DENC   =    -15270.05662862
  -exchange      EXHF   =         0.00000000
  -V(xc)+E(xc)   XCENC  =       115.66426578
  PAW double counting   =      8101.06279739    -7932.84045731
  entropy T*S    EENTRO =         0.00719037
  eigenvalues    EBANDS =      -684.42801050
  atomic energy  EATOM  =      7408.64415014
  Solvation  Ediel_sol  =         0.00000000
  ---------------------------------------------------
  free energy    TOTEN  =       -15.10887541 eV

  energy without entropy =      -15.11606579  energy(sigma->0) =      -15.11127221


--------------------------------------------------------------------------------------------------------




--------------------------------------- Iteration      1(  21)  ---------------------------------------


    POTLOK:  cpu time    4.0584: real time    4.0637
    SETDIJ:  cpu time    0.0266: real time    0.0266
     EDDAV:  cpu time    5.1933: real time    5.2006
       DOS:  cpu time    0.0046: real time    0.0046
    CHARGE:  cpu time    0.8373: real time    0.8384
    MIXING:  cpu time    0.1864: real time    0.1889
    --------------------------------------------
      LOOP:  cpu time   10.3065: real time   10.3228

 eigenvalue-minimisations  :   176
 total energy-change (2. order) :-0.7998109E-02  (-0.7346466E-05)
 number of electron      88.0000023 magnetization       1.8702249
 augmentation part       32.2214546 magnetization      -0.0267835

 Broyden mixing:
  rms(total) = 0.80277E-03    rms(broyden)= 0.80276E-03
  rms(prec ) = 0.92042E-03
  weight for this iteration     100.00

 eigenvalues of (default mixing * dielectric matrix)
  average eigenvalue GAMMA=   1.9463
  9.9983  4.4849  2.7876  2.2353  2.2353  1.4079  1.0928  1.0255  1.0255  0.8753
  0.8753  0.6634  0.6634  0.6126  0.6126  0.5446

 Free energy of the ion-electron system (eV)
  ---------------------------------------------------
  alpha Z        PSCENC =         6.46666210
  Ewald energy   TEWEN  =      8240.37115523
  -Hartree energ DENC   =    -15269.85289761
  -exchange      EXHF   =         0.00000000
  -V(xc)+E(xc)   XCENC  =       115.65536790
  PAW double counting   =      8100.91254446    -7932.69251286
  entropy T*S    EENTRO =         0.00714520
  eigenvalues    EBANDS =      -684.62848807
  atomic energy  EATOM  =      7408.64415014
  Solvation  Ediel_sol  =         0.00000000
  ---------------------------------------------------
  free energy    TOTEN  =       -15.11687352 eV

  energy without entropy =      -15.12401872  energy(sigma->0) =      -15.11925526


--------------------------------------------------------------------------------------------------------




--------------------------------------- Iteration      1(  22)  ---------------------------------------


    POTLOK:  cpu time    4.0565: real time    4.0730
    SETDIJ:  cpu time    0.0269: real time    0.0269
     EDDAV:  cpu time    5.0389: real time    5.0473
       DOS:  cpu time    0.0009: real time    0.0009
    CHARGE:  cpu time    0.8598: real time    0.8610
    MIXING:  cpu time    0.2030: real time    0.2033
    --------------------------------------------
      LOOP:  cpu time   10.1860: real time   10.2124

 eigenvalue-minimisations  :   168
 total energy-change (2. order) :-0.4989581E-02  (-0.3575054E-05)
 number of electron      88.0000023 magnetization       1.8647482
 augmentation part       32.2215279 magnetization      -0.0324597

 Broyden mixing:
  rms(total) = 0.52243E-03    rms(broyden)= 0.52242E-03
  rms(prec ) = 0.59651E-03
  weight for this iteration     100.00

 eigenvalues of (default mixing * dielectric matrix)
  average eigenvalue GAMMA=   1.9422
 10.0697  5.0058  2.8994  2.2370  2.2370  1.4167  1.4167  1.0870  0.9600  0.9600
  0.8889  0.7109  0.7109  0.6369  0.6369  0.5990  0.5454

 Free energy of the ion-electron system (eV)
  ---------------------------------------------------
  alpha Z        PSCENC =         6.46666210
  Ewald energy   TEWEN  =      8240.37115523
  -Hartree energ DENC   =    -15269.69245651
  -exchange      EXHF   =         0.00000000
  -V(xc)+E(xc)   XCENC  =       115.64933076
  PAW double counting   =      8100.75485384    -7932.53379489
  entropy T*S    EENTRO =         0.00716454
  eigenvalues    EBANDS =      -684.78892831
  atomic energy  EATOM  =      7408.64415014
  Solvation  Ediel_sol  =         0.00000000
  ---------------------------------------------------
  free energy    TOTEN  =       -15.12186311 eV

  energy without entropy =      -15.12902765  energy(sigma->0) =      -15.12425129


--------------------------------------------------------------------------------------------------------




--------------------------------------- Iteration      1(  23)  ---------------------------------------


    POTLOK:  cpu time    4.0543: real time    4.0615
    SETDIJ:  cpu time    0.0269: real time    0.0270
     EDDAV:  cpu time    5.1923: real time    5.1990
       DOS:  cpu time    0.0038: real time    0.0038
    CHARGE:  cpu time    0.8438: real time    0.8448
    MIXING:  cpu time    0.2153: real time    0.2156
    --------------------------------------------
      LOOP:  cpu time   10.3365: real time   10.3517

 eigenvalue-minimisations  :   176
 total energy-change (2. order) :-0.2441844E-02  (-0.1425486E-05)
 number of electron      88.0000023 magnetization       1.8602419
 augmentation part       32.2216426 magnetization      -0.0370352

 Broyden mixing:
  rms(total) = 0.34638E-03    rms(broyden)= 0.34637E-03
  rms(prec ) = 0.39640E-03
  weight for this iteration     100.00

 eigenvalues of (default mixing * dielectric matrix)
  average eigenvalue GAMMA=   1.9790
 10.1541  5.6224  3.0869  2.4286  2.4286  1.7897  1.4370  1.1725  0.9902  0.9902
  0.8704  0.8704  0.6857  0.6857  0.6313  0.6313  0.6008  0.5461

 Free energy of the ion-electron system (eV)
  ---------------------------------------------------
  alpha Z        PSCENC =         6.46666210
  Ewald energy   TEWEN  =      8240.37115523
  -Hartree energ DENC   =    -15269.58847156
  -exchange      EXHF   =         0.00000000
  -V(xc)+E(xc)   XCENC  =       115.64594204
  PAW double counting   =      8100.76183558    -7932.54013033
  entropy T*S    EENTRO =         0.00717670
  eigenvalues    EBANDS =      -684.89262484
  atomic energy  EATOM  =      7408.64415014
  Solvation  Ediel_sol  =         0.00000000
  ---------------------------------------------------
  free energy    TOTEN  =       -15.12430495 eV

  energy without entropy =      -15.13148165  energy(sigma->0) =      -15.12669718


--------------------------------------------------------------------------------------------------------




--------------------------------------- Iteration      1(  24)  ---------------------------------------


    POTLOK:  cpu time    4.0114: real time    4.0213
    SETDIJ:  cpu time    0.0264: real time    0.0265
     EDDAV:  cpu time    4.7248: real time    4.7307
       DOS:  cpu time    0.0096: real time    0.0096
    CHARGE:  cpu time    0.8371: real time    0.8382
    MIXING:  cpu time    0.2560: real time    0.2586
    --------------------------------------------
      LOOP:  cpu time    9.8652: real time    9.8849

 eigenvalue-minimisations  :   152
 total energy-change (2. order) :-0.1579123E-02  (-0.8713095E-06)
 number of electron      88.0000023 magnetization       1.8581975
 augmentation part       32.2216578 magnetization      -0.0392322

 Broyden mixing:
  rms(total) = 0.19883E-03    rms(broyden)= 0.19882E-03
  rms(prec ) = 0.22749E-03
  weight for this iteration     100.00

 eigenvalues of (default mixing * dielectric matrix)
  average eigenvalue GAMMA=   2.0213
 10.1711  6.4374  3.5679  2.6773  2.1855  2.1855  1.3241  1.2371  1.2371  0.9555
  0.9555  0.9035  0.7751  0.5450  0.6989  0.6094  0.6094  0.6652  0.6652

 Free energy of the ion-electron system (eV)
  ---------------------------------------------------
  alpha Z        PSCENC =         6.46666210
  Ewald energy   TEWEN  =      8240.37115523
  -Hartree energ DENC   =    -15269.50251126
  -exchange      EXHF   =         0.00000000
  -V(xc)+E(xc)   XCENC  =       115.64347015
  PAW double counting   =      8100.89194800    -7932.66965618
  entropy T*S    EENTRO =         0.00719308
  eigenvalues    EBANDS =      -684.97829533
  atomic energy  EATOM  =      7408.64415014
  Solvation  Ediel_sol  =         0.00000000
  ---------------------------------------------------
  free energy    TOTEN  =       -15.12588407 eV

  energy without entropy =      -15.13307715  energy(sigma->0) =      -15.12828177


--------------------------------------------------------------------------------------------------------




--------------------------------------- Iteration      1(  25)  ---------------------------------------


    POTLOK:  cpu time    4.0230: real time    4.0309
    SETDIJ:  cpu time    0.0264: real time    0.0264
     EDDAV:  cpu time    5.0350: real time    5.0418
       DOS:  cpu time    0.0092: real time    0.0092
    CHARGE:  cpu time    0.8375: real time    0.8384
    MIXING:  cpu time    0.2371: real time    0.2375
    --------------------------------------------
      LOOP:  cpu time   10.1682: real time   10.1842

 eigenvalue-minimisations  :   168
 total energy-change (2. order) :-0.7256799E-03  (-0.4501557E-06)
 number of electron      88.0000023 magnetization       1.8569085
 augmentation part       32.2216675 magnetization      -0.0405459

 Broyden mixing:
  rms(total) = 0.12263E-03    rms(broyden)= 0.12262E-03
  rms(prec ) = 0.13905E-03
  weight for this iteration     100.00

 eigenvalues of (default mixing * dielectric matrix)
  average eigenvalue GAMMA=   2.0413
 10.2080  7.1123  3.9186  2.6534  2.3463  2.3463  1.4544  1.4544  1.1072  0.9932
  0.9932  0.8831  0.8831  0.7114  0.7114  0.5443  0.6466  0.6466  0.6057  0.6057

 Free energy of the ion-electron system (eV)
  ---------------------------------------------------
  alpha Z        PSCENC =         6.46666210
  Ewald energy   TEWEN  =      8240.37115523
  -Hartree energ DENC   =    -15269.45424472
  -exchange      EXHF   =         0.00000000
  -V(xc)+E(xc)   XCENC  =       115.64232446
  PAW double counting   =      8100.94366390    -7932.72117408
  entropy T*S    EENTRO =         0.00719677
  eigenvalues    EBANDS =      -685.02634355
  atomic energy  EATOM  =      7408.64415014
  Solvation  Ediel_sol  =         0.00000000
  ---------------------------------------------------
  free energy    TOTEN  =       -15.12660975 eV

  energy without entropy =      -15.13380652  energy(sigma->0) =      -15.12900868


--------------------------------------------------------------------------------------------------------




--------------------------------------- Iteration      1(  26)  ---------------------------------------


    POTLOK:  cpu time    4.0574: real time    4.0673
    SETDIJ:  cpu time    0.0274: real time    0.0274
     EDDAV:  cpu time    4.8719: real time    4.8787
       DOS:  cpu time    0.0063: real time    0.0085
    CHARGE:  cpu time    0.8367: real time    0.8377
    MIXING:  cpu time    0.2527: real time    0.2531
    --------------------------------------------
      LOOP:  cpu time   10.0524: real time   10.0727

 eigenvalue-minimisations  :   160
 total energy-change (2. order) :-0.2619992E-03  (-0.1755619E-06)
 number of electron      88.0000023 magnetization       1.8559773
 augmentation part       32.2216816 magnetization      -0.0412421

 Broyden mixing:
  rms(total) = 0.79555E-04    rms(broyden)= 0.79550E-04
  rms(prec ) = 0.92369E-04
  weight for this iteration     100.00

 eigenvalues of (default mixing * dielectric matrix)
  average eigenvalue GAMMA=   2.0430
 10.2890  7.4230  4.1524  2.6635  2.6635  2.2152  1.6230  1.5038  1.1784  1.0464
  1.0464  0.9027  0.9027  0.7833  0.7833  0.5452  0.6704  0.6704  0.6289  0.5995
  0.6113

 Free energy of the ion-electron system (eV)
  ---------------------------------------------------
  alpha Z        PSCENC =         6.46666210
  Ewald energy   TEWEN  =      8240.37115523
  -Hartree energ DENC   =    -15269.43397496
  -exchange      EXHF   =         0.00000000
  -V(xc)+E(xc)   XCENC  =       115.64189058
  PAW double counting   =      8100.96879037    -7932.74657715
  entropy T*S    EENTRO =         0.00717034
  eigenvalues    EBANDS =      -685.04613840
  atomic energy  EATOM  =      7408.64415014
  Solvation  Ediel_sol  =         0.00000000
  ---------------------------------------------------
  free energy    TOTEN  =       -15.12687175 eV

  energy without entropy =      -15.13404209  energy(sigma->0) =      -15.12926186


--------------------------------------------------------------------------------------------------------




--------------------------------------- Iteration      1(  27)  ---------------------------------------


    POTLOK:  cpu time    4.0296: real time    4.0406
    SETDIJ:  cpu time    0.0267: real time    0.0268
     EDDAV:  cpu time    4.5739: real time    4.5801
       DOS:  cpu time    0.0058: real time    0.0058
    CHARGE:  cpu time    0.8508: real time    0.8518
    MIXING:  cpu time    0.2626: real time    0.2630
    --------------------------------------------
      LOOP:  cpu time    9.7494: real time    9.7681

 eigenvalue-minimisations  :   144
 total energy-change (2. order) :-0.1179097E-03  (-0.8991132E-07)
 number of electron      88.0000023 magnetization       1.8556241
 augmentation part       32.2216696 magnetization      -0.0414724

 Broyden mixing:
  rms(total) = 0.43147E-04    rms(broyden)= 0.43142E-04
  rms(prec ) = 0.53558E-04
  weight for this iteration     100.00

 eigenvalues of (default mixing * dielectric matrix)
  average eigenvalue GAMMA=   2.0478
 10.3263  7.6779  4.4167  2.7866  2.7866  2.2928  1.8615  1.5664  1.1632  1.1632
  1.0165  1.0165  0.8740  0.8740  0.8050  0.6985  0.6985  0.5453  0.6459  0.5964
  0.6194  0.6194

 Free energy of the ion-electron system (eV)
  ---------------------------------------------------
  alpha Z        PSCENC =         6.46666210
  Ewald energy   TEWEN  =      8240.37115523
  -Hartree energ DENC   =    -15269.42578334
  -exchange      EXHF   =         0.00000000
  -V(xc)+E(xc)   XCENC  =       115.64175164
  PAW double counting   =      8100.98239120    -7932.76031767
  entropy T*S    EENTRO =         0.00715556
  eigenvalues    EBANDS =      -685.05415451
  atomic energy  EATOM  =      7408.64415014
  Solvation  Ediel_sol  =         0.00000000
  ---------------------------------------------------
  free energy    TOTEN  =       -15.12698966 eV

  energy without entropy =      -15.13414522  energy(sigma->0) =      -15.12937485


--------------------------------------------------------------------------------------------------------




--------------------------------------- Iteration      1(  28)  ---------------------------------------


    POTLOK:  cpu time    4.0630: real time    4.0677
    SETDIJ:  cpu time    0.0265: real time    0.0265
     EDDAV:  cpu time    4.5894: real time    4.5966
       DOS:  cpu time    0.0009: real time    0.0009
    --------------------------------------------
      LOOP:  cpu time    8.6797: real time    8.6917

 eigenvalue-minimisations  :   144
 total energy-change (2. order) :-0.6114322E-04  (-0.4426060E-07)
 number of electron      88.0000023 magnetization       1.8556241
 augmentation part       32.2216696 magnetization      -0.0414724

 Free energy of the ion-electron system (eV)
  ---------------------------------------------------
  alpha Z        PSCENC =         6.46666210
  Ewald energy   TEWEN  =      8240.37115523
  -Hartree energ DENC   =    -15269.42243720
  -exchange      EXHF   =         0.00000000
  -V(xc)+E(xc)   XCENC  =       115.64173299
  PAW double counting   =      8100.97246897    -7932.75041474
  entropy T*S    EENTRO =         0.00714854
  eigenvalues    EBANDS =      -685.05751684
  atomic energy  EATOM  =      7408.64415014
  Solvation  Ediel_sol  =         0.00000000
  ---------------------------------------------------
  free energy    TOTEN  =       -15.12705080 eV

  energy without entropy =      -15.13419934  energy(sigma->0) =      -15.12943365


--------------------------------------------------------------------------------------------------------




 average (electrostatic) potential at core
  the test charge radii are     1.2098
  (the norm of the test charge is              1.0000)
       1 -77.2554       2 -77.5502       3 -77.2054       4 -77.1375       5 -76.9388
       6 -77.3380       7 -77.2180       8 -77.4603
 
 
 
 E-fermi :  -4.5347     XC(G=0):  -0.3269     alpha+bet : -0.1648


 spin component 1

 k-point     1 :       0.0000    0.0000    0.0000
  band No.  band energies     occupation 
      1     -11.5463      1.00000
      2     -10.7909      1.00000
      3     -10.4982      1.00000
      4     -10.1123      1.00000
      5      -9.8451      1.00000
      6      -9.6549      1.00000
      7      -9.5750      1.00000
      8      -9.4488      1.00000
      9      -9.2947      1.00000
     10      -9.1825      1.00000
     11      -9.0128      1.00000
     12      -8.9440      1.00000
     13      -8.9182      1.00000
     14      -8.6306      1.00000
     15      -8.4965      1.00000
     16      -8.2758      1.00000
     17      -8.0820      1.00000
     18      -8.0183      1.00000
     19      -7.9056      1.00000
     20      -7.8600      1.00000
     21      -7.7163      1.00000
     22      -7.5980      1.00000
     23      -7.4674      1.00000
     24      -7.3282      1.00000
     25      -7.2520      1.00000
     26      -7.1828      1.00000
     27      -7.1293      1.00000
     28      -6.9966      1.00000
     29      -6.9106      1.00000
     30      -6.8504      1.00000
     31      -6.7625      1.00000
     32      -6.7389      1.00000
     33      -6.6341      1.00000
     34      -6.5978      1.00000
     35      -6.5764      1.00000
     36      -6.5628      1.00000
     37      -6.4449      1.00000
     38      -6.3179      1.00000
     39      -6.2367      1.00000
     40      -6.1649      1.00000
     41      -6.0468      1.00000
     42      -5.9900      1.00000
     43      -5.9418      1.00000
     44      -4.7569      1.03314
     45      -4.6440      0.89466
     46      -3.9687     -0.00023
     47      -3.7128     -0.00000
     48      -2.6513     -0.00000
     49      -1.8891     -0.00000
     50      -1.6083     -0.00000
     51      -1.4243     -0.00000
     52      -1.2520     -0.00000
     53      -1.1200     -0.00000
     54      -1.0272     -0.00000
     55      -0.1934     -0.00000
     56      -0.0159     -0.00000

 spin component 2

 k-point     1 :       0.0000    0.0000    0.0000
  band No.  band energies     occupation 
      1     -11.4753      1.00000
      2     -10.7385      1.00000
      3     -10.4445      1.00000
      4     -10.0429      1.00000
      5      -9.7833      1.00000
      6      -9.5612      1.00000
      7      -9.4811      1.00000
      8      -9.3733      1.00000
      9      -9.2202      1.00000
     10      -9.1079      1.00000
     11      -8.9091      1.00000
     12      -8.8464      1.00000
     13      -8.8403      1.00000
     14      -8.5566      1.00000
     15      -8.4379      1.00000
     16      -8.2095      1.00000
     17      -8.0188      1.00000
     18      -7.9624      1.00000
     19      -7.8566      1.00000
     20      -7.8032      1.00000
     21      -7.6665      1.00000
     22      -7.5487      1.00000
     23      -7.4026      1.00000
     24      -7.2470      1.00000
     25      -7.1615      1.00000
     26      -7.1281      1.00000
     27      -7.0278      1.00000
     28      -6.9204      1.00000
     29      -6.8665      1.00000
     30      -6.8161      1.00000
     31      -6.6741      1.00000
     32      -6.6480      1.00000
     33      -6.5636      1.00000
     34      -6.5320      1.00000
     35      -6.4914      1.00000
     36      -6.4418      1.00000
     37      -6.2933      1.00000
[...]
  -Hartree energ DENC   =    -13689.11017382
  -exchange      EXHF   =         0.00000000
  -V(xc)+E(xc)   XCENC  =       113.99379368
  PAW double counting   =      7778.17504873    -7607.64869338
  entropy T*S    EENTRO =         0.04951256
  eigenvalues    EBANDS =      -650.59035291
  atomic energy  EATOM  =      7408.64415014
  Solvation  Ediel_sol  =         0.00000000
  ---------------------------------------------------
  free energy    TOTEN  =       -17.44017797 eV

  energy without entropy =      -17.48969053  energy(sigma->0) =      -17.45668216


--------------------------------------------------------------------------------------------------------




--------------------------------------- Iteration    100(   3)  ---------------------------------------


    POTLOK:  cpu time    3.8774: real time    3.8838
    SETDIJ:  cpu time    0.0262: real time    0.0262
     EDDAV:  cpu time    5.1708: real time    5.1813
       DOS:  cpu time    0.0078: real time    0.0078
    --------------------------------------------
      LOOP:  cpu time    9.0821: real time    9.0990

 eigenvalue-minimisations  :   176
 total energy-change (2. order) : 0.1432180E-04  (-0.2113451E-04)
 number of electron      88.0000011 magnetization      -0.0000000
 augmentation part       32.2318970 magnetization       0.0000000

 Free energy of the ion-electron system (eV)
  ---------------------------------------------------
  alpha Z        PSCENC =         6.46666210
  Ewald energy   TEWEN  =      6622.57987494
  -Hartree energ DENC   =    -13689.12975041
  -exchange      EXHF   =         0.00000000
  -V(xc)+E(xc)   XCENC  =       113.99407405
  PAW double counting   =      7777.88268697    -7607.35265458
  entropy T*S    EENTRO =         0.04948076
  eigenvalues    EBANDS =      -650.57468762
  atomic energy  EATOM  =      7408.64415014
  Solvation  Ediel_sol  =         0.00000000
  ---------------------------------------------------
  free energy    TOTEN  =       -17.44016365 eV

  energy without entropy =      -17.48964441  energy(sigma->0) =      -17.45665724


--------------------------------------------------------------------------------------------------------




 average (electrostatic) potential at core
  the test charge radii are     1.2098
  (the norm of the test charge is              1.0000)
       1 -76.8014       2 -76.9941       3 -76.7963       4 -76.8020       5 -76.8006
       6 -77.0388       7 -76.9903       8 -77.0416
 
 
 
 E-fermi :  -5.5687     XC(G=0):  -0.3574     alpha+bet : -0.1648


 spin component 1

 k-point     1 :       0.0000    0.0000    0.0000
  band No.  band energies     occupation 
      1     -10.7122      1.00000
      2     -10.0916      1.00000
      3      -9.9757      1.00000
      4      -9.1775      1.00000
      5      -8.9326      1.00000
      6      -8.7413      1.00000
      7      -8.6966      1.00000
      8      -8.5094      1.00000
      9      -8.3912      1.00000
     10      -8.2954      1.00000
     11      -8.1393      1.00000
     12      -8.0238      1.00000
     13      -7.9552      1.00000
     14      -7.6021      1.00000
     15      -7.5882      1.00000
     16      -7.5865      1.00000
     17      -7.5057      1.00000
     18      -7.4980      1.00000
     19      -7.3992      1.00000
     20      -7.3761      1.00000
     21      -7.2626      1.00000
     22      -7.2027      1.00000
     23      -7.1951      1.00000
     24      -7.1377      1.00000
     25      -7.1058      1.00000
     26      -7.0316      1.00000
     27      -6.9244      1.00000
     28      -6.6837      1.00000
     29      -6.6349      1.00000
     30      -6.6263      1.00000
     31      -6.5862      1.00000
     32      -6.5051      1.00000
     33      -6.4724      1.00000
     34      -6.4642      1.00000
     35      -6.4580      1.00000
     36      -6.4048      1.00000
     37      -6.3254      1.00000
     38      -6.3187      1.00000
     39      -6.3160      1.00000
     40      -6.1403      1.00020
     41      -5.9097      1.01832
     42      -5.8708      1.02718
     43      -5.8117      1.03544
     44      -5.6882      0.91885
     45      -4.0075     -0.00000
     46      -3.4330     -0.00000
     47      -3.1972     -0.00000
     48      -3.1137     -0.00000
     49      -2.1134     -0.00000
     50      -1.2390     -0.00000
     51      -1.1593     -0.00000
     52      -1.1370     -0.00000
     53      -0.8278     -0.00000
     54      -0.5361     -0.00000
     55      -0.5296     -0.00000
     56      -0.0985      0.00000

 spin component 2

 k-point     1 :       0.0000    0.0000    0.0000
  band No.  band energies     occupation 
      1     -10.7122      1.00000
      2     -10.0916      1.00000
      3      -9.9757      1.00000
      4      -9.1775      1.00000
      5      -8.9326      1.00000
      6      -8.7413      1.00000
      7      -8.6966      1.00000
      8      -8.5094      1.00000
      9      -8.3912      1.00000
     10      -8.2954      1.00000
     11      -8.1393      1.00000
     12      -8.0238      1.00000
     13      -7.9552      1.00000
     14      -7.6021      1.00000
     15      -7.5882      1.00000
     16      -7.5865      1.00000
     17      -7.5057      1.00000
     18      -7.4980      1.00000
     19      -7.3992      1.00000
     20      -7.3761      1.00000
     21      -7.2626      1.00000
     22      -7.2027      1.00000
     23      -7.1951      1.00000
     24      -7.1377      1.00000
     25      -7.1058      1.00000
     26      -7.0316      1.00000
     27      -6.9244      1.00000
     28      -6.6837      1.00000
     29      -6.6349      1.00000
     30      -6.6263      1.00000
     31      -6.5862      1.00000
     32      -6.5051      1.00000
     33      -6.4724      1.00000
     34      -6.4642      1.00000
     35      -6.4580      1.00000
     36      -6.4048      1.00000
     37      -6.3254      1.00000
     38      -6.3187      1.00000
     39      -6.3160      1.00000
     40      -6.1403      1.00020
     41      -5.9097      1.01832
     42      -5.8708      1.02718
     43      -5.8117      1.03544
     44      -5.6882      0.91885
     45      -4.0075     -0.00000
     46      -3.4330     -0.00000
     47      -3.1972     -0.00000
     48      -3.1137     -0.00000
     49      -2.1134     -0.00000
     50      -1.2390     -0.00000
     51      -1.1593     -0.00000
     52      -1.1370     -0.00000
     53      -0.8278     -0.00000
     54      -0.5361     -0.00000
     55      -0.5296     -0.00000
     56      -0.0985      0.00000


--------------------------------------------------------------------------------------------------------


 soft charge-density along one line, spin component            1
         0         1         2         3         4         5         6         7         8         9
 total charge-density along one line
 
 soft charge-density along one line, spin component            2
         0         1         2         3         4         5         6         7         8         9
 total charge-density along one line
 
 pseudopotential strength for first ion, spin component:            1
 -9.228  -0.051  -0.021  -0.012   0.005  -9.349  -0.050  -0.020
 -0.051  -9.261  -0.021   0.017   0.025  -0.050  -9.382  -0.020
 -0.021  -0.021  -9.262  -0.024   0.010  -0.020  -0.020  -9.383
 -0.012   0.017  -0.024  -9.266  -0.047  -0.012   0.016  -0.024
  0.005   0.025   0.010  -0.047  -9.225   0.005   0.025   0.010
 -9.349  -0.050  -0.020  -0.012   0.005  -9.455  -0.049  -0.020
 -0.050  -9.382  -0.020   0.016   0.025  -0.049  -9.487  -0.020
 -0.020  -0.020  -9.383  -0.024   0.010  -0.020  -0.020  -9.488
 -0.012   0.016  -0.024  -9.387  -0.046  -0.012   0.016  -0.023
  0.005   0.025   0.010  -0.046  -9.347   0.005   0.024   0.009
 -0.010   0.013   0.011   0.030   0.004  -0.009   0.013   0.011
 -0.014   0.019   0.016   0.043   0.006  -0.014   0.019   0.016
  0.021   0.028  -0.003  -0.000  -0.004   0.020   0.028  -0.002
 -0.000   0.004   0.032   0.019  -0.000  -0.000   0.004   0.031
  0.004  -0.000  -0.012   0.027   0.020   0.004  -0.000  -0.012
  0.024   0.033  -0.003  -0.000  -0.005   0.023   0.032  -0.003
 -0.000   0.005   0.037   0.022  -0.001  -0.000   0.005   0.036
  0.004  -0.000  -0.014   0.032   0.023   0.004  -0.000  -0.014
 pseudopotential strength for first ion, spin component:            2
 -9.228  -0.051  -0.021  -0.012   0.005  -9.349  -0.050  -0.020
 -0.051  -9.261  -0.021   0.017   0.025  -0.050  -9.382  -0.020
 -0.021  -0.021  -9.262  -0.024   0.010  -0.020  -0.020  -9.383
 -0.012   0.017  -0.024  -9.266  -0.047  -0.012   0.016  -0.024
  0.005   0.025   0.010  -0.047  -9.225   0.005   0.025   0.010
 -9.349  -0.050  -0.020  -0.012   0.005  -9.455  -0.049  -0.020
 -0.050  -9.382  -0.020   0.016   0.025  -0.049  -9.487  -0.020
 -0.020  -0.020  -9.383  -0.024   0.010  -0.020  -0.020  -9.488
 -0.012   0.016  -0.024  -9.387  -0.046  -0.012   0.016  -0.023
  0.005   0.025   0.010  -0.046  -9.347   0.005   0.024   0.009
 -0.010   0.013   0.011   0.030   0.004  -0.009   0.013   0.011
 -0.014   0.019   0.016   0.043   0.006  -0.014   0.019   0.016
  0.021   0.028  -0.003  -0.000  -0.004   0.020   0.028  -0.002
 -0.000   0.004   0.032   0.019  -0.000  -0.000   0.004   0.031
  0.004  -0.000  -0.012   0.027   0.020   0.004  -0.000  -0.012
  0.024   0.033  -0.003  -0.000  -0.005   0.023   0.032  -0.003
 -0.000   0.005   0.037   0.022  -0.001  -0.000   0.005   0.036
  0.004  -0.000  -0.014   0.032   0.023   0.004  -0.000  -0.014
 total augmentation occupancy for first ion, spin component:            1
  2.730   0.113  -0.006   0.084  -0.010  -0.693  -0.283  -0.059  -0.020   0.080   0.282  -0.037   0.057  -0.001  -0.011   0.018
  0.113   2.761   0.006   0.113  -0.034  -0.282  -0.899  -0.144  -0.065   0.155  -0.511   0.096   0.087   0.054   0.007   0.023
 -0.006   0.006   2.953   0.250  -0.007  -0.058  -0.145  -0.920  -0.268   0.067  -0.442   0.097   0.015   0.097  -0.001  -0.006
  0.084   0.113   0.250   3.177   0.243  -0.019  -0.067  -0.267  -1.229  -0.350  -1.220   0.240   0.005   0.130   0.130   0.000
 -0.010  -0.034  -0.007   0.243   2.815   0.081   0.156   0.068  -0.351  -0.746  -0.231   0.051  -0.034   0.016   0.075  -0.001
 -0.693  -0.282  -0.058  -0.019   0.081   0.630   0.416   0.107  -0.031  -0.139  -0.230   0.025  -0.099   0.007   0.028   0.004
 -0.283  -0.899  -0.145  -0.067   0.156   0.416   0.970   0.252   0.031  -0.253   0.429  -0.084  -0.153  -0.081   0.003   0.007
 -0.059  -0.144  -0.920  -0.267   0.068   0.107   0.252   0.861   0.283  -0.116   0.375  -0.084  -0.031  -0.144   0.018   0.003
 -0.020  -0.065  -0.268  -1.229  -0.351  -0.031   0.031   0.283   1.236   0.438   1.041  -0.213   0.004  -0.175  -0.188  -0.001
  0.080   0.155   0.067  -0.350  -0.746  -0.139  -0.253  -0.116   0.438   0.661   0.203  -0.050   0.053  -0.014  -0.109  -0.003
  0.282  -0.511  -0.442  -1.220  -0.231  -0.230   0.429   0.375   1.041   0.203   2.028  -0.265  -0.036  -0.234  -0.177   0.002
 -0.037   0.096   0.097   0.240   0.051   0.025  -0.084  -0.084  -0.213  -0.050  -0.265   0.061   0.008   0.044   0.034  -0.000
  0.057   0.087   0.015   0.005  -0.034  -0.099  -0.153  -0.031   0.004   0.053  -0.036   0.008   0.032   0.010  -0.005  -0.002
 -0.001   0.054   0.097   0.130   0.016   0.007  -0.081  -0.144  -0.175  -0.014  -0.234   0.044   0.010   0.049   0.021  -0.001
 -0.011   0.007  -0.001   0.130   0.075   0.028   0.003   0.018  -0.188  -0.109  -0.177   0.034  -0.005   0.021   0.041   0.000
  0.018   0.023  -0.006   0.000  -0.001   0.004   0.007   0.003  -0.001  -0.003   0.002  -0.000  -0.002  -0.001   0.000   0.001
  0.000  -0.002   0.028   0.010  -0.002  -0.001   0.006   0.005   0.010   0.001   0.014  -0.002  -0.001  -0.004  -0.002   0.000
  0.007   0.000  -0.014   0.019   0.017  -0.003  -0.001   0.001   0.010   0.004   0.010  -0.002   0.000  -0.002  -0.003  -0.000
 total augmentation occupancy for first ion, spin component:            2
  0.000  -0.000   0.000  -0.000  -0.000  -0.000  -0.000  -0.000   0.000   0.000   0.000  -0.000   0.000  -0.000  -0.000  -0.000
 -0.000   0.000  -0.000  -0.000  -0.000  -0.000  -0.000   0.000   0.000   0.000   0.000  -0.000   0.000   0.000  -0.000  -0.000
  0.000  -0.000   0.000  -0.000  -0.000  -0.000   0.000  -0.000   0.000   0.000   0.000  -0.000  -0.000  -0.000   0.000  -0.000
 -0.000  -0.000  -0.000   0.000   0.000   0.000   0.000   0.000  -0.000  -0.000  -0.000   0.000  -0.000   0.000  -0.000   0.000
 -0.000  -0.000  -0.000   0.000  -0.000   0.000   0.000   0.000  -0.000   0.000  -0.000  -0.000  -0.000   0.000  -0.000   0.000
 -0.000  -0.000  -0.000   0.000   0.000   0.000   0.000   0.000  -0.000  -0.000  -0.000   0.000  -0.000   0.000   0.000   0.000
 -0.000  -0.000   0.000   0.000   0.000   0.000   0.000  -0.000  -0.000  -0.000  -0.000   0.000  -0.000   0.000   0.000   0.000
 -0.000   0.000  -0.000   0.000   0.000   0.000  -0.000   0.000  -0.000   0.000  -0.000   0.000  -0.000   0.000  -0.000   0.000
  0.000   0.000   0.000  -0.000  -0.000  -0.000  -0.000  -0.000   0.000   0.000   0.000  -0.000   0.000  -0.000  -0.000  -0.000
  0.000   0.000   0.000  -0.000   0.000  -0.000  -0.000   0.000   0.000  -0.000   0.000  -0.000   0.000  -0.000   0.000  -0.000
  0.000   0.000   0.000  -0.000  -0.000  -0.000  -0.000  -0.000   0.000   0.000  -0.000   0.000   0.000  -0.000  -0.000  -0.000
 -0.000  -0.000  -0.000   0.000  -0.000   0.000   0.000   0.000  -0.000  -0.000   0.000  -0.000  -0.000   0.000   0.000  -0.000
  0.000   0.000  -0.000  -0.000  -0.000  -0.000  -0.000  -0.000   0.000   0.000   0.000  -0.000   0.000  -0.000  -0.000  -0.000
 -0.000   0.000  -0.000   0.000   0.000   0.000   0.000   0.000  -0.000  -0.000  -0.000   0.000  -0.000   0.000   0.000  -0.000
 -0.000  -0.000   0.000  -0.000  -0.000   0.000   0.000  -0.000  -0.000   0.000  -0.000   0.000  -0.000   0.000   0.000   0.000
 -0.000  -0.000  -0.000   0.000   0.000   0.000   0.000   0.000  -0.000  -0.000  -0.000  -0.000  -0.000  -0.000   0.000  -0.000
  0.000   0.000   0.000  -0.000  -0.000  -0.000  -0.000  -0.000   0.000   0.000   0.000  -0.000   0.000  -0.000  -0.000   0.000
  0.000   0.000  -0.000   0.000   0.000  -0.000  -0.000   0.000  -0.000  -0.000  -0.000   0.000   0.000   0.000  -0.000   0.000


------------------------ aborting loop because EDIFF is reached ----------------------------------------


    CHARGE:  cpu time    0.8258: real time    0.8267
    FORLOC:  cpu time    0.1173: real time    0.1174
    FORNL :  cpu time    3.6746: real time    3.6793
    FORCOR:  cpu time    3.8455: real time    3.8496
    FORHAR:  cpu time    0.4890: real time    0.4897
    MIXING:  cpu time    0.0729: real time    0.0730
    OFIELD:  cpu time    0.0000: real time    0.0000

 VOLUME and BASIS-vectors are now :
 -----------------------------------------------------------------------------
  energy-cutoff  :      400.00
  volume of cell :    11527.89
      direct lattice vectors                 reciprocal lattice vectors
    23.904855270  0.000000000  0.000000000     0.041832506  0.000000000  0.000000000
     0.000000000 23.072042193  0.000000000     0.000000000  0.043342500  0.000000000
     0.000000000  0.000000000 20.901504072     0.000000000  0.000000000  0.047843447

  length of vectors
    23.904855270 23.072042193 20.901504072     0.041832506  0.043342500  0.047843447


 FORCES acting on ions
    electron-ion (+dipol)            ewald-force                    non-local-force                 convergence-correction
 -----------------------------------------------------------------------------------------------
   -.440E+03 -.133E+03 -.514E+03   0.436E+03 0.132E+03 0.508E+03   0.465E+01 0.812E+00 0.621E+01   0.560E-01 0.120E-01 0.187E-01
   0.437E+03 -.117E+03 0.577E+02   -.436E+03 0.117E+03 -.576E+02   -.498E+00 0.761E-01 -.760E-01   0.148E-01 0.205E-01 -.188E-02
   -.426E+03 0.368E+03 0.397E+03   0.421E+03 -.364E+03 -.392E+03   0.495E+01 -.351E+01 -.487E+01   -.260E-01 -.298E-01 0.466E-02
   0.580E+03 0.378E+03 -.366E+02   -.573E+03 -.373E+03 0.353E+02   -.652E+01 -.410E+01 0.120E+01   -.262E-01 -.203E-01 -.269E-01
   0.293E+03 -.609E+03 0.140E+03   -.290E+03 0.603E+03 -.138E+03   -.322E+01 0.674E+01 -.229E+01   0.191E-01 0.608E-02 0.307E-01
   -.970E+02 -.452E+03 -.212E+03   0.967E+02 0.451E+03 0.211E+03   0.283E+00 0.147E+01 0.611E+00   -.867E-01 0.251E-01 -.591E-01
   -.439E+03 0.118E+03 -.587E+02   0.438E+03 -.118E+03 0.586E+02   0.540E+00 -.834E-01 0.140E+00   -.765E-02 0.123E-01 -.511E-02
   0.929E+02 0.447E+03 0.225E+03   -.926E+02 -.446E+03 -.225E+03   -.272E+00 -.145E+01 -.766E+00   0.259E-01 0.102E-01 -.130E-01
 -----------------------------------------------------------------------------------------------
   0.110E+00 0.973E-03 -.112E+00   0.711E-13 0.000E+00 0.000E+00   -.801E-01 -.340E-01 0.159E+00   -.308E-01 0.361E-01 -.520E-01
 
 
 POSITION                                       TOTAL-FORCE (eV/Angst)
 -----------------------------------------------------------------------------------
     14.44085     12.33375     12.75982         0.065234      0.021417     -0.015243
     10.30450     11.83613     10.21869        -0.002997     -0.037185     -0.005897
     14.13973      9.16386      8.71988        -0.032749     -0.054134      0.022234
      9.13561      9.49017     10.16779        -0.021735     -0.022709     -0.058029
     10.45186     14.44870     10.16201         0.004296      0.046509      0.050811
     12.42397     13.16252     11.32191        -0.049506     -0.006423     -0.027828
     13.79190     10.88020     10.66980         0.016353      0.043500      0.034059
     11.67920      9.56562      9.54854         0.021104      0.009026     -0.000107
 -----------------------------------------------------------------------------------
    total drift:                               -0.000649      0.003136     -0.004689


--------------------------------------------------------------------------------------------------------



  FREE ENERGIE OF THE ION-ELECTRON SYSTEM (eV)
  ---------------------------------------------------
  free  energy   TOTEN  =       -17.44016365 eV

  energy  without entropy=      -17.48964441  energy(sigma->0) =      -17.45665724
 
 d Force = 0.1483783E-02[ 0.970E-03, 0.200E-02]  d Energy = 0.1789601E-02-0.306E-03
 d Force = 0.1841538E+01[ 0.183E+01, 0.185E+01]  d Ewald  = 0.1841531E+01 0.708E-05


--------------------------------------------------------------------------------------------------------


    POTLOK:  cpu time    3.9595: real time    3.9648


--------------------------------------------------------------------------------------------------------




--------------------------------------------------------------------------------------------------------


  
 reached required accuracy - stopping structural energy minimisation
     LOOP+:  cpu time   44.5244: real time   44.6077
    4ORBIT:  cpu time    0.0000: real time    0.0000

 total amount of memory used by VASP MPI-rank0   242195. kBytes
=======================================================================

   base      :      30000. kBytes
   nonl-proj :       3558. kBytes
   fftplans  :      56772. kBytes
   grid      :     128390. kBytes
   one-center:         15. kBytes
   wavefun   :      23460. kBytes
 
  
  
 General timing and accounting informations for this job:
 ========================================================
  
                  Total CPU time used (sec):     9199.456
                            User time (sec):     9091.968
                          System time (sec):      107.488
                         Elapsed time (sec):     9230.069
  
                   Maximum memory used (kb):      483060.
                   Average memory used (kb):           0.
  
                          Minor page faults:     36884835
                          Major page faults:       215067
                 Voluntary context switches:         4229
