<?xml version="1.0" encoding="ISO-8859-1"?>
<modeling>
 <generator>
  <i name="program" type="string">vasp </i>
  <i name="version" type="string">6.1.2  </i>
  <i name="subversion" type="string">22Jul20 (build Jan 14 2022 17:24:41) gamma-only                       parallel </i>
  <i name="platform" type="string">LinuxPGI </i>
  <i name="date" type="string">2022 01 26 </i>
  <i name="time" type="string">09:25:48 </i>
 </generator>
 <incar>
  <i type="int" name="ISPIN">     2</i>
  <i type="int" name="IBRION">     2</i>
  <i type="int" name="NSW">  1000</i>
  <i type="int" name="ISIF">     0</i>
  <i type="int" name="ISYM">     0</i>
  <i name="ENCUT">    400.00000000</i>
  <i type="logical" name="LREAL"> F  </i>
  <i type="int" name="ISMEAR">     1</i>
  <i name="SIGMA">      0.20000000</i>
  <i type="logical" name="LWAVE"> F  </i>
  <i type="logical" name="LCHARG"> F  </i>
  <i type="int" name="KPAR">     1</i>
  <i type="int" name="NCORE">     8</i>
  <i type="string" name="GGA"> PE</i>
  <i type="int" name="ISPIN">     2</i>
 </incar>
 <structure name="primitive_cell" >
  <crystal>
   <varray name="basis" >
    <v>      23.90485527       0.00000000       0.00000000 </v>
    <v>       0.00000000      23.07204219       0.00000000 </v>
    <v>       0.00000000       0.00000000      20.90150407 </v>
   </varray>
   <i name="volume">  11527.88658089 </i>
   <varray name="rec_basis" >
    <v>       0.04183251       0.00000000       0.00000000 </v>
    <v>       0.00000000       0.04334250       0.00000000 </v>
    <v>       0.00000000       0.00000000       0.04784345 </v>
   </varray>
  </crystal>
  <varray name="positions" >
   <v>       0.55062483       0.47964077       0.56673026 </v>
   <v>       0.44964196       0.51048106       0.51631397 </v>
   <v>       0.60694400       0.42171725       0.48303590 </v>
   <v>       0.39873402       0.42329896       0.46888870 </v>
   <v>       0.44501661       0.62129104       0.51568376 </v>
   <v>       0.54286568       0.58508790       0.51846624 </v>
   <v>       0.53826584       0.49734194       0.43647465 </v>
   <v>       0.49920578       0.40014826       0.49260851 </v>
  </varray>
 </structure>
 <varray name="primitive_index" >
  <v type="int" >        1 </v>
  <v type="int" >        2 </v>
  <v type="int" >        3 </v>
  <v type="int" >        4 </v>
  <v type="int" >        5 </v>
  <v type="int" >        6 </v>
  <v type="int" >        7 </v>
  <v type="int" >        8 </v>
 </varray>
 <kpoints>
  <generation param="Gamma">
   <v type="int" name="divisions">       1        1        1 </v>
   <v name="usershift">      0.00000000       0.00000000       0.00000000 </v>
   <v name="genvec1">      1.00000000       0.00000000       0.00000000 </v>
   <v name="genvec2">      0.00000000       1.00000000       0.00000000 </v>
   <v name="genvec3">      0.00000000       0.00000000       1.00000000 </v>
   <v name="shift">      0.00000000       0.00000000       0.00000000 </v>
  </generation>
  <varray name="kpointlist" >
   <v>       0.00000000       0.00000000       0.00000000 </v>
  </varray>
  <varray name="weights" >
   <v>       1.00000000 </v>
  </varray>
 </kpoints>
 <parameters>
  <separator name="general" >
   <i type="string" name="SYSTEM">unknown system</i>
   <i type="logical" name="LCOMPAT"> F  </i>
  </separator>
  <separator name="electronic" >
   <i type="string" name="PREC">normal</i>
   <i name="ENMAX">    400.00000000</i>
   <i name="ENAUG">    356.67000000</i>
   <i name="EDIFF">      0.00010000</i>
   <i type="int" name="IALGO">    38</i>
   <i type="int" name="IWAVPR">    11</i>
   <i type="int" name="NBANDS">    56</i>
   <i type="int" name="NBANDSLOW">    -1</i>
   <i type="int" name="NBANDSHIGH">    -1</i>
   <i name="NELECT">     88.00000000</i>
   <i type="int" name="TURBO">     0</i>
   <i type="int" name="IRESTART">     0</i>
   <i type="int" name="NREBOOT">     0</i>
   <i type="int" name="NMIN">     0</i>
   <i name="EREF">      0.00000000</i>
   <separator name="electronic smearing" >
    <i type="int" name="ISMEAR">     1</i>
    <i name="SIGMA">      0.20000000</i>
    <i name="KSPACING">      0.50000000</i>
    <i type="logical" name="KGAMMA"> T  </i>
    <i type="logical" name="KBLOWUP"> T  </i>
   </separator>
   <separator name="electronic projectors" >
    <i type="logical" name="LREAL"> F  </i>
    <v name="ROPT">      0.00000000</v>
    <i type="int" name="LMAXPAW">  -100</i>
    <i type="int" name="LMAXMIX">     2</i>
    <i type="logical" name="NLSPLINE"> F  </i>
   </separator>
   <separator name="electronic startup" >
    <i type="int" name="ISTART">     0</i>
    <i type="int" name="ICHARG">     2</i>
    <i type="int" name="INIWAV">     1</i>
   </separator>
   <separator name="electronic spin" >
    <i type="int" name="ISPIN">     2</i>
    <i type="logical" name="LNONCOLLINEAR"> F  </i>
    <v name="MAGMOM">      1.00000000      1.00000000      1.00000000      1.00000000      1.00000000      1.00000000      1.00000000      1.00000000</v>
    <i name="NUPDOWN">     -1.00000000</i>
    <i type="logical" name="LSORBIT"> F  </i>
    <v name="SAXIS">      0.00000000      0.00000000      1.00000000</v>
    <i type="logical" name="LSPIRAL"> F  </i>
    <v name="QSPIRAL">      0.00000000      0.00000000      0.00000000</v>
    <i type="logical" name="LZEROZ"> F  </i>
   </separator>
   <separator name="electronic exchange-correlation" >
    <i type="logical" name="LASPH"> F  </i>
    <i type="logical" name="LMETAGGA"> F  </i>
   </separator>
   <separator name="electronic convergence" >
    <i type="int" name="NELM">    60</i>
    <i type="int" name="NELMDL">     0</i>
    <i type="int" name="NELMIN">     2</i>
    <i name="ENINI">    400.00000000</i>
    <separator name="electronic convergence detail" >
     <i type="logical" name="LDIAG"> T  </i>
     <i type="logical" name="LSUBROT"> F  </i>
     <i name="WEIMIN">      0.00100000</i>
     <i name="EBREAK">      0.00000045</i>
     <i name="DEPER">      0.30000000</i>
     <i type="int" name="NRMM">     4</i>
     <i name="TIME">      0.40000000</i>
    </separator>
   </separator>
   <separator name="electronic mixer" >
    <i name="AMIX">      0.40000000</i>
    <i name="BMIX">      1.00000000</i>
    <i name="AMIN">      0.10000000</i>
    <i name="AMIX_MAG">      1.60000000</i>
    <i name="BMIX_MAG">      1.00000000</i>
    <separator name="electronic mixer details" >
     <i type="int" name="IMIX">     4</i>
     <i type="logical" name="MIXFIRST"> F  </i>
     <i type="int" name="MAXMIX">   -45</i>
     <i name="WC">    100.00000000</i>
     <i type="int" name="INIMIX">     1</i>
     <i type="int" name="MIXPRE">     1</i>
     <i type="int" name="MREMOVE">     5</i>
    </separator>
   </separator>
   <separator name="electronic dipolcorrection" >
    <i type="logical" name="LDIPOL"> F  </i>
    <i type="logical" name="LMONO"> F  </i>
    <i type="int" name="IDIPOL">     0</i>
    <i name="EPSILON">      1.00000000</i>
    <v name="DIPOL">   -100.00000000   -100.00000000   -100.00000000</v>
    <i name="EFIELD">      0.00000000</i>
   </separator>
  </separator>
  <separator name="grids" >
   <i type="int" name="NGX">   120</i>
   <i type="int" name="NGY">   120</i>
   <i type="int" name="NGZ">   108</i>
   <i type="int" name="NGXF">   240</i>
   <i type="int" name="NGYF">   240</i>
   <i type="int" name="NGZF">   216</i>
   <i type="logical" name="ADDGRID"> F  </i>
  </separator>
  <separator name="ionic" >
   <i type="int" name="NSW">  1000</i>
   <i type="int" name="IBRION">     2</i>
   <i type="int" name="MDALGO">     0</i>
   <i type="int" name="ISIF">     0</i>
   <i name="PSTRESS">      0.00000000</i>
   <i name="EDIFFG">      0.00100000</i>
   <i type="int" name="NFREE">     1</i>
   <i name="POTIM">      0.50000000</i>
   <i name="SMASS">     -3.00000000</i>
   <i name="SCALEE">      1.00000000</i>
  </separator>
  <separator name="ionic md" >
   <i name="TEBEG">      0.00010000</i>
   <i name="TEEND">      0.00010000</i>
   <i type="int" name="NBLOCK">     1</i>
   <i type="int" name="KBLOCK">  1000</i>
   <i type="int" name="NPACO">   256</i>
   <i name="APACO">     16.00000000</i>
  </separator>
  <separator name="symmetry" >
   <i type="int" name="ISYM">     0</i>
   <i name="SYMPREC">      0.00001000</i>
  </separator>
  <separator name="dos" >
   <i type="int" name="LORBIT">     0</i>
   <v name="RWIGS">     -1.00000000</v>
   <i type="int" name="NEDOS">   301</i>
   <i name="EMIN">     10.00000000</i>
   <i name="EMAX">    -10.00000000</i>
   <i name="EFERMI">      0.00000000</i>
  </separator>
  <separator name="writing" >
   <i type="int" name="NWRITE">     2</i>
   <i type="logical" name="LWAVE"> F  </i>
   <i type="logical" name="LDOWNSAMPLE"> F  </i>
   <i type="logical" name="LCHARG"> F  </i>
   <i type="logical" name="LPARD"> F  </i>
   <i type="logical" name="LVTOT"> F  </i>
   <i type="logical" name="LVHAR"> F  </i>
   <i type="logical" name="LELF"> F  </i>
   <i type="logical" name="LOPTICS"> F  </i>
   <v name="STM">      0.00000000      0.00000000      0.00000000      0.00000000      0.00000000      0.00000000      0.00000000</v>
  </separator>
  <separator name="performance" >
   <i type="int" name="NPAR">     1</i>
   <i type="int" name="NSIM">     4</i>
   <i type="int" name="NBLK">    -1</i>
   <i type="logical" name="LPLANE"> T  </i>
   <i type="logical" name="LSCALAPACK"> T  </i>
   <i type="logical" name="LSCAAWARE"> F  </i>
   <i type="logical" name="LSCALU"> F  </i>
   <i type="logical" name="LASYNC"> F  </i>
   <i type="logical" name="LORBITALREAL"> F  </i>
  </separator>
  <separator name="miscellaneous" >
   <i type="int" name="IDIOT">     3</i>
   <i type="int" name="PHON_NSTRUCT">    -1</i>
   <i type="logical" name="LMUSIC"> F  </i>
   <v name="POMASS">    196.96600000</v>
   <v name="DARWINR">      0.00000000</v>
   <v name="DARWINV">      1.00000000</v>
   <i type="logical" name="LCORR"> T  </i>
  </separator>
  <i type="logical" name="GGA_COMPAT"> T  </i>
  <i type="logical" name="LBERRY"> F  </i>
  <i type="int" name="ICORELEVEL">     0</i>
  <i type="logical" name="LDAU"> F  </i>
  <i type="int" name="I_CONSTRAINED_M">     0</i>
  <separator name="electronic exchange-correlation" >
   <i type="string" name="GGA">PE</i>
   <i type="int" name="VOSKOWN">     0</i>
   <i type="logical" name="LHFCALC"> F  </i>
   <i type="string" name="PRECFOCK"></i>
   <i type="logical" name="LSYMGRAD"> F  </i>
   <i type="logical" name="LHFONE"> F  </i>
   <i type="logical" name="LRHFCALC"> F  </i>
   <i type="logical" name="LTHOMAS"> F  </i>
   <i type="logical" name="LMODELHF"> F  </i>
   <i type="logical" name="LFOCKACE"> F  </i>
   <i name="ENCUT4O">     -1.00000000</i>
   <i type="int" name="EXXOEP">     0</i>
   <i type="int" name="FOURORBIT">     0</i>
   <i name="AEXX">      0.00000000</i>
   <i name="HFALPHA">      0.00000000</i>
   <i name="MCALPHA">      0.00000000</i>
   <i name="ALDAX">      1.00000000</i>
   <i name="AGGAX">      1.00000000</i>
   <i name="ALDAC">      1.00000000</i>
   <i name="AGGAC">      1.00000000</i>
   <i type="int" name="NKREDX">     1</i>
   <i type="int" name="NKREDY">     1</i>
   <i type="int" name="NKREDZ">     1</i>
   <i type="logical" name="SHIFTRED"> F  </i>
   <i type="logical" name="ODDONLY"> F  </i>
   <i type="logical" name="EVENONLY"> F  </i>
   <i type="int" name="LMAXFOCK">     0</i>
   <i type="int" name="NMAXFOCKAE">     0</i>
   <i type="logical" name="LFOCKAEDFT"> F  </i>
   <i name="HFSCREEN">      0.00000000</i>
   <i name="HFSCREENC">      0.00000000</i>
   <i type="int" name="NBANDSGWLOW">     0</i>
  </separator>
  <separator name="vdW DFT" >
   <i type="logical" name="LUSE_VDW"> F  </i>
   <i name="Zab_VDW">     -0.84910000</i>
   <i name="PARAM1">      0.12340000</i>
   <i name="PARAM2">      1.00000000</i>
   <i name="PARAM3">      0.00000000</i>
  </separator>
  <separator name="model GW" >
   <i type="int" name="MODEL_GW">     0</i>
   <i name="MODEL_EPS0">    864.59149357</i>
   <i name="MODEL_ALPHA">      1.00000000</i>
  </separator>
  <separator name="linear response parameters" >
   <i type="logical" name="LEPSILON"> F  </i>
   <i type="logical" name="LRPA"> F  </i>
   <i type="logical" name="LNABLA"> F  </i>
   <i type="logical" name="LVEL"> F  </i>
   <i type="int" name="KINTER">     0</i>
   <i name="CSHIFT">      0.10000000</i>
   <i name="OMEGAMAX">     -1.00000000</i>
   <i name="DEG_THRESHOLD">      0.00200000</i>
   <i name="RTIME">     -0.10000000</i>
   <i name="WPLASMAI">      0.00000000</i>
   <v name="DFIELD">      0.00000000      0.00000000      0.00000000</v>
   <v name="WPLASMA">      0.00000000      0.00000000      0.00000000      0.00000000      0.00000000      0.00000000      0.00000000      0.00000000      0.00000000</v>
  </separator>
  <separator name="orbital magnetization" >
   <i type="logical" name="NUCIND"> F  </i>
   <v name="MAGPOS">      0.00000000      0.00000000      0.00000000</v>
   <i type="logical" name="LNICSALL"> T  </i>
   <i type="logical" name="ORBITALMAG"> F  </i>
   <i type="logical" name="LMAGBLOCH"> F  </i>
   <i type="logical" name="LCHIMAG"> F  </i>
   <i type="logical" name="LGAUGE"> T  </i>
   <i type="int" name="MAGATOM">     0</i>
   <v name="MAGDIPOL">      0.00000000      0.00000000      0.00000000</v>
   <v name="AVECCONST">      0.00000000      0.00000000      0.00000000</v>
  </separator>
  <separator name="response functions" >
   <i type="logical" name="LFINITE_TEMPERATURE"> F  </i>
   <i type="logical" name="LADDER"> F  </i>
   <i type="logical" name="LRPAFORCE"> F  </i>
   <i type="logical" name="LFXC"> F  </i>
   <i type="logical" name="LHARTREE"> T  </i>
   <i type="int" name="IBSE">     0</i>
   <v type="int" name="KPOINT">    -1     0     0     0</v>
   <i type="logical" name="LTCTC"> F  </i>
   <i type="logical" name="LTCTE"> F  </i>
   <i type="logical" name="LTETE"> F  </i>
   <i type="logical" name="LTRIPLET"> F  </i>
   <i type="logical" name="LFXCEPS"> F  </i>
   <i type="logical" name="LFXHEG"> F  </i>
   <i type="int" name="NATURALO">     2</i>
   <i type="logical" name="LHOLEGF"> F  </i>
   <i type="logical" name="L2ORDER"> F  </i>
   <i type="logical" name="LDMP1"> F  </i>
   <i type="logical" name="LMP2LT"> F  </i>
   <i type="logical" name="LSMP2LT"> F  </i>
   <i type="logical" name="LGWLF"> F  </i>
   <i name="ENCUTGW">     -2.00000000</i>
   <i name="ENCUTGWSOFT">     -2.00000000</i>
   <i name="ENCUTLF">     -1.00000000</i>
   <i type="logical" name="LESF_SPLINES"> F  </i>
   <i type="int" name="LMAXMP2">    -1</i>
   <i name="SCISSOR">      0.00000000</i>
   <i type="int" name="NOMEGA">     0</i>
   <i type="int" name="NOMEGAR">     0</i>
   <i type="int" name="NBANDSGW">    -1</i>
   <i type="int" name="NBANDSO">    -1</i>
   <i type="int" name="NBANDSV">    -1</i>
   <i type="int" name="NELM">     1</i>
   <i type="int" name="NELMHF">     1</i>
   <i type="int" name="DIM">     3</i>
   <i type="int" name="IESPILON">     4</i>
   <i type="int" name="ANTIRES">     0</i>
   <i name="OMEGAMAX">    -30.00000000</i>
   <i name="OMEGAMIN">    -30.00000000</i>
   <i name="OMEGATL">   -200.00000000</i>
   <i type="int" name="OMEGAGRID">     0</i>
   <i name="CSHIFT">     -0.10000000</i>
   <i type="logical" name="LSELFENERGY"> F  </i>
   <i type="logical" name="LSPECTRAL"> F  </i>
   <i type="logical" name="LSPECTRALGW"> F  </i>
   <i type="logical" name="LSINGLES"> F  </i>
   <i type="logical" name="LFERMIGW"> F  </i>
   <i type="logical" name="ODDONLYGW"> F  </i>
   <i type="logical" name="EVENONLYGW"> F  </i>
   <i type="int" name="NKREDLFX">     1</i>
   <i type="int" name="NKREDLFY">     1</i>
   <i type="int" name="NKREDLFZ">     1</i>
   <i type="int" name="MAXMEM">  2800</i>
   <i type="int" name="TELESCOPE">     0</i>
   <i type="int" name="NTAUPAR">    -1</i>
   <i type="int" name="NOMEGAPAR">    -1</i>
   <i name="LAMBDA">      1.00000000</i>
  </separator>
  <separator name="External order field" >
   <i name="OFIELD_KAPPA">      0.00000000</i>
   <v name="OFIELD_K">      0.00000000      0.00000000      0.00000000</v>
   <i name="OFIELD_Q6_NEAR">      0.00000000</i>
   <i name="OFIELD_Q6_FAR">      0.00000000</i>
   <i name="OFIELD_A">      0.00000000</i>
  </separator>
 </parameters>
 <atominfo>
  <atoms>       8 </atoms>
  <types>       1 </types>
  <array name="atoms" >
   <dimension dim="1">ion</dimension>
   <field type="string">element</field>
   <field type="int">atomtype</field>
   <set>
    <rc><c>Au</c><c>   1</c></rc>
    <rc><c>Au</c><c>   1</c></rc>
    <rc><c>Au</c><c>   1</c></rc>
    <rc><c>Au</c><c>   1</c></rc>
    <rc><c>Au</c><c>   1</c></rc>
    <rc><c>Au</c><c>   1</c></rc>
    <rc><c>Au</c><c>   1</c></rc>
    <rc><c>Au</c><c>   1</c></rc>
   </set>
  </array>
  <array name="atomtypes" >
   <dimension dim="1">type</dimension>
   <field type="int">atomspertype</field>
   <field type="string">element</field>
   <field>mass</field>
   <field>valence</field>
   <field type="string">pseudopotential</field>
   <set>
    <rc><c>   8</c><c>Au</c><c>    196.96600000</c><c>     11.00000000</c><c>  PAW_PBE Au 04Oct2007                  </c></rc>
   </set>
  </array>
 </atominfo>
 <structure name="initialpos" >
  <crystal>
   <varray name="basis" >
    <v>      23.90485527       0.00000000       0.00000000 </v>
    <v>       0.00000000      23.07204219       0.00000000 </v>
    <v>       0.00000000       0.00000000      20.90150407 </v>
   </varray>
   <i name="volume">  11527.88658089 </i>
   <varray name="rec_basis" >
    <v>       0.04183251       0.00000000       0.00000000 </v>
    <v>       0.00000000       0.04334250       0.00000000 </v>
    <v>       0.00000000       0.00000000       0.04784345 </v>
   </varray>
  </crystal>
  <varray name="positions" >
   <v>       0.55062483       0.47964077       0.56673026 </v>
   <v>       0.44964196       0.51048106       0.51631397 </v>
   <v>       0.60694400       0.42171725       0.48303590 </v>
   <v>       0.39873402       0.42329896       0.46888870 </v>
   <v>       0.44501661       0.62129104       0.51568376 </v>
   <v>       0.54286568       0.58508790       0.51846624 </v>
   <v>       0.53826584       0.49734194       0.43647465 </v>
   <v>       0.49920578       0.40014826       0.49260851 </v>
  </varray>
 </structure>
 <calculation>
  <scstep>
   <time name="dav">    6.21    6.22</time>
   <time name="total">   10.37   10.39</time>
   <energy>
    <i name="alphaZ">      6.46666210 </i>
    <i name="ewald">   8240.37115523 </i>
    <i name="hartreedc"> -15318.24976684 </i>
    <i name="XCdc">    118.65619550 </i>
    <i name="pawpsdc">   6992.17180065 </i>
    <i name="pawaedc">  -6807.49900724 </i>
    <i name="eentropy">     -0.01484380 </i>
    <i name="bandstr">    108.01606142 </i>
    <i name="atom">   7408.64415014 </i>
    <i name="e_fr_energy">    748.56240716 </i>
    <i name="e_wo_entrp">    748.57725096 </i>
    <i name="e_0_energy">    748.56735509 </i>
   </energy>
  </scstep>
  <scstep>
   <time name="dav">   10.04   10.06</time>
   <time name="total">   10.05   10.07</time>
   <energy>
    <i name="e_fr_energy">    463.08796659 </i>
    <i name="e_wo_entrp">    463.12068993 </i>
    <i name="e_0_energy">    463.09887437 </i>
   </energy>
  </scstep>
  <scstep>
   <time name="dav">    9.84    9.86</time>
   <time name="total">    9.85    9.87</time>
   <energy>
    <i name="e_fr_energy">    134.74288260 </i>
    <i name="e_wo_entrp">    134.75699144 </i>
    <i name="e_0_energy">    134.74758555 </i>
   </energy>
  </scstep>
  <scstep>
   <time name="dav">    7.99    8.01</time>
   <time name="total">    8.00    8.01</time>
   <energy>
    <i name="e_fr_energy">      7.22576119 </i>
    <i name="e_wo_entrp">      7.17887755 </i>
    <i name="e_0_energy">      7.21013331 </i>
   </energy>
  </scstep>
  <scstep>
   <time name="dav">    7.97    7.98</time>
   <time name="total">    8.92    8.94</time>
   <energy>
    <i name="e_fr_energy">    -13.94378597 </i>
    <i name="e_wo_entrp">    -13.94552062 </i>
    <i name="e_0_energy">    -13.94436419 </i>
   </energy>
  </scstep>
  <scstep>
   <time name="dav">    6.14    6.16</time>
   <time name="total">   11.18   11.21</time>
   <energy>
    <i name="e_fr_energy">     -6.48681600 </i>
    <i name="e_wo_entrp">     -6.49953334 </i>
    <i name="e_0_energy">     -6.49105511 </i>
   </energy>
  </scstep>
  <scstep>
   <time name="dav">    6.60    6.61</time>
   <time name="total">   11.66   11.68</time>
   <energy>
    <i name="e_fr_energy">     -3.92044570 </i>
    <i name="e_wo_entrp">     -3.93197465 </i>
    <i name="e_0_energy">     -3.92428868 </i>
   </energy>
  </scstep>
  <scstep>
   <time name="dav">    6.77    6.78</time>
   <time name="total">   11.83   11.85</time>
   <energy>
    <i name="e_fr_energy">     -7.57457834 </i>
    <i name="e_wo_entrp">     -7.58634044 </i>
    <i name="e_0_energy">     -7.57849904 </i>
   </energy>
  </scstep>
  <scstep>
   <time name="dav">    6.73    6.74</time>
   <time name="total">   11.77   11.78</time>
   <energy>
    <i name="e_fr_energy">     -9.64359259 </i>
    <i name="e_wo_entrp">     -9.65592952 </i>
    <i name="e_0_energy">     -9.64770490 </i>
   </energy>
  </scstep>
  <scstep>
   <time name="dav">    6.44    6.45</time>
   <time name="total">   11.49   11.50</time>
   <energy>
    <i name="e_fr_energy">    -11.83329942 </i>
    <i name="e_wo_entrp">    -11.85322879 </i>
    <i name="e_0_energy">    -11.83994255 </i>
   </energy>
  </scstep>
  <scstep>
   <time name="dav">    6.28    6.28</time>
   <time name="total">   11.31   11.32</time>
   <energy>
    <i name="e_fr_energy">    -13.04945798 </i>
    <i name="e_wo_entrp">    -13.08647251 </i>
    <i name="e_0_energy">    -13.06179615 </i>
   </energy>
  </scstep>
  <scstep>
   <time name="dav">    6.43    6.44</time>
   <time name="total">   11.50   11.52</time>
   <energy>
    <i name="e_fr_energy">    -14.03116863 </i>
    <i name="e_wo_entrp">    -14.06313269 </i>
    <i name="e_0_energy">    -14.04182332 </i>
   </energy>
  </scstep>
  <scstep>
   <time name="dav">    6.42    6.43</time>
   <time name="total">   11.49   11.51</time>
   <energy>
    <i name="e_fr_energy">    -14.44767651 </i>
    <i name="e_wo_entrp">    -14.47198153 </i>
    <i name="e_0_energy">    -14.45577818 </i>
   </energy>
  </scstep>
  <scstep>
   <time name="dav">    6.43    6.44</time>
   <time name="total">   11.48   11.50</time>
   <energy>
    <i name="e_fr_energy">    -14.59449110 </i>
    <i name="e_wo_entrp">    -14.61613197 </i>
    <i name="e_0_energy">    -14.60170472 </i>
   </energy>
  </scstep>
  <scstep>
   <time name="dav">    6.29    6.30</time>
   <time name="total">   11.39   11.41</time>
   <energy>
    <i name="e_fr_energy">    -14.79527181 </i>
    <i name="e_wo_entrp">    -14.81136785 </i>
    <i name="e_0_energy">    -14.80063716 </i>
   </energy>
  </scstep>
  <scstep>
   <time name="dav">    6.29    6.29</time>
   <time name="total">   11.38   11.39</time>
   <energy>
    <i name="e_fr_energy">    -14.95506843 </i>
    <i name="e_wo_entrp">    -14.96733817 </i>
    <i name="e_0_energy">    -14.95915834 </i>
   </energy>
  </scstep>
  <scstep>
   <time name="dav">    6.10    6.11</time>
   <time name="total">   11.17   11.19</time>
   <energy>
    <i name="e_fr_energy">    -15.02417524 </i>
    <i name="e_wo_entrp">    -15.03382303 </i>
    <i name="e_0_energy">    -15.02739117 </i>
   </energy>
  </scstep>
  <scstep>
   <time name="dav">    6.12    6.13</time>
   <time name="total">   11.21   11.24</time>
   <energy>
    <i name="e_fr_energy">    -15.08424359 </i>
    <i name="e_wo_entrp">    -15.09217344 </i>
    <i name="e_0_energy">    -15.08688687 </i>
   </energy>
  </scstep>
  <scstep>
   <time name="dav">    5.62    5.63</time>
   <time name="total">   10.72   10.74</time>
   <energy>
    <i name="e_fr_energy">    -15.09922379 </i>
    <i name="e_wo_entrp">    -15.10652168 </i>
    <i name="e_0_energy">    -15.10165642 </i>
   </energy>
  </scstep>
  <scstep>
   <time name="dav">    5.20    5.21</time>
   <time name="total">   10.32   10.34</time>
   <energy>
    <i name="e_fr_energy">    -15.10887541 </i>
    <i name="e_wo_entrp">    -15.11606579 </i>
    <i name="e_0_energy">    -15.11127221 </i>
   </energy>
  </scstep>
  <scstep>
   <time name="dav">    5.19    5.20</time>
   <time name="total">   10.31   10.32</time>
   <energy>
    <i name="e_fr_energy">    -15.11687352 </i>
    <i name="e_wo_entrp">    -15.12401872 </i>
    <i name="e_0_energy">    -15.11925526 </i>
   </energy>
  </scstep>
  <scstep>
   <time name="dav">    5.04    5.05</time>
   <time name="total">   10.19   10.21</time>
   <energy>
    <i name="e_fr_energy">    -15.12186311 </i>
    <i name="e_wo_entrp">    -15.12902765 </i>
    <i name="e_0_energy">    -15.12425129 </i>
   </energy>
  </scstep>
  <scstep>
   <time name="dav">    5.19    5.20</time>
   <time name="total">   10.34   10.35</time>
   <energy>
    <i name="e_fr_energy">    -15.12430495 </i>
    <i name="e_wo_entrp">    -15.13148165 </i>
    <i name="e_0_energy">    -15.12669718 </i>
   </energy>
  </scstep>
  <scstep>
   <time name="dav">    4.72    4.73</time>
   <time name="total">    9.87    9.88</time>
   <energy>
    <i name="e_fr_energy">    -15.12588407 </i>
    <i name="e_wo_entrp">    -15.13307715 </i>
    <i name="e_0_energy">    -15.12828177 </i>
   </energy>
  </scstep>
  <scstep>
   <time name="dav">    5.03    5.04</time>
   <time name="total">   10.17   10.18</time>
   <energy>
    <i name="e_fr_energy">    -15.12660975 </i>
    <i name="e_wo_entrp">    -15.13380652 </i>
    <i name="e_0_energy">    -15.12900868 </i>
   </energy>
  </scstep>
  <scstep>
   <time name="dav">    4.87    4.88</time>
   <time name="total">   10.05   10.07</time>
   <energy>
    <i name="e_fr_energy">    -15.12687175 </i>
    <i name="e_wo_entrp">    -15.13404209 </i>
    <i name="e_0_energy">    -15.12926186 </i>
   </energy>
  </scstep>
  <scstep>
   <time name="dav">    4.57    4.58</time>
   <time name="total">    9.75    9.77</time>
   <energy>
    <i name="e_fr_energy">    -15.12698966 </i>
    <i name="e_wo_entrp">    -15.13414522 </i>
    <i name="e_0_energy">    -15.12937485 </i>
   </energy>
  </scstep>
  <scstep>
   <time name="dav">    4.59    4.60</time>
   <time name="total">    8.68    8.69</time>
   <energy>
    <i name="alphaZ">      6.46666210 </i>
    <i name="ewald">   8240.37115523 </i>
    <i name="hartreedc"> -15269.42243720 </i>
    <i name="XCdc">    115.64173299 </i>
    <i name="pawpsdc">   8100.97246897 </i>
    <i name="pawaedc">  -7932.75041474 </i>
    <i name="eentropy">      0.00714854 </i>
    <i name="bandstr">   -685.05751684 </i>
    <i name="atom">   7408.64415014 </i>
    <i name="e_fr_energy">    -15.12705080 </i>
    <i name="e_wo_entrp">    -15.13419934 </i>
    <i name="e_0_energy">    -15.12943365 </i>
   </energy>
  </scstep>
  <structure>
   <crystal>
    <varray name="basis" >
     <v>      23.90485527       0.00000000       0.00000000 </v>
     <v>       0.00000000      23.07204219       0.00000000 </v>
     <v>       0.00000000       0.00000000      20.90150407 </v>
    </varray>
    <i name="volume">  11527.88658089 </i>
    <varray name="rec_basis" >
     <v>       0.04183251       0.00000000       0.00000000 </v>
     <v>       0.00000000       0.04334250       0.00000000 </v>
     <v>       0.00000000       0.00000000       0.04784345 </v>
    </varray>
   </crystal>
   <varray name="positions" >
    <v>       0.55062483       0.47964077       0.56673026 </v>
    <v>       0.44964196       0.51048106       0.51631397 </v>
    <v>       0.60694400       0.42171725       0.48303590 </v>
    <v>       0.39873402       0.42329896       0.46888870 </v>
    <v>       0.44501661       0.62129104       0.51568376 </v>
    <v>       0.54286568       0.58508790       0.51846624 </v>
    <v>       0.53826584       0.49734194       0.43647465 </v>
    <v>       0.49920578       0.40014826       0.49260851 </v>
   </varray>
  </structure>
  <varray name="forces" >
   <v>       0.33087295       0.22019742       2.12801012 </v>
   <v>      -0.64952051       0.15704398       0.36307074 </v>
   <v>       1.58172649      -1.40126044      -0.44959881 </v>
   <v>      -1.49274202      -0.46091578      -0.40436506 </v>
   <v>      -1.68886136       1.46423657       0.01400853 </v>
   <v>       1.42439038       0.36425606       0.18623583 </v>
   <v>       0.17431510       0.78626065      -1.93749032 </v>
   <v>       0.31981897      -1.12981846       0.10012898 </v>
  </varray>
  <energy>
   <i name="e_fr_energy">    -15.12705080 </i>
   <i name="e_wo_entrp">    -15.13419934 </i>
   <i name="e_0_energy">    -15.12943365 </i>
  </energy>
  <time name="totalsc">  310.37  310.92</time>
 </calculation>
 <calculation>
  <scstep>
   <time name="dav">    6.12    6.12</time>
   <time name="total">   11.11   11.12</time>
   <energy>
    <i name="alphaZ">      6.46666210 </i>
    <i name="ewald">   7749.22587933 </i>
    <i name="hartreedc"> -14786.47593765 </i>
    <i name="XCdc">    114.00618081 </i>
    <i name="pawpsdc">   8100.96420122 </i>
    <i name="pawaedc">  -7932.74218207 </i>
    <i name="eentropy">     -0.00426423 </i>
    <i name="bandstr">   -675.48668635 </i>
    <i name="atom">   7408.64415014 </i>
    <i name="e_fr_energy">    -15.40199671 </i>
    <i name="e_wo_entrp">    -15.39773248 </i>
    <i name="e_0_energy">    -15.40057530 </i>
   </energy>
  </scstep>
  <scstep>
   <time name="dav">    6.44    6.45</time>
   <time name="total">   11.44   11.46</time>
   <energy>
    <i name="e_fr_energy">    -15.77361304 </i>
    <i name="e_wo_entrp">    -15.77118984 </i>
    <i name="e_0_energy">    -15.77280531 </i>
   </energy>
  </scstep>
  <scstep>
   <time name="dav">    6.37    6.39</time>
   <time name="total">   11.37   11.39</time>
   <energy>
    <i name="e_fr_energy">    -15.74944483 </i>
    <i name="e_wo_entrp">    -15.74585200 </i>
    <i name="e_0_energy">    -15.74824722 </i>
   </energy>
  </scstep>
  <scstep>
   <time name="dav">    6.55    6.56</time>
   <time name="total">   11.55   11.57</time>
   <energy>
    <i name="e_fr_energy">    -15.74835481 </i>
    <i name="e_wo_entrp">    -15.74525917 </i>
    <i name="e_0_energy">    -15.74732293 </i>
   </energy>
  </scstep>
  <scstep>
   <time name="dav">    6.23    6.24</time>
   <time name="total">   11.24   11.26</time>
   <energy>
    <i name="e_fr_energy">    -15.74586237 </i>
    <i name="e_wo_entrp">    -15.74261251 </i>
    <i name="e_0_energy">    -15.74477908 </i>
   </energy>
  </scstep>
  <scstep>
   <time name="dav">    6.38    6.39</time>
   <time name="total">   11.37   11.38</time>
   <energy>
    <i name="e_fr_energy">    -15.74672889 </i>
    <i name="e_wo_entrp">    -15.74328917 </i>
    <i name="e_0_energy">    -15.74558231 </i>
   </energy>
  </scstep>
  <scstep>
   <time name="dav">    4.91    4.92</time>
   <time name="total">    9.94    9.95</time>
   <energy>
    <i name="e_fr_energy">    -15.74736595 </i>
    <i name="e_wo_entrp">    -15.74374581 </i>
    <i name="e_0_energy">    -15.74615924 </i>
   </energy>
  </scstep>
  <scstep>
   <time name="dav">    4.87    4.88</time>
   <time name="total">    9.90    9.92</time>
   <energy>
    <i name="e_fr_energy">    -15.74833303 </i>
    <i name="e_wo_entrp">    -15.74440340 </i>
    <i name="e_0_energy">    -15.74702315 </i>
   </energy>
  </scstep>
  <scstep>
   <time name="dav">    5.02    5.02</time>
   <time name="total">   10.04   10.06</time>
   <energy>
    <i name="e_fr_energy">    -15.74922673 </i>
    <i name="e_wo_entrp">    -15.74502831 </i>
    <i name="e_0_energy">    -15.74782726 </i>
   </energy>
  </scstep>
  <scstep>
   <time name="dav">    4.87    4.87</time>
   <time name="total">    9.89    9.91</time>
   <energy>
    <i name="e_fr_energy">    -15.74997564 </i>
    <i name="e_wo_entrp">    -15.74555709 </i>
    <i name="e_0_energy">    -15.74850279 </i>
   </energy>
  </scstep>
  <scstep>
   <time name="dav">    5.04    5.05</time>
   <time name="total">   10.11   10.13</time>
   <energy>
    <i name="e_fr_energy">    -15.75146143 </i>
    <i name="e_wo_entrp">    -15.74658320 </i>
    <i name="e_0_energy">    -15.74983535 </i>
   </energy>
  </scstep>
  <scstep>
   <time name="dav">    4.75    4.76</time>
   <time name="total">    9.82    9.84</time>
   <energy>
    <i name="e_fr_energy">    -15.75262382 </i>
    <i name="e_wo_entrp">    -15.74734046 </i>
    <i name="e_0_energy">    -15.75086270 </i>
   </energy>
  </scstep>
  <scstep>
   <time name="dav">    5.03    5.04</time>
   <time name="total">   10.08   10.10</time>
   <energy>
    <i name="e_fr_energy">    -15.75323323 </i>
    <i name="e_wo_entrp">    -15.74774732 </i>
    <i name="e_0_energy">    -15.75140459 </i>
   </energy>
  </scstep>
  <scstep>
   <time name="dav">    4.73    4.74</time>
   <time name="total">    9.81    9.83</time>
   <energy>
    <i name="e_fr_energy">    -15.75376309 </i>
    <i name="e_wo_entrp">    -15.74808536 </i>
    <i name="e_0_energy">    -15.75187051 </i>
   </energy>
  </scstep>
  <scstep>
   <time name="dav">    5.21    5.22</time>
   <time name="total">   10.30   10.32</time>
   <energy>
    <i name="e_fr_energy">    -15.75410116 </i>
    <i name="e_wo_entrp">    -15.74828770 </i>
    <i name="e_0_energy">    -15.75216334 </i>
   </energy>
  </scstep>
  <scstep>
   <time name="dav">    4.73    4.73</time>
   <time name="total">    9.84    9.85</time>
   <energy>
    <i name="e_fr_energy">    -15.75430226 </i>
    <i name="e_wo_entrp">    -15.74840476 </i>
    <i name="e_0_energy">    -15.75233643 </i>
   </energy>
  </scstep>
  <scstep>
   <time name="dav">    4.89    4.90</time>
   <time name="total">   10.01   10.03</time>
   <energy>
    <i name="e_fr_energy">    -15.75450759 </i>
    <i name="e_wo_entrp">    -15.74851478 </i>
    <i name="e_0_energy">    -15.75250999 </i>
   </energy>
  </scstep>
  <scstep>
   <time name="dav">    4.87    4.88</time>
   <time name="total">    8.94    8.96</time>
   <energy>
    <i name="alphaZ">      6.46666210 </i>
    <i name="ewald">   7749.22587933 </i>
    <i name="hartreedc"> -14797.37222439 </i>
    <i name="XCdc">    114.26695009 </i>
    <i name="pawpsdc">   7792.48125822 </i>
    <i name="pawaedc">  -7621.33559020 </i>
    <i name="eentropy">     -0.00603835 </i>
    <i name="bandstr">   -668.12561168 </i>
    <i name="atom">   7408.64415014 </i>
    <i name="e_fr_energy">    -15.75456474 </i>
    <i name="e_wo_entrp">    -15.74852639 </i>
    <i name="e_0_energy">    -15.75255195 </i>
   </energy>
  </scstep>
  <structure>
   <crystal>
    <varray name="basis" >
     <v>      23.90485527       0.00000000       0.00000000 </v>
     <v>       0.00000000      23.07204219       0.00000000 </v>
     <v>       0.00000000       0.00000000      20.90150407 </v>
    </varray>
    <i name="volume">  11527.88658089 </i>
    <varray name="rec_basis" >
     <v>       0.04183251       0.00000000       0.00000000 </v>
     <v>       0.00000000       0.04334250       0.00000000 </v>
     <v>       0.00000000       0.00000000       0.04784345 </v>
    </varray>
   </crystal>
   <varray name="positions" >
    <v>       0.55129257       0.48010119       0.57164191 </v>
    <v>       0.44833115       0.51080943       0.51715197 </v>
    <v>       0.61013610       0.41878728       0.48199818 </v>
    <v>       0.39572150       0.42233521       0.46795538 </v>
    <v>       0.44160830       0.62435270       0.51571609 </v>
    <v>       0.54574026       0.58584955       0.51889609 </v>
    <v>       0.53861762       0.49898598       0.43200274 </v>
    <v>       0.49985121       0.39778586       0.49283962 </v>
   </varray>
  </structure>
  <varray name="forces" >
   <v>       0.19861178      -0.11738027       0.37718532 </v>
   <v>       0.04995114       0.11417857      -0.01828838 </v>
   <v>      -0.03470269      -0.25987787      -0.08978159 </v>
   <v>      -0.28916545      -0.20276066      -0.00270645 </v>
   <v>      -0.21833912       0.27905117       0.02446498 </v>
   <v>      -0.14028063       0.06890531       0.04358176 </v>
   <v>       0.26393825      -0.03354386      -0.29846219 </v>
   <v>       0.16998672       0.15142760      -0.03599345 </v>
  </varray>
  <energy>
   <i name="e_fr_energy">    -15.75456474 </i>
   <i name="e_wo_entrp">    -15.74852639 </i>
   <i name="e_0_energy">    -15.75255195 </i>
  </energy>
  <time name="totalsc">  200.64  202.05</time>
 </calculation>
 <calculation>
  <scstep>
   <time name="dav">    6.08    6.09</time>
   <time name="total">   11.12   11.14</time>
   <energy>
    <i name="alphaZ">      6.46666210 </i>
    <i name="ewald">   7659.00758914 </i>
    <i name="hartreedc"> -14708.26796373 </i>
    <i name="XCdc">    113.98361761 </i>
    <i name="pawpsdc">   7792.49005689 </i>
    <i name="pawaedc">  -7621.34442053 </i>
    <i name="eentropy">     -0.00798128 </i>
    <i name="bandstr">   -666.72399413 </i>
    <i name="atom">   7408.64415014 </i>
    <i name="e_fr_energy">    -15.75228381 </i>
    <i name="e_wo_entrp">    -15.74430253 </i>
    <i name="e_0_energy">    -15.74962338 </i>
   </energy>
  </scstep>
  <scstep>
   <time name="dav">    6.70    6.70</time>
   <time name="total">   11.71   11.73</time>
   <energy>
    <i name="e_fr_energy">    -15.76684863 </i>
    <i name="e_wo_entrp">    -15.75894246 </i>
    <i name="e_0_energy">    -15.76421324 </i>
   </energy>
  </scstep>
  <scstep>
   <time name="dav">    6.23    6.24</time>
   <time name="total">   11.20   11.22</time>
   <energy>
    <i name="e_fr_energy">    -15.76582596 </i>
    <i name="e_wo_entrp">    -15.75773413 </i>
    <i name="e_0_energy">    -15.76312868 </i>
   </energy>
  </scstep>
  <scstep>
   <time name="dav">    6.54    6.56</time>
   <time name="total">   11.54   11.56</time>
   <energy>
    <i name="e_fr_energy">    -15.76533967 </i>
    <i name="e_wo_entrp">    -15.75728682 </i>
    <i name="e_0_energy">    -15.76265539 </i>
   </energy>
  </scstep>
  <scstep>
   <time name="dav">    6.10    6.11</time>
   <time name="total">   10.18   10.19</time>
   <energy>
    <i name="alphaZ">      6.46666210 </i>
    <i name="ewald">   7659.00758914 </i>
    <i name="hartreedc"> -14710.22615106 </i>
    <i name="XCdc">    114.03473338 </i>
    <i name="pawpsdc">   7744.58315796 </i>
    <i name="pawaedc">  -7572.93577471 </i>
    <i name="eentropy">     -0.00809817 </i>
    <i name="bandstr">   -665.33156086 </i>
    <i name="atom">   7408.64415014 </i>
    <i name="e_fr_energy">    -15.76529208 </i>
    <i name="e_wo_entrp">    -15.75719391 </i>
    <i name="e_0_energy">    -15.76259269 </i>
   </energy>
  </scstep>
  <structure>
   <crystal>
    <varray name="basis" >
     <v>      23.90485527       0.00000000       0.00000000 </v>
     <v>       0.00000000      23.07204219       0.00000000 </v>
     <v>       0.00000000       0.00000000      20.90150407 </v>
    </varray>
    <i name="volume">  11527.88658089 </i>
    <varray name="rec_basis" >
     <v>       0.04183251       0.00000000       0.00000000 </v>
     <v>       0.00000000       0.04334250       0.00000000 </v>
     <v>       0.00000000       0.00000000       0.04784345 </v>
    </varray>
   </crystal>
   <varray name="positions" >
    <v>       0.55142048       0.48018938       0.57258275 </v>
    <v>       0.44808006       0.51087233       0.51731250 </v>
    <v>       0.61074756       0.41822603       0.48179940 </v>
    <v>       0.39514444       0.42215060       0.46777660 </v>
    <v>       0.44095542       0.62493917       0.51572228 </v>
    <v>       0.54629090       0.58599544       0.51897843 </v>
    <v>       0.53868501       0.49930090       0.43114613 </v>
    <v>       0.49997485       0.39733333       0.49288389 </v>
   </varray>
  </structure>
  <varray name="forces" >
   <v>       0.16353098      -0.14272730       0.14633472 </v>
   <v>       0.14934722       0.10797164      -0.07912289 </v>
   <v>      -0.25084593      -0.11851015      -0.04591119 </v>
   <v>      -0.10590646      -0.15704440       0.06086550 </v>
   <v>      -0.03891898       0.10827640       0.02674246 </v>
   <v>      -0.33332823      -0.00667324       0.02170303 </v>
   <v>       0.26474971      -0.12824515      -0.07532472 </v>
   <v>       0.15137169       0.33695220      -0.05528690 </v>
  </varray>
  <energy>
   <i name="e_fr_energy">    -15.76529208 </i>
   <i name="e_wo_entrp">    -15.75719391 </i>
   <i name="e_0_energy">    -15.76259269 </i>
  </energy>
  <time name="totalsc">   69.53   69.71</time>
 </calculation>
 <calculation>
  <scstep>
   <time name="dav">    6.24    6.25</time>
   <time name="total">   11.24   11.26</time>
   <energy>
    <i name="alphaZ">      6.46666210 </i>
    <i name="ewald">   7650.42980580 </i>
    <i name="hartreedc"> -14701.60875379 </i>
    <i name="XCdc">    114.02556339 </i>
    <i name="pawpsdc">   7745.52178386 </i>
    <i name="pawaedc">  -7573.88659631 </i>
    <i name="eentropy">     -0.01013170 </i>
    <i name="bandstr">   -665.36349614 </i>
    <i name="atom">   7408.64415014 </i>
    <i name="e_fr_energy">    -15.78101266 </i>
    <i name="e_wo_entrp">    -15.77088096 </i>
    <i name="e_0_energy">    -15.77763543 </i>
   </energy>
  </scstep>
  <scstep>
   <time name="dav">    6.24    6.25</time>
   <time name="total">   11.26   11.27</time>
   <energy>
    <i name="e_fr_energy">    -15.79036917 </i>
    <i name="e_wo_entrp">    -15.78055492 </i>
    <i name="e_0_energy">    -15.78709775 </i>
   </energy>
  </scstep>
  <scstep>
   <time name="dav">    6.73    6.74</time>
   <time name="total">   11.74   11.75</time>
   <energy>
    <i name="e_fr_energy">    -15.78959444 </i>
    <i name="e_wo_entrp">    -15.77955531 </i>
    <i name="e_0_energy">    -15.78624806 </i>
   </energy>
  </scstep>
  <scstep>
   <time name="dav">    6.23    6.25</time>
   <time name="total">   11.22   11.24</time>
   <energy>
    <i name="e_fr_energy">    -15.78868695 </i>
    <i name="e_wo_entrp">    -15.77847653 </i>
    <i name="e_0_energy">    -15.78528348 </i>
   </energy>
  </scstep>
  <scstep>
   <time name="dav">    4.88    4.88</time>
   <time name="total">    9.89    9.91</time>
   <energy>
    <i name="e_fr_energy">    -15.78846554 </i>
    <i name="e_wo_entrp">    -15.77801080 </i>
    <i name="e_0_energy">    -15.78498062 </i>
   </energy>
  </scstep>
  <scstep>
   <time name="dav">    4.91    4.92</time>
   <time name="total">    9.93    9.95</time>
   <energy>
    <i name="e_fr_energy">    -15.78863142 </i>
    <i name="e_wo_entrp">    -15.77810022 </i>
    <i name="e_0_energy">    -15.78512102 </i>
   </energy>
  </scstep>
  <scstep>
   <time name="dav">    4.73    4.73</time>
   <time name="total">    9.78    9.79</time>
   <energy>
    <i name="e_fr_energy">    -15.78899085 </i>
    <i name="e_wo_entrp">    -15.77831976 </i>
    <i name="e_0_energy">    -15.78543382 </i>
   </energy>
  </scstep>
  <scstep>
   <time name="dav">    4.91    4.92</time>
   <time name="total">    9.95    9.97</time>
   <energy>
    <i name="e_fr_energy">    -15.78924909 </i>
    <i name="e_wo_entrp">    -15.77846006 </i>
    <i name="e_0_energy">    -15.78565275 </i>
   </energy>
  </scstep>
  <scstep>
   <time name="dav">    4.57    4.58</time>
   <time name="total">    9.62    9.64</time>
   <energy>
    <i name="e_fr_energy">    -15.78960829 </i>
    <i name="e_wo_entrp">    -15.77864919 </i>
    <i name="e_0_energy">    -15.78595525 </i>
   </energy>
  </scstep>
  <scstep>
   <time name="dav">    4.89    4.90</time>
   <time name="total">    9.96    9.97</time>
   <energy>
    <i name="e_fr_energy">    -15.78994711 </i>
    <i name="e_wo_entrp">    -15.77882978 </i>
    <i name="e_0_energy">    -15.78624133 </i>
   </energy>
  </scstep>
  <scstep>
   <time name="dav">    4.90    4.91</time>
   <time name="total">    9.98    9.99</time>
   <energy>
    <i name="e_fr_energy">    -15.79070511 </i>
    <i name="e_wo_entrp">    -15.77918092 </i>
    <i name="e_0_energy">    -15.78686371 </i>
   </energy>
  </scstep>
  <scstep>
   <time name="dav">    5.21    5.22</time>
   <time name="total">   10.30   10.32</time>
   <energy>
    <i name="e_fr_energy">    -15.79099177 </i>
    <i name="e_wo_entrp">    -15.77927594 </i>
    <i name="e_0_energy">    -15.78708649 </i>
   </energy>
  </scstep>
  <scstep>
   <time name="dav">    4.87    4.87</time>
   <time name="total">    9.94    9.95</time>
   <energy>
    <i name="e_fr_energy">    -15.79114501 </i>
    <i name="e_wo_entrp">    -15.77933714 </i>
    <i name="e_0_energy">    -15.78720905 </i>
   </energy>
  </scstep>
  <scstep>
   <time name="dav">    4.88    4.89</time>
   <time name="total">    9.93    9.95</time>
   <energy>
    <i name="e_fr_energy">    -15.79125349 </i>
    <i name="e_wo_entrp">    -15.77939134 </i>
    <i name="e_0_energy">    -15.78729944 </i>
   </energy>
  </scstep>
  <scstep>
   <time name="dav">    5.06    5.07</time>
   <time name="total">    9.14    9.16</time>
   <energy>
    <i name="alphaZ">      6.46666210 </i>
    <i name="ewald">   7650.42980580 </i>
    <i name="hartreedc"> -14701.86311695 </i>
    <i name="XCdc">    114.02503964 </i>
    <i name="pawpsdc">   7743.85381640 </i>
    <i name="pawaedc">  -7572.20703309 </i>
    <i name="eentropy">     -0.01190225 </i>
    <i name="bandstr">   -665.12876372 </i>
    <i name="atom">   7408.64415014 </i>
    <i name="e_fr_energy">    -15.79134193 </i>
    <i name="e_wo_entrp">    -15.77943967 </i>
    <i name="e_0_energy">    -15.78737451 </i>
   </energy>
  </scstep>
  <structure>
   <crystal>
    <varray name="basis" >
     <v>      23.90485527       0.00000000       0.00000000 </v>
     <v>       0.00000000      23.07204219       0.00000000 </v>
     <v>       0.00000000       0.00000000      20.90150407 </v>
    </varray>
    <i name="volume">  11527.88658089 </i>
    <varray name="rec_basis" >
     <v>       0.04183251       0.00000000       0.00000000 </v>
     <v>       0.00000000       0.04334250       0.00000000 </v>
     <v>       0.00000000       0.00000000       0.04784345 </v>
    </varray>
   </crystal>
   <varray name="positions" >
    <v>       0.55178648       0.47989560       0.57310504 </v>
    <v>       0.44834721       0.51111822       0.51715215 </v>
    <v>       0.61033345       0.41786637       0.48165312 </v>
    <v>       0.39481727       0.42177597       0.46788986 </v>
    <v>       0.44075480       0.62528121       0.51578750 </v>
    <v>       0.54569286       0.58600756       0.51904546 </v>
    <v>       0.53925206       0.49907991       0.43080938 </v>
    <v>       0.50031459       0.39798234       0.49275947 </v>
   </varray>
  </structure>
  <varray name="forces" >
   <v>       0.14309575      -0.06583025       0.12968172 </v>
   <v>       0.12457001       0.01542012      -0.11863447 </v>
   <v>      -0.11840096      -0.12223205      -0.05156440 </v>
   <v>       0.00497456      -0.08500719       0.11699625 </v>
   <v>      -0.06215935       0.11102637       0.01944558 </v>
   <v>      -0.29787233      -0.08111751       0.03169108 </v>
   <v>       0.24191605      -0.06247737      -0.06645680 </v>
   <v>      -0.03612374       0.29021788      -0.06115896 </v>
  </varray>
  <energy>
   <i name="e_fr_energy">    -15.79134193 </i>
   <i name="e_wo_entrp">    -15.77943967 </i>
   <i name="e_0_energy">    -15.78737451 </i>
  </energy>
  <time name="totalsc">  167.73  168.44</time>
 </calculation>
 <calculation>
  <scstep>
   <time name="dav">    6.12    6.14</time>
   <time name="total">   11.15   11.17</time>
   <energy>
    <i name="alphaZ">      6.46666210 </i>
    <i name="ewald">   7640.71364604 </i>
    <i name="hartreedc"> -14692.20537501 </i>
    <i name="XCdc">    114.01769112 </i>
    <i name="pawpsdc">   7743.85354172 </i>
    <i name="pawaedc">  -7572.20676665 </i>
    <i name="eentropy">     -0.01404576 </i>
    <i name="bandstr">   -665.06803611 </i>
    <i name="atom">   7408.64415014 </i>
    <i name="e_fr_energy">    -15.79853241 </i>
    <i name="e_wo_entrp">    -15.78448664 </i>
    <i name="e_0_energy">    -15.79385049 </i>
   </energy>
  </scstep>
  <scstep>
   <time name="dav">    6.68    6.69</time>
   <time name="total">   11.66   11.68</time>
   <energy>
    <i name="e_fr_energy">    -15.81094392 </i>
    <i name="e_wo_entrp">    -15.79726936 </i>
    <i name="e_0_energy">    -15.80638573 </i>
   </energy>
  </scstep>
  <scstep>
   <time name="dav">    6.55    6.55</time>
   <time name="total">   11.55   11.56</time>
   <energy>
    <i name="e_fr_energy">    -15.81006322 </i>
    <i name="e_wo_entrp">    -15.79619642 </i>
    <i name="e_0_energy">    -15.80544095 </i>
   </energy>
  </scstep>
  <scstep>
   <time name="dav">    6.43    6.44</time>
   <time name="total">   11.46   11.47</time>
   <energy>
    <i name="e_fr_energy">    -15.80895801 </i>
    <i name="e_wo_entrp">    -15.79497146 </i>
    <i name="e_0_energy">    -15.80429582 </i>
   </energy>
  </scstep>
  <scstep>
   <time name="dav">    4.88    4.89</time>
   <time name="total">    9.87    9.89</time>
   <energy>
    <i name="e_fr_energy">    -15.80858777 </i>
    <i name="e_wo_entrp">    -15.79439458 </i>
    <i name="e_0_energy">    -15.80385671 </i>
   </energy>
  </scstep>
  <scstep>
   <time name="dav">    4.72    4.73</time>
   <time name="total">    9.72    9.74</time>
   <energy>
    <i name="e_fr_energy">    -15.80869708 </i>
    <i name="e_wo_entrp">    -15.79444176 </i>
    <i name="e_0_energy">    -15.80394530 </i>
   </energy>
  </scstep>
  <scstep>
   <time name="dav">    4.74    4.74</time>
   <time name="total">    9.79    9.81</time>
   <energy>
    <i name="e_fr_energy">    -15.80898057 </i>
    <i name="e_wo_entrp">    -15.79460203 </i>
    <i name="e_0_energy">    -15.80418772 </i>
   </energy>
  </scstep>
  <scstep>
   <time name="dav">    4.87    4.88</time>
   <time name="total">    9.89    9.92</time>
   <energy>
    <i name="e_fr_energy">    -15.80916844 </i>
    <i name="e_wo_entrp">    -15.79469446 </i>
    <i name="e_0_energy">    -15.80434378 </i>
   </energy>
  </scstep>
  <scstep>
   <time name="dav">    4.73    4.73</time>
   <time name="total">    9.76    9.77</time>
   <energy>
    <i name="e_fr_energy">    -15.80942018 </i>
    <i name="e_wo_entrp">    -15.79480898 </i>
    <i name="e_0_energy">    -15.80454978 </i>
   </energy>
  </scstep>
  <scstep>
   <time name="dav">    4.88    4.89</time>
   <time name="total">    9.99   10.00</time>
   <energy>
    <i name="e_fr_energy">    -15.80963384 </i>
    <i name="e_wo_entrp">    -15.79491157 </i>
    <i name="e_0_energy">    -15.80472642 </i>
   </energy>
  </scstep>
  <scstep>
   <time name="dav">    5.03    5.03</time>
   <time name="total">   10.08   10.10</time>
   <energy>
    <i name="e_fr_energy">    -15.81016943 </i>
    <i name="e_wo_entrp">    -15.79514522 </i>
    <i name="e_0_energy">    -15.80516136 </i>
   </energy>
  </scstep>
  <scstep>
   <time name="dav">    5.03    5.04</time>
   <time name="total">   10.11   10.13</time>
   <energy>
    <i name="e_fr_energy">    -15.81043696 </i>
    <i name="e_wo_entrp">    -15.79522739 </i>
    <i name="e_0_energy">    -15.80536710 </i>
   </energy>
  </scstep>
  <scstep>
   <time name="dav">    4.88    4.89</time>
   <time name="total">    9.96    9.98</time>
   <energy>
    <i name="e_fr_energy">    -15.81060456 </i>
    <i name="e_wo_entrp">    -15.79528259 </i>
    <i name="e_0_energy">    -15.80549724 </i>
   </energy>
  </scstep>
  <scstep>
   <time name="dav">    5.02    5.03</time>
   <time name="total">   10.09   10.11</time>
   <energy>
    <i name="e_fr_energy">    -15.81071776 </i>
    <i name="e_wo_entrp">    -15.79532976 </i>
    <i name="e_0_energy">    -15.80558842 </i>
   </energy>
  </scstep>
  <scstep>
   <time name="dav">    4.89    4.90</time>
   <time name="total">    8.97    8.99</time>
   <energy>
    <i name="alphaZ">      6.46666210 </i>
    <i name="ewald">   7640.71364604 </i>
    <i name="hartreedc"> -14692.32444298 </i>
    <i name="XCdc">    114.01638532 </i>
    <i name="pawpsdc">   7742.84294408 </i>
    <i name="pawaedc">  -7571.18617915 </i>
    <i name="eentropy">     -0.01542811 </i>
    <i name="bandstr">   -664.96853432 </i>
    <i name="atom">   7408.64415014 </i>
    <i name="e_fr_energy">    -15.81079689 </i>
    <i name="e_wo_entrp">    -15.79536878 </i>
    <i name="e_0_energy">    -15.80565419 </i>
   </energy>
  </scstep>
  <structure>
   <crystal>
    <varray name="basis" >
     <v>      23.90485527       0.00000000       0.00000000 </v>
     <v>       0.00000000      23.07204219       0.00000000 </v>
     <v>       0.00000000       0.00000000      20.90150407 </v>
    </varray>
    <i name="volume">  11527.88658089 </i>
    <varray name="rec_basis" >
     <v>       0.04183251       0.00000000       0.00000000 </v>
     <v>       0.00000000       0.04334250       0.00000000 </v>
     <v>       0.00000000       0.00000000       0.04784345 </v>
    </varray>
   </crystal>
   <varray name="positions" >
    <v>       0.55220195       0.47956210       0.57369794 </v>
    <v>       0.44865048       0.51139734       0.51697013 </v>
    <v>       0.60986336       0.41745810       0.48148707 </v>
    <v>       0.39444588       0.42135071       0.46801843 </v>
    <v>       0.44052705       0.62566949       0.51586154 </v>
    <v>       0.54501398       0.58602132       0.51912155 </v>
    <v>       0.53989578       0.49882904       0.43042711 </v>
    <v>       0.50070025       0.39871909       0.49261823 </v>
   </varray>
  </structure>
  <varray name="forces" >
   <v>       0.12045555       0.01619589       0.10449192 </v>
   <v>       0.09580243      -0.08438623      -0.15995402 </v>
   <v>       0.04378288      -0.12289931      -0.05596854 </v>
   <v>       0.12953463      -0.00762677       0.17591330 </v>
   <v>      -0.08554881       0.11123128       0.01171380 </v>
   <v>      -0.25502900      -0.16208930       0.04188324 </v>
   <v>       0.21575562       0.01302038      -0.05411993 </v>
   <v>      -0.26475330       0.23655408      -0.06395976 </v>
  </varray>
  <energy>
   <i name="e_fr_energy">    -15.81079689 </i>
   <i name="e_wo_entrp">    -15.79536878 </i>
   <i name="e_0_energy">    -15.80565419 </i>
  </energy>
  <time name="totalsc">  167.92  168.99</time>
 </calculation>
 <calculation>
  <scstep>
   <time name="dav">    6.10    6.11</time>
   <time name="total">   11.09   11.11</time>
   <energy>
    <i name="alphaZ">      6.46666210 </i>
    <i name="ewald">   7621.35853222 </i>
    <i name="hartreedc"> -14673.02067805 </i>
    <i name="XCdc">    114.01166724 </i>
    <i name="pawpsdc">   7742.84219147 </i>
    <i name="pawaedc">  -7571.18543516 </i>
    <i name="eentropy">     -0.01945937 </i>
    <i name="bandstr">   -664.86773031 </i>
    <i name="atom">   7408.64415014 </i>
    <i name="e_fr_energy">    -15.77009973 </i>
    <i name="e_wo_entrp">    -15.75064035 </i>
    <i name="e_0_energy">    -15.76361327 </i>
   </energy>
  </scstep>
  <scstep>
   <time name="dav">    6.74    6.76</time>
   <time name="total">   11.75   11.78</time>
   <energy>
    <i name="e_fr_energy">    -15.81942266 </i>
    <i name="e_wo_entrp">    -15.80070216 </i>
    <i name="e_0_energy">    -15.81318250 </i>
   </energy>
  </scstep>
  <scstep>
   <time name="dav">    6.55    6.57</time>
   <time name="total">   11.53   11.55</time>
   <energy>
    <i name="e_fr_energy">    -15.81642321 </i>
    <i name="e_wo_entrp">    -15.79731203 </i>
    <i name="e_0_energy">    -15.81005282 </i>
   </energy>
  </scstep>
  <scstep>
   <time name="dav">    6.39    6.40</time>
   <time name="total">   11.39   11.41</time>
   <energy>
    <i name="e_fr_energy">    -15.81284873 </i>
    <i name="e_wo_entrp">    -15.79345392 </i>
    <i name="e_0_energy">    -15.80638379 </i>
   </energy>
  </scstep>
  <scstep>
   <time name="dav">    6.55    6.56</time>
   <time name="total">   11.59   11.62</time>
   <energy>
    <i name="e_fr_energy">    -15.81184163 </i>
    <i name="e_wo_entrp">    -15.79204317 </i>
    <i name="e_0_energy">    -15.80524214 </i>
   </energy>
  </scstep>
  <scstep>
   <time name="dav">    5.04    5.05</time>
   <time name="total">   10.03   10.05</time>
   <energy>
    <i name="e_fr_energy">    -15.81218561 </i>
    <i name="e_wo_entrp">    -15.79227527 </i>
    <i name="e_0_energy">    -15.80554883 </i>
   </energy>
  </scstep>
  <scstep>
   <time name="dav">    4.88    4.89</time>
   <time name="total">    9.89    9.91</time>
   <energy>
    <i name="e_fr_energy">    -15.81319294 </i>
    <i name="e_wo_entrp">    -15.79302683 </i>
    <i name="e_0_energy">    -15.80647090 </i>
   </energy>
  </scstep>
  <scstep>
   <time name="dav">    5.05    5.06</time>
   <time name="total">   10.12   10.14</time>
   <energy>
    <i name="e_fr_energy">    -15.81384360 </i>
    <i name="e_wo_entrp">    -15.79348456 </i>
    <i name="e_0_energy">    -15.80705725 </i>
   </energy>
  </scstep>
  <scstep>
   <time name="dav">    4.87    4.87</time>
   <time name="total">    9.92    9.93</time>
   <energy>
    <i name="e_fr_energy">    -15.81453553 </i>
    <i name="e_wo_entrp">    -15.79394525 </i>
    <i name="e_0_energy">    -15.80767210 </i>
   </energy>
  </scstep>
  <scstep>
   <time name="dav">    4.86    4.87</time>
   <time name="total">    9.90    9.94</time>
   <energy>
    <i name="e_fr_energy">    -15.81545189 </i>
    <i name="e_wo_entrp">    -15.79456498 </i>
    <i name="e_0_energy">    -15.80848959 </i>
   </energy>
  </scstep>
  <scstep>
   <time name="dav">    5.02    5.03</time>
   <time name="total">   10.12   10.14</time>
   <energy>
    <i name="e_fr_energy">    -15.81719057 </i>
    <i name="e_wo_entrp">    -15.79562002 </i>
    <i name="e_0_energy">    -15.81000039 </i>
   </energy>
  </scstep>
  <scstep>
   <time name="dav">    5.19    5.20</time>
   <time name="total">   10.28   10.30</time>
   <energy>
    <i name="e_fr_energy">    -15.81790357 </i>
    <i name="e_wo_entrp">    -15.79599442 </i>
    <i name="e_0_energy">    -15.81060052 </i>
   </energy>
  </scstep>
  <scstep>
   <time name="dav">    4.87    4.88</time>
   <time name="total">    9.99   10.01</time>
   <energy>
    <i name="e_fr_energy">    -15.81833309 </i>
    <i name="e_wo_entrp">    -15.79624450 </i>
    <i name="e_0_energy">    -15.81097023 </i>
   </energy>
  </scstep>
  <scstep>
   <time name="dav">    4.90    4.91</time>
   <time name="total">   10.02   10.04</time>
   <energy>
    <i name="e_fr_energy">    -15.81867517 </i>
    <i name="e_wo_entrp">    -15.79645346 </i>
    <i name="e_0_energy">    -15.81126794 </i>
   </energy>
  </scstep>
  <scstep>
   <time name="dav">    4.87    4.88</time>
   <time name="total">    9.96    9.97</time>
   <energy>
    <i name="e_fr_energy">    -15.81890675 </i>
    <i name="e_wo_entrp">    -15.79659827 </i>
    <i name="e_0_energy">    -15.81147059 </i>
   </energy>
  </scstep>
  <scstep>
   <time name="dav">    4.90    4.91</time>
   <time name="total">    9.97    9.99</time>
   <energy>
    <i name="e_fr_energy">    -15.81903965 </i>
    <i name="e_wo_entrp">    -15.79668002 </i>
    <i name="e_0_energy">    -15.81158644 </i>
   </energy>
  </scstep>
  <scstep>
   <time name="dav">    5.05    5.06</time>
   <time name="total">   10.19   10.21</time>
   <energy>
    <i name="e_fr_energy">    -15.81915106 </i>
    <i name="e_wo_entrp">    -15.79674596 </i>
    <i name="e_0_energy">    -15.81168269 </i>
   </energy>
  </scstep>
  <scstep>
   <time name="dav">    4.89    4.90</time>
   <time name="total">    8.97    8.99</time>
   <energy>
    <i name="alphaZ">      6.46666210 </i>
    <i name="ewald">   7621.35853222 </i>
    <i name="hartreedc"> -14673.22297873 </i>
    <i name="XCdc">    114.00754077 </i>
    <i name="pawpsdc">   7744.00511613 </i>
    <i name="pawaedc">  -7572.35028127 </i>
    <i name="eentropy">     -0.02242457 </i>
    <i name="bandstr">   -664.70549958 </i>
    <i name="atom">   7408.64415014 </i>
    <i name="e_fr_energy">    -15.81918279 </i>
    <i name="e_wo_entrp">    -15.79675822 </i>
    <i name="e_0_energy">    -15.81170794 </i>
   </energy>
  </scstep>
  <structure>
   <crystal>
    <varray name="basis" >
     <v>      23.90485527       0.00000000       0.00000000 </v>
     <v>       0.00000000      23.07204219       0.00000000 </v>
     <v>       0.00000000       0.00000000      20.90150407 </v>
    </varray>
    <i name="volume">  11527.88658089 </i>
    <varray name="rec_basis" >
     <v>       0.04183251       0.00000000       0.00000000 </v>
     <v>       0.00000000       0.04334250       0.00000000 </v>
     <v>       0.00000000       0.00000000       0.04784345 </v>
    </varray>
   </crystal>
   <varray name="positions" >
    <v>       0.55303290       0.47889510       0.57488373 </v>
    <v>       0.44925701       0.51195559       0.51660610 </v>
    <v>       0.60892318       0.41664154       0.48115495 </v>
    <v>       0.39370309       0.42050017       0.46827557 </v>
    <v>       0.44007155       0.62644604       0.51600961 </v>
    <v>       0.54365621       0.58604884       0.51927374 </v>
    <v>       0.54118320       0.49832731       0.42966256 </v>
    <v>       0.50147158       0.40019259       0.49233574 </v>
   </varray>
  </structure>
  <varray name="forces" >
   <v>       0.07994113       0.16739091       0.06519219 </v>
   <v>       0.02762544      -0.27046023      -0.22690439 </v>
   <v>       0.42369312      -0.12607127      -0.06748579 </v>
   <v>       0.36361238       0.13173912       0.27638029 </v>
   <v>      -0.13600014       0.11370025      -0.00486637 </v>
   <v>      -0.14816680      -0.30587106       0.06265938 </v>
   <v>       0.16422831       0.17327774      -0.04851942 </v>
   <v>      -0.77493342       0.11629454      -0.05645590 </v>
  </varray>
  <energy>
   <i name="e_fr_energy">    -15.81918279 </i>
   <i name="e_wo_entrp">    -15.79675822 </i>
   <i name="e_0_energy">    -15.81170794 </i>
  </energy>
  <time name="totalsc">  200.59  201.05</time>
 </calculation>
 <calculation>
  <scstep>
   <time name="dav">    6.08    6.09</time>
   <time name="total">   11.09   11.11</time>
   <energy>
    <i name="alphaZ">      6.46666210 </i>
    <i name="ewald">   7627.29185555 </i>
    <i name="hartreedc"> -14679.17539737 </i>
    <i name="XCdc">    114.00853225 </i>
    <i name="pawpsdc">   7744.00509752 </i>
    <i name="pawaedc">  -7572.35026254 </i>
    <i name="eentropy">     -0.02153172 </i>
    <i name="bandstr">   -664.68557063 </i>
    <i name="atom">   7408.64415014 </i>
    <i name="e_fr_energy">    -15.81646470 </i>
    <i name="e_wo_entrp">    -15.79493298 </i>
    <i name="e_0_energy">    -15.80928746 </i>
   </energy>
  </scstep>
  <scstep>
   <time name="dav">    6.60    6.61</time>
   <time name="total">   11.62   11.64</time>
   <energy>
    <i name="e_fr_energy">    -15.82114410 </i>
    <i name="e_wo_entrp">    -15.79961254 </i>
    <i name="e_0_energy">    -15.81396691 </i>
   </energy>
  </scstep>
  <scstep>
   <time name="dav">    6.54    6.55</time>
   <time name="total">   11.56   11.58</time>
   <energy>
    <i name="e_fr_energy">    -15.82077606 </i>
    <i name="e_wo_entrp">    -15.79933356 </i>
    <i name="e_0_energy">    -15.81362856 </i>
   </energy>
  </scstep>
  <scstep>
   <time name="dav">    6.55    6.56</time>
   <time name="total">   11.58   11.60</time>
   <energy>
    <i name="e_fr_energy">    -15.82020048 </i>
    <i name="e_wo_entrp">    -15.79884534 </i>
    <i name="e_0_energy">    -15.81308210 </i>
   </energy>
  </scstep>
  <scstep>
   <time name="dav">    4.88    4.89</time>
   <time name="total">    9.89    9.91</time>
   <energy>
    <i name="e_fr_energy">    -15.81995366 </i>
    <i name="e_wo_entrp">    -15.79872937 </i>
    <i name="e_0_energy">    -15.81287890 </i>
   </energy>
  </scstep>
  <scstep>
   <time name="dav">    4.89    4.90</time>
   <time name="total">    8.98    9.00</time>
   <energy>
    <i name="alphaZ">      6.46666210 </i>
    <i name="ewald">   7627.29185555 </i>
    <i name="hartreedc"> -14679.12440164 </i>
    <i name="XCdc">    114.00916145 </i>
    <i name="pawpsdc">   7743.30361956 </i>
    <i name="pawaedc">  -7571.64542307 </i>
    <i name="eentropy">     -0.02117950 </i>
    <i name="bandstr">   -664.74443405 </i>
    <i name="atom">   7408.64415014 </i>
    <i name="e_fr_energy">    -15.81998946 </i>
    <i name="e_wo_entrp">    -15.79880996 </i>
    <i name="e_0_energy">    -15.81292963 </i>
   </energy>
  </scstep>
  <structure>
   <crystal>
    <varray name="basis" >
     <v>      23.90485527       0.00000000       0.00000000 </v>
     <v>       0.00000000      23.07204219       0.00000000 </v>
     <v>       0.00000000       0.00000000      20.90150407 </v>
    </varray>
    <i name="volume">  11527.88658089 </i>
    <varray name="rec_basis" >
     <v>       0.04183251       0.00000000       0.00000000 </v>
     <v>       0.00000000       0.04334250       0.00000000 </v>
     <v>       0.00000000       0.00000000       0.04784345 </v>
    </varray>
   </crystal>
   <varray name="positions" >
    <v>       0.55277766       0.47909997       0.57451950 </v>
    <v>       0.44907071       0.51178412       0.51671791 </v>
    <v>       0.60921196       0.41689235       0.48125696 </v>
    <v>       0.39393124       0.42076142       0.46819659 </v>
    <v>       0.44021146       0.62620752       0.51596413 </v>
    <v>       0.54407326       0.58604039       0.51922699 </v>
    <v>       0.54078776       0.49848142       0.42989739 </v>
    <v>       0.50123466       0.39973999       0.49242251 </v>
   </varray>
  </structure>
  <varray name="forces" >
   <v>       0.08962504       0.12522223       0.07499767 </v>
   <v>       0.04952192      -0.21630384      -0.20725756 </v>
   <v>       0.30018075      -0.12263085      -0.06435420 </v>
   <v>       0.29525960       0.09263169       0.24707201 </v>
   <v>      -0.11897481       0.11133184      -0.00092153 </v>
   <v>      -0.18162893      -0.26501667       0.05701388 </v>
   <v>       0.17752435       0.12263373      -0.04623782 </v>
   <v>      -0.61150792       0.15213187      -0.06031245 </v>
  </varray>
  <energy>
   <i name="e_fr_energy">    -15.81998946 </i>
   <i name="e_wo_entrp">    -15.79880996 </i>
   <i name="e_0_energy">    -15.81292963 </i>
  </energy>
  <time name="totalsc">   78.53   78.72</time>
 </calculation>
 <calculation>
  <scstep>
   <time name="dav">    6.10    6.11</time>
   <time name="total">   11.16   11.18</time>
   <energy>
    <i name="alphaZ">      6.46666210 </i>
    <i name="ewald">   7623.80570590 </i>
    <i name="hartreedc"> -14675.66799374 </i>
    <i name="XCdc">    114.01253779 </i>
    <i name="pawpsdc">   7743.26389664 </i>
    <i name="pawaedc">  -7571.60585673 </i>
    <i name="eentropy">     -0.02233830 </i>
    <i name="bandstr">   -664.72793077 </i>
    <i name="atom">   7408.64415014 </i>
    <i name="e_fr_energy">    -15.83116698 </i>
    <i name="e_wo_entrp">    -15.80882867 </i>
    <i name="e_0_energy">    -15.82372087 </i>
   </energy>
  </scstep>
  <scstep>
   <time name="dav">    6.55    6.56</time>
   <time name="total">   11.57   11.59</time>
   <energy>
    <i name="e_fr_energy">    -15.83701692 </i>
    <i name="e_wo_entrp">    -15.81468133 </i>
    <i name="e_0_energy">    -15.82957172 </i>
   </energy>
  </scstep>
  <scstep>
   <time name="dav">    6.71    6.72</time>
   <time name="total">   11.73   11.75</time>
   <energy>
    <i name="e_fr_energy">    -15.83704296 </i>
    <i name="e_wo_entrp">    -15.81465113 </i>
    <i name="e_0_energy">    -15.82957902 </i>
   </energy>
  </scstep>
  <scstep>
   <time name="dav">    5.63    5.64</time>
   <time name="total">   10.68   10.70</time>
   <energy>
    <i name="e_fr_energy">    -15.83689241 </i>
    <i name="e_wo_entrp">    -15.81447903 </i>
    <i name="e_0_energy">    -15.82942128 </i>
   </energy>
  </scstep>
  <scstep>
   <time name="dav">    5.63    5.64</time>
   <time name="total">   10.66   10.68</time>
   <energy>
    <i name="e_fr_energy">    -15.83659402 </i>
    <i name="e_wo_entrp">    -15.81406033 </i>
    <i name="e_0_energy">    -15.82908279 </i>
   </energy>
  </scstep>
  <scstep>
   <time name="dav">    4.57    4.58</time>
   <time name="total">    8.64    8.66</time>
   <energy>
    <i name="alphaZ">      6.46666210 </i>
    <i name="ewald">   7623.80570590 </i>
    <i name="hartreedc"> -14675.66425614 </i>
    <i name="XCdc">    114.01048594 </i>
    <i name="pawpsdc">   7743.83234836 </i>
    <i name="pawaedc">  -7572.18626568 </i>
    <i name="eentropy">     -0.02257915 </i>
    <i name="bandstr">   -664.72285212 </i>
    <i name="atom">   7408.64415014 </i>
    <i name="e_fr_energy">    -15.83660066 </i>
    <i name="e_wo_entrp">    -15.81402151 </i>
    <i name="e_0_energy">    -15.82907428 </i>
   </energy>
  </scstep>
  <structure>
   <crystal>
    <varray name="basis" >
     <v>      23.90485527       0.00000000       0.00000000 </v>
     <v>       0.00000000      23.07204219       0.00000000 </v>
     <v>       0.00000000       0.00000000      20.90150407 </v>
    </varray>
    <i name="volume">  11527.88658089 </i>
    <varray name="rec_basis" >
     <v>       0.04183251       0.00000000       0.00000000 </v>
     <v>       0.00000000       0.04334250       0.00000000 </v>
     <v>       0.00000000       0.00000000       0.04784345 </v>
    </varray>
   </crystal>
   <varray name="positions" >
    <v>       0.55305770       0.47902365       0.57488811 </v>
    <v>       0.44926341       0.51176296       0.51644965 </v>
    <v>       0.60919073       0.41658848       0.48111723 </v>
    <v>       0.39395724       0.42061296       0.46847084 </v>
    <v>       0.44000654       0.62649247       0.51600149 </v>
    <v>       0.54358979       0.58584535       0.51931419 </v>
    <v>       0.54125009       0.49844570       0.42966151 </v>
    <v>       0.50098322       0.40023560       0.49229896 </v>
   </varray>
  </structure>
  <varray name="forces" >
   <v>       0.09069521       0.11976169       0.05030551 </v>
   <v>       0.04368051      -0.17870640      -0.20183500 </v>
   <v>       0.27050463      -0.11494334      -0.05513684 </v>
   <v>       0.23211363       0.09801602       0.23647084 </v>
   <v>      -0.12325106       0.08026529      -0.00566352 </v>
   <v>      -0.16557329      -0.26742133       0.06674244 </v>
   <v>       0.18574738       0.12508443      -0.04467457 </v>
   <v>      -0.53391701       0.13794363      -0.04620886 </v>
  </varray>
  <energy>
   <i name="e_fr_energy">    -15.83660066 </i>
   <i name="e_wo_entrp">    -15.81402151 </i>
   <i name="e_0_energy">    -15.82907428 </i>
  </energy>
  <time name="totalsc">   78.27   78.44</time>
 </calculation>
 <calculation>
  <scstep>
   <time name="dav">    6.11    6.12</time>
   <time name="total">   11.14   11.16</time>
   <energy>
    <i name="alphaZ">      6.46666210 </i>
    <i name="ewald">   7612.72678195 </i>
    <i name="hartreedc"> -14664.67508619 </i>
    <i name="XCdc">    114.02406599 </i>
    <i name="pawpsdc">   7743.79807319 </i>
    <i name="pawaedc">  -7572.15196907 </i>
    <i name="eentropy">     -0.02602768 </i>
    <i name="bandstr">   -664.63332829 </i>
    <i name="atom">   7408.64415014 </i>
    <i name="e_fr_energy">    -15.82667787 </i>
    <i name="e_wo_entrp">    -15.80065019 </i>
    <i name="e_0_energy">    -15.81800198 </i>
   </energy>
  </scstep>
  <scstep>
   <time name="dav">    6.43    6.44</time>
   <time name="total">   11.46   11.49</time>
   <energy>
    <i name="e_fr_energy">    -15.87224894 </i>
    <i name="e_wo_entrp">    -15.84614009 </i>
    <i name="e_0_energy">    -15.86354599 </i>
   </energy>
  </scstep>
  <scstep>
   <time name="dav">    6.54    6.55</time>
   <time name="total">   11.55   11.58</time>
   <energy>
    <i name="e_fr_energy">    -15.86918892 </i>
    <i name="e_wo_entrp">    -15.84278721 </i>
    <i name="e_0_energy">    -15.86038835 </i>
   </energy>
  </scstep>
  <scstep>
   <time name="dav">    6.56    6.57</time>
   <time name="total">   11.58   11.60</time>
   <energy>
    <i name="e_fr_energy">    -15.86466961 </i>
    <i name="e_wo_entrp">    -15.83786424 </i>
    <i name="e_0_energy">    -15.85573449 </i>
   </energy>
  </scstep>
  <scstep>
   <time name="dav">    6.70    6.71</time>
   <time name="total">   11.72   11.75</time>
   <energy>
    <i name="e_fr_energy">    -15.86212614 </i>
    <i name="e_wo_entrp">    -15.83465681 </i>
    <i name="e_0_energy">    -15.85296969 </i>
   </energy>
  </scstep>
  <scstep>
   <time name="dav">    5.03    5.04</time>
   <time name="total">   10.05   10.07</time>
   <energy>
    <i name="e_fr_energy">    -15.86240048 </i>
    <i name="e_wo_entrp">    -15.83470147 </i>
    <i name="e_0_energy">    -15.85316748 </i>
   </energy>
  </scstep>
  <scstep>
   <time name="dav">    5.04    5.05</time>
   <time name="total">   10.07   10.09</time>
   <energy>
    <i name="e_fr_energy">    -15.86393654 </i>
    <i name="e_wo_entrp">    -15.83582989 </i>
    <i name="e_0_energy">    -15.85456766 </i>
   </energy>
  </scstep>
  <scstep>
   <time name="dav">    4.76    4.76</time>
   <time name="total">    9.77    9.79</time>
   <energy>
    <i name="e_fr_energy">    -15.86510221 </i>
    <i name="e_wo_entrp">    -15.83663989 </i>
    <i name="e_0_energy">    -15.85561477 </i>
   </energy>
  </scstep>
  <scstep>
   <time name="dav">    5.05    5.05</time>
   <time name="total">   10.11   10.13</time>
   <energy>
    <i name="e_fr_energy">    -15.86644005 </i>
    <i name="e_wo_entrp">    -15.83752284 </i>
    <i name="e_0_energy">    -15.85680098 </i>
   </energy>
  </scstep>
  <scstep>
   <time name="dav">    4.87    4.88</time>
   <time name="total">    9.90    9.93</time>
   <energy>
    <i name="e_fr_energy">    -15.86878158 </i>
    <i name="e_wo_entrp">    -15.83910825 </i>
    <i name="e_0_energy">    -15.85889047 </i>
   </energy>
  </scstep>
  <scstep>
   <time name="dav">    5.04    5.04</time>
   <time name="total">   10.12   10.13</time>
   <energy>
    <i name="e_fr_energy">    -15.87155884 </i>
    <i name="e_wo_entrp">    -15.84074373 </i>
    <i name="e_0_energy">    -15.86128714 </i>
   </energy>
  </scstep>
  <scstep>
   <time name="dav">    5.02    5.03</time>
   <time name="total">   10.07   10.09</time>
   <energy>
    <i name="e_fr_energy">    -15.87276904 </i>
    <i name="e_wo_entrp">    -15.84135343 </i>
    <i name="e_0_energy">    -15.86229717 </i>
   </energy>
  </scstep>
  <scstep>
   <time name="dav">    5.03    5.04</time>
   <time name="total">   10.13   10.14</time>
   <energy>
    <i name="e_fr_energy">    -15.87338821 </i>
    <i name="e_wo_entrp">    -15.84171945 </i>
    <i name="e_0_energy">    -15.86283196 </i>
   </energy>
  </scstep>
  <scstep>
   <time name="dav">    5.03    5.04</time>
   <time name="total">   10.14   10.17</time>
   <energy>
    <i name="e_fr_energy">    -15.87387490 </i>
    <i name="e_wo_entrp">    -15.84208619 </i>
    <i name="e_0_energy">    -15.86327866 </i>
   </energy>
  </scstep>
  <scstep>
   <time name="dav">    5.02    5.03</time>
   <time name="total">   10.12   10.14</time>
   <energy>
    <i name="e_fr_energy">    -15.87423689 </i>
    <i name="e_wo_entrp">    -15.84236739 </i>
    <i name="e_0_energy">    -15.86361372 </i>
   </energy>
  </scstep>
  <scstep>
   <time name="dav">    5.03    5.04</time>
   <time name="total">   10.11   10.13</time>
   <energy>
    <i name="e_fr_energy">    -15.87443241 </i>
    <i name="e_wo_entrp">    -15.84250183 </i>
    <i name="e_0_energy">    -15.86378889 </i>
   </energy>
  </scstep>
  <scstep>
   <time name="dav">    4.88    4.89</time>
   <time name="total">   10.01   10.03</time>
   <energy>
    <i name="e_fr_energy">    -15.87458298 </i>
    <i name="e_wo_entrp">    -15.84261445 </i>
    <i name="e_0_energy">    -15.86392681 </i>
   </energy>
  </scstep>
  <scstep>
   <time name="dav">    5.02    5.03</time>
   <time name="total">    9.14    9.16</time>
   <energy>
    <i name="alphaZ">      6.46666210 </i>
    <i name="ewald">   7612.72678195 </i>
    <i name="hartreedc"> -14664.77899247 </i>
    <i name="XCdc">    114.01150485 </i>
    <i name="pawpsdc">   7746.43899697 </i>
    <i name="pawaedc">  -7574.83925672 </i>
    <i name="eentropy">     -0.03198340 </i>
    <i name="bandstr">   -664.51251792 </i>
    <i name="atom">   7408.64415014 </i>
    <i name="e_fr_energy">    -15.87465452 </i>
    <i name="e_wo_entrp">    -15.84267112 </i>
    <i name="e_0_energy">    -15.86399339 </i>
   </energy>
  </scstep>
  <structure>
   <crystal>
    <varray name="basis" >
     <v>      23.90485527       0.00000000       0.00000000 </v>
     <v>       0.00000000      23.07204219       0.00000000 </v>
     <v>       0.00000000       0.00000000      20.90150407 </v>
    </varray>
    <i name="volume">  11527.88658089 </i>
    <varray name="rec_basis" >
     <v>       0.04183251       0.00000000       0.00000000 </v>
     <v>       0.00000000       0.04334250       0.00000000 </v>
     <v>       0.00000000       0.00000000       0.04784345 </v>
    </varray>
   </crystal>
   <varray name="positions" >
    <v>       0.55389779       0.47879470       0.57599393 </v>
    <v>       0.44984151       0.51169947       0.51564485 </v>
    <v>       0.60912704       0.41567684       0.48069803 </v>
    <v>       0.39403523       0.42016760       0.46929358 </v>
    <v>       0.43939179       0.62734734       0.51611360 </v>
    <v>       0.54213938       0.58526025       0.51957580 </v>
    <v>       0.54263707       0.49833854       0.42895388 </v>
    <v>       0.50022890       0.40172244       0.49192832 </v>
   </varray>
  </structure>
  <varray name="forces" >
   <v>       0.07401027       0.12062710      -0.02984902 </v>
   <v>      -0.00741136      -0.07836988      -0.16779257 </v>
   <v>       0.18582589      -0.06886946      -0.03381055 </v>
   <v>       0.02819255       0.12653791       0.18927470 </v>
   <v>      -0.12385542      -0.01644513      -0.02922724 </v>
   <v>      -0.07789377      -0.26578350       0.10262544 </v>
   <v>       0.19021772       0.12421855      -0.03159368 </v>
   <v>      -0.26908587       0.05808440       0.00037292 </v>
  </varray>
  <energy>
   <i name="e_fr_energy">    -15.87465452 </i>
   <i name="e_wo_entrp">    -15.84267112 </i>
   <i name="e_0_energy">    -15.86399339 </i>
  </energy>
  <time name="totalsc">  201.16  201.55</time>
 </calculation>
 <calculation>
  <scstep>
   <time name="dav">    6.08    6.09</time>
   <time name="total">   11.14   11.17</time>
   <energy>
    <i name="alphaZ">      6.46666210 </i>
    <i name="ewald">   7587.88963003 </i>
    <i name="hartreedc"> -14640.05875886 </i>
    <i name="XCdc">    114.05504780 </i>
    <i name="pawpsdc">   7746.43793700 </i>
    <i name="pawaedc">  -7574.83819817 </i>
    <i name="eentropy">     -0.03333298 </i>
    <i name="bandstr">   -664.26251597 </i>
    <i name="atom">   7408.64415014 </i>
    <i name="e_fr_energy">    -15.69937891 </i>
    <i name="e_wo_entrp">    -15.66604593 </i>
    <i name="e_0_energy">    -15.68826792 </i>
   </energy>
  </scstep>
  <scstep>
   <time name="dav">    6.40    6.42</time>
   <time name="total">   11.43   11.45</time>
   <energy>
    <i name="e_fr_energy">    -15.88518724 </i>
    <i name="e_wo_entrp">    -15.84973260 </i>
    <i name="e_0_energy">    -15.87336903 </i>
   </energy>
  </scstep>
  <scstep>
   <time name="dav">    6.56    6.57</time>
   <time name="total">   11.59   11.60</time>
   <energy>
    <i name="e_fr_energy">    -15.87540594 </i>
    <i name="e_wo_entrp">    -15.83992609 </i>
    <i name="e_0_energy">    -15.86357932 </i>
   </energy>
  </scstep>
  <scstep>
[...]
       <r>    -1.9955     2.8951    48.9152 </r>
       <r>    -1.9468     1.6998    48.9980 </r>
       <r>    -1.8981     0.6843    49.0313 </r>
       <r>    -1.8493     0.0578    49.0342 </r>
       <r>    -1.8006    -0.1993    49.0244 </r>
       <r>    -1.7519    -0.2325    49.0131 </r>
       <r>    -1.7032    -0.1946    49.0036 </r>
       <r>    -1.6545    -0.1872    48.9945 </r>
       <r>    -1.6058    -0.2564    48.9820 </r>
       <r>    -1.5571    -0.3951    48.9628 </r>
       <r>    -1.5084    -0.5176    48.9376 </r>
       <r>    -1.4596    -0.4189    48.9172 </r>
       <r>    -1.4109     0.2225    48.9280 </r>
       <r>    -1.3622     1.7274    49.0121 </r>
       <r>    -1.3135     4.1797    49.2158 </r>
       <r>    -1.2648     7.1972    49.5663 </r>
       <r>    -1.2161     9.9222    50.0497 </r>
       <r>    -1.1674    11.3630    50.6032 </r>
       <r>    -1.1187    10.9471    51.1365 </r>
       <r>    -1.0699     8.9164    51.5708 </r>
       <r>    -1.0212     6.2344    51.8745 </r>
       <r>    -0.9725     4.0223    52.0704 </r>
       <r>    -0.9238     2.9153    52.2124 </r>
       <r>    -0.8751     2.7993    52.3488 </r>
       <r>    -0.8264     3.0946    52.4995 </r>
       <r>    -0.7777     3.3296    52.6617 </r>
       <r>    -0.7290     3.5286    52.8336 </r>
       <r>    -0.6802     4.0957    53.0331 </r>
       <r>    -0.6315     5.3049    53.2915 </r>
       <r>    -0.5828     6.8633    53.6259 </r>
       <r>    -0.5341     7.9716    54.0142 </r>
       <r>    -0.4854     7.8665    54.3974 </r>
       <r>    -0.4367     6.3925    54.7088 </r>
       <r>    -0.3880     4.1312    54.9100 </r>
       <r>    -0.3393     2.0294    55.0089 </r>
       <r>    -0.2905     0.8599    55.0508 </r>
       <r>    -0.2418     0.8824    55.0937 </r>
       <r>    -0.1931     1.8171    55.1823 </r>
       <r>    -0.1444     3.0426    55.3305 </r>
       <r>    -0.0957     3.8952    55.5202 </r>
       <r>    -0.0470     3.9636    55.7133 </r>
       <r>     0.0017     3.2525    55.8717 </r>
       <r>     0.0504     2.1158    55.9748 </r>
       <r>     0.0992     1.0087    56.0239 </r>
       <r>     0.1479     0.2367    56.0355 </r>
       <r>     0.1966    -0.1381    56.0287 </r>
       <r>     0.2453    -0.2260    56.0177 </r>
       <r>     0.2940    -0.1791    56.0090 </r>
       <r>     0.3427    -0.1051    56.0039 </r>
       <r>     0.3914    -0.0501    56.0014 </r>
       <r>     0.4401    -0.0201    56.0005 </r>
       <r>     0.4889    -0.0069    56.0001 </r>
       <r>     0.5376    -0.0020    56.0000 </r>
       <r>     0.5863    -0.0005    56.0000 </r>
       <r>     0.6350    -0.0001    56.0000 </r>
       <r>     0.6837    -0.0000    56.0000 </r>
       <r>     0.7324    -0.0000    56.0000 </r>
       <r>     0.7811    -0.0000    56.0000 </r>
       <r>     0.8298    -0.0000    56.0000 </r>
       <r>     0.8786    -0.0000    56.0000 </r>
       <r>     0.9273    -0.0000    56.0000 </r>
       <r>     0.9760    -0.0000    56.0000 </r>
       <r>     1.0247    -0.0000    56.0000 </r>
       <r>     1.0734    -0.0000    56.0000 </r>
       <r>     1.1221    -0.0000    56.0000 </r>
       <r>     1.1708    -0.0000    56.0000 </r>
       <r>     1.2195     0.0000    56.0000 </r>
       <r>     1.2683     0.0000    56.0000 </r>
       <r>     1.3170     0.0000    56.0000 </r>
       <r>     1.3657     0.0000    56.0000 </r>
       <r>     1.4144     0.0000    56.0000 </r>
       <r>     1.4631     0.0000    56.0000 </r>
       <r>     1.5118     0.0000    56.0000 </r>
       <r>     1.5605     0.0000    56.0000 </r>
       <r>     1.6092     0.0000    56.0000 </r>
       <r>     1.6580     0.0000    56.0000 </r>
       <r>     1.7067     0.0000    56.0000 </r>
       <r>     1.7554     0.0000    56.0000 </r>
       <r>     1.8041     0.0000    56.0000 </r>
       <r>     1.8528     0.0000    56.0000 </r>
       <r>     1.9015     0.0000    56.0000 </r>
      </set>
      <set comment="spin 2">
       <r>   -12.7122     0.0000     0.0000 </r>
       <r>   -12.6635     0.0000     0.0000 </r>
       <r>   -12.6148     0.0000     0.0000 </r>
       <r>   -12.5661     0.0000     0.0000 </r>
       <r>   -12.5173     0.0000     0.0000 </r>
       <r>   -12.4686     0.0000     0.0000 </r>
       <r>   -12.4199     0.0000     0.0000 </r>
       <r>   -12.3712     0.0000     0.0000 </r>
       <r>   -12.3225    -0.0000    -0.0000 </r>
       <r>   -12.2738    -0.0000    -0.0000 </r>
       <r>   -12.2251    -0.0000    -0.0000 </r>
       <r>   -12.1764    -0.0000    -0.0000 </r>
       <r>   -12.1276    -0.0000    -0.0000 </r>
       <r>   -12.0789    -0.0000    -0.0000 </r>
       <r>   -12.0302    -0.0000    -0.0000 </r>
       <r>   -11.9815    -0.0000    -0.0000 </r>
       <r>   -11.9328    -0.0000    -0.0000 </r>
       <r>   -11.8841    -0.0000    -0.0000 </r>
       <r>   -11.8354    -0.0000    -0.0000 </r>
       <r>   -11.7867    -0.0000    -0.0000 </r>
       <r>   -11.7379    -0.0000    -0.0000 </r>
       <r>   -11.6892    -0.0000    -0.0000 </r>
       <r>   -11.6405    -0.0000    -0.0000 </r>
       <r>   -11.5918    -0.0000    -0.0000 </r>
       <r>   -11.5431    -0.0000    -0.0000 </r>
       <r>   -11.4944    -0.0000    -0.0000 </r>
       <r>   -11.4457    -0.0000    -0.0000 </r>
       <r>   -11.3970    -0.0001    -0.0000 </r>
       <r>   -11.3482    -0.0005    -0.0000 </r>
       <r>   -11.2995    -0.0020    -0.0001 </r>
       <r>   -11.2508    -0.0069    -0.0005 </r>
       <r>   -11.2021    -0.0201    -0.0014 </r>
       <r>   -11.1534    -0.0501    -0.0039 </r>
       <r>   -11.1047    -0.1051    -0.0090 </r>
       <r>   -11.0560    -0.1791    -0.0177 </r>
       <r>   -11.0073    -0.2259    -0.0287 </r>
       <r>   -10.9586    -0.1378    -0.0355 </r>
       <r>   -10.9098     0.2379    -0.0239 </r>
       <r>   -10.8611     1.0133     0.0255 </r>
       <r>   -10.8124     2.1310     0.1293 </r>
       <r>   -10.7637     3.2960     0.2899 </r>
       <r>   -10.7150     4.0703     0.4881 </r>
       <r>   -10.6663     4.1142     0.6885 </r>
       <r>   -10.6176     3.4035     0.8543 </r>
       <r>   -10.5689     2.2423     0.9636 </r>
       <r>   -10.5201     1.0597     1.0152 </r>
       <r>   -10.4714     0.1644     1.0232 </r>
       <r>   -10.4227    -0.3547     1.0059 </r>
       <r>   -10.3740    -0.5444     0.9794 </r>
       <r>   -10.3253    -0.4318     0.9584 </r>
       <r>   -10.2766     0.0613     0.9614 </r>
       <r>   -10.2279     1.0630     1.0131 </r>
       <r>   -10.1792     2.5969     1.1396 </r>
       <r>   -10.1304     4.4450     1.3562 </r>
       <r>   -10.0817     6.1468     1.6556 </r>
       <r>   -10.0330     7.1682     2.0048 </r>
       <r>    -9.9843     7.1541     2.3533 </r>
       <r>    -9.9356     6.1106     2.6509 </r>
       <r>    -9.8869     4.4034     2.8654 </r>
       <r>    -9.8382     2.5733     2.9908 </r>
       <r>    -9.7895     1.0843     3.0436 </r>
       <r>    -9.7407     0.1533     3.0511 </r>
       <r>    -9.6920    -0.2619     3.0383 </r>
       <r>    -9.6433    -0.3505     3.0212 </r>
       <r>    -9.5946    -0.3138     3.0059 </r>
       <r>    -9.5459    -0.2808     2.9923 </r>
       <r>    -9.4972    -0.2808     2.9786 </r>
       <r>    -9.4485    -0.2469     2.9666 </r>
       <r>    -9.3998    -0.0387     2.9647 </r>
       <r>    -9.3510     0.4924     2.9887 </r>
       <r>    -9.3023     1.3907     3.0564 </r>
       <r>    -9.2536     2.5005     3.1782 </r>
       <r>    -9.2049     3.4967     3.3485 </r>
       <r>    -9.1562     4.0748     3.5470 </r>
       <r>    -9.1075     4.1715     3.7502 </r>
       <r>    -9.0588     4.0121     3.9457 </r>
       <r>    -9.0101     3.9375     4.1375 </r>
       <r>    -8.9613     4.1820     4.3412 </r>
       <r>    -8.9126     4.8013     4.5751 </r>
       <r>    -8.8639     5.7374     4.8546 </r>
       <r>    -8.8152     6.8534     5.1884 </r>
       <r>    -8.7665     7.8917     5.5728 </r>
       <r>    -8.7178     8.5085     5.9873 </r>
       <r>    -8.6691     8.4866     6.4007 </r>
       <r>    -8.6204     7.9584     6.7884 </r>
       <r>    -8.5716     7.3714     7.1474 </r>
       <r>    -8.5229     7.1742     7.4969 </r>
       <r>    -8.4742     7.4962     7.8621 </r>
       <r>    -8.4255     8.0902     8.2562 </r>
       <r>    -8.3768     8.5487     8.6726 </r>
       <r>    -8.3281     8.5979     9.0914 </r>
       <r>    -8.2794     8.2724     9.4944 </r>
       <r>    -8.2307     7.8825     9.8784 </r>
       <r>    -8.1819     7.8068    10.2586 </r>
       <r>    -8.1332     8.2261    10.6594 </r>
       <r>    -8.0845     8.9519    11.0954 </r>
       <r>    -8.0358     9.4653    11.5565 </r>
       <r>    -7.9871     9.1721    12.0033 </r>
       <r>    -7.9384     7.7611    12.3814 </r>
       <r>    -7.8897     5.4790    12.6483 </r>
       <r>    -7.8410     3.1595    12.8022 </r>
       <r>    -7.7922     1.9495    12.8971 </r>
       <r>    -7.7435     2.8171    13.0344 </r>
       <r>    -7.6948     6.0390    13.3285 </r>
       <r>    -7.6461    10.9323    13.8611 </r>
       <r>    -7.5974    16.0477    14.6428 </r>
       <r>    -7.5487    19.8161    15.6081 </r>
       <r>    -7.5000    21.3142    16.6464 </r>
       <r>    -7.4513    20.6813    17.6538 </r>
       <r>    -7.4025    18.9473    18.5768 </r>
       <r>    -7.3538    17.4246    19.4255 </r>
       <r>    -7.3051    17.0313    20.2552 </r>
       <r>    -7.2564    17.8755    21.1259 </r>
       <r>    -7.2077    19.2698    22.0646 </r>
       <r>    -7.1590    20.1546    23.0464 </r>
       <r>    -7.1103    19.6892    24.0055 </r>
       <r>    -7.0616    17.6527    24.8654 </r>
       <r>    -7.0128    14.4378    25.5687 </r>
       <r>    -6.9641    10.7537    26.0925 </r>
       <r>    -6.9154     7.3528    26.4507 </r>
       <r>    -6.8667     4.9492    26.6918 </r>
       <r>    -6.8180     4.2014    26.8965 </r>
       <r>    -6.7693     5.5524    27.1669 </r>
       <r>    -6.7206     8.9558    27.6032 </r>
       <r>    -6.6719    13.7647    28.2737 </r>
       <r>    -6.6232    18.9701    29.1978 </r>
       <r>    -6.5744    23.6300    30.3489 </r>
       <r>    -6.5257    27.1335    31.6706 </r>
       <r>    -6.4770    29.1505    33.0906 </r>
       <r>    -6.4283    29.4576    34.5255 </r>
       <r>    -6.3796    27.9065    35.8849 </r>
       <r>    -6.3309    24.5801    37.0823 </r>
       <r>    -6.2822    19.9456    38.0539 </r>
       <r>    -6.2335    14.8127    38.7754 </r>
       <r>    -6.1847    10.0883    39.2669 </r>
       <r>    -6.1360     6.5083    39.5839 </r>
       <r>    -6.0873     4.5171    39.8039 </r>
       <r>    -6.0386     4.2735    40.0121 </r>
       <r>    -5.9899     5.6286    40.2863 </r>
       <r>    -5.9412     8.0379    40.6778 </r>
       <r>    -5.8925    10.5904    41.1937 </r>
       <r>    -5.8438    12.3072    41.7932 </r>
       <r>    -5.7950    12.5728    42.4057 </r>
       <r>    -5.7463    11.3701    42.9595 </r>
       <r>    -5.6976     9.1598    43.4057 </r>
       <r>    -5.6489     6.5604    43.7253 </r>
       <r>    -5.6002     4.0936    43.9247 </r>
       <r>    -5.5515     2.0940    44.0267 </r>
       <r>    -5.5028     0.7142    44.0615 </r>
       <r>    -5.4541    -0.0548    44.0588 </r>
       <r>    -5.4053    -0.3475    44.0419 </r>
       <r>    -5.3566    -0.3561    44.0246 </r>
       <r>    -5.3079    -0.2526    44.0123 </r>
       <r>    -5.2592    -0.1431    44.0053 </r>
       <r>    -5.2105    -0.0678    44.0020 </r>
       <r>    -5.1618    -0.0274    44.0007 </r>
       <r>    -5.1131    -0.0096    44.0002 </r>
       <r>    -5.0644    -0.0029    44.0000 </r>
       <r>    -5.0156    -0.0008    44.0000 </r>
       <r>    -4.9669    -0.0002    44.0000 </r>
       <r>    -4.9182    -0.0000    44.0000 </r>
       <r>    -4.8695    -0.0000    44.0000 </r>
       <r>    -4.8208    -0.0000    44.0000 </r>
       <r>    -4.7721    -0.0000    44.0000 </r>
       <r>    -4.7234    -0.0000    44.0000 </r>
       <r>    -4.6747    -0.0002    44.0000 </r>
       <r>    -4.6259    -0.0009    43.9999 </r>
       <r>    -4.5772    -0.0032    43.9998 </r>
       <r>    -4.5285    -0.0103    43.9993 </r>
       <r>    -4.4798    -0.0285    43.9979 </r>
       <r>    -4.4311    -0.0669    43.9946 </r>
       <r>    -4.3824    -0.1310    43.9883 </r>
       <r>    -4.3337    -0.2034    43.9784 </r>
       <r>    -4.2850    -0.2172    43.9678 </r>
       <r>    -4.2362    -0.0432    43.9657 </r>
       <r>    -4.1875     0.4703    43.9886 </r>
       <r>    -4.1388     1.3884    44.0562 </r>
       <r>    -4.0901     2.5685    44.1813 </r>
       <r>    -4.0414     3.6430    44.3588 </r>
       <r>    -3.9927     4.1770    44.5623 </r>
       <r>    -3.9440     3.9257    44.7535 </r>
       <r>    -3.8953     2.9928    44.8993 </r>
       <r>    -3.8465     1.7569    44.9849 </r>
       <r>    -3.7978     0.6357    45.0158 </r>
       <r>    -3.7491    -0.1095    45.0105 </r>
       <r>    -3.7004    -0.3994    44.9910 </r>
       <r>    -3.6517    -0.2377    44.9795 </r>
       <r>    -3.6030     0.3590    44.9969 </r>
       <r>    -3.5543     1.3212    45.0613 </r>
       <r>    -3.5056     2.4466    45.1805 </r>
       <r>    -3.4568     3.4320    45.3477 </r>
       <r>    -3.4081     4.0642    45.5456 </r>
       <r>    -3.3594     4.4201    45.7610 </r>
       <r>    -3.3107     4.8392    45.9967 </r>
       <r>    -3.2620     5.6193    46.2704 </r>
       <r>    -3.2133     6.6790    46.5958 </r>
       <r>    -3.1646     7.5163    46.9619 </r>
       <r>    -3.1159     7.5389    47.3291 </r>
       <r>    -3.0671     6.4988    47.6457 </r>
       <r>    -3.0184     4.6725    47.8733 </r>
       <r>    -2.9697     2.6670    48.0032 </r>
       <r>    -2.9210     1.0464    48.0542 </r>
       <r>    -2.8723     0.0698    48.0576 </r>
       <r>    -2.8236    -0.3242    48.0418 </r>
       <r>    -2.7749    -0.3597    48.0243 </r>
       <r>    -2.7262    -0.2559    48.0118 </r>
       <r>    -2.6774    -0.1451    48.0048 </r>
       <r>    -2.6287    -0.0768    48.0010 </r>
       <r>    -2.5800    -0.0572    47.9982 </r>
       <r>    -2.5313    -0.0817    47.9942 </r>
       <r>    -2.4826    -0.1422    47.9873 </r>
       <r>    -2.4339    -0.2105    47.9771 </r>
       <r>    -2.3852    -0.2098    47.9668 </r>
       <r>    -2.3365    -0.0037    47.9667 </r>
       <r>    -2.2877     0.5563    47.9938 </r>
       <r>    -2.2390     1.5167    48.0676 </r>
       <r>    -2.1903     2.7071    48.1995 </r>
       <r>    -2.1416     3.7410    48.3818 </r>
       <r>    -2.0929     4.1941    48.5861 </r>
       <r>    -2.0442     3.8618    48.7742 </r>
       <r>    -1.9955     2.8951    48.9152 </r>
       <r>    -1.9468     1.6998    48.9980 </r>
       <r>    -1.8981     0.6843    49.0313 </r>
       <r>    -1.8493     0.0578    49.0342 </r>
       <r>    -1.8006    -0.1993    49.0244 </r>
       <r>    -1.7519    -0.2325    49.0131 </r>
       <r>    -1.7032    -0.1946    49.0036 </r>
       <r>    -1.6545    -0.1872    48.9945 </r>
       <r>    -1.6058    -0.2564    48.9820 </r>
       <r>    -1.5571    -0.3951    48.9628 </r>
       <r>    -1.5084    -0.5176    48.9376 </r>
       <r>    -1.4596    -0.4189    48.9172 </r>
       <r>    -1.4109     0.2225    48.9280 </r>
       <r>    -1.3622     1.7274    49.0121 </r>
       <r>    -1.3135     4.1797    49.2158 </r>
       <r>    -1.2648     7.1972    49.5663 </r>
       <r>    -1.2161     9.9222    50.0497 </r>
       <r>    -1.1674    11.3630    50.6032 </r>
       <r>    -1.1187    10.9471    51.1365 </r>
       <r>    -1.0699     8.9164    51.5708 </r>
       <r>    -1.0212     6.2344    51.8745 </r>
       <r>    -0.9725     4.0223    52.0704 </r>
       <r>    -0.9238     2.9153    52.2124 </r>
       <r>    -0.8751     2.7993    52.3488 </r>
       <r>    -0.8264     3.0946    52.4995 </r>
       <r>    -0.7777     3.3296    52.6617 </r>
       <r>    -0.7290     3.5286    52.8336 </r>
       <r>    -0.6802     4.0957    53.0331 </r>
       <r>    -0.6315     5.3049    53.2915 </r>
       <r>    -0.5828     6.8633    53.6259 </r>
       <r>    -0.5341     7.9716    54.0142 </r>
       <r>    -0.4854     7.8665    54.3974 </r>
       <r>    -0.4367     6.3925    54.7088 </r>
       <r>    -0.3880     4.1312    54.9100 </r>
       <r>    -0.3393     2.0294    55.0089 </r>
       <r>    -0.2905     0.8599    55.0508 </r>
       <r>    -0.2418     0.8824    55.0937 </r>
       <r>    -0.1931     1.8171    55.1823 </r>
       <r>    -0.1444     3.0426    55.3305 </r>
       <r>    -0.0957     3.8952    55.5202 </r>
       <r>    -0.0470     3.9636    55.7133 </r>
       <r>     0.0017     3.2525    55.8717 </r>
       <r>     0.0504     2.1158    55.9748 </r>
       <r>     0.0992     1.0087    56.0239 </r>
       <r>     0.1479     0.2367    56.0355 </r>
       <r>     0.1966    -0.1381    56.0287 </r>
       <r>     0.2453    -0.2260    56.0177 </r>
       <r>     0.2940    -0.1791    56.0090 </r>
       <r>     0.3427    -0.1051    56.0039 </r>
       <r>     0.3914    -0.0501    56.0014 </r>
       <r>     0.4401    -0.0201    56.0005 </r>
       <r>     0.4889    -0.0069    56.0001 </r>
       <r>     0.5376    -0.0020    56.0000 </r>
       <r>     0.5863    -0.0005    56.0000 </r>
       <r>     0.6350    -0.0001    56.0000 </r>
       <r>     0.6837    -0.0000    56.0000 </r>
       <r>     0.7324    -0.0000    56.0000 </r>
       <r>     0.7811    -0.0000    56.0000 </r>
       <r>     0.8298    -0.0000    56.0000 </r>
       <r>     0.8786    -0.0000    56.0000 </r>
       <r>     0.9273    -0.0000    56.0000 </r>
       <r>     0.9760    -0.0000    56.0000 </r>
       <r>     1.0247    -0.0000    56.0000 </r>
       <r>     1.0734    -0.0000    56.0000 </r>
       <r>     1.1221    -0.0000    56.0000 </r>
       <r>     1.1708    -0.0000    56.0000 </r>
       <r>     1.2195     0.0000    56.0000 </r>
       <r>     1.2683     0.0000    56.0000 </r>
       <r>     1.3170     0.0000    56.0000 </r>
       <r>     1.3657     0.0000    56.0000 </r>
       <r>     1.4144     0.0000    56.0000 </r>
       <r>     1.4631     0.0000    56.0000 </r>
       <r>     1.5118     0.0000    56.0000 </r>
       <r>     1.5605     0.0000    56.0000 </r>
       <r>     1.6092     0.0000    56.0000 </r>
       <r>     1.6580     0.0000    56.0000 </r>
       <r>     1.7067     0.0000    56.0000 </r>
       <r>     1.7554     0.0000    56.0000 </r>
       <r>     1.8041     0.0000    56.0000 </r>
       <r>     1.8528     0.0000    56.0000 </r>
       <r>     1.9015     0.0000    56.0000 </r>
      </set>
     </set>
    </array>
   </total>
  </dos>
 </calculation>
 <structure name="finalpos" >
  <crystal>
   <varray name="basis" >
    <v>      23.90485527       0.00000000       0.00000000 </v>
    <v>       0.00000000      23.07204219       0.00000000 </v>
    <v>       0.00000000       0.00000000      20.90150407 </v>
   </varray>
   <i name="volume">  11527.88658089 </i>
   <varray name="rec_basis" >
    <v>       0.04183251       0.00000000       0.00000000 </v>
    <v>       0.00000000       0.04334250       0.00000000 </v>
    <v>       0.00000000       0.00000000       0.04784345 </v>
   </varray>
  </crystal>
  <varray name="positions" >
   <v>       0.60409700       0.53457560       0.61047355 </v>
   <v>       0.43106312       0.51300730       0.48889753 </v>
   <v>       0.59150022       0.39718457       0.41718920 </v>
   <v>       0.38216526       0.41132756       0.48646233 </v>
   <v>       0.43722750       0.62624280       0.48618558 </v>
   <v>       0.51972585       0.57049636       0.54167899 </v>
   <v>       0.57694970       0.47157498       0.51047982 </v>
   <v>       0.48857007       0.41459801       0.45683499 </v>
  </varray>
 </structure>
</modeling>
