unknown system                          
            1
    23.904855    0.000000    0.000000
     0.000000   23.072042    0.000000
     0.000000    0.000000   20.901504
   Au
     8
Direct configuration=     1
   0.55062483  0.47964077  0.56673026
   0.44964196  0.51048106  0.51631397
   0.60694400  0.42171725  0.48303590
   0.39873402  0.42329896  0.46888870
   0.44501661  0.62129104  0.51568376
   0.54286568  0.58508790  0.51846624
   0.53826584  0.49734194  0.43647465
   0.49920578  0.40014826  0.49260851
Direct configuration=     2
   0.55129257  0.48010119  0.57164191
   0.44833115  0.51080943  0.51715197
   0.61013610  0.41878728  0.48199818
   0.39572150  0.42233521  0.46795538
   0.44160830  0.62435270  0.51571609
   0.54574026  0.58584955  0.51889609
   0.53861762  0.49898598  0.43200274
   0.49985121  0.39778586  0.49283962
Direct configuration=     3
   0.55142048  0.48018938  0.57258275
   0.44808006  0.51087233  0.51731250
   0.61074756  0.41822603  0.48179940
   0.39514444  0.42215060  0.46777660
   0.44095542  0.62493917  0.51572228
   0.54629090  0.58599544  0.51897843
   0.53868501  0.49930090  0.43114613
   0.49997485  0.39733333  0.49288389
Direct configuration=     4
   0.55178648  0.47989560  0.57310504
   0.44834721  0.51111822  0.51715215
   0.61033345  0.41786637  0.48165312
   0.39481727  0.42177597  0.46788986
   0.44075480  0.62528121  0.51578750
   0.54569286  0.58600756  0.51904546
   0.53925206  0.49907991  0.43080938
   0.50031459  0.39798234  0.49275947
Direct configuration=     5
   0.55220195  0.47956210  0.57369794
   0.44865048  0.51139734  0.51697013
   0.60986336  0.41745810  0.48148707
   0.39444588  0.42135071  0.46801843
   0.44052705  0.62566949  0.51586154
   0.54501398  0.58602132  0.51912155
   0.53989578  0.49882904  0.43042711
   0.50070025  0.39871909  0.49261823
Direct configuration=     6
   0.55303290  0.47889510  0.57488373
   0.44925701  0.51195559  0.51660610
   0.60892318  0.41664154  0.48115495
   0.39370309  0.42050017  0.46827557
   0.44007155  0.62644604  0.51600961
   0.54365621  0.58604884  0.51927374
   0.54118320  0.49832731  0.42966256
   0.50147158  0.40019259  0.49233574
Direct configuration=     7
   0.55277766  0.47909997  0.57451950
   0.44907071  0.51178412  0.51671791
   0.60921196  0.41689235  0.48125696
   0.39393124  0.42076142  0.46819659
   0.44021146  0.62620752  0.51596413
   0.54407326  0.58604039  0.51922699
   0.54078776  0.49848142  0.42989739
   0.50123466  0.39973999  0.49242251
Direct configuration=     8
   0.55305770  0.47902365  0.57488811
   0.44926341  0.51176296  0.51644965
   0.60919073  0.41658848  0.48111723
   0.39395724  0.42061296  0.46847084
   0.44000654  0.62649247  0.51600149
   0.54358979  0.58584535  0.51931419
   0.54125009  0.49844570  0.42966151
   0.50098322  0.40023560  0.49229896
Direct configuration=     9
   0.55389779  0.47879470  0.57599393
   0.44984151  0.51169947  0.51564485
   0.60912704  0.41567684  0.48069803
   0.39403523  0.42016760  0.46929358
   0.43939179  0.62734734  0.51611360
   0.54213938  0.58526025  0.51957580
   0.54263707  0.49833854  0.42895388
   0.50022890  0.40172244  0.49192832
Direct configuration=    10
   0.55557798  0.47833679  0.57820558
   0.45099772  0.51157250  0.51403525
   0.60899967  0.41385357  0.47985963
   0.39419122  0.41927687  0.47093907
   0.43816228  0.62905708  0.51633781
   0.53923856  0.58409004  0.52009901
   0.54541103  0.49812423  0.42753860
   0.49872026  0.40469610  0.49118705
Direct configuration=    11
   0.55491766  0.47851675  0.57733640
   0.45054333  0.51162240  0.51466783
   0.60904973  0.41457012  0.48018912
   0.39412992  0.41962693  0.47029239
   0.43864548  0.62838515  0.51624969
   0.54037859  0.58454993  0.51989339
   0.54432086  0.49820845  0.42809481
   0.49931316  0.40352745  0.49147837
Direct configuration=    12
   0.55521739  0.47869705  0.57739954
   0.45047937  0.51166140  0.51421972
   0.60916624  0.41432426  0.48003135
   0.39370621  0.41979299  0.47076224
   0.43827733  0.62840205  0.51615211
   0.54010836  0.58395116  0.52027531
   0.54503089  0.49837492  0.42787292
   0.49931292  0.40380336  0.49148879
Direct configuration=    13
   0.55611658  0.47923796  0.57758898
   0.45028751  0.51177840  0.51287541
   0.60951579  0.41358668  0.47955803
   0.39243508  0.42029116  0.47217180
   0.43717288  0.62845272  0.51585937
   0.53929768  0.58215483  0.52142108
   0.54716099  0.49887433  0.42720726
   0.49931221  0.40463109  0.49152007
Direct configuration=    14
   0.55791497  0.48031979  0.57796786
   0.44990377  0.51201241  0.51018677
   0.61021487  0.41211151  0.47861138
   0.38989281  0.42128752  0.47499092
   0.43496398  0.62855408  0.51527389
   0.53767632  0.57856217  0.52371261
   0.55142120  0.49987316  0.42587594
   0.49931080  0.40628656  0.49158261
Direct configuration=    15
   0.55653768  0.47949127  0.57767770
   0.45019765  0.51183320  0.51224586
   0.60967948  0.41324126  0.47933637
   0.39183980  0.42052446  0.47283190
   0.43665566  0.62847645  0.51572228
   0.53891804  0.58131360  0.52195764
   0.54815853  0.49910821  0.42689553
   0.49931188  0.40501872  0.49153471
Direct configuration=    16
   0.55705145  0.47941392  0.57775231
   0.44964655  0.51184698  0.51146721
   0.60971836  0.41310447  0.47894231
   0.39139294  0.42081280  0.47369064
   0.43643882  0.62804912  0.51534534
   0.53861070  0.58127569  0.52278765
   0.54922915  0.49904376  0.42676795
   0.49921074  0.40546045  0.49144858
Direct configuration=    17
   0.55859276  0.47918185  0.57797614
   0.44799325  0.51188831  0.50913125
   0.60983500  0.41269410  0.47776015
   0.39005237  0.42167780  0.47626686
   0.43578829  0.62676712  0.51421452
   0.53768871  0.58116195  0.52527768
   0.55244101  0.49885042  0.42638522
   0.49890733  0.40678564  0.49119016
Direct configuration=    18
   0.55932303  0.47885515  0.57791594
   0.44786394  0.51279133  0.50815775
   0.60993858  0.41232969  0.47705551
   0.38930482  0.42112445  0.47738850
   0.43561270  0.62619300  0.51324176
   0.53719362  0.58110038  0.52665658
   0.55344784  0.49900363  0.42685549
   0.49861419  0.40760955  0.49093046
Direct configuration=    19
   0.55999854  0.47855296  0.57786025
   0.44774433  0.51362662  0.50725725
   0.61003439  0.41199261  0.47640372
   0.38861333  0.42061260  0.47842602
   0.43545027  0.62566195  0.51234195
   0.53673566  0.58104342  0.52793207
   0.55437917  0.49914535  0.42729050
   0.49834303  0.40837167  0.49069023
Direct configuration=    20
   0.56036626  0.47839052  0.57779042
   0.44764294  0.51375581  0.50669768
   0.61008866  0.41172759  0.47602481
   0.38838215  0.42033157  0.47903195
   0.43529800  0.62566728  0.51176326
   0.53661381  0.58098806  0.52869922
   0.55475318  0.49932294  0.42765284
   0.49815371  0.40882342  0.49054181
Direct configuration=    21
   0.56146943  0.47790319  0.57758091
   0.44733876  0.51414337  0.50501897
   0.61025147  0.41093252  0.47488809
   0.38768861  0.41948850  0.48084975
   0.43484120  0.62568327  0.51002717
   0.53624827  0.58082197  0.53100069
   0.55587521  0.49985570  0.42873989
   0.49758576  0.41017866  0.49009653
Direct configuration=    22
   0.56367577  0.47692853  0.57716189
   0.44673041  0.51491850  0.50166154
   0.61057710  0.40934240  0.47261465
   0.38630154  0.41780234  0.48448536
   0.43392760  0.62571526  0.50655500
   0.53551719  0.58048979  0.53560362
   0.55811927  0.50092123  0.43091397
   0.49644985  0.41288915  0.48920597
Direct configuration=    23
   0.56468279  0.47666120  0.57674267
   0.44597893  0.51462294  0.50007072
   0.61037285  0.40839494  0.47148197
   0.38627058  0.41744663  0.48612065
   0.43379055  0.62656346  0.50489448
   0.53495545  0.58018954  0.53756462
   0.55870109  0.50178060  0.43252929
   0.49654648  0.41334786  0.48879758
Direct configuration=    24
   0.56770384  0.47585921  0.57548502
   0.44372451  0.51373628  0.49529828
   0.60976010  0.40555258  0.46808392
   0.38617770  0.41637952  0.49102652
   0.43337939  0.62910806  0.49991293
   0.53327022  0.57928881  0.54344764
   0.56044655  0.50435873  0.43737527
   0.49683639  0.41472399  0.48757240
Direct configuration=    25
   0.56831475  0.47574208  0.57516889
   0.44324522  0.51399751  0.49444273
   0.60953348  0.40500344  0.46736538
   0.38624023  0.41615501  0.49194223
   0.43349749  0.62941149  0.49897459
   0.53269812  0.57908534  0.54440101
   0.56072378  0.50489254  0.43857040
   0.49704566  0.41471978  0.48733676
Direct configuration=    26
   0.57014745  0.47539067  0.57422051
   0.44180734  0.51478121  0.49187608
   0.60885359  0.40335603  0.46520973
   0.38642782  0.41548147  0.49468937
   0.43385176  0.63032176  0.49615956
   0.53098182  0.57847491  0.54726111
   0.56155545  0.50649399  0.44215580
   0.49767347  0.41470713  0.48662983
Direct configuration=    27
   0.57381287  0.47468786  0.57232375
   0.43893160  0.51634860  0.48674277
   0.60749382  0.40006122  0.46089844
   0.38680300  0.41413440  0.50018365
   0.43456032  0.63214231  0.49052951
   0.52754922  0.57725406  0.55298131
   0.56321880  0.50969689  0.44932660
   0.49892908  0.41468184  0.48521597
Direct configuration=    28
   0.57267459  0.47490611  0.57291278
   0.43982465  0.51586186  0.48833689
   0.60791609  0.40108441  0.46223729
   0.38668649  0.41455273  0.49847743
   0.43434028  0.63157694  0.49227789
   0.52861520  0.57763319  0.55120493
   0.56270226  0.50870225  0.44709974
   0.49853915  0.41468970  0.48565503
Direct configuration=    29
   0.57290224  0.47497689  0.57275374
   0.43975447  0.51637506  0.48832759
   0.60763081  0.40113213  0.46197620
   0.38726741  0.41465497  0.49856348
   0.43487916  0.63106081  0.49224065
   0.52788326  0.57752871  0.55081126
   0.56266159  0.50878687  0.44787813
   0.49831977  0.41449174  0.48565094
Direct configuration=    30
   0.57358518  0.47518923  0.57227661
   0.43954395  0.51791465  0.48829968
   0.60677498  0.40127529  0.46119291
   0.38901018  0.41496169  0.49882165
   0.43649580  0.62951242  0.49212893
   0.52568743  0.57721528  0.54963025
   0.56253958  0.50904073  0.45021330
   0.49766163  0.41389789  0.48563865
Direct configuration=    31
   0.57375026  0.47541037  0.57251412
   0.43940173  0.51728152  0.48835738
   0.60638996  0.40138963  0.46096107
   0.38944002  0.41523841  0.49873046
   0.43696655  0.62980306  0.49218516
   0.52523239  0.57708368  0.54928604
   0.56240977  0.50905343  0.45055422
   0.49770805  0.41374709  0.48561355
Direct configuration=    32
   0.57400152  0.47574696  0.57287561
   0.43918525  0.51631786  0.48844519
   0.60580394  0.40156366  0.46060820
   0.39009426  0.41565958  0.49859168
   0.43768305  0.63024543  0.49227074
   0.52453979  0.57688338  0.54876212
   0.56221219  0.50907276  0.45107311
   0.49777870  0.41351756  0.48557534
Direct configuration=    33
   0.57423684  0.47620466  0.57355889
   0.43910495  0.51630254  0.48854895
   0.60539093  0.40160702  0.46015167
   0.38999759  0.41552098  0.49849112
   0.43826634  0.63047810  0.49224782
   0.52405736  0.57663655  0.54848711
   0.56200912  0.50913272  0.45120814
   0.49823558  0.41312462  0.48550829
Direct configuration=    34
   0.57448814  0.47669342  0.57428855
   0.43901919  0.51628617  0.48865974
   0.60494989  0.40165332  0.45966415
   0.38989435  0.41537298  0.49838374
   0.43888921  0.63072657  0.49222334
   0.52354219  0.57637296  0.54819344
   0.56179227  0.50919676  0.45135233
   0.49872347  0.41270501  0.48543669
Direct configuration=    35
   0.57474397  0.47739599  0.57519030
   0.43888716  0.51649557  0.48871002
   0.60508486  0.40154936  0.45885690
   0.38982313  0.41496863  0.49821608
   0.43927977  0.63100003  0.49193652
   0.52343386  0.57608366  0.54841443
   0.56158672  0.50916277  0.45136272
   0.49845925  0.41235118  0.48551502
Direct configuration=    36
   0.57505649  0.47825423  0.57629186
   0.43872587  0.51675135  0.48877144
   0.60524973  0.40142237  0.45787078
   0.38973613  0.41447468  0.49801127
   0.43975688  0.63133409  0.49158615
   0.52330153  0.57573026  0.54868438
   0.56133561  0.50912125  0.45137541
   0.49813648  0.41191895  0.48561071
Direct configuration=    37
   0.57539852  0.47883474  0.57698884
   0.43841091  0.51654163  0.48870235
   0.60515274  0.40161229  0.45693029
   0.38972328  0.41429362  0.49779712
   0.44004832  0.63150540  0.49111369
   0.52335391  0.57584095  0.54929098
   0.56113169  0.50838596  0.45172601
   0.49807935  0.41199259  0.48565271
Direct configuration=    38
   0.57587394  0.47964163  0.57795762
   0.43797312  0.51625012  0.48860632
   0.60501791  0.40187626  0.45562304
   0.38970543  0.41404196  0.49749946
   0.44045343  0.63174352  0.49045699
   0.52342673  0.57599481  0.55013414
   0.56084823  0.50736393  0.45221333
   0.49799994  0.41209495  0.48571109
Direct configuration=    39
   0.57622425  0.48002710  0.57857214
   0.43783771  0.51635720  0.48859848
   0.60492039  0.40187067  0.45477332
   0.38962818  0.41389022  0.49732602
   0.44079279  0.63153126  0.49008362
   0.52326972  0.57615218  0.55038286
   0.56058451  0.50702602  0.45270925
   0.49804115  0.41215252  0.48575630
Direct configuration=    40
   0.57727519  0.48118350  0.58041569
   0.43743150  0.51667841  0.48857498
   0.60462785  0.40185390  0.45222414
   0.38939644  0.41343503  0.49680569
   0.44181090  0.63089449  0.48896350
   0.52279872  0.57662431  0.55112903
   0.55979335  0.50601229  0.45419702
   0.49816478  0.41232524  0.48589194
Direct configuration=    41
   0.57759383  0.48162143  0.58104185
   0.43733241  0.51666291  0.48860007
   0.60453809  0.40166775  0.45133821
   0.38940040  0.41338933  0.49663789
   0.44209807  0.63071517  0.48855143
   0.52268776  0.57661789  0.55127699
   0.55955868  0.50609039  0.45478346
   0.49808949  0.41224230  0.48597209
Direct configuration=    42
   0.57854974  0.48293522  0.58292033
   0.43703514  0.51661641  0.48867534
   0.60426881  0.40110929  0.44868042
   0.38941228  0.41325224  0.49613450
   0.44295957  0.63017721  0.48731521
   0.52235488  0.57659863  0.55172088
   0.55885465  0.50632469  0.45654278
   0.49786363  0.41199348  0.48621252
Direct configuration=    43
   0.58046157  0.48556279  0.58667729
   0.43644060  0.51652341  0.48882589
   0.60373026  0.39999238  0.44336483
   0.38943606  0.41297807  0.49512773
   0.44468259  0.62910130  0.48484278
   0.52168912  0.57656011  0.55260866
   0.55744660  0.50679328  0.46006143
   0.49741192  0.41149585  0.48669339
Direct configuration=    44
   0.57913144  0.48373470  0.58406345
   0.43685425  0.51658812  0.48872115
   0.60410495  0.40076945  0.44706307
   0.38941952  0.41316882  0.49582818
   0.44348383  0.62984985  0.48656293
   0.52215231  0.57658691  0.55199100
   0.55842623  0.50646726  0.45761338
   0.49772619  0.41184207  0.48635883
Direct configuration=    45
   0.57959683  0.48452966  0.58508083
   0.43671037  0.51624051  0.48877783
   0.60355259  0.40066199  0.44570158
   0.38937880  0.41321585  0.49561684
   0.44379229  0.62982623  0.48579916
   0.52206100  0.57647809  0.55234892
   0.55839279  0.50656129  0.45851714
   0.49781404  0.41149356  0.48635969
Direct configuration=    46
   0.58099300  0.48691455  0.58813299
   0.43627874  0.51519767  0.48894787
   0.60189552  0.40033961  0.44161712
   0.38925665  0.41335692  0.49498283
   0.44471767  0.62975537  0.48350782
   0.52178708  0.57615165  0.55342270
   0.55829246  0.50684338  0.46122841
   0.49807759  0.41044804  0.48636225
Direct configuration=    47
   0.58160200  0.48795482  0.58946433
   0.43609046  0.51474279  0.48902204
   0.60117272  0.40019898  0.43983549
   0.38920337  0.41341846  0.49470627
   0.44512132  0.62972447  0.48250835
   0.52166760  0.57600925  0.55389108
   0.55824870  0.50696643  0.46241106
   0.49819255  0.40999198  0.48636337
Direct configuration=    48
   0.58198927  0.48855082  0.59028683
   0.43607411  0.51461946  0.48906830
   0.60064695  0.40022827  0.43881795
   0.38913572  0.41337596  0.49457953
   0.44537786  0.62960850  0.48197179
   0.52145771  0.57606172  0.55416571
   0.55836408  0.50686326  0.46302776
   0.49825301  0.40969920  0.48628413
Direct configuration=    49
   0.58315106  0.49033882  0.59275432
   0.43602505  0.51424947  0.48920708
   0.59906963  0.40031612  0.43576533
   0.38893279  0.41324847  0.49419932
   0.44614749  0.62926060  0.48036210
   0.52082804  0.57621912  0.55498960
   0.55871024  0.50655375  0.46487786
   0.49843440  0.40882084  0.48604640
Direct configuration=    50
   0.58547465  0.49391480  0.59768930
   0.43592694  0.51350949  0.48948463
   0.59591501  0.40049182  0.42966008
   0.38852692  0.41299349  0.49343889
   0.44768676  0.62856481  0.47714273
   0.51956871  0.57653392  0.55663737
   0.55940256  0.50593473  0.46857806
   0.49879718  0.40706412  0.48557093
Direct configuration=    51
   0.59012182  0.50106678  0.60755926
   0.43573070  0.51202954  0.49003974
   0.58960575  0.40084322  0.41744960
   0.38771518  0.41248354  0.49191802
   0.45076530  0.62717321  0.47070399
   0.51705004  0.57716352  0.55993293
   0.56078719  0.50469670  0.47597846
   0.49952274  0.40355069  0.48462000
Direct configuration=    52
   0.58655369  0.49557545  0.59998104
   0.43588137  0.51316586  0.48961352
   0.59445003  0.40057341  0.42682488
   0.38833844  0.41287509  0.49308575
   0.44840158  0.62824169  0.47564769
   0.51898389  0.57668011  0.55740258
   0.55972406  0.50564727  0.47029639
   0.49896565  0.40624832  0.48535013
Direct configuration=    53
   0.58762278  0.49779341  0.60234530
   0.43633187  0.51335612  0.48973712
   0.59295317  0.40108820  0.42361449
   0.38825864  0.41238160  0.49283336
   0.44931468  0.62733971  0.47431038
   0.51805301  0.57698677  0.55811312
   0.56044300  0.50449061  0.47235298
   0.49832157  0.40557076  0.48489524
Direct configuration=    54
   0.59083006  0.50444731  0.60943807
   0.43768338  0.51392689  0.49010790
   0.58846256  0.40263256  0.41398333
   0.38801925  0.41090116  0.49207617
   0.45205397  0.62463379  0.47029844
   0.51526038  0.57790676  0.56024474
   0.56259980  0.50102064  0.47852275
   0.49638933  0.40353808  0.48353058
Direct configuration=    55
   0.59160521  0.50867449  0.61182681
   0.43845769  0.51298937  0.49021812
   0.58611323  0.40419222  0.40985766
   0.38794293  0.41054803  0.49200842
   0.45328984  0.62362623  0.46848260
   0.51480523  0.57756473  0.56121941
   0.56392643  0.49821479  0.48253548
   0.49515815  0.40319733  0.48205350
Direct configuration=    56
   0.59302705  0.51642823  0.61620839
   0.43987798  0.51126971  0.49042027
   0.58180394  0.40705303  0.40229008
   0.38780295  0.40990030  0.49188415
   0.45555674  0.62177811  0.46515187
   0.51397038  0.57693735  0.56300721
   0.56635982  0.49306814  0.48989586
   0.49289985  0.40257232  0.47934414
Direct configuration=    57
   0.59358528  0.51976435  0.61716725
   0.44067867  0.51003719  0.49041099
   0.57968481  0.40939377  0.40080351
   0.38581727  0.40988816  0.49242409
   0.45658271  0.62075079  0.46473622
   0.51363738  0.57656995  0.56206539
   0.56763517  0.48992804  0.49391006
   0.49367743  0.40267493  0.47668448
Direct configuration=    58
   0.59376988  0.52086756  0.61748434
   0.44094345  0.50962962  0.49040792
   0.57898404  0.41016783  0.40031192
   0.38516063  0.40988415  0.49260264
   0.45692198  0.62041107  0.46459877
   0.51352726  0.57644845  0.56175394
   0.56805691  0.48888964  0.49523750
   0.49393456  0.40270886  0.47580497
Direct configuration=    59
   0.59438013  0.52248554  0.61748774
   0.44128240  0.50831279  0.49026312
   0.57899036  0.41233322  0.39992816
   0.38449467  0.41021838  0.49317179
   0.45717242  0.61975894  0.46494601
   0.51347358  0.57624695  0.55984604
   0.56936216  0.48703433  0.49843996
   0.49214299  0.40261703  0.47411917
Direct configuration=    60
   0.59575604  0.52613355  0.61749541
   0.44204663  0.50534379  0.48993665
   0.57900460  0.41721546  0.39906290
   0.38299315  0.41097195  0.49445505
   0.45773708  0.61828860  0.46572892
   0.51335256  0.57579263  0.55554437
   0.57230505  0.48285123  0.50566044
   0.48810360  0.40240998  0.47031825
Direct configuration=    61
   0.59490679  0.52388188  0.61749067
   0.44157492  0.50717635  0.49013816
   0.57899581  0.41420198  0.39959697
   0.38391994  0.41050682  0.49366298
   0.45738856  0.61919614  0.46524568
   0.51342726  0.57607305  0.55819950
   0.57048860  0.48543318  0.50120373
   0.49059684  0.40253778  0.47266430
Direct configuration=    62
   0.59570905  0.52551923  0.61768081
   0.44184083  0.50693271  0.48982933
   0.57941606  0.41694311  0.40062343
   0.38253439  0.41044326  0.49459356
   0.45613454  0.61898181  0.46466722
   0.51477528  0.57528160  0.55695382
   0.57177982  0.48252023  0.50378783
   0.48910875  0.40238523  0.47006598
Direct configuration=    63
   0.59663717  0.52741343  0.61790077
   0.44214845  0.50665084  0.48947206
   0.57990223  0.42011424  0.40181091
   0.38093150  0.41036973  0.49567012
   0.45468380  0.61873385  0.46399803
   0.51633477  0.57436600  0.55551273
   0.57327358  0.47915033  0.50677729
   0.48738721  0.40220875  0.46706007
Direct configuration=    64
   0.59867659  0.52842321  0.61935714
   0.44188996  0.50727593  0.48913633
   0.58063604  0.42170278  0.40230844
   0.38019033  0.41044776  0.49655920
   0.45291534  0.61811722  0.46418485
   0.51693386  0.57421709  0.55253197
   0.57385850  0.47640476  0.51006988
   0.48619811  0.40241842  0.46405418
Direct configuration=    65
   0.59858744  0.52837907  0.61929348
   0.44190125  0.50724861  0.48915100
   0.58060397  0.42163335  0.40228669
   0.38022273  0.41044435  0.49652034
   0.45299264  0.61814418  0.46417668
   0.51690767  0.57422360  0.55266226
   0.57383293  0.47652477  0.50992596
   0.48625008  0.40240926  0.46418557
Direct configuration=    66
   0.59957081  0.52906402  0.61985650
   0.44086085  0.50688896  0.48890590
   0.58110710  0.42155303  0.40219845
   0.38076867  0.41092135  0.49687849
   0.45114562  0.61838565  0.46442797
   0.51852394  0.57381363  0.55077318
   0.57353075  0.47506034  0.51314503
   0.48579098  0.40332021  0.46201646
Direct configuration=    67
   0.59976786  0.52920127  0.61996932
   0.44065237  0.50681689  0.48885679
   0.58120792  0.42153693  0.40218077
   0.38087806  0.41101693  0.49695026
   0.45077551  0.61843403  0.46447832
   0.51884781  0.57373148  0.55039465
   0.57347020  0.47476690  0.51379006
   0.48569898  0.40350275  0.46158182
Direct configuration=    68
   0.60036378  0.53009843  0.62044561
   0.43949814  0.50756168  0.48880540
   0.58153513  0.42103640  0.40320277
   0.38147628  0.41108233  0.49720318
   0.44901906  0.61852995  0.46565434
   0.52041063  0.57350412  0.54808189
   0.57262839  0.47239595  0.51543498
   0.48636731  0.40479833  0.45937384
Direct configuration=    69
   0.60041839  0.53018063  0.62048925
   0.43939238  0.50762992  0.48880069
   0.58156512  0.42099054  0.40329641
   0.38153109  0.41108832  0.49722635
   0.44885813  0.61853874  0.46576209
   0.52055382  0.57348328  0.54786998
   0.57255126  0.47217872  0.51558569
   0.48642854  0.40491704  0.45917153
Direct configuration=    70
   0.60016332  0.53068071  0.61984818
   0.43868967  0.50844207  0.48904207
   0.58292581  0.42022120  0.40387762
   0.38229394  0.41062727  0.49710923
   0.44794383  0.61900690  0.46739687
   0.52143196  0.57342380  0.54596564
   0.57195371  0.47057557  0.51641873
   0.48589648  0.40602966  0.45854366
Direct configuration=    71
   0.60004267  0.53091724  0.61954495
   0.43835728  0.50882622  0.48915624
   0.58356941  0.41985730  0.40415254
   0.38265478  0.41040920  0.49705382
   0.44751136  0.61922835  0.46817013
   0.52184732  0.57339566  0.54506488
   0.57167107  0.46981728  0.51681275
   0.48564482  0.40655593  0.45824668
Direct configuration=    72
   0.59946341  0.53101942  0.61818674
   0.43757453  0.50898638  0.48969877
   0.58481883  0.41853842  0.40514509
   0.38254303  0.40980596  0.49702144
   0.44668291  0.62095237  0.46987007
   0.52245995  0.57343298  0.54344460
   0.57137700  0.46866417  0.51731563
   0.48637906  0.40760750  0.45751964
Direct configuration=    73
   0.59903405  0.53109516  0.61718002
   0.43699435  0.50910509  0.49010090
   0.58574492  0.41756085  0.40588078
   0.38246021  0.40935883  0.49699743
   0.44606884  0.62223024  0.47113010
   0.52291404  0.57346063  0.54224363
   0.57115903  0.46780946  0.51768837
   0.48692328  0.40838693  0.45698075
Direct configuration=    74
   0.59895094  0.53102316  0.61655259
   0.43643462  0.50954407  0.49052101
   0.58680289  0.41638650  0.40648678
   0.38265106  0.40907768  0.49679498
   0.44549964  0.62315620  0.47248159
   0.52280169  0.57364797  0.54086995
   0.57111678  0.46720918  0.51788759
   0.48704110  0.40896242  0.45660750
Direct configuration=    75
   0.59887857  0.53096048  0.61600634
   0.43594731  0.50992625  0.49088677
   0.58772398  0.41536410  0.40701436
   0.38281721  0.40883291  0.49661872
   0.44500409  0.62396236  0.47365823
   0.52270387  0.57381107  0.53967400
   0.57108000  0.46668656  0.51806103
   0.48714368  0.40946345  0.45628254
Direct configuration=    76
   0.59902185  0.53098561  0.61603094
   0.43569845  0.51026540  0.49097692
   0.58797560  0.41471568  0.40729332
   0.38320472  0.40907003  0.49634230
   0.44449077  0.62401314  0.47397853
   0.52272030  0.57363742  0.53954663
   0.57124438  0.46678729  0.51785464
   0.48694265  0.40953261  0.45617871
Direct configuration=    77
   0.59943801  0.53105861  0.61610241
   0.43497564  0.51125049  0.49123876
   0.58870644  0.41283232  0.40810358
   0.38433023  0.40975875  0.49553941
   0.44299982  0.62416061  0.47490887
   0.52276800  0.57313305  0.53917667
   0.57172181  0.46707987  0.51725516
   0.48635877  0.40973350  0.45587713
Direct configuration=    78
   0.59952933  0.53107925  0.61610147
   0.43483602  0.51142987  0.49126511
   0.58876288  0.41238612  0.40833629
   0.38439336  0.40990242  0.49540629
   0.44269079  0.62419004  0.47512674
   0.52275707  0.57302784  0.53914575
   0.57184250  0.46717779  0.51707330
   0.48648676  0.40981386  0.45574704
Direct configuration=    79
   0.59980329  0.53114117  0.61609866
   0.43441715  0.51196802  0.49134416
   0.58893222  0.41104751  0.40903442
   0.38458275  0.41033344  0.49500695
   0.44176369  0.62427832  0.47578033
   0.52272430  0.57271222  0.53905298
   0.57220456  0.46747157  0.51652771
   0.48687075  0.41005493  0.45535678
Direct configuration=    80
   0.60035121  0.53126502  0.61609303
   0.43357943  0.51304431  0.49150226
   0.58927090  0.40837031  0.41043069
   0.38496152  0.41119548  0.49420826
   0.43990949  0.62445490  0.47708751
   0.52265875  0.57208097  0.53886744
   0.57292869  0.46805912  0.51543654
   0.48763873  0.41053709  0.45457626
Direct configuration=    81
   0.60048863  0.53128951  0.61581483
   0.43331924  0.51288508  0.49143486
   0.58956615  0.40716679  0.41080934
   0.38478506  0.41142640  0.49392826
   0.43949781  0.62476954  0.47776675
   0.52242187  0.57201639  0.53886772
   0.57327672  0.46847349  0.51516327
   0.48794322  0.41097999  0.45441695
Direct configuration=    82
   0.60090087  0.53136300  0.61498023
   0.43253868  0.51240738  0.49123266
   0.59045192  0.40355625  0.41194531
   0.38425569  0.41211918  0.49308826
   0.43826279  0.62571346  0.47980449
   0.52171125  0.57182263  0.53886857
   0.57432083  0.46971658  0.51434346
   0.48885669  0.41230870  0.45393903
Direct configuration=    83
   0.60104426  0.53161279  0.61441812
   0.43258109  0.51254800  0.49094794
   0.59116428  0.40192844  0.41266632
   0.38382524  0.41179988  0.49250746
   0.43814245  0.62590088  0.48111497
   0.52099513  0.57196778  0.53893836
   0.57485567  0.46999550  0.51343495
   0.48869060  0.41325391  0.45417388
Direct configuration=    84
   0.60126450  0.53199645  0.61355477
   0.43264624  0.51276397  0.49051065
   0.59225838  0.39942830  0.41377371
   0.38316411  0.41130946  0.49161541
   0.43795761  0.62618874  0.48312773
   0.51989524  0.57219072  0.53904555
   0.57567713  0.47042388  0.51203958
   0.48843551  0.41470565  0.45453459
Direct configuration=    85
   0.60091308  0.53231339  0.61288320
   0.43229839  0.51243244  0.49025141
   0.59158986  0.39966505  0.41455886
   0.38329868  0.41127333  0.49124858
   0.43762662  0.62660313  0.48308882
   0.52100080  0.57171547  0.53996751
   0.57581936  0.47042109  0.51165043
   0.48875192  0.41458327  0.45455318
Direct configuration=    86
   0.60100587  0.53222970  0.61306053
   0.43239024  0.51251998  0.49031986
   0.59176638  0.39960254  0.41435154
   0.38326315  0.41128287  0.49134544
   0.43771402  0.62649371  0.48309909
   0.52070888  0.57184096  0.53972407
   0.57578180  0.47042183  0.51175319
   0.48866837  0.41461559  0.45454827
Direct configuration=    87
   0.60113468  0.53240249  0.61286745
   0.43233604  0.51276347  0.49015353
   0.59145791  0.39961303  0.41478139
   0.38336933  0.41109491  0.49095670
   0.43784212  0.62631430  0.48338069
   0.52066155  0.57179198  0.53985981
   0.57590587  0.47050609  0.51151137
   0.48859121  0.41452093  0.45469106
Direct configuration=    88
   0.60126481  0.53257704  0.61267239
   0.43228128  0.51300945  0.48998548
   0.59114628  0.39962362  0.41521564
   0.38347660  0.41090501  0.49056398
   0.43797153  0.62613304  0.48366518
   0.52061374  0.57174249  0.53999695
   0.57603122  0.47059122  0.51126707
   0.48851326  0.41442530  0.45483530
Direct configuration=    89
   0.60144797  0.53270831  0.61252368
   0.43220082  0.51297392  0.48982581
   0.59104325  0.39947501  0.41538600
   0.38352148  0.41081670  0.49022123
   0.43804158  0.62614617  0.48389166
   0.52056294  0.57168029  0.54011028
   0.57611498  0.47081120  0.51123115
   0.48836570  0.41439559  0.45501218
Direct configuration=    90
   0.60181621  0.53297222  0.61222473
   0.43203908  0.51290248  0.48950479
   0.59083610  0.39917623  0.41572849
   0.38361170  0.41063915  0.48953216
   0.43818240  0.62617255  0.48434699
   0.52046082  0.57155525  0.54033811