   8   8   0   0
  0.1339801E+04  0.2145882E-08  0.2059170E-08  0.2425673E-08  0.5000000E-15
   1.0000000000000000E-004
  CAR 
 unknown system                          
      1.85191524    -12.60786832  301     -4.97308482      1.00000000
    -12.608  0.0000E+00  0.0000E+00  0.0000E+00  0.0000E+00
    -12.560  0.0000E+00  0.0000E+00  0.0000E+00  0.0000E+00
    -12.511  0.0000E+00  0.0000E+00  0.0000E+00  0.0000E+00
    -12.463  0.0000E+00  0.0000E+00  0.0000E+00  0.0000E+00
    -12.415  0.0000E+00  0.0000E+00  0.0000E+00  0.0000E+00
    -12.367  0.0000E+00  0.0000E+00  0.0000E+00  0.0000E+00
    -12.319  0.0000E+00  0.0000E+00  0.0000E+00  0.0000E+00
    -12.270  0.0000E+00  0.0000E+00  0.0000E+00  0.0000E+00
    -12.222 -0.2381E-29 -0.2381E-29 -0.1148E-30 -0.1148E-30
    -12.174 -0.1043E-27 -0.1043E-27 -0.5141E-29 -0.5141E-29
    -12.126 -0.4144E-26 -0.4144E-26 -0.2049E-27 -0.2049E-27
    -12.078 -0.1464E-24 -0.1464E-24 -0.7262E-26 -0.7262E-26
    -12.029 -0.4599E-23 -0.4599E-23 -0.2289E-24 -0.2289E-24
    -11.981 -0.1284E-21 -0.1284E-21 -0.6418E-23 -0.6418E-23
    -11.933 -0.3187E-20 -0.3187E-20 -0.1600E-21 -0.1600E-21
    -11.885 -0.7027E-19 -0.7027E-19 -0.3547E-20 -0.3547E-20
    -11.837 -0.1377E-17 -0.1377E-17 -0.6990E-19 -0.6990E-19
    -11.788 -0.2280E-16 -0.2280E-16 -0.1169E-17 -0.1169E-17
    -11.740 -0.3587E-15 -0.3587E-15 -0.1846E-16 -0.1846E-16
    -11.692 -0.4909E-14 -0.4909E-14 -0.2551E-15 -0.2551E-15
    -11.644 -0.5957E-13 -0.5957E-13 -0.3126E-14 -0.3126E-14
    -11.596 -0.6411E-12 -0.6411E-12 -0.3403E-13 -0.3403E-13
    -11.547 -0.6115E-11 -0.6115E-11 -0.3288E-12 -0.3288E-12
    -11.499 -0.5166E-10 -0.5166E-10 -0.2819E-11 -0.2819E-11
    -11.451 -0.3862E-09 -0.3862E-09 -0.2143E-10 -0.2143E-10
    -11.403 -0.2553E-08 -0.2553E-08 -0.1445E-09 -0.1445E-09
    -11.355 -0.1490E-07 -0.1490E-07 -0.8626E-09 -0.8626E-09
    -11.306 -0.7666E-07 -0.7666E-07 -0.4558E-08 -0.4558E-08
    -11.258 -0.3471E-06 -0.3471E-06 -0.2129E-07 -0.2129E-07
    -11.210 -0.1379E-05 -0.1379E-05 -0.8776E-07 -0.8776E-07
    -11.162 -0.4790E-05 -0.4790E-05 -0.3186E-06 -0.3186E-06
    -11.114 -0.1446E-04 -0.1446E-04 -0.1016E-05 -0.1016E-05
    -11.065 -0.3765E-04 -0.3765E-04 -0.2830E-05 -0.2830E-05
    -11.017 -0.8330E-04 -0.8330E-04 -0.6845E-05 -0.6845E-05
    -10.969 -0.1525E-03 -0.1525E-03 -0.1420E-04 -0.1420E-04
    -10.921 -0.2175E-03 -0.2175E-03 -0.2468E-04 -0.2468E-04
    -10.873 -0.1961E-03 -0.1961E-03 -0.3413E-04 -0.3413E-04
    -10.824  0.4960E-04  0.4960E-04 -0.3174E-04 -0.3174E-04
    -10.776  0.6574E-03  0.6574E-03 -0.5598E-07 -0.5598E-07
    -10.728  0.1650E-02  0.1650E-02  0.7947E-04  0.7947E-04
    -10.680  0.2833E-02  0.2833E-02  0.2160E-03  0.2160E-03
    -10.632  0.3816E-02  0.3816E-02  0.4000E-03  0.4000E-03
    -10.583  0.4197E-02  0.4197E-02  0.6023E-03  0.6023E-03
    -10.535  0.3808E-02  0.3808E-02  0.7858E-03  0.7858E-03
    -10.487  0.2820E-02  0.2820E-02  0.9217E-03  0.9217E-03
    -10.439  0.1637E-02  0.1637E-02  0.1001E-02  0.1001E-02
    -10.391  0.6483E-03  0.6483E-03  0.1032E-02  0.1032E-02
    -10.343  0.4504E-04  0.4504E-04  0.1034E-02  0.1034E-02
    -10.294 -0.1973E-03 -0.1973E-03  0.1025E-02  0.1025E-02
    -10.246 -0.2170E-03 -0.2170E-03  0.1014E-02  0.1014E-02
    -10.198 -0.1517E-03 -0.1517E-03  0.1007E-02  0.1007E-02
    -10.150 -0.8264E-04 -0.8264E-04  0.1003E-02  0.1003E-02
    -10.102 -0.3729E-04 -0.3729E-04  0.1001E-02  0.1001E-02
    -10.053 -0.1435E-04 -0.1435E-04  0.1000E-02  0.1000E-02
    -10.005 -0.4996E-05 -0.4996E-05  0.1000E-02  0.1000E-02
     -9.957 -0.2454E-05 -0.2454E-05  0.1000E-02  0.1000E-02
     -9.909 -0.4237E-05 -0.4237E-05  0.9997E-03  0.9997E-03
     -9.861 -0.1213E-04 -0.1213E-04  0.9992E-03  0.9992E-03
     -9.812 -0.3226E-04 -0.3226E-04  0.9976E-03  0.9976E-03
     -9.764 -0.7355E-04 -0.7355E-04  0.9941E-03  0.9941E-03
     -9.716 -0.1398E-03 -0.1398E-03  0.9873E-03  0.9873E-03
     -9.668 -0.2108E-03 -0.2108E-03  0.9772E-03  0.9772E-03
     -9.620 -0.2169E-03 -0.2169E-03  0.9667E-03  0.9667E-03
     -9.571 -0.3190E-04 -0.3190E-04  0.9652E-03  0.9652E-03
     -9.523  0.4815E-03  0.4815E-03  0.9884E-03  0.9884E-03
     -9.475  0.1366E-02  0.1366E-02  0.1054E-02  0.1054E-02
     -9.427  0.2469E-02  0.2469E-02  0.1173E-02  0.1173E-02
     -9.379  0.3455E-02  0.3455E-02  0.1340E-02  0.1340E-02
     -9.330  0.3990E-02  0.3990E-02  0.1532E-02  0.1532E-02
     -9.282  0.3986E-02  0.3986E-02  0.1724E-02  0.1724E-02
     -9.234  0.3679E-02  0.3679E-02  0.1902E-02  0.1902E-02
     -9.186  0.3446E-02  0.3446E-02  0.2068E-02  0.2068E-02
     -9.138  0.3486E-02  0.3486E-02  0.2236E-02  0.2236E-02
     -9.089  0.3681E-02  0.3681E-02  0.2413E-02  0.2413E-02
     -9.041  0.3769E-02  0.3769E-02  0.2595E-02  0.2595E-02
     -8.993  0.3665E-02  0.3665E-02  0.2771E-02  0.2771E-02
     -8.945  0.3598E-02  0.3598E-02  0.2945E-02  0.2945E-02
     -8.897  0.3917E-02  0.3917E-02  0.3134E-02  0.3134E-02
     -8.848  0.4750E-02  0.4750E-02  0.3363E-02  0.3363E-02
     -8.800  0.5830E-02  0.5830E-02  0.3644E-02  0.3644E-02
     -8.752  0.6639E-02  0.6639E-02  0.3964E-02  0.3964E-02
     -8.704  0.6767E-02  0.6767E-02  0.4290E-02  0.4290E-02
     -8.656  0.6180E-02  0.6180E-02  0.4588E-02  0.4588E-02
     -8.607  0.5223E-02  0.5223E-02  0.4839E-02  0.4839E-02
     -8.559  0.4370E-02  0.4370E-02  0.5050E-02  0.5050E-02
     -8.511  0.3958E-02  0.3958E-02  0.5241E-02  0.5241E-02
     -8.463  0.4094E-02  0.4094E-02  0.5438E-02  0.5438E-02
     -8.415  0.4784E-02  0.4784E-02  0.5669E-02  0.5669E-02
     -8.366  0.6031E-02  0.6031E-02  0.5959E-02  0.5959E-02
     -8.318  0.7749E-02  0.7749E-02  0.6333E-02  0.6333E-02
     -8.270  0.9562E-02  0.9562E-02  0.6794E-02  0.6794E-02
     -8.222  0.1080E-01  0.1080E-01  0.7314E-02  0.7314E-02
     -8.174  0.1086E-01  0.1086E-01  0.7838E-02  0.7838E-02
     -8.125  0.9649E-02  0.9649E-02  0.8303E-02  0.8303E-02
     -8.077  0.7761E-02  0.7761E-02  0.8677E-02  0.8677E-02
     -8.029  0.6187E-02  0.6187E-02  0.8975E-02  0.8975E-02
     -7.981  0.5739E-02  0.5739E-02  0.9252E-02  0.9252E-02
     -7.933  0.6623E-02  0.6623E-02  0.9571E-02  0.9571E-02
     -7.884  0.8412E-02  0.8412E-02  0.9977E-02  0.9977E-02
     -7.836  0.1033E-01  0.1033E-01  0.1047E-01  0.1047E-01
     -7.788  0.1160E-01  0.1160E-01  0.1103E-01  0.1103E-01
     -7.740  0.1171E-01  0.1171E-01  0.1160E-01  0.1160E-01
     -7.692  0.1056E-01  0.1056E-01  0.1211E-01  0.1211E-01
     -7.643  0.8530E-02  0.8530E-02  0.1252E-01  0.1252E-01
     -7.595  0.6393E-02  0.6393E-02  0.1283E-01  0.1283E-01
     -7.547  0.5038E-02  0.5038E-02  0.1307E-01  0.1307E-01
     -7.499  0.5048E-02  0.5048E-02  0.1331E-01  0.1331E-01
     -7.451  0.6431E-02  0.6431E-02  0.1362E-01  0.1362E-01
     -7.402  0.8635E-02  0.8635E-02  0.1404E-01  0.1404E-01
     -7.354  0.1083E-01  0.1083E-01  0.1456E-01  0.1456E-01
     -7.306  0.1223E-01  0.1223E-01  0.1515E-01  0.1515E-01
     -7.258  0.1244E-01  0.1244E-01  0.1575E-01  0.1575E-01
     -7.210  0.1152E-01  0.1152E-01  0.1631E-01  0.1631E-01
     -7.161  0.9924E-02  0.9924E-02  0.1678E-01  0.1678E-01
     -7.113  0.8278E-02  0.8278E-02  0.1718E-01  0.1718E-01
     -7.065  0.7084E-02  0.7084E-02  0.1752E-01  0.1752E-01
     -7.017  0.6614E-02  0.6614E-02  0.1784E-01  0.1784E-01
     -6.969  0.6945E-02  0.6945E-02  0.1818E-01  0.1818E-01
     -6.920  0.8030E-02  0.8030E-02  0.1856E-01  0.1856E-01
     -6.872  0.9659E-02  0.9659E-02  0.1903E-01  0.1903E-01
     -6.824  0.1140E-01  0.1140E-01  0.1958E-01  0.1958E-01
     -6.776  0.1267E-01  0.1267E-01  0.2019E-01  0.2019E-01
     -6.728  0.1306E-01  0.1306E-01  0.2082E-01  0.2082E-01
     -6.679  0.1260E-01  0.1260E-01  0.2143E-01  0.2143E-01
     -6.631  0.1175E-01  0.1175E-01  0.2199E-01  0.2199E-01
     -6.583  0.1105E-01  0.1105E-01  0.2253E-01  0.2253E-01
     -6.535  0.1070E-01  0.1070E-01  0.2304E-01  0.2304E-01
     -6.487  0.1054E-01  0.1054E-01  0.2355E-01  0.2355E-01
     -6.438  0.1042E-01  0.1042E-01  0.2405E-01  0.2405E-01
     -6.390  0.1047E-01  0.1047E-01  0.2456E-01  0.2456E-01
     -6.342  0.1109E-01  0.1109E-01  0.2509E-01  0.2509E-01
     -6.294  0.1250E-01  0.1250E-01  0.2569E-01  0.2569E-01
     -6.246  0.1441E-01  0.1441E-01  0.2639E-01  0.2639E-01
     -6.197  0.1612E-01  0.1612E-01  0.2716E-01  0.2716E-01
     -6.149  0.1695E-01  0.1695E-01  0.2798E-01  0.2798E-01
     -6.101  0.1686E-01  0.1686E-01  0.2879E-01  0.2879E-01
     -6.053  0.1659E-01  0.1659E-01  0.2959E-01  0.2959E-01
     -6.005  0.1723E-01  0.1723E-01  0.3042E-01  0.3042E-01
     -5.956  0.1934E-01  0.1934E-01  0.3136E-01  0.3136E-01
     -5.908  0.2245E-01  0.2245E-01  0.3244E-01  0.3244E-01
     -5.860  0.2509E-01  0.2509E-01  0.3365E-01  0.3365E-01
     -5.812  0.2565E-01  0.2565E-01  0.3488E-01  0.3488E-01
     -5.764  0.2336E-01  0.2336E-01  0.3601E-01  0.3601E-01
     -5.715  0.1876E-01  0.1876E-01  0.3691E-01  0.3691E-01
     -5.667  0.1341E-01  0.1341E-01  0.3756E-01  0.3756E-01
     -5.619  0.9043E-02  0.9043E-02  0.3800E-01  0.3800E-01
     -5.571  0.6708E-02  0.6708E-02  0.3832E-01  0.3832E-01
     -5.523  0.6387E-02  0.6387E-02  0.3863E-01  0.3863E-01
     -5.474  0.7293E-02  0.7293E-02  0.3898E-01  0.3898E-01
     -5.426  0.8554E-02  0.8554E-02  0.3939E-01  0.3939E-01
     -5.378  0.9742E-02  0.9742E-02  0.3986E-01  0.3986E-01
     -5.330  0.1089E-01  0.1089E-01  0.4039E-01  0.4039E-01
     -5.282  0.1208E-01  0.1208E-01  0.4097E-01  0.4097E-01
     -5.233  0.1308E-01  0.1308E-01  0.4160E-01  0.4160E-01
     -5.185  0.1337E-01  0.1337E-01  0.4224E-01  0.4224E-01
     -5.137  0.1251E-01  0.1251E-01  0.4285E-01  0.4285E-01
     -5.089  0.1046E-01  0.1046E-01  0.4335E-01  0.4335E-01
     -5.041  0.7633E-02  0.7633E-02  0.4372E-01  0.4372E-01
     -4.992  0.4695E-02  0.4695E-02  0.4394E-01  0.4394E-01
     -4.944  0.2246E-02  0.2246E-02  0.4405E-01  0.4405E-01
     -4.896  0.6055E-03  0.6055E-03  0.4408E-01  0.4408E-01
     -4.848 -0.2323E-03 -0.2323E-03  0.4407E-01  0.4407E-01
     -4.800 -0.4869E-03 -0.4869E-03  0.4405E-01  0.4405E-01
     -4.751 -0.4342E-03 -0.4342E-03  0.4403E-01  0.4403E-01
     -4.703 -0.2882E-03 -0.2882E-03  0.4401E-01  0.4401E-01
     -4.655 -0.1634E-03 -0.1634E-03  0.4400E-01  0.4400E-01
     -4.607 -0.9785E-04 -0.9785E-04  0.4400E-01  0.4400E-01
     -4.559 -0.9313E-04 -0.9313E-04  0.4400E-01  0.4400E-01
     -4.510 -0.1379E-03 -0.1379E-03  0.4399E-01  0.4399E-01
     -4.462 -0.2036E-03 -0.2036E-03  0.4398E-01  0.4398E-01
     -4.414 -0.2207E-03 -0.2207E-03  0.4397E-01  0.4397E-01
     -4.366 -0.6344E-04 -0.6344E-04  0.4397E-01  0.4397E-01
     -4.318  0.4176E-03  0.4176E-03  0.4399E-01  0.4399E-01
     -4.269  0.1296E-02  0.1296E-02  0.4405E-01  0.4405E-01
     -4.221  0.2454E-02  0.2454E-02  0.4417E-01  0.4417E-01
     -4.173  0.3549E-02  0.3549E-02  0.4434E-01  0.4434E-01
     -4.125  0.4157E-02  0.4157E-02  0.4454E-01  0.4454E-01
     -4.077  0.4010E-02  0.4010E-02  0.4473E-01  0.4473E-01
     -4.028  0.3171E-02  0.3171E-02  0.4488E-01  0.4488E-01
     -3.980  0.1987E-02  0.1987E-02  0.4498E-01  0.4498E-01
     -3.932  0.8691E-03  0.8691E-03  0.4502E-01  0.4502E-01
     -3.884  0.7604E-04  0.7604E-04  0.4502E-01  0.4502E-01
     -3.836 -0.3440E-03 -0.3440E-03  0.4501E-01  0.4501E-01
     -3.787 -0.4532E-03 -0.4532E-03  0.4499E-01  0.4499E-01
     -3.739 -0.2869E-03 -0.2869E-03  0.4497E-01  0.4497E-01
     -3.691  0.1972E-03  0.1972E-03  0.4498E-01  0.4498E-01
     -3.643  0.1039E-02  0.1039E-02  0.4503E-01  0.4503E-01
     -3.595  0.2142E-02  0.2142E-02  0.4514E-01  0.4514E-01
     -3.546  0.3212E-02  0.3212E-02  0.4529E-01  0.4529E-01
     -3.498  0.3891E-02  0.3891E-02  0.4548E-01  0.4548E-01
     -3.450  0.4004E-02  0.4004E-02  0.4567E-01  0.4567E-01
     -3.402  0.3715E-02  0.3715E-02  0.4585E-01  0.4585E-01
     -3.354  0.3430E-02  0.3430E-02  0.4602E-01  0.4602E-01
     -3.305  0.3465E-02  0.3465E-02  0.4618E-01  0.4618E-01
     -3.257  0.3783E-02  0.3783E-02  0.4636E-01  0.4636E-01
     -3.209  0.4023E-02  0.4023E-02  0.4656E-01  0.4656E-01
     -3.161  0.3807E-02  0.3807E-02  0.4674E-01  0.4674E-01
     -3.113  0.3034E-02  0.3034E-02  0.4689E-01  0.4689E-01
     -3.064  0.1934E-02  0.1934E-02  0.4698E-01  0.4698E-01
     -3.016  0.8740E-03  0.8740E-03  0.4702E-01  0.4702E-01
     -2.968  0.1096E-03  0.1096E-03  0.4703E-01  0.4703E-01
     -2.920 -0.3059E-03 -0.3059E-03  0.4701E-01  0.4701E-01
     -2.872 -0.4470E-03 -0.4470E-03  0.4699E-01  0.4699E-01
     -2.823 -0.3725E-03 -0.3725E-03  0.4697E-01  0.4697E-01
     -2.775 -0.4494E-04 -0.4494E-04  0.4697E-01  0.4697E-01
     -2.727  0.6286E-03  0.6286E-03  0.4700E-01  0.4700E-01
     -2.679  0.1660E-02  0.1660E-02  0.4708E-01  0.4708E-01
     -2.631  0.2857E-02  0.2857E-02  0.4722E-01  0.4722E-01
     -2.582  0.3833E-02  0.3833E-02  0.4741E-01  0.4741E-01
     -2.534  0.4196E-02  0.4196E-02  0.4761E-01  0.4761E-01
     -2.486  0.3787E-02  0.3787E-02  0.4779E-01  0.4779E-01
     -2.438  0.2789E-02  0.2789E-02  0.4792E-01  0.4792E-01
     -2.390  0.1606E-02  0.1606E-02  0.4800E-01  0.4800E-01
     -2.341  0.6254E-03  0.6254E-03  0.4803E-01  0.4803E-01
     -2.293  0.2954E-04  0.2954E-04  0.4803E-01  0.4803E-01
     -2.245 -0.2145E-03 -0.2145E-03  0.4802E-01  0.4802E-01
     -2.197 -0.2536E-03 -0.2536E-03  0.4801E-01  0.4801E-01
     -2.149 -0.2341E-03 -0.2341E-03  0.4800E-01  0.4800E-01
     -2.100 -0.2386E-03 -0.2386E-03  0.4799E-01  0.4799E-01
     -2.052 -0.2704E-03 -0.2704E-03  0.4798E-01  0.4798E-01
     -2.004 -0.2542E-03 -0.2542E-03  0.4796E-01  0.4796E-01
     -1.956 -0.5213E-04 -0.5213E-04  0.4796E-01  0.4796E-01
     -1.908  0.4821E-03  0.4821E-03  0.4798E-01  0.4798E-01
     -1.859  0.1409E-02  0.1409E-02  0.4805E-01  0.4805E-01
     -1.811  0.2625E-02  0.2625E-02  0.4818E-01  0.4818E-01
     -1.763  0.3873E-02  0.3873E-02  0.4836E-01  0.4836E-01
     -1.715  0.4866E-02  0.4866E-02  0.4860E-01  0.4860E-01
     -1.667  0.5416E-02  0.5416E-02  0.4886E-01  0.4886E-01
     -1.618  0.5492E-02  0.5492E-02  0.4913E-01  0.4913E-01
     -1.570  0.5192E-02  0.5192E-02  0.4938E-01  0.4938E-01
     -1.522  0.4730E-02  0.4730E-02  0.4960E-01  0.4960E-01
     -1.474  0.4430E-02  0.4430E-02  0.4982E-01  0.4982E-01
     -1.426  0.4637E-02  0.4636E-02  0.5004E-01  0.5004E-01
     -1.377  0.5476E-02  0.5476E-02  0.5030E-01  0.5030E-01
     -1.329  0.6654E-02  0.6654E-02  0.5062E-01  0.5062E-01
     -1.281  0.7517E-02  0.7517E-02  0.5099E-01  0.5099E-01
     -1.233  0.7437E-02  0.7437E-02  0.5135E-01  0.5135E-01
     -1.185  0.6246E-02  0.6246E-02  0.5165E-01  0.5165E-01
     -1.136  0.4379E-02  0.4379E-02  0.5186E-01  0.5186E-01
     -1.088  0.2629E-02  0.2629E-02  0.5198E-01  0.5198E-01
     -1.040  0.1681E-02  0.1681E-02  0.5207E-01  0.5207E-01
     -0.992  0.1749E-02  0.1749E-02  0.5215E-01  0.5215E-01
     -0.944  0.2507E-02  0.2507E-02  0.5227E-01  0.5227E-01
     -0.895  0.3336E-02  0.3336E-02  0.5243E-01  0.5243E-01
     -0.847  0.3715E-02  0.3715E-02  0.5261E-01  0.5261E-01
     -0.799  0.3535E-02  0.3535E-02  0.5278E-01  0.5278E-01
     -0.751  0.3108E-02  0.3108E-02  0.5293E-01  0.5293E-01
     -0.703  0.2886E-02  0.2886E-02  0.5307E-01  0.5307E-01
     -0.654  0.3094E-02  0.3094E-02  0.5322E-01  0.5322E-01
     -0.606  0.3603E-02  0.3603E-02  0.5339E-01  0.5339E-01
     -0.558  0.4103E-02  0.4103E-02  0.5359E-01  0.5359E-01
     -0.510  0.4392E-02  0.4392E-02  0.5380E-01  0.5380E-01
     -0.462  0.4500E-02  0.4500E-02  0.5402E-01  0.5402E-01
     -0.413  0.4570E-02  0.4570E-02  0.5424E-01  0.5424E-01
     -0.365  0.4688E-02  0.4688E-02  0.5447E-01  0.5447E-01
     -0.317  0.4841E-02  0.4841E-02  0.5470E-01  0.5470E-01
     -0.269  0.4977E-02  0.4977E-02  0.5494E-01  0.5494E-01
     -0.221  0.5043E-02  0.5043E-02  0.5518E-01  0.5518E-01
     -0.172  0.4940E-02  0.4940E-02  0.5542E-01  0.5542E-01
     -0.124  0.4525E-02  0.4525E-02  0.5564E-01  0.5564E-01
     -0.076  0.3712E-02  0.3712E-02  0.5582E-01  0.5582E-01
     -0.028  0.2598E-02  0.2598E-02  0.5594E-01  0.5594E-01
      0.020  0.1445E-02  0.1445E-02  0.5601E-01  0.5601E-01
      0.069  0.5283E-03  0.5282E-03  0.5604E-01  0.5604E-01
      0.117 -0.1600E-04 -0.1601E-04  0.5604E-01  0.5604E-01
      0.165 -0.2241E-03 -0.2241E-03  0.5603E-01  0.5603E-01
      0.213 -0.2277E-03 -0.2277E-03  0.5601E-01  0.5601E-01
      0.261 -0.1558E-03 -0.1558E-03  0.5601E-01  0.5601E-01
      0.310 -0.8418E-04 -0.8418E-04  0.5600E-01  0.5600E-01
      0.358 -0.3786E-04 -0.3786E-04  0.5600E-01  0.5600E-01
      0.406 -0.1451E-04 -0.1451E-04  0.5600E-01  0.5600E-01
      0.454 -0.4798E-05 -0.4798E-05  0.5600E-01  0.5600E-01
      0.502 -0.1380E-05 -0.1380E-05  0.5600E-01  0.5600E-01
      0.551 -0.3473E-06 -0.3473E-06  0.5600E-01  0.5600E-01
      0.599 -0.7669E-07 -0.7669E-07  0.5600E-01  0.5600E-01
      0.647 -0.1490E-07 -0.1490E-07  0.5600E-01  0.5600E-01
      0.695 -0.2553E-08 -0.2553E-08  0.5600E-01  0.5600E-01
      0.743 -0.3862E-09 -0.3862E-09  0.5600E-01  0.5600E-01
      0.792 -0.5166E-10 -0.5166E-10  0.5600E-01  0.5600E-01
      0.840 -0.6115E-11 -0.6115E-11  0.5600E-01  0.5600E-01
      0.888 -0.6411E-12 -0.6411E-12  0.5600E-01  0.5600E-01
      0.936 -0.5957E-13 -0.5958E-13  0.5600E-01  0.5600E-01
      0.984 -0.4911E-14 -0.4906E-14  0.5600E-01  0.5600E-01
      1.033 -0.3547E-15 -0.3547E-15  0.5600E-01  0.5600E-01
      1.081 -0.2764E-16 -0.2764E-16  0.5600E-01  0.5600E-01
      1.129  0.0000E+00  0.0000E+00  0.5600E-01  0.5600E-01
      1.177  0.0000E+00  0.0000E+00  0.5600E-01  0.5600E-01
      1.225  0.0000E+00  0.0000E+00  0.5600E-01  0.5600E-01
      1.274  0.0000E+00  0.0000E+00  0.5600E-01  0.5600E-01
      1.322  0.0000E+00  0.0000E+00  0.5600E-01  0.5600E-01
      1.370  0.0000E+00  0.0000E+00  0.5600E-01  0.5600E-01
      1.418  0.0000E+00  0.0000E+00  0.5600E-01  0.5600E-01
      1.466  0.0000E+00  0.0000E+00  0.5600E-01  0.5600E-01
      1.515  0.0000E+00  0.0000E+00  0.5600E-01  0.5600E-01
      1.563  0.0000E+00  0.0000E+00  0.5600E-01  0.5600E-01
      1.611  0.0000E+00  0.0000E+00  0.5600E-01  0.5600E-01
      1.659  0.0000E+00  0.0000E+00  0.5600E-01  0.5600E-01
      1.707  0.0000E+00  0.0000E+00  0.5600E-01  0.5600E-01
      1.756  0.0000E+00  0.0000E+00  0.5600E-01  0.5600E-01
      1.804  0.0000E+00  0.0000E+00  0.5600E-01  0.5600E-01
      1.852  0.0000E+00  0.0000E+00  0.5600E-01  0.5600E-01
