    8    8 1000    2
  0.1339801E+04  0.2145882E-08  0.2059170E-08  0.2425673E-08  0.5000000E-15
   1.0000000000000000E-004
  CAR 
 unknown system                          
     88      1     56
 
  0.1262379E-14  0.1262379E-14  0.1262379E-14  0.1000000E+01
    1      -10.607868    -10.607868   1.000000   1.000000
    2       -9.346296     -9.346296   1.000000   1.000000
    3       -9.069687     -9.069687   1.000000   1.000000
    4       -8.806202     -8.806202   1.000000   1.000000
    5       -8.689550     -8.689550   1.000000   1.000000
    6       -8.456532     -8.456532   1.000000   1.000000
    7       -8.252011     -8.252011   1.000000   1.000000
    8       -8.223764     -8.223764   1.000000   1.000000
    9       -8.138471     -8.138471   1.000000   1.000000
   10       -7.912888     -7.912888   1.000000   1.000000
   11       -7.834609     -7.834609   1.000000   1.000000
   12       -7.730700     -7.730700   1.000000   1.000000
   13       -7.692423     -7.692423   1.000000   1.000000
   14       -7.446082     -7.446082   1.000000   1.000000
   15       -7.340527     -7.340527   1.000000   1.000000
   16       -7.285376     -7.285376   1.000000   1.000000
   17       -7.217897     -7.217897   1.000000   1.000000
   18       -7.066012     -7.066012   1.000000   1.000000
   19       -6.924739     -6.924739   1.000000   1.000000
   20       -6.799643     -6.799643   1.000000   1.000000
   21       -6.744654     -6.744654   1.000000   1.000000
   22       -6.725521     -6.725521   1.000000   1.000000
   23       -6.547763     -6.547763   1.000000   1.000000
   24       -6.512331     -6.512331   1.000000   1.000000
   25       -6.412567     -6.412567   1.000000   1.000000
   26       -6.283446     -6.283446   1.000000   1.000000
   27       -6.224003     -6.224003   1.000000   1.000000
   28       -6.175368     -6.175368   1.000000   1.000000
   29       -6.134455     -6.134455   1.000000   1.000000
   30       -6.096147     -6.096147   1.000000   1.000000
   31       -5.986757     -5.986757   1.000000   1.000000
   32       -5.894796     -5.894796   1.000000   1.000000
   33       -5.892730     -5.892730   1.000000   1.000000
   34       -5.847831     -5.847831   1.000000   1.000000
   35       -5.836574     -5.836574   1.000000   1.000000
   36       -5.819789     -5.819789   1.000000   1.000000
   37       -5.758715     -5.758715   1.000000   1.000000
   38       -5.712701     -5.712701   1.000001   1.000001
   39       -5.476576     -5.476576   1.001071   1.001071
   40       -5.459187     -5.459187   1.001571   1.001571
   41       -5.290067     -5.290067   1.023764   1.023764
   42       -5.232462     -5.232462   1.034732   1.034732
   43       -5.175630     -5.175630   1.026398   1.026398
   44       -5.089781     -5.089781   0.912463   0.912463
   45       -4.133684     -4.133684  -0.000000  -0.000000
   46       -3.500392     -3.500392  -0.000000  -0.000000
   47       -3.215887     -3.215887  -0.000000  -0.000000
   48       -2.559884     -2.559883  -0.000000  -0.000000
   49       -1.738721     -1.738721  -0.000000  -0.000000
   50       -1.553811     -1.553811  -0.000000  -0.000000
   51       -1.311863     -1.311863  -0.000000  -0.000000
   52       -1.240049     -1.240048  -0.000000  -0.000000
   53       -0.879544     -0.879543  -0.000000  -0.000000
   54       -0.581923     -0.581923  -0.000000  -0.000000
   55       -0.356869     -0.356869  -0.000000  -0.000000
   56       -0.148085     -0.148085  -0.000000  -0.000000
