       N       E                     dE             d eps       ncg     rms          rms(c)
DAV:   1     0.670386898267E+03    0.67039E+03   -0.13732E+04   224   0.713E+02
DAV:   2     0.323969148771E+03   -0.34642E+03   -0.31402E+03   336   0.139E+02
DAV:   3     0.111859550634E+03   -0.21211E+03   -0.20138E+03   376   0.122E+02
DAV:   4     0.631454422278E+01   -0.10555E+03   -0.98680E+02   424   0.956E+01
DAV:   5    -0.169014273355E+02   -0.23216E+02   -0.20508E+02   344   0.538E+01    0.200E+01
DAV:   6    -0.112060784365E+02    0.56953E+01   -0.70116E+01   320   0.114E+02    0.132E+01
DAV:   7    -0.630176421909E+01    0.49043E+01   -0.19685E+01   272   0.111E+02    0.676E+00
DAV:   8    -0.673677980576E+01   -0.43502E+00   -0.49928E+00   352   0.188E+01    0.490E+00
DAV:   9    -0.887242122617E+01   -0.21356E+01   -0.29472E+00   344   0.411E+01    0.275E+00
DAV:  10    -0.105463338187E+02   -0.16739E+01   -0.13464E+00   328   0.216E+01    0.175E+00
DAV:  11    -0.115909093186E+02   -0.10446E+01   -0.39051E-01   328   0.113E+01    0.994E-01
DAV:  12    -0.132175111257E+02   -0.16266E+01   -0.49228E-01   296   0.552E+00    0.911E-01
DAV:  13    -0.141997738158E+02   -0.98226E+00   -0.20266E-01   312   0.423E+00    0.614E-01
DAV:  14    -0.148347100031E+02   -0.63494E+00   -0.10368E-01   320   0.412E+00    0.484E-01
DAV:  15    -0.155499134300E+02   -0.71520E+00   -0.11882E-01   304   0.293E+00    0.342E-01
DAV:  16    -0.157414393835E+02   -0.19153E+00   -0.15258E-02   336   0.121E+00    0.264E-01
DAV:  17    -0.159563942237E+02   -0.21495E+00   -0.11193E-02   296   0.855E-01    0.204E-01
DAV:  18    -0.162549601336E+02   -0.29857E+00   -0.17140E-02   312   0.138E+00    0.152E-01
DAV:  19    -0.164389288297E+02   -0.18397E+00   -0.72081E-03   328   0.977E-01    0.108E-01
DAV:  20    -0.165165089159E+02   -0.77580E-01   -0.20561E-03   240   0.411E-01    0.723E-02
DAV:  21    -0.165663921976E+02   -0.49883E-01   -0.16037E-03   264   0.325E-01    0.405E-02
DAV:  22    -0.165851940406E+02   -0.18802E-01   -0.53164E-04   216   0.142E-01    0.275E-02
DAV:  23    -0.165957722007E+02   -0.10578E-01   -0.16707E-04   160   0.143E-01    0.188E-02
DAV:  24    -0.166028285289E+02   -0.70563E-02   -0.10372E-04   168   0.135E-01    0.150E-02
DAV:  25    -0.166076019464E+02   -0.47734E-02   -0.82700E-05   176   0.118E-01    0.107E-02
DAV:  26    -0.166129366164E+02   -0.53347E-02   -0.75100E-05   168   0.753E-02    0.918E-03
DAV:  27    -0.166155876330E+02   -0.26510E-02   -0.49329E-05   176   0.609E-02    0.589E-03
DAV:  28    -0.166176548877E+02   -0.20673E-02   -0.31441E-05   176   0.464E-02    0.368E-03
DAV:  29    -0.166182739379E+02   -0.61905E-03   -0.15975E-05   168   0.361E-02    0.287E-03
DAV:  30    -0.166185689322E+02   -0.29499E-03   -0.86871E-06   160   0.285E-02    0.207E-03
DAV:  31    -0.166187276096E+02   -0.15868E-03   -0.49909E-06   160   0.217E-02    0.169E-03
DAV:  32    -0.166188134748E+02   -0.85865E-04   -0.30477E-06   160   0.152E-02
   1 F= -.16618813E+02 E0= -.16613650E+02  d E =-.166188E+02  mag=     1.7615
       N       E                     dE             d eps       ncg     rms          rms(c)
DAV:   1    -0.162661335504E+02    0.35259E+00   -0.31440E+02   256   0.697E+01    0.354E+00
DAV:   2    -0.171176651261E+02   -0.85153E+00   -0.92445E+00   352   0.267E+01    0.293E+00
DAV:   3    -0.170583520248E+02    0.59313E-01   -0.60921E-01   296   0.195E+01    0.193E+00
DAV:   4    -0.170365156307E+02    0.21836E-01   -0.23009E-01   296   0.133E+01    0.123E+00
DAV:   5    -0.170331933847E+02    0.33222E-02   -0.13226E-01   320   0.120E+01    0.738E-01
DAV:   6    -0.170323758052E+02    0.81758E-03   -0.39273E-02   320   0.586E+00    0.203E-01
DAV:   7    -0.170391245553E+02   -0.67488E-02   -0.90869E-03   344   0.222E+00    0.167E-01
DAV:   8    -0.170431455985E+02   -0.40210E-02   -0.30849E-03   320   0.149E+00    0.776E-02
DAV:   9    -0.170463809417E+02   -0.32353E-02   -0.69761E-04   248   0.585E-01    0.362E-02
DAV:  10    -0.170511502582E+02   -0.47693E-02   -0.23425E-04   168   0.146E-01    0.264E-02
DAV:  11    -0.170543727330E+02   -0.32225E-02   -0.84213E-05   168   0.180E-01    0.230E-02
DAV:  12    -0.170567939114E+02   -0.24212E-02   -0.57329E-05   152   0.141E-01    0.204E-02
DAV:  13    -0.170614907087E+02   -0.46968E-02   -0.10711E-04   160   0.971E-02    0.171E-02
DAV:  14    -0.170673555112E+02   -0.58648E-02   -0.22318E-04   200   0.953E-02    0.136E-02
DAV:  15    -0.170725418569E+02   -0.51863E-02   -0.18426E-04   168   0.857E-02    0.878E-03
DAV:  16    -0.170748833790E+02   -0.23415E-02   -0.12877E-04   176   0.775E-02    0.934E-03
DAV:  17    -0.170758527896E+02   -0.96941E-03   -0.68079E-05   176   0.785E-02    0.543E-03
DAV:  18    -0.170766251851E+02   -0.77240E-03   -0.48185E-05   176   0.450E-02    0.509E-03
DAV:  19    -0.170772525888E+02   -0.62740E-03   -0.33226E-05   168   0.457E-02    0.346E-03
DAV:  20    -0.170775501502E+02   -0.29756E-03   -0.19747E-05   168   0.296E-02    0.285E-03
DAV:  21    -0.170778258520E+02   -0.27570E-03   -0.14522E-05   176   0.277E-02    0.209E-03
DAV:  22    -0.170779599859E+02   -0.13413E-03   -0.84929E-06   168   0.214E-02    0.170E-03
DAV:  23    -0.170781197101E+02   -0.15972E-03   -0.69827E-06   176   0.184E-02    0.151E-03
DAV:  24    -0.170782250416E+02   -0.10533E-03   -0.41506E-06   160   0.134E-02    0.976E-04
DAV:  25    -0.170783421485E+02   -0.11711E-03   -0.32492E-06   160   0.117E-02    0.110E-03
DAV:  26    -0.170784059412E+02   -0.63793E-04   -0.18179E-06   160   0.936E-03
   2 F= -.17078406E+02 E0= -.17071973E+02  d E =-.459592E+00  mag=     1.4699
       N       E                     dE             d eps       ncg     rms          rms(c)
DAV:   1    -0.170775611023E+02    0.78105E-03   -0.73994E-01   232   0.309E+00    0.140E-01
DAV:   2    -0.170792183597E+02   -0.16573E-02   -0.18064E-02   352   0.137E+00    0.116E-01
DAV:   3    -0.170791517197E+02    0.66640E-04   -0.16107E-03   272   0.111E+00    0.827E-02
DAV:   4    -0.170790618759E+02    0.89844E-04   -0.42748E-04   240   0.576E-01
   3 F= -.17079062E+02 E0= -.17072709E+02  d E =-.460248E+00  mag=     1.4680
       N       E                     dE             d eps       ncg     rms          rms(c)
DAV:   1    -0.170815442566E+02   -0.23925E-02   -0.23691E+01   240   0.194E+01    0.606E-01
DAV:   2    -0.171494145490E+02   -0.67870E-01   -0.77641E-01   352   0.104E+01    0.766E-01
DAV:   3    -0.171409922561E+02    0.84223E-02   -0.45152E-02   312   0.549E+00    0.321E-01
DAV:   4    -0.171393402966E+02    0.16520E-02   -0.73335E-03   336   0.148E+00    0.249E-01
DAV:   5    -0.171379265293E+02    0.14138E-02   -0.25939E-03   296   0.134E+00    0.185E-01
DAV:   6    -0.171350514957E+02    0.28750E-02   -0.20653E-03   336   0.627E-01    0.681E-02
DAV:   7    -0.171349300612E+02    0.12143E-03   -0.71143E-04   248   0.633E-01    0.392E-02
DAV:   8    -0.171354593738E+02   -0.52931E-03   -0.15674E-04   176   0.390E-01    0.299E-02
DAV:   9    -0.171359795226E+02   -0.52015E-03   -0.48698E-05   168   0.185E-01    0.177E-02
DAV:  10    -0.171367235458E+02   -0.74402E-03   -0.46737E-05   160   0.866E-02    0.129E-02
DAV:  11    -0.171374766414E+02   -0.75310E-03   -0.34612E-05   168   0.802E-02    0.115E-02
DAV:  12    -0.171381331884E+02   -0.65655E-03   -0.23318E-05   168   0.665E-02    0.103E-02
DAV:  13    -0.171390852863E+02   -0.95210E-03   -0.28237E-05   168   0.499E-02    0.940E-03
DAV:  14    -0.171407545116E+02   -0.16692E-02   -0.63011E-05   176   0.598E-02    0.740E-03
DAV:  15    -0.171421421998E+02   -0.13877E-02   -0.71732E-05   176   0.490E-02    0.629E-03
DAV:  16    -0.171430223489E+02   -0.88015E-03   -0.46443E-05   176   0.496E-02    0.446E-03
DAV:  17    -0.171437659926E+02   -0.74364E-03   -0.38357E-05   168   0.346E-02    0.347E-03
DAV:  18    -0.171441543934E+02   -0.38840E-03   -0.22017E-05   184   0.382E-02    0.288E-03
DAV:  19    -0.171443784130E+02   -0.22402E-03   -0.11545E-05   160   0.243E-02    0.187E-03
DAV:  20    -0.171445473813E+02   -0.16897E-03   -0.78963E-06   168   0.191E-02    0.169E-03
DAV:  21    -0.171446563562E+02   -0.10897E-03   -0.49435E-06   160   0.147E-02    0.110E-03
DAV:  22    -0.171447046152E+02   -0.48259E-04   -0.27237E-06   160   0.122E-02
   4 F= -.17144705E+02 E0= -.17137077E+02  d E =-.656427E-01  mag=     1.3180
       N       E                     dE             d eps       ncg     rms          rms(c)
DAV:   1    -0.166344189924E+02    0.51024E+00   -0.22101E+02   256   0.652E+01    0.160E+00
DAV:   2    -0.172509581792E+02   -0.61654E+00   -0.66667E+00   352   0.237E+01    0.158E+00
DAV:   3    -0.172261637190E+02    0.24794E-01   -0.25267E-01   320   0.133E+01    0.792E-01
DAV:   4    -0.172208882227E+02    0.52755E-02   -0.44095E-02   336   0.472E+00    0.651E-01
DAV:   5    -0.172165267845E+02    0.43614E-02   -0.16136E-02   296   0.280E+00    0.497E-01
DAV:   6    -0.172110406017E+02    0.54862E-02   -0.16820E-02   336   0.224E+00    0.172E-01
DAV:   7    -0.172123055024E+02   -0.12649E-02   -0.36901E-03   296   0.189E+00    0.105E-01
DAV:   8    -0.172138430358E+02   -0.15375E-02   -0.11233E-03   248   0.114E+00    0.521E-02
DAV:   9    -0.172155828577E+02   -0.17398E-02   -0.13335E-04   168   0.272E-01    0.307E-02
DAV:  10    -0.172177262464E+02   -0.21434E-02   -0.13462E-04   168   0.115E-01    0.235E-02
DAV:  11    -0.172191534121E+02   -0.14272E-02   -0.73404E-05   152   0.166E-01    0.217E-02
DAV:  12    -0.172206911096E+02   -0.15377E-02   -0.49555E-05   160   0.121E-01    0.183E-02
DAV:  13    -0.172237754138E+02   -0.30843E-02   -0.15098E-04   160   0.640E-02    0.157E-02
DAV:  14    -0.172268090508E+02   -0.30336E-02   -0.95605E-05   144   0.762E-02    0.132E-02
DAV:  15    -0.172301402334E+02   -0.33312E-02   -0.16893E-04   168   0.658E-02    0.101E-02
DAV:  16    -0.172328513441E+02   -0.27111E-02   -0.15675E-04   184   0.895E-02    0.978E-03
DAV:  17    -0.172336910913E+02   -0.83975E-03   -0.62362E-05   184   0.519E-02    0.552E-03
DAV:  18    -0.172345516222E+02   -0.86053E-03   -0.34143E-05   160   0.563E-02    0.697E-03
DAV:  19    -0.172354421456E+02   -0.89052E-03   -0.36082E-05   176   0.479E-02    0.355E-03
DAV:  20    -0.172357174310E+02   -0.27529E-03   -0.19601E-05   168   0.329E-02    0.416E-03
DAV:  21    -0.172359638779E+02   -0.24645E-03   -0.12305E-05   160   0.329E-02    0.196E-03
DAV:  22    -0.172361926275E+02   -0.22875E-03   -0.13055E-05   168   0.195E-02    0.232E-03
DAV:  23    -0.172362887382E+02   -0.96111E-04   -0.82964E-06   168   0.217E-02
   5 F= -.17236289E+02 E0= -.17220906E+02  d E =-.157227E+00  mag=     1.0297
       N       E                     dE             d eps       ncg     rms          rms(c)
DAV:   1    -0.171810778483E+02    0.55115E-01   -0.41342E+01   248   0.270E+01    0.797E-01
DAV:   2    -0.172982597802E+02   -0.11718E+00   -0.13502E+00   352   0.141E+01    0.949E-01
DAV:   3    -0.172857715200E+02    0.12488E-01   -0.77876E-02   344   0.766E+00    0.378E-01
DAV:   4    -0.172846301173E+02    0.11414E-02   -0.11928E-02   328   0.186E+00    0.284E-01
DAV:   5    -0.172834464383E+02    0.11837E-02   -0.26002E-03   304   0.147E+00    0.215E-01
DAV:   6    -0.172815594315E+02    0.18870E-02   -0.28710E-03   376   0.885E-01    0.992E-02
DAV:   7    -0.172815391296E+02    0.20302E-04   -0.10866E-03   264   0.842E-01    0.509E-02
DAV:   8    -0.172818263492E+02   -0.28722E-03   -0.44756E-04   224   0.574E-01    0.291E-02
DAV:   9    -0.172822072899E+02   -0.38094E-03   -0.60209E-05   168   0.141E-01    0.189E-02
DAV:  10    -0.172826706769E+02   -0.46339E-03   -0.39992E-05   160   0.708E-02    0.131E-02
DAV:  11    -0.172831946300E+02   -0.52395E-03   -0.19225E-05   152   0.592E-02    0.118E-02
DAV:  12    -0.172836183837E+02   -0.42375E-03   -0.17978E-05   168   0.662E-02    0.107E-02
DAV:  13    -0.172841767792E+02   -0.55840E-03   -0.18013E-05   136   0.508E-02    0.922E-03
DAV:  14    -0.172854205344E+02   -0.12438E-02   -0.51213E-05   144   0.464E-02    0.867E-03
DAV:  15    -0.172865755710E+02   -0.11550E-02   -0.53462E-05   168   0.474E-02    0.635E-03
DAV:  16    -0.172874599277E+02   -0.88436E-03   -0.53133E-05   160   0.403E-02    0.601E-03
DAV:  17    -0.172880591424E+02   -0.59921E-03   -0.31949E-05   176   0.538E-02    0.433E-03
DAV:  18    -0.172886643418E+02   -0.60520E-03   -0.37950E-05   176   0.318E-02    0.387E-03
DAV:  19    -0.172889115648E+02   -0.24722E-03   -0.16748E-05   168   0.349E-02    0.263E-03
DAV:  20    -0.172891744247E+02   -0.26286E-03   -0.13531E-05   168   0.215E-02    0.229E-03
DAV:  21    -0.172893268000E+02   -0.15238E-03   -0.84310E-06   168   0.235E-02    0.186E-03
DAV:  22    -0.172893994796E+02   -0.72680E-04   -0.55011E-06   160   0.140E-02
   6 F= -.17289399E+02 E0= -.17271581E+02  d E =-.531107E-01  mag=     0.8693
       N       E                     dE             d eps       ncg     rms          rms(c)
DAV:   1    -0.171044746995E+02    0.18485E+00   -0.84909E+01   264   0.398E+01    0.105E+00
DAV:   2    -0.173250246630E+02   -0.22055E+00   -0.25111E+00   352   0.180E+01    0.115E+00
DAV:   3    -0.173084865529E+02    0.16538E-01   -0.13157E-01   360   0.101E+01    0.472E-01
DAV:   4    -0.173062198090E+02    0.22667E-02   -0.14240E-02   352   0.228E+00    0.367E-01
DAV:   5    -0.173040051818E+02    0.22146E-02   -0.47635E-03   304   0.194E+00    0.269E-01
DAV:   6    -0.173016677598E+02    0.23374E-02   -0.52642E-03   368   0.127E+00    0.787E-02
DAV:   7    -0.173024382695E+02   -0.77051E-03   -0.98886E-04   296   0.760E-01    0.406E-02
DAV:   8    -0.173031422042E+02   -0.70393E-03   -0.12745E-04   168   0.252E-01    0.289E-02
DAV:   9    -0.173036856424E+02   -0.54344E-03   -0.91346E-05   176   0.247E-01    0.229E-02
DAV:  10    -0.173045028410E+02   -0.81720E-03   -0.56317E-05   152   0.167E-01    0.171E-02
DAV:  11    -0.173051491874E+02   -0.64635E-03   -0.43212E-05   168   0.952E-02    0.155E-02
DAV:  12    -0.173057938572E+02   -0.64467E-03   -0.34474E-05   136   0.791E-02    0.146E-02
DAV:  13    -0.173079182918E+02   -0.21244E-02   -0.82667E-05   144   0.888E-02    0.134E-02
DAV:  14    -0.173098289241E+02   -0.19106E-02   -0.13783E-04   168   0.733E-02    0.114E-02
DAV:  15    -0.173107891614E+02   -0.96024E-03   -0.60289E-05   168   0.547E-02    0.101E-02
DAV:  16    -0.173119417887E+02   -0.11526E-02   -0.60187E-05   152   0.576E-02    0.947E-03
DAV:  17    -0.173128951072E+02   -0.95332E-03   -0.59930E-05   160   0.557E-02    0.737E-03
DAV:  18    -0.173139040997E+02   -0.10090E-02   -0.68284E-05   176   0.632E-02    0.676E-03
DAV:  19    -0.173143646830E+02   -0.46058E-03   -0.40346E-05   176   0.496E-02    0.458E-03
DAV:  20    -0.173146703308E+02   -0.30565E-03   -0.24546E-05   168   0.335E-02    0.368E-03
DAV:  21    -0.173149228310E+02   -0.25250E-03   -0.18266E-05   168   0.379E-02    0.353E-03
DAV:  22    -0.173151441152E+02   -0.22128E-03   -0.18509E-05   168   0.327E-02    0.271E-03
DAV:  23    -0.173152143966E+02   -0.70281E-04   -0.12151E-05   168   0.253E-02
   7 F= -.17315214E+02 E0= -.17296367E+02  d E =-.789257E-01  mag=     0.6166
       N       E                     dE             d eps       ncg     rms          rms(c)
DAV:   1    -0.172390568639E+02    0.76087E-01   -0.42420E+01   256   0.272E+01    0.730E-01
DAV:   2    -0.173611716534E+02   -0.12211E+00   -0.13777E+00   344   0.141E+01    0.911E-01
DAV:   3    -0.173499466036E+02    0.11225E-01   -0.74153E-02   352   0.724E+00    0.408E-01
DAV:   4    -0.173478735484E+02    0.20731E-02   -0.91659E-03   344   0.175E+00    0.317E-01
DAV:   5    -0.173460825680E+02    0.17910E-02   -0.34463E-03   312   0.162E+00    0.256E-01
DAV:   6    -0.173421410116E+02    0.39416E-02   -0.39918E-03   344   0.116E+00    0.123E-01
DAV:   7    -0.173413808555E+02    0.76016E-03   -0.14234E-03   288   0.110E+00    0.499E-02
DAV:   8    -0.173415419480E+02   -0.16109E-03   -0.57393E-04   232   0.586E-01    0.437E-02
DAV:   9    -0.173419612689E+02   -0.41932E-03   -0.87291E-05   168   0.221E-01    0.266E-02
DAV:  10    -0.173423140080E+02   -0.35274E-03   -0.46234E-05   144   0.135E-01    0.206E-02
DAV:  11    -0.173428584727E+02   -0.54446E-03   -0.43944E-05   168   0.128E-01    0.167E-02
DAV:  12    -0.173433971766E+02   -0.53870E-03   -0.34571E-05   152   0.747E-02    0.157E-02
DAV:  13    -0.173446156915E+02   -0.12185E-02   -0.60417E-05   160   0.629E-02    0.141E-02
DAV:  14    -0.173461380190E+02   -0.15223E-02   -0.98659E-05   160   0.712E-02    0.128E-02
DAV:  15    -0.173475686567E+02   -0.14306E-02   -0.11732E-04   184   0.698E-02    0.103E-02
DAV:  16    -0.173495861482E+02   -0.20175E-02   -0.17457E-04   176   0.676E-02    0.985E-03
DAV:  17    -0.173508181395E+02   -0.12320E-02   -0.12901E-04   184   0.675E-02    0.821E-03
DAV:  18    -0.173512276048E+02   -0.40947E-03   -0.48258E-05   168   0.579E-02    0.692E-03
DAV:  19    -0.173521944920E+02   -0.96689E-03   -0.82780E-05   168   0.721E-02    0.868E-03
DAV:  20    -0.173526120060E+02   -0.41751E-03   -0.54268E-05   176   0.749E-02    0.423E-03
DAV:  21    -0.173529358078E+02   -0.32380E-03   -0.52403E-05   160   0.551E-02    0.652E-03
DAV:  22    -0.173530685849E+02   -0.13278E-03   -0.30100E-05   160   0.556E-02    0.316E-03
DAV:  23    -0.173532047713E+02   -0.13619E-03   -0.47403E-05   176   0.323E-02    0.381E-03
DAV:  24    -0.173532396876E+02   -0.34916E-04   -0.19441E-05   168   0.305E-02
   8 F= -.17353240E+02 E0= -.17335510E+02  d E =-.380253E-01  mag=     0.2667
       N       E                     dE             d eps       ncg     rms          rms(c)
DAV:   1    -0.165616460240E+02    0.79156E+00   -0.42267E+02   272   0.103E+02    0.192E+00
DAV:   2    -0.175034177271E+02   -0.94177E+00   -0.10154E+01   344   0.356E+01    0.216E+00
DAV:   3    -0.174469701903E+02    0.56448E-01   -0.50237E-01   336   0.205E+01    0.969E-01
DAV:   4    -0.174420709556E+02    0.48992E-02   -0.85454E-02   336   0.526E+00    0.795E-01
DAV:   5    -0.174347657689E+02    0.73052E-02   -0.26435E-02   304   0.362E+00    0.601E-01
DAV:   6    -0.174273554808E+02    0.74103E-02   -0.27814E-02   352   0.413E+00    0.320E-01
DAV:   7    -0.174257166910E+02    0.16388E-02   -0.94611E-03   304   0.288E+00    0.100E-01
DAV:   8    -0.174272666823E+02   -0.15500E-02   -0.25115E-03   352   0.911E-01    0.730E-02
DAV:   9    -0.174288716141E+02   -0.16049E-02   -0.38536E-04   200   0.513E-01    0.412E-02
DAV:  10    -0.174306674839E+02   -0.17959E-02   -0.17230E-04   176   0.354E-01    0.265E-02
DAV:  11    -0.174325519239E+02   -0.18844E-02   -0.11464E-04   160   0.188E-01    0.204E-02
DAV:  12    -0.174345969461E+02   -0.20450E-02   -0.11437E-04   184   0.133E-01    0.184E-02
DAV:  13    -0.174385500617E+02   -0.39531E-02   -0.17475E-04   144   0.124E-01    0.161E-02
DAV:  14    -0.174422520306E+02   -0.37020E-02   -0.30257E-04   216   0.101E-01    0.107E-02
DAV:  15    -0.174442693678E+02   -0.20173E-02   -0.10550E-04   184   0.592E-02    0.920E-03
DAV:  16    -0.174458671865E+02   -0.15978E-02   -0.66184E-05   176   0.694E-02    0.792E-03
DAV:  17    -0.174471954753E+02   -0.13283E-02   -0.65099E-05   176   0.651E-02    0.599E-03
DAV:  18    -0.174483200298E+02   -0.11246E-02   -0.57589E-05   168   0.685E-02    0.631E-03
DAV:  19    -0.174488768419E+02   -0.55681E-03   -0.34875E-05   176   0.563E-02    0.352E-03
DAV:  20    -0.174495134915E+02   -0.63665E-03   -0.40081E-05   160   0.339E-02    0.391E-03
DAV:  21    -0.174497719126E+02   -0.25842E-03   -0.20934E-05   168   0.381E-02    0.255E-03
DAV:  22    -0.174499025831E+02   -0.13067E-03   -0.13568E-05   168   0.244E-02    0.197E-03
DAV:  23    -0.174499923575E+02   -0.89774E-04   -0.97295E-06   168   0.268E-02
   9 F= -.17449992E+02 E0= -.17448732E+02  d E =-.134778E+00  mag=     0.0017
       N       E                     dE             d eps       ncg     rms          rms(c)
DAV:   1    -0.130357046165E+02    0.44142E+01   -0.23506E+03   304   0.351E+02    0.478E+00
DAV:   2    -0.182383730510E+02   -0.52027E+01   -0.53677E+01   368   0.927E+01    0.102E+01
DAV:   3    -0.174471956827E+02    0.79118E+00   -0.66371E+00   320   0.432E+01    0.201E+00
DAV:   4    -0.174519097927E+02   -0.47141E-02   -0.65950E-01   336   0.148E+01    0.147E+00
DAV:   5    -0.174493748076E+02    0.25350E-02   -0.14698E-01   304   0.916E+00    0.116E+00
DAV:   6    -0.174398440434E+02    0.95308E-02   -0.57520E-02   336   0.687E+00    0.719E-01
DAV:   7    -0.174371263738E+02    0.27177E-02   -0.51130E-02   352   0.646E+00    0.461E-01
DAV:   8    -0.174350883928E+02    0.20380E-02   -0.18229E-02   336   0.362E+00    0.143E-01
DAV:   9    -0.174353782856E+02   -0.28989E-03   -0.40804E-03   368   0.165E+00    0.676E-02
DAV:  10    -0.174357232470E+02   -0.34496E-03   -0.89686E-04   280   0.675E-01    0.393E-02
DAV:  11    -0.174359221323E+02   -0.19889E-03   -0.18553E-04   160   0.479E-01    0.186E-02
DAV:  12    -0.174361723715E+02   -0.25024E-03   -0.87712E-05   152   0.198E-01    0.130E-02
DAV:  13    -0.174364519397E+02   -0.27957E-03   -0.86890E-05   160   0.108E-01    0.838E-03
DAV:  14    -0.174366216233E+02   -0.16968E-03   -0.52479E-05   176   0.936E-02    0.726E-03
DAV:  15    -0.174369634588E+02   -0.34184E-03   -0.78219E-05   160   0.926E-02    0.659E-03
DAV:  16    -0.174370599719E+02   -0.96513E-04   -0.51778E-05   176   0.793E-02
  10 F= -.17437060E+02 E0= -.17442011E+02  d E =-.121846E+00  mag=     0.0001
       N       E                     dE             d eps       ncg     rms          rms(c)
DAV:   1    -0.163545673481E+02    0.10824E+01   -0.92186E+02   304   0.181E+02    0.208E+00
DAV:   2    -0.174760630324E+02   -0.11215E+01   -0.11953E+01   336   0.242E+01    0.154E+00
DAV:   3    -0.175059057852E+02   -0.29843E-01   -0.68182E-01   304   0.115E+01    0.110E+00
DAV:   4    -0.174974756101E+02    0.84302E-02   -0.83624E-02   272   0.686E+00    0.863E-01
DAV:   5    -0.174916063281E+02    0.58693E-02   -0.71782E-02   336   0.603E+00    0.554E-01
DAV:   6    -0.174884256309E+02    0.31807E-02   -0.28834E-02   368   0.517E+00    0.251E-01
DAV:   7    -0.174884078865E+02    0.17744E-04   -0.67505E-03   304   0.174E+00    0.121E-01
DAV:   8    -0.174885160761E+02   -0.10819E-03   -0.16983E-03   320   0.124E+00    0.710E-02
DAV:   9    -0.174887062330E+02   -0.19016E-03   -0.37090E-04   192   0.507E-01    0.311E-02
DAV:  10    -0.174889160550E+02   -0.20982E-03   -0.16094E-04   176   0.268E-01    0.192E-02
DAV:  11    -0.174890128401E+02   -0.96785E-04   -0.95319E-05   176   0.251E-01
  11 F= -.17489013E+02 E0= -.17498255E+02  d E =-.173798E+00  mag=     0.0000
       N       E                     dE             d eps       ncg     rms          rms(c)
DAV:   1    -0.167732859845E+02    0.71563E+00   -0.32752E+02   256   0.876E+01    0.185E+00
DAV:   2    -0.175446308365E+02   -0.77134E+00   -0.81882E+00   352   0.308E+01    0.182E+00
DAV:   3    -0.175034573358E+02    0.41174E-01   -0.35912E-01   368   0.176E+01    0.808E-01
DAV:   4    -0.175002669917E+02    0.31903E-02   -0.40919E-02   352   0.399E+00    0.647E-01
DAV:   5    -0.174963961361E+02    0.38709E-02   -0.16272E-02   336   0.265E+00    0.428E-01
DAV:   6    -0.174947923377E+02    0.16038E-02   -0.13184E-02   336   0.211E+00    0.153E-01
DAV:   7    -0.174949598918E+02   -0.16755E-03   -0.47829E-03   304   0.197E+00    0.102E-01
DAV:   8    -0.174949229771E+02    0.36915E-04   -0.11306E-03   256   0.101E+00    0.454E-02
DAV:   9    -0.174949597125E+02   -0.36735E-04   -0.18083E-04   176   0.424E-01
  12 F= -.17494960E+02 E0= -.17508963E+02  d E =-.179745E+00  mag=     0.0000
       N       E                     dE             d eps       ncg     rms          rms(c)
DAV:   1    -0.173067154797E+02    0.18821E+00   -0.78104E+01   240   0.383E+01    0.820E-01
DAV:   2    -0.175136800138E+02   -0.20696E+00   -0.21540E+00   352   0.991E+00    0.740E-01
DAV:   3    -0.175070255736E+02    0.66544E-02   -0.50662E-02   336   0.440E+00    0.415E-01
DAV:   4    -0.175057635073E+02    0.12621E-02   -0.63311E-03   336   0.166E+00    0.337E-01
DAV:   5    -0.175047796007E+02    0.98391E-03   -0.64019E-03   368   0.209E+00    0.233E-01
DAV:   6    -0.175040960404E+02    0.68356E-03   -0.59424E-03   384   0.208E+00    0.624E-02
DAV:   7    -0.175041593190E+02   -0.63279E-04   -0.86964E-04   272   0.669E-01
  13 F= -.17504159E+02 E0= -.17518887E+02  d E =-.188945E+00  mag=     0.0000
       N       E                     dE             d eps       ncg     rms          rms(c)
DAV:   1    -0.174985622409E+02    0.55338E-02   -0.15260E+01   240   0.158E+01    0.442E-01
DAV:   2    -0.175399334548E+02   -0.41371E-01   -0.46212E-01   352   0.889E+00    0.589E-01
DAV:   3    -0.175356763456E+02    0.42571E-02   -0.28330E-02   336   0.436E+00    0.264E-01
DAV:   4    -0.175354375518E+02    0.23879E-03   -0.36576E-03   320   0.988E-01    0.199E-01
DAV:   5    -0.175351875746E+02    0.24998E-03   -0.86250E-04   240   0.877E-01    0.150E-01
DAV:   6    -0.175350967003E+02    0.90874E-04   -0.21825E-03   336   0.396E-01    0.597E-02
DAV:   7    -0.175350677618E+02    0.28938E-04   -0.24605E-04   192   0.410E-01
  14 F= -.17535068E+02 E0= -.17551362E+02  d E =-.309084E-01  mag=     0.0000
       N       E                     dE             d eps       ncg     rms          rms(c)
DAV:   1    -0.171857837699E+02    0.34931E+00   -0.14045E+02   240   0.513E+01    0.136E+00
DAV:   2    -0.176256601639E+02   -0.43988E+00   -0.46976E+00   336   0.228E+01    0.142E+00
DAV:   3    -0.176001705178E+02    0.25490E-01   -0.18611E-01   368   0.121E+01    0.659E-01
DAV:   4    -0.175981854838E+02    0.19850E-02   -0.20407E-02   368   0.272E+00    0.535E-01
DAV:   5    -0.175955164196E+02    0.26691E-02   -0.82709E-03   320   0.241E+00    0.382E-01
DAV:   6    -0.175936962317E+02    0.18202E-02   -0.10564E-02   368   0.205E+00    0.118E-01
DAV:   7    -0.175938011677E+02   -0.10494E-03   -0.25787E-03   336   0.122E+00    0.761E-02
DAV:   8    -0.175938715407E+02   -0.70373E-04   -0.69695E-04   208   0.810E-01
  15 F= -.17593872E+02 E0= -.17599441E+02  d E =-.897122E-01  mag=     0.0000
       N       E                     dE             d eps       ncg     rms          rms(c)
DAV:   1    -0.175228559143E+02    0.70945E-01   -0.28263E+01   240   0.218E+01    0.624E-01
DAV:   2    -0.176056302518E+02   -0.82774E-01   -0.90594E-01   336   0.116E+01    0.772E-01
DAV:   3    -0.175978889365E+02    0.77413E-02   -0.48321E-02   336   0.580E+00    0.331E-01
DAV:   4    -0.175975417193E+02    0.34722E-03   -0.67104E-03   336   0.142E+00    0.252E-01
DAV:   5    -0.175971349116E+02    0.40681E-03   -0.16869E-03   288   0.123E+00    0.187E-01
DAV:   6    -0.175969406159E+02    0.19430E-03   -0.26584E-03   336   0.694E-01    0.574E-02
DAV:   7    -0.175969828549E+02   -0.42239E-04   -0.44615E-04   224   0.512E-01
  16 F= -.17596983E+02 E0= -.17601367E+02  d E =-.928235E-01  mag=     0.0000
       N       E                     dE             d eps       ncg     rms          rms(c)
DAV:   1    -0.175919157445E+02    0.50249E-02   -0.30154E+00   240   0.702E+00    0.144E-01
DAV:   2    -0.175985886954E+02   -0.66730E-02   -0.69384E-02   336   0.229E+00    0.159E-01
DAV:   3    -0.175983356136E+02    0.25308E-03   -0.23886E-03   320   0.109E+00    0.854E-02
DAV:   4    -0.175983280450E+02    0.75686E-05   -0.25534E-04   160   0.378E-01
  17 F= -.17598328E+02 E0= -.17602919E+02  d E =-.941687E-01  mag=     0.0000
       N       E                     dE             d eps       ncg     rms          rms(c)
DAV:   1    -0.176259833432E+02   -0.27648E-01   -0.29854E+00   240   0.674E+00    0.233E-01
DAV:   2    -0.176336189034E+02   -0.76356E-02   -0.83072E-02   336   0.281E+00    0.222E-01
DAV:   3    -0.176331143660E+02    0.50454E-03   -0.44474E-03   304   0.183E+00    0.114E-01
DAV:   4    -0.176331660212E+02   -0.51655E-04   -0.11602E-03   288   0.778E-01    0.843E-02
DAV:   5    -0.176331886375E+02   -0.22616E-04   -0.71737E-04   240   0.747E-01
  18 F= -.17633189E+02 E0= -.17637915E+02  d E =-.348606E-01  mag=     0.0000
       N       E                     dE             d eps       ncg     rms          rms(c)
DAV:   1    -0.176225894569E+02    0.10577E-01   -0.26888E+01   240   0.204E+01    0.743E-01
DAV:   2    -0.177037908914E+02   -0.81201E-01   -0.90033E-01   336   0.959E+00    0.737E-01
DAV:   3    -0.176973041491E+02    0.64867E-02   -0.47836E-02   304   0.590E+00    0.352E-01
DAV:   4    -0.176972908369E+02    0.13312E-04   -0.11758E-02   320   0.233E+00    0.266E-01
DAV:   5    -0.176969191811E+02    0.37166E-03   -0.63997E-03   272   0.224E+00    0.161E-01
DAV:   6    -0.176968445117E+02    0.74669E-04   -0.19792E-03   352   0.895E-01    0.314E-02
DAV:   7    -0.176968676438E+02   -0.23132E-04   -0.26589E-04   192   0.407E-01
  19 F= -.17696868E+02 E0= -.17702199E+02  d E =-.985396E-01  mag=     0.0000
       N       E                     dE             d eps       ncg     rms          rms(c)
DAV:   1    -0.173251736248E+02    0.37167E+00   -0.10836E+02   240   0.428E+01    0.140E+00
DAV:   2    -0.176904265993E+02   -0.36525E+00   -0.39523E+00   336   0.163E+01    0.121E+00
DAV:   3    -0.176743821778E+02    0.16044E-01   -0.14667E-01   336   0.977E+00    0.642E-01
DAV:   4    -0.176727852571E+02    0.15969E-02   -0.27143E-02   352   0.418E+00    0.495E-01
DAV:   5    -0.176716523688E+02    0.11329E-02   -0.18887E-02   304   0.353E+00    0.347E-01
DAV:   6    -0.176707246072E+02    0.92776E-03   -0.96681E-03   352   0.204E+00    0.668E-02
DAV:   7    -0.176708450308E+02   -0.12042E-03   -0.14464E-03   336   0.746E-01    0.657E-02
DAV:   8    -0.176708238664E+02    0.21164E-04   -0.23503E-04   192   0.527E-01
  20 F= -.17670824E+02 E0= -.17678955E+02  d E =-.724958E-01  mag=     0.0000
       N       E                     dE             d eps       ncg     rms          rms(c)
DAV:   1    -0.176006478535E+02    0.70197E-01   -0.39578E+01   240   0.249E+01    0.910E-01
DAV:   2    -0.177195431692E+02   -0.11890E+00   -0.13291E+00   336   0.115E+01    0.849E-01
DAV:   3    -0.177096583844E+02    0.98848E-02   -0.65654E-02   320   0.664E+00    0.362E-01
DAV:   4    -0.177093077363E+02    0.35065E-03   -0.10428E-02   368   0.203E+00    0.253E-01
DAV:   5    -0.177092604220E+02    0.47314E-04   -0.57992E-03   304   0.247E+00    0.190E-01
DAV:   6    -0.177090655032E+02    0.19492E-03   -0.35389E-03   336   0.151E+00    0.608E-02
DAV:   7    -0.177090657778E+02   -0.27466E-06   -0.70055E-04   256   0.791E-01
  21 F= -.17709066E+02 E0= -.17715123E+02  d E =-.110738E+00  mag=     0.0000
       N       E                     dE             d eps       ncg     rms          rms(c)
DAV:   1    -0.177160533762E+02   -0.69879E-02   -0.32829E+00   224   0.666E+00    0.185E-01
DAV:   2    -0.177243041825E+02   -0.82508E-02   -0.86400E-02   352   0.280E+00    0.168E-01
DAV:   3    -0.177239971811E+02    0.30700E-03   -0.37945E-03   320   0.176E+00    0.963E-02
DAV:   4    -0.177239418276E+02    0.55353E-04   -0.55982E-04   208   0.568E-01
  22 F= -.17723942E+02 E0= -.17730158E+02  d E =-.148760E-01  mag=     0.0000
       N       E                     dE             d eps       ncg     rms          rms(c)
DAV:   1    -0.176706764678E+02    0.53321E-01   -0.29555E+01   224   0.202E+01    0.648E-01
DAV:   2    -0.177539735132E+02   -0.83297E-01   -0.87957E-01   352   0.806E+00    0.545E-01
DAV:   3    -0.177499935545E+02    0.39800E-02   -0.31095E-02   304   0.420E+00    0.290E-01
DAV:   4    -0.177495198646E+02    0.47369E-03   -0.58232E-03   320   0.156E+00    0.221E-01
DAV:   5    -0.177493443165E+02    0.17555E-03   -0.39807E-03   320   0.190E+00    0.142E-01
DAV:   6    -0.177491754220E+02    0.16889E-03   -0.25793E-03   368   0.145E+00    0.506E-02
DAV:   7    -0.177491709139E+02    0.45082E-05   -0.44179E-04   208   0.619E-01
  23 F= -.17749171E+02 E0= -.17756013E+02  d E =-.401051E-01  mag=     0.0000
       N       E                     dE             d eps       ncg     rms          rms(c)
DAV:   1    -0.177416102232E+02    0.75652E-02   -0.34948E+00   224   0.686E+00    0.209E-01
DAV:   2    -0.177506486251E+02   -0.90384E-02   -0.94080E-02   336   0.255E+00    0.143E-01
DAV:   3    -0.177504531148E+02    0.19551E-03   -0.26208E-03   304   0.108E+00    0.975E-02
DAV:   4    -0.177503912744E+02    0.61840E-04   -0.45957E-04   208   0.522E-01
  24 F= -.17750391E+02 E0= -.17757444E+02  d E =-.413255E-01  mag=     0.0000
       N       E                     dE             d eps       ncg     rms          rms(c)
DAV:   1    -0.177511244048E+02   -0.67129E-03   -0.74602E+00   240   0.108E+01    0.241E-01
DAV:   2    -0.177668445118E+02   -0.15720E-01   -0.16744E-01   352   0.407E+00    0.325E-01
DAV:   3    -0.177657080181E+02    0.11365E-02   -0.92730E-03   272   0.219E+00    0.161E-01
DAV:   4    -0.177655682903E+02    0.13973E-03   -0.14352E-03   304   0.812E-01    0.124E-01
DAV:   5    -0.177654503545E+02    0.11794E-03   -0.51103E-04   208   0.623E-01    0.910E-02
DAV:   6    -0.177654585178E+02   -0.81633E-05   -0.13516E-03   336   0.487E-01    0.304E-02
DAV:   7    -0.177654551477E+02    0.33701E-05   -0.77144E-05   160   0.261E-01
  25 F= -.17765455E+02 E0= -.17772295E+02  d E =-.150639E-01  mag=    -0.0000
       N       E                     dE             d eps       ncg     rms          rms(c)
DAV:   1    -0.176033145227E+02    0.16214E+00   -0.67286E+01   240   0.335E+01    0.841E-01
DAV:   2    -0.178027161454E+02   -0.19940E+00   -0.20990E+00   336   0.138E+01    0.105E+00
DAV:   3    -0.177884949518E+02    0.14221E-01   -0.89722E-02   336   0.789E+00    0.483E-01
DAV:   4    -0.177869869363E+02    0.15080E-02   -0.11689E-02   352   0.217E+00    0.382E-01
DAV:   5    -0.177856316763E+02    0.13553E-02   -0.56380E-03   336   0.188E+00    0.275E-01
DAV:   6    -0.177846951660E+02    0.93651E-03   -0.62045E-03   352   0.161E+00    0.838E-02
DAV:   7    -0.177847233106E+02   -0.28145E-04   -0.12450E-03   288   0.919E-01    0.402E-02
DAV:   8    -0.177847556172E+02   -0.32307E-04   -0.21784E-04   160   0.421E-01
  26 F= -.17784756E+02 E0= -.17790999E+02  d E =-.343643E-01  mag=    -0.0000
       N       E                     dE             d eps       ncg     rms          rms(c)
DAV:   1    -0.177850063805E+02   -0.28307E-03   -0.76176E+00   240   0.106E+01    0.274E-01
DAV:   2    -0.178031536173E+02   -0.18147E-01   -0.19720E-01   352   0.513E+00    0.418E-01
DAV:   3    -0.178008909934E+02    0.22626E-02   -0.13533E-02   320   0.286E+00    0.170E-01
DAV:   4    -0.178007403581E+02    0.15064E-03   -0.14355E-03   336   0.640E-01    0.130E-01
DAV:   5    -0.178006038564E+02    0.13650E-03   -0.38385E-04   192   0.521E-01    0.981E-02
DAV:   6    -0.178005888056E+02    0.15051E-04   -0.13995E-03   336   0.426E-01    0.366E-02
DAV:   7    -0.178005845334E+02    0.42722E-05   -0.98707E-05   160   0.274E-01
  27 F= -.17800585E+02 E0= -.17806445E+02  d E =-.158289E-01  mag=    -0.0000
       N       E                     dE             d eps       ncg     rms          rms(c)
DAV:   1    -0.176562349714E+02    0.14435E+00   -0.69117E+01   240   0.333E+01    0.858E-01
DAV:   2    -0.178582468814E+02   -0.20201E+00   -0.21493E+00   336   0.146E+01    0.113E+00
DAV:   3    -0.178410957223E+02    0.17151E-01   -0.10689E-01   352   0.843E+00    0.487E-01
DAV:   4    -0.178395284220E+02    0.15673E-02   -0.11460E-02   352   0.192E+00    0.387E-01
DAV:   5    -0.178380065399E+02    0.15219E-02   -0.46597E-03   336   0.163E+00    0.288E-01
DAV:   6    -0.178367873191E+02    0.12192E-02   -0.70483E-03   336   0.122E+00    0.814E-02
DAV:   7    -0.178368377076E+02   -0.50388E-04   -0.13691E-03   272   0.891E-01    0.458E-02
DAV:   8    -0.178368765204E+02   -0.38813E-04   -0.30129E-04   176   0.455E-01
  28 F= -.17836877E+02 E0= -.17841966E+02  d E =-.521209E-01  mag=     0.0000
       N       E                     dE             d eps       ncg     rms          rms(c)
DAV:   1    -0.171055421494E+02    0.73130E+00   -0.28944E+02   256   0.759E+01    0.165E+00
DAV:   2    -0.179155546063E+02   -0.81001E+00   -0.84854E+00   336   0.257E+01    0.183E+00
DAV:   3    -0.178730114398E+02    0.42543E-01   -0.35467E-01   320   0.164E+01    0.875E-01
DAV:   4    -0.178680897193E+02    0.49217E-02   -0.47874E-02   336   0.385E+00    0.704E-01
DAV:   5    -0.178617897526E+02    0.63000E-02   -0.24672E-02   352   0.356E+00    0.467E-01
DAV:   6    -0.178585402647E+02    0.32495E-02   -0.17766E-02   368   0.287E+00    0.121E-01
DAV:   7    -0.178588545573E+02   -0.31429E-03   -0.37546E-03   320   0.123E+00    0.866E-02
DAV:   8    -0.178588743917E+02   -0.19834E-04   -0.64212E-04   224   0.759E-01
  29 F= -.17858874E+02 E0= -.17863290E+02  d E =-.741188E-01  mag=     0.0000
       N       E                     dE             d eps       ncg     rms          rms(c)
DAV:   1    -0.178586596166E+02    0.19494E-03   -0.50069E+00   240   0.866E+00    0.194E-01
DAV:   2    -0.178701606879E+02   -0.11501E-01   -0.12129E-01   336   0.356E+00    0.280E-01
DAV:   3    -0.178691624228E+02    0.99827E-03   -0.60114E-03   320   0.200E+00    0.129E-01
DAV:   4    -0.178690813685E+02    0.81054E-04   -0.83676E-04   272   0.540E-01
  30 F= -.17869081E+02 E0= -.17873389E+02  d E =-.102070E-01  mag=     0.0000
       N       E                     dE             d eps       ncg     rms          rms(c)
DAV:   1    -0.177871575576E+02    0.82005E-01   -0.45341E+01   240   0.266E+01    0.617E-01
DAV:   2    -0.179102756934E+02   -0.12312E+00   -0.12938E+00   336   0.106E+01    0.858E-01
DAV:   3    -0.179006293825E+02    0.96463E-02   -0.51980E-02   320   0.553E+00    0.422E-01
DAV:   4    -0.178995327187E+02    0.10967E-02   -0.73929E-03   336   0.153E+00    0.347E-01
DAV:   5    -0.178983059496E+02    0.12268E-02   -0.37633E-03   336   0.146E+00    0.250E-01
DAV:   6    -0.178974733115E+02    0.83264E-03   -0.54154E-03   336   0.975E-01    0.694E-02
DAV:   7    -0.178975371334E+02   -0.63822E-04   -0.94094E-04   240   0.715E-01
  31 F= -.17897537E+02 E0= -.17901673E+02  d E =-.386627E-01  mag=     0.0000
       N       E                     dE             d eps       ncg     rms          rms(c)
DAV:   1    -0.174228037394E+02    0.47467E+00   -0.18587E+02   240   0.580E+01    0.130E+00
DAV:   2    -0.179830774382E+02   -0.56027E+00   -0.58211E+00   336   0.202E+01    0.149E+00
DAV:   3    -0.179541661298E+02    0.28911E-01   -0.20933E-01   320   0.118E+01    0.742E-01
DAV:   4    -0.179507163184E+02    0.34498E-02   -0.30790E-02   320   0.324E+00    0.611E-01
DAV:   5    -0.179462780533E+02    0.44383E-02   -0.14633E-02   336   0.267E+00    0.421E-01
DAV:   6    -0.179435427956E+02    0.27353E-02   -0.13894E-02   336   0.191E+00    0.115E-01
DAV:   7    -0.179437577323E+02   -0.21494E-03   -0.28425E-03   304   0.111E+00    0.700E-02
DAV:   8    -0.179438177624E+02   -0.60030E-04   -0.44439E-04   176   0.647E-01
  32 F= -.17943818E+02 E0= -.17947885E+02  d E =-.849434E-01  mag=     0.0000
       N       E                     dE             d eps       ncg     rms          rms(c)
DAV:   1    -0.168937489559E+02    0.10500E+01   -0.84932E+02   304   0.153E+02    0.223E+00
DAV:   2    -0.180558032272E+02   -0.11621E+01   -0.12328E+01   336   0.254E+01    0.182E+00
DAV:   3    -0.180152168118E+02    0.40586E-01   -0.40073E-01   336   0.163E+01    0.115E+00
DAV:   4    -0.180007804292E+02    0.14436E-01   -0.90680E-02   352   0.716E+00    0.808E-01
DAV:   5    -0.179921759920E+02    0.86044E-02   -0.61962E-02   368   0.464E+00    0.445E-01
DAV:   6    -0.179905370881E+02    0.16389E-02   -0.23554E-02   352   0.473E+00    0.179E-01
DAV:   7    -0.179908480097E+02   -0.31092E-03   -0.42617E-03   320   0.162E+00    0.755E-02
DAV:   8    -0.179911240103E+02   -0.27600E-03   -0.78057E-04   272   0.796E-01    0.460E-02
DAV:   9    -0.179913599274E+02   -0.23592E-03   -0.22111E-04   144   0.491E-01    0.239E-02
DAV:  10    -0.179915462353E+02   -0.18631E-03   -0.11723E-04   160   0.255E-01    0.118E-02
DAV:  11    -0.179917066711E+02   -0.16044E-03   -0.61709E-05   160   0.138E-01    0.733E-03
DAV:  12    -0.179919537673E+02   -0.24710E-03   -0.58852E-05   144   0.991E-02    0.769E-03
DAV:  13    -0.179920863331E+02   -0.13257E-03   -0.38586E-05   176   0.803E-02    0.342E-03
DAV:  14    -0.179922108425E+02   -0.12451E-03   -0.33347E-05   160   0.642E-02    0.610E-03
DAV:  15    -0.179923180645E+02   -0.10722E-03   -0.33500E-05   160   0.650E-02    0.254E-03
DAV:  16    -0.179923524466E+02   -0.34382E-04   -0.18960E-05   160   0.427E-02
  33 F= -.17992352E+02 E0= -.17996432E+02  d E =-.133478E+00  mag=     0.0000
       N       E                     dE             d eps       ncg     rms          rms(c)
DAV:   1    -0.179838901458E+02    0.84279E-02   -0.29231E+01   240   0.220E+01    0.586E-01
DAV:   2    -0.180563135698E+02   -0.72423E-01   -0.77581E-01   336   0.726E+00    0.540E-01
DAV:   3    -0.180528512196E+02    0.34624E-02   -0.28097E-02   320   0.392E+00    0.283E-01
DAV:   4    -0.180522831330E+02    0.56809E-03   -0.56074E-03   336   0.167E+00    0.221E-01
DAV:   5    -0.180519438756E+02    0.33926E-03   -0.39402E-03   336   0.161E+00    0.129E-01
DAV:   6    -0.180518421323E+02    0.10174E-03   -0.20054E-03   336   0.112E+00    0.359E-02
DAV:   7    -0.180518533951E+02   -0.11263E-04   -0.28331E-04   192   0.501E-01
  34 F= -.18051853E+02 E0= -.18056325E+02  d E =-.595009E-01  mag=     0.0000
       N       E                     dE             d eps       ncg     rms          rms(c)
DAV:   1    -0.179342861809E+02    0.11756E+00   -0.58478E+01   240   0.318E+01    0.862E-01
DAV:   2    -0.180859840288E+02   -0.15170E+00   -0.16090E+00   320   0.100E+01    0.677E-01
DAV:   3    -0.180820239019E+02    0.39601E-02   -0.60959E-02   320   0.527E+00    0.394E-01
DAV:   4    -0.180806193314E+02    0.14046E-02   -0.77278E-03   336   0.226E+00    0.292E-01
DAV:   5    -0.180797830329E+02    0.83630E-03   -0.66198E-03   352   0.199E+00    0.126E-01
DAV:   6    -0.180796382626E+02    0.14477E-03   -0.23569E-03   336   0.151E+00    0.463E-02
DAV:   7    -0.180796471158E+02   -0.88532E-05   -0.40568E-04   208   0.425E-01
  35 F= -.18079647E+02 E0= -.18087450E+02  d E =-.872947E-01  mag=     0.0000
       N       E                     dE             d eps       ncg     rms          rms(c)
DAV:   1    -0.180546106236E+02    0.25028E-01   -0.26034E+01   240   0.209E+01    0.506E-01
DAV:   2    -0.181186138312E+02   -0.64003E-01   -0.67969E-01   336   0.742E+00    0.512E-01
DAV:   3    -0.181150196334E+02    0.35942E-02   -0.24686E-02   288   0.362E+00    0.265E-01
DAV:   4    -0.181145805341E+02    0.43910E-03   -0.43999E-03   320   0.130E+00    0.203E-01
DAV:   5    -0.181142418299E+02    0.33870E-03   -0.16259E-03   320   0.113E+00    0.128E-01
DAV:   6    -0.181141273686E+02    0.11446E-03   -0.19081E-03   336   0.809E-01    0.406E-02
DAV:   7    -0.181141117547E+02    0.15614E-04   -0.35472E-04   208   0.470E-01
  36 F= -.18114112E+02 E0= -.18123834E+02  d E =-.344646E-01  mag=     0.0000
       N       E                     dE             d eps       ncg     rms          rms(c)
DAV:   1    -0.179017113936E+02    0.21242E+00   -0.90321E+01   240   0.405E+01    0.101E+00
DAV:   2    -0.181446325782E+02   -0.24292E+00   -0.25422E+00   336   0.125E+01    0.823E-01
DAV:   3    -0.181357563855E+02    0.88762E-02   -0.68902E-02   320   0.598E+00    0.473E-01
DAV:   4    -0.181338320915E+02    0.19243E-02   -0.12271E-02   320   0.267E+00    0.370E-01
DAV:   5    -0.181312323693E+02    0.25997E-02   -0.10289E-02   352   0.245E+00    0.250E-01
DAV:   6    -0.181287501772E+02    0.24822E-02   -0.13571E-02   352   0.229E+00    0.144E-01
DAV:   7    -0.181280044384E+02    0.74574E-03   -0.38089E-03   352   0.902E-01    0.113E-01
DAV:   8    -0.181278060933E+02    0.19835E-03   -0.11248E-03   288   0.751E-01    0.140E-01
DAV:   9    -0.181279557202E+02   -0.14963E-03   -0.25371E-03   272   0.105E+00    0.167E-01
DAV:  10    -0.181277887862E+02    0.16693E-03   -0.43879E-04   208   0.491E-01    0.786E-02
DAV:  11    -0.181278241372E+02   -0.35351E-04   -0.73054E-05   144   0.179E-01
  37 F= -.18127824E+02 E0= -.18147010E+02  d E =-.481770E-01  mag=     0.0000
       N       E                     dE             d eps       ncg     rms          rms(c)
DAV:   1    -0.181175970723E+02    0.10192E-01   -0.59866E+00   240   0.985E+00    0.260E-01
DAV:   2    -0.181327087316E+02   -0.15112E-01   -0.15686E-01   352   0.420E+00    0.442E-01
DAV:   3    -0.181303297547E+02    0.23790E-02   -0.14039E-02   272   0.214E+00    0.189E-01
DAV:   4    -0.181305733643E+02   -0.24361E-03   -0.26806E-03   272   0.106E+00    0.171E-01
DAV:   5    -0.181303153858E+02    0.25798E-03   -0.74941E-04   208   0.531E-01    0.856E-02
DAV:   6    -0.181305205714E+02   -0.20519E-03   -0.10337E-03   336   0.434E-01    0.440E-02
DAV:   7    -0.181305109272E+02    0.96442E-05   -0.12209E-04   160   0.368E-01
  38 F= -.18130511E+02 E0= -.18149574E+02  d E =-.508638E-01  mag=     0.0000
       N       E                     dE             d eps       ncg     rms          rms(c)
DAV:   1    -0.181175465264E+02    0.12974E-01   -0.12962E+01   240   0.149E+01    0.450E-01
DAV:   2    -0.181496130357E+02   -0.32067E-01   -0.34821E-01   336   0.520E+00    0.440E-01
DAV:   3    -0.181475306672E+02    0.20824E-02   -0.15603E-02   336   0.310E+00    0.266E-01
DAV:   4    -0.181479382715E+02   -0.40760E-03   -0.90036E-03   304   0.177E+00    0.268E-01
DAV:   5    -0.181470480863E+02    0.89019E-03   -0.34899E-03   256   0.137E+00    0.121E-01
DAV:   6    -0.181472087261E+02   -0.16064E-03   -0.12454E-03   336   0.814E-01    0.425E-02
DAV:   7    -0.181472089862E+02   -0.26009E-06   -0.21041E-04   192   0.487E-01
  39 F= -.18147209E+02 E0= -.18165828E+02  d E =-.166981E-01  mag=     0.0000
       N       E                     dE             d eps       ncg     rms          rms(c)
DAV:   1    -0.181470780196E+02    0.13071E-03   -0.13859E-01   240   0.152E+00    0.470E-02
DAV:   2    -0.181473534120E+02   -0.27539E-03   -0.31031E-03   352   0.589E-01    0.360E-02
DAV:   3    -0.181473469008E+02    0.65112E-05   -0.14648E-04   144   0.436E-01
  40 F= -.18147347E+02 E0= -.18165885E+02  d E =-.168360E-01  mag=     0.0000
       N       E                     dE             d eps       ncg     rms          rms(c)
DAV:   1    -0.181460455307E+02    0.13079E-02   -0.18407E+00   224   0.505E+00    0.140E-01
DAV:   2    -0.181502895667E+02   -0.42440E-02   -0.44947E-02   336   0.173E+00    0.992E-02
DAV:   3    -0.181502142566E+02    0.75310E-04   -0.10426E-03   304   0.664E-01    0.729E-02
DAV:   4    -0.181501911822E+02    0.23074E-04   -0.30700E-04   160   0.419E-01
  41 F= -.18150191E+02 E0= -.18168697E+02  d E =-.284428E-02  mag=     0.0000
       N       E                     dE             d eps       ncg     rms          rms(c)
DAV:   1    -0.181498815042E+02    0.33275E-03   -0.24719E-01   240   0.193E+00    0.879E-02
DAV:   2    -0.181507351493E+02   -0.85365E-03   -0.84325E-03   352   0.102E+00    0.154E-01
DAV:   3    -0.181504385959E+02    0.29655E-03   -0.19161E-03   256   0.864E-01    0.629E-02
DAV:   4    -0.181505095837E+02   -0.70988E-04   -0.13083E-04   144   0.211E-01
  42 F= -.18150510E+02 E0= -.18169099E+02  d E =-.316268E-02  mag=     0.0000
       N       E                     dE             d eps       ncg     rms          rms(c)
DAV:   1    -0.181496801759E+02    0.75842E-03   -0.12740E+00   224   0.423E+00    0.120E-01
DAV:   2    -0.181524992719E+02   -0.28191E-02   -0.29575E-02   352   0.147E+00    0.101E-01
DAV:   3    -0.181524168945E+02    0.82377E-04   -0.10270E-03   256   0.902E-01    0.760E-02
DAV:   4    -0.181524157036E+02    0.11909E-05   -0.50155E-04   176   0.454E-01
  43 F= -.18152416E+02 E0= -.18170877E+02  d E =-.190612E-02  mag=     0.0000
       N       E                     dE             d eps       ncg     rms          rms(c)
DAV:   1    -0.181501244070E+02    0.22925E-02   -0.15509E+00   224   0.467E+00    0.148E-01
DAV:   2    -0.181535294697E+02   -0.34051E-02   -0.35308E-02   352   0.153E+00    0.123E-01
DAV:   3    -0.181534727026E+02    0.56767E-04   -0.17094E-03   304   0.887E-01    0.109E-01
DAV:   4    -0.181533453465E+02    0.12736E-03   -0.81275E-04   192   0.546E-01    0.757E-02
DAV:   5    -0.181533765523E+02   -0.31206E-04   -0.30091E-04   176   0.439E-01
  44 F= -.18153377E+02 E0= -.18171674E+02  d E =-.286697E-02  mag=     0.0000
       N       E                     dE             d eps       ncg     rms          rms(c)
DAV:   1    -0.181511833308E+02    0.21620E-02   -0.18682E+00   240   0.521E+00    0.118E-01
DAV:   2    -0.181552405446E+02   -0.40572E-02   -0.42944E-02   336   0.219E+00    0.139E-01
DAV:   3    -0.181549947593E+02    0.24579E-03   -0.22252E-03   288   0.127E+00    0.711E-02
DAV:   4    -0.181549952312E+02   -0.47185E-06   -0.42424E-04   176   0.330E-01
  45 F= -.18154995E+02 E0= -.18173152E+02  d E =-.161868E-02  mag=     0.0000
       N       E                     dE             d eps       ncg     rms          rms(c)
DAV:   1    -0.181511697593E+02    0.38250E-02   -0.25319E+00   240   0.606E+00    0.120E-01
DAV:   2    -0.181564980885E+02   -0.53283E-02   -0.55697E-02   336   0.216E+00    0.155E-01
DAV:   3    -0.181561787581E+02    0.31933E-03   -0.16466E-03   288   0.796E-01    0.927E-02
DAV:   4    -0.181561458279E+02    0.32930E-04   -0.24875E-04   160   0.264E-01
  46 F= -.18156146E+02 E0= -.18174156E+02  d E =-.276928E-02  mag=     0.0000
       N       E                     dE             d eps       ncg     rms          rms(c)
DAV:   1    -0.181557312910E+02    0.44747E-03   -0.75727E-01   240   0.356E+00    0.930E-02
DAV:   2    -0.181570469771E+02   -0.13157E-02   -0.14471E-02   352   0.121E+00    0.110E-01
DAV:   3    -0.181569390232E+02    0.10795E-03   -0.11312E-03   256   0.754E-01    0.679E-02
DAV:   4    -0.181569473134E+02   -0.82902E-05   -0.40303E-04   192   0.367E-01
  47 F= -.18156947E+02 E0= -.18175128E+02  d E =-.801485E-03  mag=     0.0000
       N       E                     dE             d eps       ncg     rms          rms(c)
DAV:   1    -0.181568548032E+02    0.84220E-04   -0.85925E-02   240   0.124E+00    0.362E-02
DAV:   2    -0.181570444304E+02   -0.18963E-03   -0.18595E-03   320   0.309E-01    0.340E-02
DAV:   3    -0.181570449294E+02   -0.49897E-06   -0.15982E-04   160   0.246E-01
  48 F= -.18157045E+02 E0= -.18175214E+02  d E =-.899101E-03  mag=     0.0000
