 vasp.6.1.2 22Jul20 (build Aug  2 2021 21:04:21) gamma-only                      
 executed on             LinuxPGI date 2021.12.12  11:13:24
 running on   16 total cores
 distrk:  each k-point on   16 cores,    1 groups
 distr:  one band on NCORE=   8 cores,    2 groups


--------------------------------------------------------------------------------------------------------


 INCAR:
 POTCAR:    PAW_PBE Au 04Oct2007                  
 POTCAR:    PAW_PBE Cu 22Jun2005                  
 -----------------------------------------------------------------------------
|                                                                             |
|           W    W    AA    RRRRR   N    N  II  N    N   GGGG   !!!           |
|           W    W   A  A   R    R  NN   N  II  NN   N  G    G  !!!           |
|           W    W  A    A  R    R  N N  N  II  N N  N  G       !!!           |
|           W WW W  AAAAAA  RRRRR   N  N N  II  N  N N  G  GGG   !            |
|           WW  WW  A    A  R   R   N   NN  II  N   NN  G    G                |
|           W    W  A    A  R    R  N    N  II  N    N   GGGG   !!!           |
|                                                                             |
|     You use a magnetic or noncollinear calculation, but did not specify     |
|     the initial magnetic moment with the MAGMOM tag. Note that a            |
|     default of 1 will be used for all atoms. This ferromagnetic setup       |
|     may break the symmetry of the crystal, in particular it may rule        |
|     out finding an antiferromagnetic solution. Thence, we recommend         |
|     setting the initial magnetic moment manually or verifying carefully     |
|     that this magnetic setup is desired.                                    |
|                                                                             |
 -----------------------------------------------------------------------------

 POTCAR:    PAW_PBE Au 04Oct2007                  
   SHA256 =  d0044ae04e2bdce24051b198fc5c053d722a5bc6fe3c3b100514a13fc5d2db88 Au/POTCAR             
   COPYR  = (c) Copyright 04Oct2007 Georg Kresse                                                    
   COPYR  = This file is part of the software VASP. Any use, copying, and all other rights are regul
   COPYR  = If you do not have a valid VASP license, you may not use, copy or distribute this file. 
   VRHFIN =Au: s1d10                                                                                
   LEXCH  = PE                                                                                      
   EATOM  =   926.0867 eV,   68.0654 Ry                                                             
                                                                                                    
   TITEL  = PAW_PBE Au 04Oct2007                                                                    
   LULTRA =        F    use ultrasoft PP ?                                                          
   IUNSCR =        1    unscreen: 0-lin 1-nonlin 2-no                                               
   RPACOR =    2.330    partial core radius                                                         
   POMASS =  196.966; ZVAL   =   11.000    mass and valenz                                          
   RCORE  =    2.500    outmost cutoff radius                                                       
   RWIGS  =    2.840; RWIGS  =    1.503    wigner-seitz radius (au A)                               
   ENMAX  =  229.943; ENMIN  =  172.457 eV                                                          
   ICORE  =        3    local potential                                                             
   LCOR   =        T    correct aug charges                                                         
   LPAW   =        T    paw PP                                                                      
   EAUG   =  356.670                                                                                
   DEXC   =    0.000                                                                                
   RMAX   =    2.562    core radius for proj-oper                                                   
   RAUG   =    1.300    factor for augmentation sphere                                              
   RDEP   =    2.598    radius for radial grids                                                     
   RDEPT  =    2.193    core radius for aug-charge                                                  
                                                                                                    
   Atomic configuration                                                                             
   16 entries                                                                                       
     n  l   j            E        occ.                                                              
     1  0  0.50    -80748.5001   2.0000                                                             
     2  0  0.50    -14244.7466   2.0000                                                             
     2  1  1.50    -12310.9591   6.0000                                                             
     3  0  0.50     -3362.1768   2.0000                                                             
     3  1  1.50     -2801.5463   6.0000                                                             
     3  2  2.50     -2203.8206  10.0000                                                             
     4  0  0.50      -729.8168   2.0000                                                             
     4  1  1.50      -546.0527   6.0000                                                             
     4  2  2.50      -325.7302  10.0000                                                             
     4  3  3.50       -81.1472  14.0000                                                             
     5  0  0.50      -108.3201   2.0000                                                             
     5  1  1.50       -59.7479   6.0000                                                             
     5  2  2.50        -6.8783  10.0000                                                             
     6  0  0.50        -5.7602   1.0000                                                             
     6  1  1.50        -6.8029   0.0000                                                             
     5  3  2.50        -1.3606   0.0000                                                             
   Description                                                                                      
     l       E           TYP  RCUT    TYP  RCUT                                                     
     2     -6.8782861     23  2.500                                                                 
     2     -8.2388687     23  2.500                                                                 
     0     -5.7601759     23  2.500                                                                 
     0     -0.8493231     23  2.500                                                                 
     1     -2.7211652     23  2.500                                                                 
     1     27.2116520     23  2.500                                                                 
     3     -1.3605826     23  2.500                                                                 
  local pseudopotential read in
  partial core-charges read in
  partial kinetic energy density read in
  atomic valenz-charges read in
  non local Contribution for L=            2  read in
    real space projection operators read in
  non local Contribution for L=            2  read in
    real space projection operators read in
  non local Contribution for L=            0  read in
    real space projection operators read in
  non local Contribution for L=            0  read in
    real space projection operators read in
  non local Contribution for L=            1  read in
    real space projection operators read in
  non local Contribution for L=            1  read in
    real space projection operators read in
    PAW grid and wavefunctions read in
 
   number of l-projection  operators is LMAX  =            6
   number of lm-projection operators is LMMAX =           18
 
 POTCAR:    PAW_PBE Cu 22Jun2005                  
   SHA256 =  0e71e558f37a4e8407882b4609ceaae59938afaad9ced71dfe8490308a0ab630 Cu/POTCAR             
   COPYR  = (c) Copyright 22Jun2005 Georg Kresse                                                    
   COPYR  = This file is part of the software VASP. Any use, copying, and all other rights are regul
   COPYR  = If you do not have a valid VASP license, you may not use, copy or distribute this file. 
   VRHFIN =Cu: d10 p1                                                                               
   LEXCH  = PE                                                                                      
   EATOM  =  1390.9808 eV,  102.2342 Ry                                                             
                                                                                                    
   TITEL  = PAW_PBE Cu 22Jun2005                                                                    
   LULTRA =        F    use ultrasoft PP ?                                                          
   IUNSCR =        1    unscreen: 0-lin 1-nonlin 2-no                                               
   RPACOR =    2.000    partial core radius                                                         
   POMASS =   63.546; ZVAL   =   11.000    mass and valenz                                          
   RCORE  =    2.300    outmost cutoff radius                                                       
   RWIGS  =    2.200; RWIGS  =    1.164    wigner-seitz radius (au A)                               
   ENMAX  =  295.446; ENMIN  =  221.585 eV                                                          
   ICORE  =        3    local potential                                                             
   LCOR   =        T    correct aug charges                                                         
   LPAW   =        T    paw PP                                                                      
   EAUG   =  586.980                                                                                
   DEXC   =    0.000                                                                                
   RMAX   =    2.344    core radius for proj-oper                                                   
   RAUG   =    1.300    factor for augmentation sphere                                              
   RDEP   =    2.302    radius for radial grids                                                     
   RDEPT  =    1.771    core radius for aug-charge                                                  
                                                                                                    
   Atomic configuration                                                                             
    9 entries                                                                                       
     n  l   j            E        occ.                                                              
     1  0  0.50     -8850.2468   2.0000                                                             
     2  0  0.50     -1062.3498   2.0000                                                             
     2  1  1.50      -916.8226   6.0000                                                             
     3  0  0.50      -114.6929   2.0000                                                             
     3  1  1.50       -72.1325   6.0000                                                             
     3  2  2.50        -5.0394  10.0000                                                             
     4  0  0.50        -4.6097   1.0000                                                             
     4  1  0.50        -4.0817   0.0000                                                             
     4  3  2.50        -1.3606   0.0000                                                             
   Description                                                                                      
     l       E           TYP  RCUT    TYP  RCUT                                                     
     2     -5.0393973     23  2.200                                                                 
     2     10.8846608     23  2.200                                                                 
     0     -4.6097109     23  2.200                                                                 
     0      8.2520465     23  2.200                                                                 
     1     -2.7211652     23  2.200                                                                 
     1     21.7055443     23  2.200                                                                 
     3      2.7211652     23  2.300                                                                 
  local pseudopotential read in
  partial core-charges read in
  partial kinetic energy density read in
  atomic valenz-charges read in
  non local Contribution for L=            2  read in
    real space projection operators read in
  non local Contribution for L=            2  read in
    real space projection operators read in
  non local Contribution for L=            0  read in
    real space projection operators read in
  non local Contribution for L=            0  read in
    real space projection operators read in
  non local Contribution for L=            1  read in
    real space projection operators read in
  non local Contribution for L=            1  read in
    real space projection operators read in
    PAW grid and wavefunctions read in
 
   number of l-projection  operators is LMAX  =            6
   number of lm-projection operators is LMMAX =           18
 
  PAW_PBE Au 04Oct2007                  :
 energy of atom  1       EATOM= -926.0867
 kinetic energy error for atom=    0.0062 (will be added to EATOM!!)
  PAW_PBE Cu 22Jun2005                  :
 energy of atom  2       EATOM=-1390.9808
 kinetic energy error for atom=    0.0232 (will be added to EATOM!!)
 
 
 POSCAR: Au Cu
  positions in cartesian coordinates
  No initial velocities read in
 exchange correlation table for  LEXCH =        8
   RHO(1)=    0.500       N(1)  =     2000
   RHO(2)=  100.500       N(2)  =     4000
 


--------------------------------------------------------------------------------------------------------


 ion  position               nearest neighbor table
   1  0.439  0.532  0.467-   8 2.54   5 2.54   6 2.57   3 2.57   7 2.58   2 3.60
   2  0.554  0.476  0.370-   5 2.52   8 2.52   3 2.53   6 2.53   1 3.60
   3  0.437  0.464  0.378-   2 2.53   8 2.55   6 2.57   1 2.57
   4  0.518  0.551  0.627-   7 2.26
   5  0.556  0.542  0.457-   8 2.51   2 2.52   6 2.52   7 2.53   1 2.54
   6  0.508  0.431  0.458-   5 2.52   7 2.53   2 2.53   3 2.57   1 2.57
   7  0.512  0.497  0.546-   4 2.26   5 2.53   6 2.53   1 2.58
   8  0.487  0.576  0.379-   5 2.51   2 2.52   1 2.54   3 2.55
 

IMPORTANT INFORMATION: All symmetrisations will be switched off!
NOSYMM: (Re-)initialisation of all symmetry stuff for point group C_1.


----------------------------------------------------------------------------------------

                                     Primitive cell                                     

  volume of cell :   10718.4075

  direct lattice vectors                    reciprocal lattice vectors
    21.458823086  0.000000000  0.000000000     0.046600878  0.000000000  0.000000000
     0.000000000 20.591698169  0.000000000     0.000000000  0.048563260  0.000000000
     0.000000000  0.000000000 24.256727001     0.000000000  0.000000000  0.041225677

  length of vectors
    21.458823086 20.591698169 24.256727001     0.046600878  0.048563260  0.041225677

  position of ions in fractional coordinates (direct lattice)
     0.438689333  0.531858541  0.466715286
     0.554023476  0.476131760  0.370071667
     0.436912031  0.463846434  0.377821310
     0.518281685  0.550529903  0.626835645
     0.556304498  0.542364853  0.457332030
     0.507955645  0.430740515  0.458147490
     0.511595904  0.497108896  0.545723989
     0.487312161  0.576242887  0.378905366

  ion indices of the primitive-cell ions
   primitive index   ion index
                 1           1
                 2           2
                 3           3
                 4           4
                 5           5
                 6           6
                 7           7
                 8           8

----------------------------------------------------------------------------------------

 
 
 KPOINTS: KPOINTS created by Atomic Simulation Env

Automatic generation of k-mesh.
Space group operators:
 irot       det(A)        alpha          n_x          n_y          n_z        tau_x        tau_y        tau_z
    1     1.000000     0.000000     1.000000     0.000000     0.000000     0.000000     0.000000     0.000000
 
 Subroutine IBZKPT returns following result:
 ===========================================
 
 Found      1 irreducible k-points:
 
 Following reciprocal coordinates:
            Coordinates               Weight
  0.000000  0.000000  0.000000      1.000000
 
 Following cartesian coordinates:
            Coordinates               Weight
  0.000000  0.000000  0.000000      1.000000
 


--------------------------------------------------------------------------------------------------------




 Dimension of arrays:
   k-points           NKPTS =      1   k-points in BZ     NKDIM =      1   number of bands    NBANDS=     56
   number of dos      NEDOS =    301   number of ions     NIONS =      8
   non local maximal  LDIM  =      6   non local SUM 2l+1 LMDIM =     18
   total plane-waves  NPLWV = ******
   max r-space proj   IRMAX =      1   max aug-charges    IRDMAX=   8184
   dimension x,y,z NGX =   108 NGY =  108 NGZ =  120
   dimension x,y,z NGXF=   216 NGYF=  216 NGZF=  240
   support grid    NGXF=   216 NGYF=  216 NGZF=  240
   ions per type =               4   4
   NGX,Y,Z   is equivalent  to a cutoff of   8.37,  8.72,  8.22 a.u.
   NGXF,Y,Z  is equivalent  to a cutoff of  16.73, 17.44, 16.45 a.u.

 SYSTEM =  unknown system                          
 POSCAR =  Au Cu                                   

 Startparameter for this run:
   NWRITE =      2    write-flag & timer
   PREC   = normal    normal or accurate (medium, high low for compatibility)
   ISTART =      0    job   : 0-new  1-cont  2-samecut
   ICHARG =      2    charge: 1-file 2-atom 10-const
   ISPIN  =      2    spin polarized calculation?
   LNONCOLLINEAR =      F non collinear calculations
   LSORBIT =      F    spin-orbit coupling
   INIWAV =      1    electr: 0-lowe 1-rand  2-diag
   LASPH  =      F    aspherical Exc in radial PAW
   METAGGA=      F    non-selfconsistent MetaGGA calc.

 Electronic Relaxation 1
   ENCUT  =  400.0 eV  29.40 Ry    5.42 a.u.  34.99 33.58 39.56*2*pi/ulx,y,z
   ENINI  =  400.0     initial cutoff
   ENAUG  =  587.0 eV  augmentation charge cutoff
   NELM   =     60;   NELMIN=  2; NELMDL=  0     # of ELM steps 
   EDIFF  = 0.1E-03   stopping-criterion for ELM
   LREAL  =      F    real-space projection
   NLSPLINE    = F    spline interpolate recip. space projectors
   LCOMPAT=      F    compatible to vasp.4.4
   GGA_COMPAT  = T    GGA compatible to vasp.4.4-vasp.4.6
   LMAXPAW     = -100 max onsite density
   LMAXMIX     =    2 max onsite mixed and CHGCAR
   VOSKOWN=      0    Vosko Wilk Nusair interpolation
   ROPT   =    0.00000   0.00000
 Ionic relaxation
   EDIFFG = 0.1E-02   stopping-criterion for IOM
   NSW    =   1000    number of steps for IOM
   NBLOCK =      1;   KBLOCK =   1000    inner block; outer block 
   IBRION =      2    ionic relax: 0-MD 1-quasi-New 2-CG
   NFREE  =      1    steps in history (QN), initial steepest desc. (CG)
   ISIF   =      0    stress and relaxation
   IWAVPR =     11    prediction:  0-non 1-charg 2-wave 3-comb
   ISYM   =      0    0-nonsym 1-usesym 2-fastsym
   LCORR  =      T    Harris-Foulkes like correction to forces

   POTIM  = 0.5000    time-step for ionic-motion
   TEIN   =    0.0    initial temperature
   TEBEG  =    0.0;   TEEND  =   0.0 temperature during run
   SMASS  =  -3.00    Nose mass-parameter (am)
   estimated Nose-frequenzy (Omega)   =  0.10E-29 period in steps = 0.13E+47 mass=  -0.105E-25a.u.
   SCALEE = 1.0000    scale energy and forces
   NPACO  =    256;   APACO  = 16.0  distance and # of slots for P.C.
   PSTRESS=    0.0 pullay stress

  Mass of Ions in am
   POMASS = 196.97 63.55
  Ionic Valenz
   ZVAL   =  11.00 11.00
  Atomic Wigner-Seitz radii
   RWIGS  =  -1.00 -1.00
  virtual crystal weights 
   VCA    =   1.00  1.00
   NELECT =      88.0000    total number of electrons
   NUPDOWN=      -1.0000    fix difference up-down

 DOS related values:
   EMIN   =  10.00;   EMAX   =-10.00  energy-range for DOS
   EFERMI =   0.00
   ISMEAR =     1;   SIGMA  =   0.20  broadening in eV -4-tet -1-fermi 0-gaus

 Electronic relaxation 2 (details)
   IALGO  =     38    algorithm
   LDIAG  =      T    sub-space diagonalisation (order eigenvalues)
   LSUBROT=      F    optimize rotation matrix (better conditioning)
   TURBO    =      0    0=normal 1=particle mesh
   IRESTART =      0    0=no restart 2=restart with 2 vectors
   NREBOOT  =      0    no. of reboots
   NMIN     =      0    reboot dimension
   EREF     =   0.00    reference energy to select bands
   IMIX   =      4    mixing-type and parameters
     AMIX     =   0.40;   BMIX     =  1.00
     AMIX_MAG =   1.60;   BMIX_MAG =  1.00
     AMIN     =   0.10
     WC   =   100.;   INIMIX=   1;  MIXPRE=   1;  MAXMIX= -45

 Intra band minimization:
   WEIMIN = 0.0010     energy-eigenvalue tresh-hold
   EBREAK =  0.45E-06  absolut break condition
   DEPER  =   0.30     relativ break condition  

   TIME   =   0.40     timestep for ELM

  volume/ion in A,a.u.               =    1339.80      9041.42
  Fermi-wavevector in a.u.,A,eV,Ry     =   0.330262  0.624105  1.484031  0.109073
  Thomas-Fermi vector in A             =   1.225416
 
 Write flags
   LWAVE        =      F    write WAVECAR
   LDOWNSAMPLE  =      F    k-point downsampling of WAVECAR
   LCHARG       =      F    write CHGCAR
   LVTOT        =      F    write LOCPOT, total local potential
   LVHAR        =      F    write LOCPOT, Hartree potential only
   LELF         =      F    write electronic localiz. function (ELF)
   LORBIT       =      0    0 simple, 1 ext, 2 COOP (PROOUT), +10 PAW based schemes


 Dipole corrections
   LMONO  =      F    monopole corrections only (constant potential shift)
   LDIPOL =      F    correct potential (dipole corrections)
   IDIPOL =      0    1-x, 2-y, 3-z, 4-all directions 
   EPSILON=  1.0000000 bulk dielectric constant

 Exchange correlation treatment:
   GGA     =    PE    GGA type
   LEXCH   =     8    internal setting for exchange type
   VOSKOWN=      0    Vosko Wilk Nusair interpolation
   LHFCALC =     F    Hartree Fock is set to
   LHFONE  =     F    Hartree Fock one center treatment
   AEXX    =    0.0000 exact exchange contribution

 Linear response parameters
   LEPSILON=     F    determine dielectric tensor
   LRPA    =     F    only Hartree local field effects (RPA)
   LNABLA  =     F    use nabla operator in PAW spheres
   LVEL    =     F    velocity operator in full k-point grid
   LINTERFAST=   F  fast interpolation
   KINTER  =     0    interpolate to denser k-point grid
   CSHIFT  =0.1000    complex shift for real part using Kramers Kronig
   OMEGAMAX=  -1.0    maximum frequency
   DEG_THRESHOLD= 0.2000000E-02 threshold for treating states as degnerate
   RTIME   =   -0.100 relaxation time in fs
  (WPLASMAI=    0.000 imaginary part of plasma frequency in eV, 0.658/RTIME)
   DFIELD  = 0.0000000 0.0000000 0.0000000 field for delta impulse in time
 
 Orbital magnetization related:
   ORBITALMAG=     F  switch on orbital magnetization
   LCHIMAG   =     F  perturbation theory with respect to B field
   DQ        =  0.001000  dq finite difference perturbation B field
   LLRAUG    =     F  two centre corrections for induced B field



--------------------------------------------------------------------------------------------------------


 conjugate gradient relaxation of ions
 charge density and potential will be updated during run
 spin polarized calculation
 Variant of blocked Davidson
 Davidson routine will perform the subspace rotation
 perform sub-space diagonalisation
    after iterative eigenvector-optimisation
 modified Broyden-mixing scheme, WC =      100.0
 initial mixing is a Kerker type mixing with AMIX =  0.4000 and BMIX =      1.0000
 Hartree-type preconditioning will be used
 using additional bands            12
 reciprocal scheme for non local part
 use partial core corrections
 calculate Harris-corrections to forces 
   (improved forces if not selfconsistent)
 use gradient corrections 
 use of overlap-Matrix (Vanderbilt PP)
 Methfessel and Paxton  Order N= 1 SIGMA  =   0.20


--------------------------------------------------------------------------------------------------------


  energy-cutoff  :      400.00
  volume of cell :    10718.41
      direct lattice vectors                 reciprocal lattice vectors
    21.458823086  0.000000000  0.000000000     0.046600878  0.000000000  0.000000000
     0.000000000 20.591698169  0.000000000     0.000000000  0.048563260  0.000000000
     0.000000000  0.000000000 24.256727001     0.000000000  0.000000000  0.041225677

  length of vectors
    21.458823086 20.591698169 24.256727001     0.046600878  0.048563260  0.041225677


 
 k-points in units of 2pi/SCALE and weight: KPOINTS created by Atomic Simulation Env
   0.00000000  0.00000000  0.00000000       1.000
 
 k-points in reciprocal lattice and weights: KPOINTS created by Atomic Simulation Env
   0.00000000  0.00000000  0.00000000       1.000
 
 position of ions in fractional coordinates (direct lattice) 
   0.43868933  0.53185854  0.46671529
   0.55402348  0.47613176  0.37007167
   0.43691203  0.46384643  0.37782131
   0.51828169  0.55052990  0.62683564
   0.55630450  0.54236485  0.45733203
   0.50795564  0.43074052  0.45814749
   0.51159590  0.49710890  0.54572399
   0.48731216  0.57624289  0.37890537
 
 position of ions in cartesian coordinates  (Angst):
   9.41375678 10.95187054 11.32098527
  11.88869175  9.80436150  8.97672739
   9.37561799  9.55138576  9.16470838
  11.12171499 11.33634559 15.20498111
  11.93763979 11.16821334 11.09337819
  10.90013032  8.86967868 11.11315860
  10.97824600 10.23631633 13.23747781
  10.45714546 11.86581961  9.19100403
 


--------------------------------------------------------------------------------------------------------


 use parallel FFT for orbitals z direction half grid
 k-point   1 :   0.0000 0.0000 0.0000  plane waves:   97371

 maximum and minimum number of plane-waves per node :     12178    12168

 maximum number of plane-waves:     97371
 maximum index in each direction: 
   IXMAX=   34   IYMAX=   33   IZMAX=   39
   IXMIN=  -34   IYMIN=  -33   IZMIN=    0


 parallel 3D FFT for wavefunctions:
    minimum data exchange during FFTs selected (reduces bandwidth)
 parallel 3D FFT for charge:
    minimum data exchange during FFTs selected (reduces bandwidth)


 total amount of memory used by VASP MPI-rank0   147179. kBytes
=======================================================================

   base      :      30000. kBytes
   nonl-proj :       5062. kBytes
   fftplans  :      28179. kBytes
   grid      :      73011. kBytes
   one-center:         15. kBytes
   wavefun   :      10912. kBytes
 
     INWAV:  cpu time    0.0000: real time    0.0000
 Broyden mixing: mesh for mixing (old mesh)
   NGX = 69   NGY = 67   NGZ = 79
  (NGX  =216   NGY  =216   NGZ  =240)
  gives a total of 365217 points

 initial charge density was supplied:
 charge density of overlapping atoms calculated
 number of electron      88.0000000 magnetization       8.0000000
 keeping initial charge density in first step


--------------------------------------------------------------------------------------------------------


 Maximum index for augmentation-charges           542 (set IRDMAX)


--------------------------------------------------------------------------------------------------------


 First call to EWALD:  gamma=   0.080
 Maximum number of real-space cells 3x 3x 3
 Maximum number of reciprocal cells 3x 3x 3

    FEWALD:  cpu time    0.0006: real time    0.0006


--------------------------------------- Iteration      1(   1)  ---------------------------------------


    POTLOK:  cpu time    2.1354: real time    2.1495
    SETDIJ:  cpu time    0.0182: real time    0.0182
     EDDAV:  cpu time    5.5705: real time    5.5881
       DOS:  cpu time    0.0008: real time    0.0008
    --------------------------------------------
      LOOP:  cpu time    7.7248: real time    7.7566

 eigenvalue-minimisations  :   224
 total energy-change (2. order) : 0.6703869E+03  (-0.1373194E+04)
 number of electron      88.0000000 magnetization       8.0000000
 augmentation part       88.0000000 magnetization       8.0000000

 Free energy of the ion-electron system (eV)
  ---------------------------------------------------
  alpha Z        PSCENC =         5.66091286
  Ewald energy   TEWEN  =      8695.50706111
  -Hartree energ DENC   =    -17304.55417945
  -exchange      EXHF   =         0.00000000
  -V(xc)+E(xc)   XCENC  =       238.29791412
  PAW double counting   =      8408.47588452    -8739.43322972
  entropy T*S    EENTRO =         0.05446540
  eigenvalues    EBANDS =        98.22543355
  atomic energy  EATOM  =      9268.15263587
  Solvation  Ediel_sol  =         0.00000000
  ---------------------------------------------------
  free energy    TOTEN  =       670.38689827 eV

  energy without entropy =      670.33243287  energy(sigma->0) =      670.36874313


--------------------------------------------------------------------------------------------------------




--------------------------------------- Iteration      1(   2)  ---------------------------------------


     EDDAV:  cpu time    7.6008: real time    7.6210
       DOS:  cpu time    0.0005: real time    0.0005
    --------------------------------------------
      LOOP:  cpu time    7.6013: real time    7.6215

 eigenvalue-minimisations  :   336
 total energy-change (2. order) :-0.3464177E+03  (-0.3140168E+03)
 number of electron      88.0000000 magnetization       8.0000000
 augmentation part       88.0000000 magnetization       8.0000000

 Free energy of the ion-electron system (eV)
  ---------------------------------------------------
  alpha Z        PSCENC =         5.66091286
  Ewald energy   TEWEN  =      8695.50706111
  -Hartree energ DENC   =    -17304.55417945
  -exchange      EXHF   =         0.00000000
  -V(xc)+E(xc)   XCENC  =       238.29791412
  PAW double counting   =      8408.47588452    -8739.43322972
  entropy T*S    EENTRO =        -0.06365526
  eigenvalues    EBANDS =      -248.07419528
  atomic energy  EATOM  =      9268.15263587
  Solvation  Ediel_sol  =         0.00000000
  ---------------------------------------------------
  free energy    TOTEN  =       323.96914877 eV

  energy without entropy =      324.03280403  energy(sigma->0) =      323.99036719


--------------------------------------------------------------------------------------------------------




--------------------------------------- Iteration      1(   3)  ---------------------------------------


     EDDAV:  cpu time    8.2926: real time    8.3099
       DOS:  cpu time    0.0006: real time    0.0006
    --------------------------------------------
      LOOP:  cpu time    8.2932: real time    8.3105

 eigenvalue-minimisations  :   376
 total energy-change (2. order) :-0.2121096E+03  (-0.2013786E+03)
 number of electron      88.0000000 magnetization       8.0000000
 augmentation part       88.0000000 magnetization       8.0000000

 Free energy of the ion-electron system (eV)
  ---------------------------------------------------
  alpha Z        PSCENC =         5.66091286
  Ewald energy   TEWEN  =      8695.50706111
  -Hartree energ DENC   =    -17304.55417945
  -exchange      EXHF   =         0.00000000
  -V(xc)+E(xc)   XCENC  =       238.29791412
  PAW double counting   =      8408.47588452    -8739.43322972
  entropy T*S    EENTRO =        -0.01215159
  eigenvalues    EBANDS =      -460.23529709
  atomic energy  EATOM  =      9268.15263587
  Solvation  Ediel_sol  =         0.00000000
  ---------------------------------------------------
  free energy    TOTEN  =       111.85955063 eV

  energy without entropy =      111.87170223  energy(sigma->0) =      111.86360117


--------------------------------------------------------------------------------------------------------




--------------------------------------- Iteration      1(   4)  ---------------------------------------


     EDDAV:  cpu time    9.1389: real time    9.1754
       DOS:  cpu time    0.0005: real time    0.0005
    --------------------------------------------
      LOOP:  cpu time    9.1394: real time    9.1759

 eigenvalue-minimisations  :   424
 total energy-change (2. order) :-0.1055450E+03  (-0.9867977E+02)
 number of electron      88.0000000 magnetization       8.0000000
 augmentation part       88.0000000 magnetization       8.0000000

 Free energy of the ion-electron system (eV)
  ---------------------------------------------------
  alpha Z        PSCENC =         5.66091286
  Ewald energy   TEWEN  =      8695.50706111
  -Hartree energ DENC   =    -17304.55417945
  -exchange      EXHF   =         0.00000000
  -V(xc)+E(xc)   XCENC  =       238.29791412
  PAW double counting   =      8408.47588452    -8739.43322972
  entropy T*S    EENTRO =        -0.02204356
  eigenvalues    EBANDS =      -565.77041154
  atomic energy  EATOM  =      9268.15263587
  Solvation  Ediel_sol  =         0.00000000
  ---------------------------------------------------
  free energy    TOTEN  =         6.31454422 eV

  energy without entropy =        6.33658778  energy(sigma->0) =        6.32189207


--------------------------------------------------------------------------------------------------------




--------------------------------------- Iteration      1(   5)  ---------------------------------------


     EDDAV:  cpu time    7.7288: real time    7.7549
       DOS:  cpu time    0.0005: real time    0.0005
    CHARGE:  cpu time    0.7367: real time    0.7385
    MIXING:  cpu time    0.0452: real time    0.0453
    --------------------------------------------
      LOOP:  cpu time    8.5112: real time    8.5393

 eigenvalue-minimisations  :   344
 total energy-change (2. order) :-0.2321597E+02  (-0.2050789E+02)
 number of electron      88.0000114 magnetization       7.3972375
 augmentation part       42.2242253 magnetization       6.6907838

 Broyden mixing:
  rms(total) = 0.19956E+01    rms(broyden)= 0.19953E+01
  rms(prec ) = 0.20443E+01
  weight for this iteration     100.00

 Free energy of the ion-electron system (eV)
  ---------------------------------------------------
  alpha Z        PSCENC =         5.66091286
  Ewald energy   TEWEN  =      8695.50706111
  -Hartree energ DENC   =    -17304.55417945
  -exchange      EXHF   =         0.00000000
  -V(xc)+E(xc)   XCENC  =       238.29791412
  PAW double counting   =      8408.47588452    -8739.43322972
  entropy T*S    EENTRO =        -0.04257773
  eigenvalues    EBANDS =      -588.96584893
  atomic energy  EATOM  =      9268.15263587
  Solvation  Ediel_sol  =         0.00000000
  ---------------------------------------------------
  free energy    TOTEN  =       -16.90142734 eV

  energy without entropy =      -16.85884961  energy(sigma->0) =      -16.88723476


--------------------------------------------------------------------------------------------------------




--------------------------------------- Iteration      1(   6)  ---------------------------------------


    POTLOK:  cpu time    2.1484: real time    2.1596
    SETDIJ:  cpu time    0.0193: real time    0.0194
     EDDAV:  cpu time    7.2936: real time    7.3144
       DOS:  cpu time    0.0006: real time    0.0006
    CHARGE:  cpu time    0.6675: real time    0.6687
    MIXING:  cpu time    0.0481: real time    0.0482
    --------------------------------------------
      LOOP:  cpu time   10.1774: real time   10.2109

 eigenvalue-minimisations  :   320
 total energy-change (2. order) : 0.5695349E+01  (-0.7011563E+01)
 number of electron      88.0000132 magnetization       7.0273162
 augmentation part       45.6992290 magnetization       4.8152344

 Broyden mixing:
  rms(total) = 0.13178E+01    rms(broyden)= 0.13174E+01
  rms(prec ) = 0.13759E+01
  weight for this iteration     100.00

 eigenvalues of (default mixing * dielectric matrix)
  average eigenvalue GAMMA=   0.7615
  0.7615

 Free energy of the ion-electron system (eV)
  ---------------------------------------------------
  alpha Z        PSCENC =         5.66091286
  Ewald energy   TEWEN  =      8695.50706111
  -Hartree energ DENC   =    -17185.43480554
  -exchange      EXHF   =         0.00000000
  -V(xc)+E(xc)   XCENC  =       238.75628001
  PAW double counting   =      8607.83719114    -8926.38275875
  entropy T*S    EENTRO =        -0.00451173
  eigenvalues    EBANDS =      -715.29808342
  atomic energy  EATOM  =      9268.15263587
  Solvation  Ediel_sol  =         0.00000000
  ---------------------------------------------------
  free energy    TOTEN  =       -11.20607844 eV

  energy without entropy =      -11.20156671  energy(sigma->0) =      -11.20457453


--------------------------------------------------------------------------------------------------------




--------------------------------------- Iteration      1(   7)  ---------------------------------------


    POTLOK:  cpu time    2.1601: real time    2.1734
    SETDIJ:  cpu time    0.0186: real time    0.0186
     EDDAV:  cpu time    6.4113: real time    6.4290
       DOS:  cpu time    0.0013: real time    0.0013
    CHARGE:  cpu time    0.7319: real time    0.7333
    MIXING:  cpu time    0.0516: real time    0.0516
    --------------------------------------------
      LOOP:  cpu time    9.3748: real time    9.4072

 eigenvalue-minimisations  :   272
 total energy-change (2. order) : 0.4904314E+01  (-0.1968524E+01)
 number of electron      88.0000124 magnetization       6.3221783
 augmentation part       44.3180037 magnetization       4.0441881

 Broyden mixing:
  rms(total) = 0.67613E+00    rms(broyden)= 0.67600E+00
  rms(prec ) = 0.68203E+00
  weight for this iteration     100.00

 eigenvalues of (default mixing * dielectric matrix)
  average eigenvalue GAMMA=   0.9109
  1.2379  0.5839

 Free energy of the ion-electron system (eV)
  ---------------------------------------------------
  alpha Z        PSCENC =         5.66091286
  Ewald energy   TEWEN  =      8695.50706111
  -Hartree energ DENC   =    -17254.21103199
  -exchange      EXHF   =         0.00000000
  -V(xc)+E(xc)   XCENC  =       243.18879449
  PAW double counting   =      8788.33164439    -9130.49506344
  entropy T*S    EENTRO =        -0.01173392
  eigenvalues    EBANDS =      -622.42498358
  atomic energy  EATOM  =      9268.15263587
  Solvation  Ediel_sol  =         0.00000000
  ---------------------------------------------------
  free energy    TOTEN  =        -6.30176422 eV

  energy without entropy =       -6.29003030  energy(sigma->0) =       -6.29785291


--------------------------------------------------------------------------------------------------------




--------------------------------------- Iteration      1(   8)  ---------------------------------------


    POTLOK:  cpu time    2.1624: real time    2.1747
    SETDIJ:  cpu time    0.0202: real time    0.0202
     EDDAV:  cpu time    7.8027: real time    7.8228
       DOS:  cpu time    0.0011: real time    0.0011
    CHARGE:  cpu time    0.6762: real time    0.6854
    MIXING:  cpu time    0.0551: real time    0.0553
    --------------------------------------------
      LOOP:  cpu time   10.7176: real time   10.7595

 eigenvalue-minimisations  :   352
 total energy-change (2. order) :-0.4350156E+00  (-0.4992806E+00)
 number of electron      88.0000120 magnetization       5.8089586
 augmentation part       43.8698447 magnetization       3.5409541

 Broyden mixing:
  rms(total) = 0.48985E+00    rms(broyden)= 0.48978E+00
  rms(prec ) = 0.51035E+00
  weight for this iteration     100.00

 eigenvalues of (default mixing * dielectric matrix)
  average eigenvalue GAMMA=   1.0094
  0.7427  0.7427  1.5428

 Free energy of the ion-electron system (eV)
  ---------------------------------------------------
  alpha Z        PSCENC =         5.66091286
  Ewald energy   TEWEN  =      8695.50706111
  -Hartree energ DENC   =    -17275.97167321
  -exchange      EXHF   =         0.00000000
  -V(xc)+E(xc)   XCENC  =       243.52623743
  PAW double counting   =      9048.85318265    -9396.77630404
  entropy T*S    EENTRO =        -0.01477910
  eigenvalues    EBANDS =      -595.67405339
  atomic energy  EATOM  =      9268.15263587
  Solvation  Ediel_sol  =         0.00000000
  ---------------------------------------------------
  free energy    TOTEN  =        -6.73677981 eV

  energy without entropy =       -6.72200071  energy(sigma->0) =       -6.73185344


--------------------------------------------------------------------------------------------------------




--------------------------------------- Iteration      1(   9)  ---------------------------------------


    POTLOK:  cpu time    2.1543: real time    2.1740
    SETDIJ:  cpu time    0.0216: real time    0.0216
     EDDAV:  cpu time    7.6804: real time    7.7028
       DOS:  cpu time    0.0009: real time    0.0009
    CHARGE:  cpu time    0.7342: real time    0.7355
    MIXING:  cpu time    0.0558: real time    0.0559
    --------------------------------------------
      LOOP:  cpu time   10.6472: real time   10.6907

 eigenvalue-minimisations  :   344
 total energy-change (2. order) :-0.2135641E+01  (-0.2947247E+00)
 number of electron      88.0000124 magnetization       5.4709883
 augmentation part       44.3884142 magnetization       3.1885659

 Broyden mixing:
  rms(total) = 0.27500E+00    rms(broyden)= 0.27476E+00
  rms(prec ) = 0.28791E+00
  weight for this iteration     100.00

 eigenvalues of (default mixing * dielectric matrix)
  average eigenvalue GAMMA=   0.9754
  1.7183  1.0113  0.5860  0.5860

 Free energy of the ion-electron system (eV)
  ---------------------------------------------------
  alpha Z        PSCENC =         5.66091286
  Ewald energy   TEWEN  =      8695.50706111
  -Hartree energ DENC   =    -17261.07713375
  -exchange      EXHF   =         0.00000000
  -V(xc)+E(xc)   XCENC  =       241.09740657
  PAW double counting   =      9093.60914453    -9437.78847433
  entropy T*S    EENTRO =         0.00069610
  eigenvalues    EBANDS =      -614.03467018
  atomic energy  EATOM  =      9268.15263587
  Solvation  Ediel_sol  =         0.00000000
  ---------------------------------------------------
  free energy    TOTEN  =        -8.87242123 eV

  energy without entropy =       -8.87311732  energy(sigma->0) =       -8.87265326


--------------------------------------------------------------------------------------------------------




--------------------------------------- Iteration      1(  10)  ---------------------------------------


    POTLOK:  cpu time    2.1456: real time    2.1662
    SETDIJ:  cpu time    0.0185: real time    0.0185
     EDDAV:  cpu time    7.3781: real time    7.4288
       DOS:  cpu time    0.0010: real time    0.0010
    CHARGE:  cpu time    0.7332: real time    0.7346
    MIXING:  cpu time    0.0610: real time    0.0612
    --------------------------------------------
      LOOP:  cpu time   10.3374: real time   10.4102

 eigenvalue-minimisations  :   328
 total energy-change (2. order) :-0.1673913E+01  (-0.1346426E+00)
 number of electron      88.0000124 magnetization       5.2105783
 augmentation part       44.4569608 magnetization       3.0365494

 Broyden mixing:
  rms(total) = 0.17454E+00    rms(broyden)= 0.17443E+00
  rms(prec ) = 0.18366E+00
  weight for this iteration     100.00

 eigenvalues of (default mixing * dielectric matrix)
  average eigenvalue GAMMA=   0.9700
  1.7259  1.3598  0.6223  0.6223  0.5195

 Free energy of the ion-electron system (eV)
  ---------------------------------------------------
  alpha Z        PSCENC =         5.66091286
  Ewald energy   TEWEN  =      8695.50706111
  -Hartree energ DENC   =    -17261.77164454
  -exchange      EXHF   =         0.00000000
  -V(xc)+E(xc)   XCENC  =       239.74194217
  PAW double counting   =      9106.43434411    -9450.93105420
  entropy T*S    EENTRO =        -0.00566491
  eigenvalues    EBANDS =      -613.33486630
  atomic energy  EATOM  =      9268.15263587
  Solvation  Ediel_sol  =         0.00000000
  ---------------------------------------------------
  free energy    TOTEN  =       -10.54633382 eV

  energy without entropy =      -10.54066891  energy(sigma->0) =      -10.54444552


--------------------------------------------------------------------------------------------------------




--------------------------------------- Iteration      1(  11)  ---------------------------------------


    POTLOK:  cpu time    2.1687: real time    2.1855
    SETDIJ:  cpu time    0.0167: real time    0.0167
     EDDAV:  cpu time    7.3415: real time    7.3679
       DOS:  cpu time    0.0041: real time    0.0041
    CHARGE:  cpu time    0.6801: real time    0.6813
    MIXING:  cpu time    0.0669: real time    0.0670
    --------------------------------------------
      LOOP:  cpu time   10.2778: real time   10.3226

 eigenvalue-minimisations  :   328
 total energy-change (2. order) :-0.1044575E+01  (-0.3905141E-01)
 number of electron      88.0000123 magnetization       4.7074140
 augmentation part       44.3140224 magnetization       2.5833065

 Broyden mixing:
  rms(total) = 0.99440E-01    rms(broyden)= 0.99402E-01
  rms(prec ) = 0.10204E+00
  weight for this iteration     100.00

 eigenvalues of (default mixing * dielectric matrix)
  average eigenvalue GAMMA=   1.0120
  1.7936  1.7936  0.6713  0.6713  0.7111  0.4314

 Free energy of the ion-electron system (eV)
  ---------------------------------------------------
  alpha Z        PSCENC =         5.66091286
  Ewald energy   TEWEN  =      8695.50706111
  -Hartree energ DENC   =    -17265.71981172
  -exchange      EXHF   =         0.00000000
  -V(xc)+E(xc)   XCENC  =       239.00362473
  PAW double counting   =      9112.02512386    -9457.67705281
  entropy T*S    EENTRO =        -0.00418234
  eigenvalues    EBANDS =      -608.53922088
  atomic energy  EATOM  =      9268.15263587
  Solvation  Ediel_sol  =         0.00000000
  ---------------------------------------------------
  free energy    TOTEN  =       -11.59090932 eV

  energy without entropy =      -11.58672698  energy(sigma->0) =      -11.58951520


--------------------------------------------------------------------------------------------------------




--------------------------------------- Iteration      1(  12)  ---------------------------------------


    POTLOK:  cpu time    2.1565: real time    2.1686
    SETDIJ:  cpu time    0.0195: real time    0.0196
     EDDAV:  cpu time    6.8509: real time    6.8847
       DOS:  cpu time    0.0029: real time    0.0029
    CHARGE:  cpu time    0.7115: real time    0.7129
    MIXING:  cpu time    0.0731: real time    0.0732
    --------------------------------------------
      LOOP:  cpu time    9.8143: real time    9.8619

 eigenvalue-minimisations  :   296
 total energy-change (2. order) :-0.1626602E+01  (-0.4922769E-01)
 number of electron      88.0000123 magnetization       4.3134273
 augmentation part       44.2687500 magnetization       2.2536660

 Broyden mixing:
  rms(total) = 0.91096E-01    rms(broyden)= 0.91051E-01
  rms(prec ) = 0.93110E-01
  weight for this iteration     100.00

 eigenvalues of (default mixing * dielectric matrix)
  average eigenvalue GAMMA=   1.0621
  2.1270  2.1270  0.6781  0.6781  0.7756  0.5807  0.4681

 Free energy of the ion-electron system (eV)
  ---------------------------------------------------
  alpha Z        PSCENC =         5.66091286
  Ewald energy   TEWEN  =      8695.50706111
  -Hartree energ DENC   =    -17264.59493314
  -exchange      EXHF   =         0.00000000
  -V(xc)+E(xc)   XCENC  =       237.61272578
  PAW double counting   =      9103.96206844    -9449.84020898
  entropy T*S    EENTRO =         0.00498897
  eigenvalues    EBANDS =      -609.68276205
  atomic energy  EATOM  =      9268.15263587
  Solvation  Ediel_sol  =         0.00000000
  ---------------------------------------------------
  free energy    TOTEN  =       -13.21751113 eV

  energy without entropy =      -13.22250010  energy(sigma->0) =      -13.21917412


--------------------------------------------------------------------------------------------------------




--------------------------------------- Iteration      1(  13)  ---------------------------------------


    POTLOK:  cpu time    2.1696: real time    2.1762
    SETDIJ:  cpu time    0.0199: real time    0.0199
     EDDAV:  cpu time    7.1373: real time    7.1606
       DOS:  cpu time    0.0033: real time    0.0033
    CHARGE:  cpu time    0.6212: real time    0.6223
    MIXING:  cpu time    0.0798: real time    0.0800
    --------------------------------------------
      LOOP:  cpu time   10.0311: real time   10.0622

 eigenvalue-minimisations  :   312
 total energy-change (2. order) :-0.9822627E+00  (-0.2026607E-01)
 number of electron      88.0000122 magnetization       3.9963341
 augmentation part       44.2967973 magnetization       1.9617403

 Broyden mixing:
  rms(total) = 0.61417E-01    rms(broyden)= 0.61405E-01
  rms(prec ) = 0.62811E-01
  weight for this iteration     100.00

 eigenvalues of (default mixing * dielectric matrix)
  average eigenvalue GAMMA=   1.0657
  2.5025  1.8138  0.8635  0.8635  0.7042  0.7042  0.6074  0.4664

 Free energy of the ion-electron system (eV)
  ---------------------------------------------------
  alpha Z        PSCENC =         5.66091286
  Ewald energy   TEWEN  =      8695.50706111
  -Hartree energ DENC   =    -17262.59621660
  -exchange      EXHF   =         0.00000000
  -V(xc)+E(xc)   XCENC  =       236.71341974
  PAW double counting   =      9099.12690842    -9444.75146560
  entropy T*S    EENTRO =         0.01188962
  eigenvalues    EBANDS =      -612.02491924
  atomic energy  EATOM  =      9268.15263587
  Solvation  Ediel_sol  =         0.00000000
  ---------------------------------------------------
  free energy    TOTEN  =       -14.19977382 eV

  energy without entropy =      -14.21166344  energy(sigma->0) =      -14.20373702


--------------------------------------------------------------------------------------------------------




--------------------------------------- Iteration      1(  14)  ---------------------------------------


    POTLOK:  cpu time    2.1660: real time    2.1741
    SETDIJ:  cpu time    0.0200: real time    0.0200
     EDDAV:  cpu time    7.2474: real time    7.2983
       DOS:  cpu time    0.0028: real time    0.0028
    CHARGE:  cpu time    0.7312: real time    0.7407
    MIXING:  cpu time    0.0875: real time    0.0877
    --------------------------------------------
      LOOP:  cpu time   10.2548: real time   10.3236

 eigenvalue-minimisations  :   320
 total energy-change (2. order) :-0.6349362E+00  (-0.1036818E-01)
 number of electron      88.0000123 magnetization       3.5061977
 augmentation part       44.3178132 magnetization       1.4924659

 Broyden mixing:
  rms(total) = 0.48435E-01    rms(broyden)= 0.48423E-01
  rms(prec ) = 0.49899E-01
  weight for this iteration     100.00

 eigenvalues of (default mixing * dielectric matrix)
  average eigenvalue GAMMA=   1.1716
  3.0709  1.7734  1.7734  0.9539  0.7002  0.7002  0.6280  0.4889  0.4554

 Free energy of the ion-electron system (eV)
  ---------------------------------------------------
  alpha Z        PSCENC =         5.66091286
  Ewald energy   TEWEN  =      8695.50706111
  -Hartree energ DENC   =    -17261.10872265
  -exchange      EXHF   =         0.00000000
  -V(xc)+E(xc)   XCENC  =       236.12060497
  PAW double counting   =      9093.66095456    -9439.16259231
  entropy T*S    EENTRO =         0.01525838
  eigenvalues    EBANDS =      -613.68082280
  atomic energy  EATOM  =      9268.15263587
  Solvation  Ediel_sol  =         0.00000000
  ---------------------------------------------------
  free energy    TOTEN  =       -14.83471000 eV

  energy without entropy =      -14.84996839  energy(sigma->0) =      -14.83979613


--------------------------------------------------------------------------------------------------------




--------------------------------------- Iteration      1(  15)  ---------------------------------------


    POTLOK:  cpu time    2.1576: real time    2.1749
    SETDIJ:  cpu time    0.0200: real time    0.0200
     EDDAV:  cpu time    6.9794: real time    6.9975
       DOS:  cpu time    0.0045: real time    0.0045
    CHARGE:  cpu time    0.6712: real time    0.6766
    MIXING:  cpu time    0.0970: real time    0.0972
    --------------------------------------------
      LOOP:  cpu time    9.9297: real time    9.9707

 eigenvalue-minimisations  :   304
 total energy-change (2. order) :-0.7152034E+00  (-0.1188243E-01)
 number of electron      88.0000122 magnetization       3.2743313
 augmentation part       44.3189297 magnetization       1.3478617

 Broyden mixing:
  rms(total) = 0.34179E-01    rms(broyden)= 0.34169E-01
  rms(prec ) = 0.35005E-01
  weight for this iteration     100.00

 eigenvalues of (default mixing * dielectric matrix)
  average eigenvalue GAMMA=   1.1552
  3.5111  1.7772  1.7772  0.8471  0.7274  0.7274  0.6440  0.6440  0.4557  0.4409

 Free energy of the ion-electron system (eV)
  ---------------------------------------------------
  alpha Z        PSCENC =         5.66091286
  Ewald energy   TEWEN  =      8695.50706111
  -Hartree energ DENC   =    -17258.66006124
  -exchange      EXHF   =         0.00000000
  -V(xc)+E(xc)   XCENC  =       235.40736291
  PAW double counting   =      9082.94452750    -9428.44638317
  entropy T*S    EENTRO =         0.01111111
  eigenvalues    EBANDS =      -616.12708038
  atomic energy  EATOM  =      9268.15263587
  Solvation  Ediel_sol  =         0.00000000
  ---------------------------------------------------
  free energy    TOTEN  =       -15.54991343 eV

  energy without entropy =      -15.56102454  energy(sigma->0) =      -15.55361713


--------------------------------------------------------------------------------------------------------




--------------------------------------- Iteration      1(  16)  ---------------------------------------


    POTLOK:  cpu time    2.1610: real time    2.1712
    SETDIJ:  cpu time    0.0188: real time    0.0188
     EDDAV:  cpu time    7.5411: real time    7.5567
       DOS:  cpu time    0.0052: real time    0.0052
    CHARGE:  cpu time    0.7329: real time    0.7343
    MIXING:  cpu time    0.1010: real time    0.1012
    --------------------------------------------
      LOOP:  cpu time   10.5600: real time   10.5874

 eigenvalue-minimisations  :   336
 total energy-change (2. order) :-0.1915260E+00  (-0.1525803E-02)
 number of electron      88.0000122 magnetization       2.9644332
 augmentation part       44.3164132 magnetization       1.0861219

 Broyden mixing:
  rms(total) = 0.26395E-01    rms(broyden)= 0.26392E-01
  rms(prec ) = 0.27177E-01
  weight for this iteration     100.00

 eigenvalues of (default mixing * dielectric matrix)
  average eigenvalue GAMMA=   1.2088
  4.0002  1.8466  1.8466  0.8924  0.8924  0.8686  0.7021  0.7021  0.6342  0.4771
  0.4345

 Free energy of the ion-electron system (eV)
  ---------------------------------------------------
  alpha Z        PSCENC =         5.66091286
  Ewald energy   TEWEN  =      8695.50706111
  -Hartree energ DENC   =    -17257.63620489
  -exchange      EXHF   =         0.00000000
  -V(xc)+E(xc)   XCENC  =       235.20338252
  PAW double counting   =      9081.00555427    -9426.60423713
  entropy T*S    EENTRO =         0.00838632
  eigenvalues    EBANDS =      -617.03893032
  atomic energy  EATOM  =      9268.15263587
  Solvation  Ediel_sol  =         0.00000000
  ---------------------------------------------------
  free energy    TOTEN  =       -15.74143938 eV

  energy without entropy =      -15.74982570  energy(sigma->0) =      -15.74423482


--------------------------------------------------------------------------------------------------------




--------------------------------------- Iteration      1(  17)  ---------------------------------------


    POTLOK:  cpu time    2.1660: real time    2.1733
    SETDIJ:  cpu time    0.0189: real time    0.0190
     EDDAV:  cpu time    6.8618: real time    6.8915
       DOS:  cpu time    0.0043: real time    0.0043
    CHARGE:  cpu time    0.7318: real time    0.7332
    MIXING:  cpu time    0.1107: real time    0.1108
    --------------------------------------------
      LOOP:  cpu time    9.8936: real time    9.9321

 eigenvalue-minimisations  :   296
 total energy-change (2. order) :-0.2149548E+00  (-0.1119315E-02)
 number of electron      88.0000122 magnetization       2.5509766
 augmentation part       44.3154341 magnetization       0.7252838

 Broyden mixing:
  rms(total) = 0.20425E-01    rms(broyden)= 0.20419E-01
  rms(prec ) = 0.21045E-01
  weight for this iteration     100.00

 eigenvalues of (default mixing * dielectric matrix)
  average eigenvalue GAMMA=   1.3309
  5.2850  1.9852  1.9852  1.4411  0.9914  0.7274  0.7274  0.6687  0.6687  0.5707
  0.4830  0.4376

 Free energy of the ion-electron system (eV)
  ---------------------------------------------------
  alpha Z        PSCENC =         5.66091286
  Ewald energy   TEWEN  =      8695.50706111
  -Hartree energ DENC   =    -17256.31665405
  -exchange      EXHF   =         0.00000000
  -V(xc)+E(xc)   XCENC  =       234.97724002
  PAW double counting   =      9080.82268385    -9426.49695048
  entropy T*S    EENTRO =         0.00492903
  eigenvalues    EBANDS =      -618.26825245
  atomic energy  EATOM  =      9268.15263587
  Solvation  Ediel_sol  =         0.00000000
  ---------------------------------------------------
  free energy    TOTEN  =       -15.95639422 eV

  energy without entropy =      -15.96132326  energy(sigma->0) =      -15.95803724


--------------------------------------------------------------------------------------------------------




--------------------------------------- Iteration      1(  18)  ---------------------------------------


    POTLOK:  cpu time    2.1611: real time    2.1666
    SETDIJ:  cpu time    0.0198: real time    0.0198
     EDDAV:  cpu time    7.1211: real time    7.1347
       DOS:  cpu time    0.0042: real time    0.0042
    CHARGE:  cpu time    0.7217: real time    0.7229
    MIXING:  cpu time    0.1202: real time    0.1205
    --------------------------------------------
      LOOP:  cpu time   10.1481: real time   10.1688

 eigenvalue-minimisations  :   312
 total energy-change (2. order) :-0.2985659E+00  (-0.1714038E-02)
 number of electron      88.0000122 magnetization       2.2846045
 augmentation part       44.3115428 magnetization       0.5358177

 Broyden mixing:
  rms(total) = 0.15192E-01    rms(broyden)= 0.15181E-01
  rms(prec ) = 0.15816E-01
  weight for this iteration     100.00

 eigenvalues of (default mixing * dielectric matrix)
  average eigenvalue GAMMA=   1.4146
  6.5272  2.1548  2.1548  1.5642  1.0477  0.7731  0.7731  0.6821  0.6821  0.6440
  0.4448  0.4710  0.4710

 Free energy of the ion-electron system (eV)
  ---------------------------------------------------
  alpha Z        PSCENC =         5.66091286
  Ewald energy   TEWEN  =      8695.50706111
  -Hartree energ DENC   =    -17254.73440842
  -exchange      EXHF   =         0.00000000
  -V(xc)+E(xc)   XCENC  =       234.66433532
  PAW double counting   =      9080.60762381    -9426.36684349
  entropy T*S    EENTRO =        -0.00134912
  eigenvalues    EBANDS =      -619.74492808
  atomic energy  EATOM  =      9268.15263587
  Solvation  Ediel_sol  =         0.00000000
  ---------------------------------------------------
  free energy    TOTEN  =       -16.25496013 eV

  energy without entropy =      -16.25361102  energy(sigma->0) =      -16.25451043


--------------------------------------------------------------------------------------------------------




--------------------------------------- Iteration      1(  19)  ---------------------------------------


    POTLOK:  cpu time    2.1491: real time    2.1557
    SETDIJ:  cpu time    0.0191: real time    0.0192
     EDDAV:  cpu time    7.4274: real time    7.4429
       DOS:  cpu time    0.0039: real time    0.0039
    CHARGE:  cpu time    0.7312: real time    0.7365
    MIXING:  cpu time    0.1299: real time    0.1302
    --------------------------------------------
      LOOP:  cpu time   10.4607: real time   10.4885

 eigenvalue-minimisations  :   328
 total energy-change (2. order) :-0.1839687E+00  (-0.7208070E-03)
 number of electron      88.0000122 magnetization       2.1287785
 augmentation part       44.3129459 magnetization       0.4340906

 Broyden mixing:
  rms(total) = 0.10766E-01    rms(broyden)= 0.10756E-01
  rms(prec ) = 0.11250E-01
  weight for this iteration     100.00

 eigenvalues of (default mixing * dielectric matrix)
  average eigenvalue GAMMA=   1.4944
  7.8252  2.2401  2.2401  1.7283  1.2067  0.8476  0.8476  0.6943  0.6943  0.6123
  0.6123  0.5005  0.4360  0.4360

 Free energy of the ion-electron system (eV)
  ---------------------------------------------------
  alpha Z        PSCENC =         5.66091286
  Ewald energy   TEWEN  =      8695.50706111
  -Hartree energ DENC   =    -17253.76129775
  -exchange      EXHF   =         0.00000000
  -V(xc)+E(xc)   XCENC  =       234.46584882
  PAW double counting   =      9080.77321378    -9426.54116053
  entropy T*S    EENTRO =        -0.00661291
  eigenvalues    EBANDS =      -620.68953008
  atomic energy  EATOM  =      9268.15263587
  Solvation  Ediel_sol  =         0.00000000
  ---------------------------------------------------
  free energy    TOTEN  =       -16.43892883 eV

  energy without entropy =      -16.43231592  energy(sigma->0) =      -16.43672453


--------------------------------------------------------------------------------------------------------




--------------------------------------- Iteration      1(  20)  ---------------------------------------


    POTLOK:  cpu time    2.1555: real time    2.1635
    SETDIJ:  cpu time    0.0185: real time    0.0185
     EDDAV:  cpu time    5.8469: real time    5.8592
       DOS:  cpu time    0.0032: real time    0.0032
    CHARGE:  cpu time    0.7350: real time    0.7445
    MIXING:  cpu time    0.1396: real time    0.1398
    --------------------------------------------
      LOOP:  cpu time    8.8987: real time    8.9287

 eigenvalue-minimisations  :   240
 total energy-change (2. order) :-0.7758009E-01  (-0.2056116E-03)
 number of electron      88.0000122 magnetization       1.9738177
 augmentation part       44.3130165 magnetization       0.3118136

 Broyden mixing:
  rms(total) = 0.72329E-02    rms(broyden)= 0.72279E-02
  rms(prec ) = 0.76245E-02
  weight for this iteration     100.00

 eigenvalues of (default mixing * dielectric matrix)
  average eigenvalue GAMMA=   1.5701
  8.8941  2.6895  1.9489  1.9489  1.4561  0.8980  0.8980  0.7195  0.7195  0.6995
  0.6995  0.6228  0.4754  0.4498  0.4322

 Free energy of the ion-electron system (eV)
  ---------------------------------------------------
  alpha Z        PSCENC =         5.66091286
  Ewald energy   TEWEN  =      8695.50706111
  -Hartree energ DENC   =    -17253.27999660
  -exchange      EXHF   =         0.00000000
  -V(xc)+E(xc)   XCENC  =       234.38011448
  PAW double counting   =      9081.00795016    -9426.74675999
  entropy T*S    EENTRO =        -0.00966227
  eigenvalues    EBANDS =      -621.18876453
  atomic energy  EATOM  =      9268.15263587
  Solvation  Ediel_sol  =         0.00000000
  ---------------------------------------------------
  free energy    TOTEN  =       -16.51650892 eV

  energy without entropy =      -16.50684664  energy(sigma->0) =      -16.51328816


--------------------------------------------------------------------------------------------------------




--------------------------------------- Iteration      1(  21)  ---------------------------------------


    POTLOK:  cpu time    2.1495: real time    2.1611
    SETDIJ:  cpu time    0.0193: real time    0.0193
     EDDAV:  cpu time    6.3121: real time    6.3250
       DOS:  cpu time    0.0005: real time    0.0005
    CHARGE:  cpu time    0.7307: real time    0.7322
    MIXING:  cpu time    0.1497: real time    0.1500
    --------------------------------------------
      LOOP:  cpu time    9.3619: real time    9.3881

 eigenvalue-minimisations  :   264
 total energy-change (2. order) :-0.4988328E-01  (-0.1603666E-03)
 number of electron      88.0000122 magnetization       1.8883349
 augmentation part       44.3188512 magnetization       0.2576710

 Broyden mixing:
  rms(total) = 0.40480E-02    rms(broyden)= 0.40401E-02
  rms(prec ) = 0.43611E-02
  weight for this iteration     100.00

 eigenvalues of (default mixing * dielectric matrix)
  average eigenvalue GAMMA=   1.6390
  9.9545  3.0141  2.1568  2.1568  1.3118  1.0450  0.9152  0.9152  0.7184  0.7184
  0.6702  0.6702  0.6139  0.4804  0.4340  0.4485

 Free energy of the ion-electron system (eV)
  ---------------------------------------------------
  alpha Z        PSCENC =         5.66091286
  Ewald energy   TEWEN  =      8695.50706111
  -Hartree energ DENC   =    -17252.68083144
  -exchange      EXHF   =         0.00000000
  -V(xc)+E(xc)   XCENC  =       234.31957281
  PAW double counting   =      9081.18469006    -9426.85026280
  entropy T*S    EENTRO =        -0.01234277
  eigenvalues    EBANDS =      -621.84782790
  atomic energy  EATOM  =      9268.15263587
  Solvation  Ediel_sol  =         0.00000000
  ---------------------------------------------------
  free energy    TOTEN  =       -16.56639220 eV

  energy without entropy =      -16.55404943  energy(sigma->0) =      -16.56227794


--------------------------------------------------------------------------------------------------------




--------------------------------------- Iteration      1(  22)  ---------------------------------------


    POTLOK:  cpu time    2.1571: real time    2.1642
    SETDIJ:  cpu time    0.0187: real time    0.0187
     EDDAV:  cpu time    5.3754: real time    5.3893
       DOS:  cpu time    0.0006: real time    0.0006
    CHARGE:  cpu time    0.7319: real time    0.7334
    MIXING:  cpu time    0.1603: real time    0.1607
    --------------------------------------------
      LOOP:  cpu time    8.4439: real time    8.4668

 eigenvalue-minimisations  :   216
 total energy-change (2. order) :-0.1880184E-01  (-0.5316394E-04)
 number of electron      88.0000122 magnetization       1.8346983
 augmentation part       44.3165691 magnetization       0.2240044

 Broyden mixing:
  rms(total) = 0.27473E-02    rms(broyden)= 0.27440E-02
  rms(prec ) = 0.29935E-02
  weight for this iteration     100.00

 eigenvalues of (default mixing * dielectric matrix)
  average eigenvalue GAMMA=   1.6689
 10.6481  3.2536  2.2122  1.8676  1.8676  1.0727  1.0727  0.8298  0.8298  0.7189
  0.7189  0.6514  0.6514  0.6218  0.4767  0.4444  0.4345

 Free energy of the ion-electron system (eV)
  ---------------------------------------------------
  alpha Z        PSCENC =         5.66091286
  Ewald energy   TEWEN  =      8695.50706111
  -Hartree energ DENC   =    -17252.48388662
  -exchange      EXHF   =         0.00000000
  -V(xc)+E(xc)   XCENC  =       234.30117271
  PAW double counting   =      9081.38634931    -9427.04816676
  entropy T*S    EENTRO =        -0.01408214
  eigenvalues    EBANDS =      -622.04719039
  atomic energy  EATOM  =      9268.15263587
  Solvation  Ediel_sol  =         0.00000000
  ---------------------------------------------------
  free energy    TOTEN  =       -16.58519404 eV

  energy without entropy =      -16.57111190  energy(sigma->0) =      -16.58049999


--------------------------------------------------------------------------------------------------------




--------------------------------------- Iteration      1(  23)  ---------------------------------------


    POTLOK:  cpu time    2.1578: real time    2.1694
    SETDIJ:  cpu time    0.0198: real time    0.0198
     EDDAV:  cpu time    4.4457: real time    4.4785
       DOS:  cpu time    0.0030: real time    0.0030
    CHARGE:  cpu time    0.7302: real time    0.7316
    MIXING:  cpu time    0.1725: real time    0.1729
    --------------------------------------------
      LOOP:  cpu time    7.5289: real time    7.5752

 eigenvalue-minimisations  :   160
 total energy-change (2. order) :-0.1057816E-01  (-0.1670744E-04)
 number of electron      88.0000122 magnetization       1.8081471
 augmentation part       44.3151898 magnetization       0.2072772

 Broyden mixing:
  rms(total) = 0.18777E-02    rms(broyden)= 0.18757E-02
  rms(prec ) = 0.20835E-02
  weight for this iteration     100.00

 eigenvalues of (default mixing * dielectric matrix)
  average eigenvalue GAMMA=   1.6697
 10.8621  3.2944  2.7099  1.8555  1.8555  1.1938  1.1938  0.8655  0.8655  0.7172
  0.7172  0.6624  0.6624  0.6231  0.6231  0.4770  0.4437  0.4334

 Free energy of the ion-electron system (eV)
  ---------------------------------------------------
  alpha Z        PSCENC =         5.66091286
  Ewald energy   TEWEN  =      8695.50706111
  -Hartree energ DENC   =    -17252.36599077
  -exchange      EXHF   =         0.00000000
  -V(xc)+E(xc)   XCENC  =       234.29219948
  PAW double counting   =      9082.11326383    -9427.78954733
  entropy T*S    EENTRO =        -0.01499551
  eigenvalues    EBANDS =      -622.15131174
  atomic energy  EATOM  =      9268.15263587
  Solvation  Ediel_sol  =         0.00000000
  ---------------------------------------------------
  free energy    TOTEN  =       -16.59577220 eV

  energy without entropy =      -16.58077669  energy(sigma->0) =      -16.59077370


--------------------------------------------------------------------------------------------------------




--------------------------------------- Iteration      1(  24)  ---------------------------------------


    POTLOK:  cpu time    2.1608: real time    2.1702
    SETDIJ:  cpu time    0.0192: real time    0.0193
     EDDAV:  cpu time    4.5645: real time    4.5813
       DOS:  cpu time    0.0006: real time    0.0006
    CHARGE:  cpu time    0.7248: real time    0.7262
    MIXING:  cpu time    0.1861: real time    0.1864
    --------------------------------------------
      LOOP:  cpu time    7.6559: real time    7.6840

 eigenvalue-minimisations  :   168
 total energy-change (2. order) :-0.7056328E-02  (-0.1037221E-04)
 number of electron      88.0000122 magnetization       1.7953899
 augmentation part       44.3157391 magnetization       0.1977010

 Broyden mixing:
  rms(total) = 0.15049E-02    rms(broyden)= 0.15039E-02
  rms(prec ) = 0.16518E-02
  weight for this iteration     100.00

 eigenvalues of (default mixing * dielectric matrix)
  average eigenvalue GAMMA=   1.6566
 10.9560  3.2389  3.0717  1.8643  1.8643  1.4165  1.0424  0.8989  0.8989  0.7225
  0.7225  0.8040  0.8040  0.6493  0.5852  0.5852  0.4741  0.4441  0.4328

 Free energy of the ion-electron system (eV)
  ---------------------------------------------------
  alpha Z        PSCENC =         5.66091286
  Ewald energy   TEWEN  =      8695.50706111
  -Hartree energ DENC   =    -17252.20690878
  -exchange      EXHF   =         0.00000000
  -V(xc)+E(xc)   XCENC  =       234.28441244
  PAW double counting   =      9082.11212037    -9427.78873811
  entropy T*S    EENTRO =        -0.01533159
  eigenvalues    EBANDS =      -622.30899270
  atomic energy  EATOM  =      9268.15263587
  Solvation  Ediel_sol  =         0.00000000
  ---------------------------------------------------
  free energy    TOTEN  =       -16.60282853 eV

  energy without entropy =      -16.58749694  energy(sigma->0) =      -16.59771800


--------------------------------------------------------------------------------------------------------




--------------------------------------- Iteration      1(  25)  ---------------------------------------


    POTLOK:  cpu time    2.1538: real time    2.1596
    SETDIJ:  cpu time    0.0191: real time    0.0192
     EDDAV:  cpu time    4.7176: real time    4.7343
       DOS:  cpu time    0.0017: real time    0.0017
    CHARGE:  cpu time    0.7259: real time    0.7354
    MIXING:  cpu time    0.1998: real time    0.2002
    --------------------------------------------
      LOOP:  cpu time    7.8179: real time    7.8503

 eigenvalue-minimisations  :   176
 total energy-change (2. order) :-0.4773417E-02  (-0.8270023E-05)
 number of electron      88.0000122 magnetization       1.7795061
 augmentation part       44.3160291 magnetization       0.1831365

 Broyden mixing:
  rms(total) = 0.10691E-02    rms(broyden)= 0.10688E-02
  rms(prec ) = 0.11788E-02
  weight for this iteration     100.00

 eigenvalues of (default mixing * dielectric matrix)
  average eigenvalue GAMMA=   1.6729
 11.1183  3.9140  2.9972  2.0378  2.0378  1.3023  1.2022  1.2022  0.8636  0.8636
  0.7190  0.7190  0.6920  0.6920  0.6304  0.5597  0.5597  0.4321  0.4436  0.4708

 Free energy of the ion-electron system (eV)
  ---------------------------------------------------
  alpha Z        PSCENC =         5.66091286
  Ewald energy   TEWEN  =      8695.50706111
  -Hartree energ DENC   =    -17252.06761136
  -exchange      EXHF   =         0.00000000
  -V(xc)+E(xc)   XCENC  =       234.27833080
  PAW double counting   =      9081.81158749    -9427.48172868
  entropy T*S    EENTRO =        -0.01542564
  eigenvalues    EBANDS =      -622.45336441
  atomic energy  EATOM  =      9268.15263587
  Solvation  Ediel_sol  =         0.00000000
  ---------------------------------------------------
  free energy    TOTEN  =       -16.60760195 eV

  energy without entropy =      -16.59217631  energy(sigma->0) =      -16.60246007


--------------------------------------------------------------------------------------------------------




--------------------------------------- Iteration      1(  26)  ---------------------------------------


    POTLOK:  cpu time    2.1620: real time    2.1701
    SETDIJ:  cpu time    0.0197: real time    0.0198
     EDDAV:  cpu time    4.5754: real time    4.6008
       DOS:  cpu time    0.0032: real time    0.0032
    CHARGE:  cpu time    0.7301: real time    0.7317
    MIXING:  cpu time    0.2126: real time    0.2131
    --------------------------------------------
      LOOP:  cpu time    7.7031: real time    7.7387

 eigenvalue-minimisations  :   168
 total energy-change (2. order) :-0.5334670E-02  (-0.7509979E-05)
 number of electron      88.0000122 magnetization       1.7731475
 augmentation part       44.3161474 magnetization       0.1775162

 Broyden mixing:
  rms(total) = 0.91769E-03    rms(broyden)= 0.91751E-03
  rms(prec ) = 0.98790E-03
  weight for this iteration     100.00

 eigenvalues of (default mixing * dielectric matrix)
  average eigenvalue GAMMA=   1.6790
 11.1810  4.3260  3.0824  1.9648  1.8724  1.8724  1.2746  1.2746  0.9036  0.9036
  0.7242  0.7242  0.7467  0.7467  0.6158  0.6158  0.6213  0.4822  0.4570  0.4291
  0.4410

 Free energy of the ion-electron system (eV)
  ---------------------------------------------------
  alpha Z        PSCENC =         5.66091286
  Ewald energy   TEWEN  =      8695.50706111
  -Hartree energ DENC   =    -17251.93614843
  -exchange      EXHF   =         0.00000000
  -V(xc)+E(xc)   XCENC  =       234.27273114
  PAW double counting   =      9081.80447431    -9427.47585557
  entropy T*S    EENTRO =        -0.01551960
  eigenvalues    EBANDS =      -622.58322831
  atomic energy  EATOM  =      9268.15263587
  Solvation  Ediel_sol  =         0.00000000
  ---------------------------------------------------
  free energy    TOTEN  =       -16.61293662 eV

  energy without entropy =      -16.59741701  energy(sigma->0) =      -16.60776341


--------------------------------------------------------------------------------------------------------




--------------------------------------- Iteration      1(  27)  ---------------------------------------


    POTLOK:  cpu time    2.1401: real time    2.1641
    SETDIJ:  cpu time    0.0190: real time    0.0190
     EDDAV:  cpu time    4.7030: real time    4.7361
       DOS:  cpu time    0.0033: real time    0.0034
    CHARGE:  cpu time    0.7004: real time    0.7015
    MIXING:  cpu time    0.2250: real time    0.2258
    --------------------------------------------
      LOOP:  cpu time    7.7909: real time    7.8499

 eigenvalue-minimisations  :   176
 total energy-change (2. order) :-0.2651017E-02  (-0.4932882E-05)
 number of electron      88.0000122 magnetization       1.7661321
 augmentation part       44.3161964 magnetization       0.1707515

 Broyden mixing:
  rms(total) = 0.58878E-03    rms(broyden)= 0.58863E-03
  rms(prec ) = 0.63995E-03
  weight for this iteration     100.00

 eigenvalues of (default mixing * dielectric matrix)
  average eigenvalue GAMMA=   1.7264
 11.3487  5.4368  2.7896  2.7896  1.8282  1.8282  1.3396  1.3396  0.9172  0.9172
  0.8188  0.8188  0.7203  0.7203  0.6764  0.6764  0.6161  0.6161  0.4785  0.4474
  0.4367  0.4208

 Free energy of the ion-electron system (eV)
  ---------------------------------------------------
  alpha Z        PSCENC =         5.66091286
  Ewald energy   TEWEN  =      8695.50706111
  -Hartree energ DENC   =    -17251.82348255
  -exchange      EXHF   =         0.00000000
  -V(xc)+E(xc)   XCENC  =       234.26907544
  PAW double counting   =      9081.66395980    -9427.33512321
  entropy T*S    EENTRO =        -0.01550651
  eigenvalues    EBANDS =      -622.69512045
  atomic energy  EATOM  =      9268.15263587
  Solvation  Ediel_sol  =         0.00000000
  ---------------------------------------------------
  free energy    TOTEN  =       -16.61558763 eV

  energy without entropy =      -16.60008112  energy(sigma->0) =      -16.61041880


--------------------------------------------------------------------------------------------------------




--------------------------------------- Iteration      1(  28)  ---------------------------------------


    POTLOK:  cpu time    2.1366: real time    2.1493
    SETDIJ:  cpu time    0.0194: real time    0.0195
     EDDAV:  cpu time    4.7225: real time    4.7313
       DOS:  cpu time    0.0006: real time    0.0006
    CHARGE:  cpu time    0.7320: real time    0.7336
    MIXING:  cpu time    0.2365: real time    0.2411
    --------------------------------------------
      LOOP:  cpu time    7.8476: real time    7.8754

 eigenvalue-minimisations  :   176
 total energy-change (2. order) :-0.2067255E-02  (-0.3144101E-05)
 number of electron      88.0000122 magnetization       1.7633957
 augmentation part       44.3159967 magnetization       0.1681607

 Broyden mixing:
  rms(total) = 0.36774E-03    rms(broyden)= 0.36759E-03
  rms(prec ) = 0.40051E-03
  weight for this iteration     100.00

 eigenvalues of (default mixing * dielectric matrix)
  average eigenvalue GAMMA=   1.7543
[...]
  -Hartree energ DENC   =    -16730.37530188
  -exchange      EXHF   =         0.00000000
  -V(xc)+E(xc)   XCENC  =       233.83841400
  PAW double counting   =      8938.55054379    -9282.46386606
  entropy T*S    EENTRO =         0.05458963
  eigenvalues    EBANDS =      -606.36246664
  atomic energy  EATOM  =      9268.15263587
  Solvation  Ediel_sol  =         0.00000000
  ---------------------------------------------------
  free energy    TOTEN  =       -18.15704443 eV

  energy without entropy =      -18.21163406  energy(sigma->0) =      -18.17524097


--------------------------------------------------------------------------------------------------------




--------------------------------------- Iteration     48(   3)  ---------------------------------------


    POTLOK:  cpu time    2.1232: real time    2.1273
    SETDIJ:  cpu time    0.0208: real time    0.0209
     EDDAV:  cpu time    4.3891: real time    4.3982
       DOS:  cpu time    0.0044: real time    0.0044
    --------------------------------------------
      LOOP:  cpu time    6.5375: real time    6.5507

 eigenvalue-minimisations  :   160
 total energy-change (2. order) :-0.4989670E-06  (-0.1598195E-04)
 number of electron      87.9999804 magnetization       0.0000000
 augmentation part       44.3513980 magnetization      -0.0000000

 Free energy of the ion-electron system (eV)
  ---------------------------------------------------
  alpha Z        PSCENC =         5.66091286
  Ewald energy   TEWEN  =      8154.78749399
  -Hartree energ DENC   =    -16730.36149979
  -exchange      EXHF   =         0.00000000
  -V(xc)+E(xc)   XCENC  =       233.83819902
  PAW double counting   =      8938.57213295    -9282.49321712
  entropy T*S    EENTRO =         0.05450667
  eigenvalues    EBANDS =      -606.36820937
  atomic energy  EATOM  =      9268.15263587
  Solvation  Ediel_sol  =         0.00000000
  ---------------------------------------------------
  free energy    TOTEN  =       -18.15704493 eV

  energy without entropy =      -18.21155160  energy(sigma->0) =      -18.17521382


--------------------------------------------------------------------------------------------------------




 average (electrostatic) potential at core
  the test charge radii are     1.2098  0.9430
  (the norm of the test charge is              1.0000)
       1 -77.3869       2 -77.3221       3 -76.9852       4 -75.6105       5 -74.9872
       6 -75.0611       7 -74.3175       8 -75.0683
 
 
 
 E-fermi :  -4.9731     XC(G=0):  -0.3583     alpha+bet : -0.1478


 spin component 1

 k-point     1 :       0.0000    0.0000    0.0000
  band No.  band energies     occupation 
      1     -10.6079      1.00000
      2      -9.3463      1.00000
      3      -9.0697      1.00000
      4      -8.8062      1.00000
      5      -8.6896      1.00000
      6      -8.4565      1.00000
      7      -8.2520      1.00000
      8      -8.2238      1.00000
      9      -8.1385      1.00000
     10      -7.9129      1.00000
     11      -7.8346      1.00000
     12      -7.7307      1.00000
     13      -7.6924      1.00000
     14      -7.4461      1.00000
     15      -7.3405      1.00000
     16      -7.2854      1.00000
     17      -7.2179      1.00000
     18      -7.0660      1.00000
     19      -6.9247      1.00000
     20      -6.7996      1.00000
     21      -6.7447      1.00000
     22      -6.7255      1.00000
     23      -6.5478      1.00000
     24      -6.5123      1.00000
     25      -6.4126      1.00000
     26      -6.2834      1.00000
     27      -6.2240      1.00000
     28      -6.1754      1.00000
     29      -6.1345      1.00000
     30      -6.0961      1.00000
     31      -5.9868      1.00000
     32      -5.8948      1.00000
     33      -5.8927      1.00000
     34      -5.8478      1.00000
     35      -5.8366      1.00000
     36      -5.8198      1.00000
     37      -5.7587      1.00000
     38      -5.7127      1.00000
     39      -5.4766      1.00107
     40      -5.4592      1.00157
     41      -5.2901      1.02376
     42      -5.2325      1.03473
     43      -5.1756      1.02640
     44      -5.0898      0.91246
     45      -4.1337     -0.00000
     46      -3.5004     -0.00000
     47      -3.2159     -0.00000
     48      -2.5599     -0.00000
     49      -1.7387     -0.00000
     50      -1.5538     -0.00000
     51      -1.3119     -0.00000
     52      -1.2400     -0.00000
     53      -0.8795     -0.00000
     54      -0.5819     -0.00000
     55      -0.3569     -0.00000
     56      -0.1481     -0.00000

 spin component 2

 k-point     1 :       0.0000    0.0000    0.0000
  band No.  band energies     occupation 
      1     -10.6079      1.00000
      2      -9.3463      1.00000
      3      -9.0697      1.00000
      4      -8.8062      1.00000
      5      -8.6896      1.00000
      6      -8.4565      1.00000
      7      -8.2520      1.00000
      8      -8.2238      1.00000
      9      -8.1385      1.00000
     10      -7.9129      1.00000
     11      -7.8346      1.00000
     12      -7.7307      1.00000
     13      -7.6924      1.00000
     14      -7.4461      1.00000
     15      -7.3405      1.00000
     16      -7.2854      1.00000
     17      -7.2179      1.00000
     18      -7.0660      1.00000
     19      -6.9247      1.00000
     20      -6.7996      1.00000
     21      -6.7447      1.00000
     22      -6.7255      1.00000
     23      -6.5478      1.00000
     24      -6.5123      1.00000
     25      -6.4126      1.00000
     26      -6.2834      1.00000
     27      -6.2240      1.00000
     28      -6.1754      1.00000
     29      -6.1345      1.00000
     30      -6.0961      1.00000
     31      -5.9868      1.00000
     32      -5.8948      1.00000
     33      -5.8927      1.00000
     34      -5.8478      1.00000
     35      -5.8366      1.00000
     36      -5.8198      1.00000
     37      -5.7587      1.00000
     38      -5.7127      1.00000
     39      -5.4766      1.00107
     40      -5.4592      1.00157
     41      -5.2901      1.02376
     42      -5.2325      1.03473
     43      -5.1756      1.02640
     44      -5.0898      0.91246
     45      -4.1337     -0.00000
     46      -3.5004     -0.00000
     47      -3.2159     -0.00000
     48      -2.5599     -0.00000
     49      -1.7387     -0.00000
     50      -1.5538     -0.00000
     51      -1.3119     -0.00000
     52      -1.2400     -0.00000
     53      -0.8795     -0.00000
     54      -0.5819     -0.00000
     55      -0.3569     -0.00000
     56      -0.1481     -0.00000


--------------------------------------------------------------------------------------------------------


 soft charge-density along one line, spin component            1
         0         1         2         3         4         5         6         7         8         9
 total charge-density along one line
 
 soft charge-density along one line, spin component            2
         0         1         2         3         4         5         6         7         8         9
 total charge-density along one line
 
 pseudopotential strength for first ion, spin component:            1
 -9.470   0.001  -0.015  -0.007  -0.006  -9.585   0.001  -0.015
  0.001  -9.461   0.000   0.002   0.004   0.001  -9.577   0.000
 -0.015   0.000  -9.494  -0.002   0.017  -0.015   0.000  -9.609
 -0.007   0.002  -0.002  -9.513  -0.002  -0.007   0.002  -0.002
 -0.006   0.004   0.017  -0.002  -9.467  -0.006   0.004   0.017
 -9.585   0.001  -0.015  -0.007  -0.006  -9.685   0.001  -0.015
  0.001  -9.577   0.000   0.002   0.004   0.001  -9.677   0.000
 -0.015   0.000  -9.609  -0.002   0.017  -0.015   0.000  -9.708
 -0.007   0.002  -0.002  -9.628  -0.002  -0.007   0.002  -0.002
 -0.006   0.004   0.017  -0.002  -9.582  -0.006   0.004   0.017
 -0.003   0.008   0.007   0.004   0.013  -0.003   0.008   0.007
 -0.004   0.011   0.011   0.007   0.019  -0.004   0.011   0.011
 -0.024  -0.004  -0.002   0.001  -0.004  -0.023  -0.004  -0.002
  0.001   0.003  -0.004  -0.022   0.000   0.001   0.003  -0.004
  0.003   0.001   0.014  -0.003  -0.023   0.003   0.001   0.014
 -0.027  -0.005  -0.003   0.001  -0.004  -0.026  -0.005  -0.003
  0.001   0.002  -0.005  -0.025   0.000   0.001   0.002  -0.005
  0.003   0.001   0.015  -0.004  -0.025   0.003   0.001   0.015
 pseudopotential strength for first ion, spin component:            2
 -9.470   0.001  -0.015  -0.007  -0.006  -9.585   0.001  -0.015
  0.001  -9.461   0.000   0.002   0.004   0.001  -9.577   0.000
 -0.015   0.000  -9.494  -0.002   0.017  -0.015   0.000  -9.609
 -0.007   0.002  -0.002  -9.513  -0.002  -0.007   0.002  -0.002
 -0.006   0.004   0.017  -0.002  -9.467  -0.006   0.004   0.017
 -9.585   0.001  -0.015  -0.007  -0.006  -9.685   0.001  -0.015
  0.001  -9.577   0.000   0.002   0.004   0.001  -9.677   0.000
 -0.015   0.000  -9.609  -0.002   0.017  -0.015   0.000  -9.708
 -0.007   0.002  -0.002  -9.628  -0.002  -0.007   0.002  -0.002
 -0.006   0.004   0.017  -0.002  -9.582  -0.006   0.004   0.017
 -0.003   0.008   0.007   0.004   0.013  -0.003   0.008   0.007
 -0.004   0.011   0.011   0.007   0.019  -0.004   0.011   0.011
 -0.024  -0.004  -0.002   0.001  -0.004  -0.023  -0.004  -0.002
  0.001   0.003  -0.004  -0.022   0.000   0.001   0.003  -0.004
  0.003   0.001   0.014  -0.003  -0.023   0.003   0.001   0.014
 -0.027  -0.005  -0.003   0.001  -0.004  -0.026  -0.005  -0.003
  0.001   0.002  -0.005  -0.025   0.000   0.001   0.002  -0.005
  0.003   0.001   0.015  -0.004  -0.025   0.003   0.001   0.015
 total augmentation occupancy for first ion, spin component:            1
  3.135   0.008   0.017   0.147  -0.200  -1.115  -0.002  -0.116  -0.220   0.108   0.222  -0.120  -0.095  -0.000   0.105  -0.023
  0.008   3.485   0.346  -0.342  -0.443  -0.002  -1.381  -0.314   0.255   0.448  -0.569   0.166   0.147   0.243   0.067  -0.010
  0.017   0.346   3.174  -0.061  -0.400  -0.116  -0.314  -1.295   0.008   0.388  -0.301   0.012   0.023   0.107   0.122  -0.002
  0.147  -0.342  -0.061   3.263  -0.064  -0.221   0.253   0.008  -1.476   0.027  -0.136  -0.108  -0.027  -0.180   0.067   0.003
 -0.200  -0.443  -0.400  -0.064   3.567   0.108   0.447   0.390   0.027  -1.490  -0.566   0.092  -0.117  -0.109  -0.251  -0.000
 -1.115  -0.002  -0.116  -0.221   0.108   1.044  -0.004   0.196   0.281  -0.034  -0.210   0.106   0.148  -0.000  -0.108  -0.003
 -0.002  -1.381  -0.314   0.253   0.447  -0.004   1.243   0.290  -0.189  -0.448   0.538  -0.186  -0.143  -0.216  -0.050   0.006
 -0.116  -0.314  -1.295   0.008   0.390   0.196   0.290   1.347   0.043  -0.383   0.295  -0.026   0.003  -0.086  -0.128  -0.000
 -0.220   0.255   0.008  -1.476   0.027   0.281  -0.189   0.043   1.598   0.005   0.132   0.078   0.021   0.253  -0.054  -0.002
  0.108   0.448   0.388   0.027  -1.490  -0.034  -0.448  -0.383   0.005   1.380   0.514  -0.095   0.125   0.096   0.285  -0.004
  0.222  -0.569  -0.301  -0.136  -0.566  -0.210   0.538   0.295   0.132   0.514   2.178  -0.344  -0.102  -0.056   0.256   0.006
 -0.120   0.166   0.012  -0.108   0.092   0.106  -0.186  -0.026   0.078  -0.095  -0.344   0.112   0.047   0.050  -0.053  -0.001
 -0.095   0.147   0.023  -0.027  -0.117   0.148  -0.143   0.003   0.021   0.125  -0.102   0.047   0.068   0.037   0.008  -0.003
 -0.000   0.243   0.107  -0.180  -0.109  -0.000  -0.216  -0.086   0.253   0.096  -0.056   0.050   0.037   0.123   0.021  -0.001
  0.105   0.067   0.122   0.067  -0.251  -0.108  -0.050  -0.128  -0.054   0.285   0.256  -0.053   0.008   0.021   0.099   0.000
 -0.023  -0.010  -0.002   0.003  -0.000  -0.003   0.006  -0.000  -0.002  -0.004   0.006  -0.001  -0.003  -0.001   0.000   0.000
  0.003  -0.003  -0.007  -0.017   0.003  -0.002   0.006   0.003  -0.008  -0.003   0.003  -0.001  -0.001  -0.004  -0.001   0.000
 -0.001   0.003   0.014  -0.005  -0.017   0.003  -0.002   0.001   0.001  -0.008  -0.016   0.003   0.000  -0.000  -0.004  -0.000
 total augmentation occupancy for first ion, spin component:            2
  0.000  -0.000  -0.000  -0.000  -0.000  -0.000   0.000   0.000   0.000   0.000  -0.000   0.000  -0.000  -0.000   0.000  -0.000
 -0.000  -0.000  -0.000   0.000   0.000   0.000   0.000   0.000  -0.000  -0.000   0.000   0.000  -0.000  -0.000  -0.000   0.000
 -0.000  -0.000   0.000  -0.000   0.000   0.000   0.000  -0.000   0.000  -0.000   0.000  -0.000  -0.000   0.000  -0.000   0.000
 -0.000   0.000  -0.000  -0.000  -0.000   0.000  -0.000   0.000   0.000   0.000   0.000   0.000  -0.000  -0.000  -0.000   0.000
 -0.000   0.000   0.000  -0.000  -0.000   0.000  -0.000  -0.000   0.000   0.000  -0.000   0.000  -0.000   0.000   0.000   0.000
 -0.000   0.000   0.000   0.000   0.000   0.000  -0.000  -0.000  -0.000  -0.000  -0.000  -0.000   0.000   0.000  -0.000   0.000
  0.000   0.000   0.000  -0.000  -0.000  -0.000  -0.000  -0.000   0.000   0.000  -0.000  -0.000   0.000   0.000   0.000  -0.000
  0.000   0.000  -0.000   0.000  -0.000  -0.000  -0.000  -0.000  -0.000  -0.000   0.000  -0.000   0.000   0.000   0.000  -0.000
  0.000  -0.000   0.000   0.000   0.000  -0.000   0.000  -0.000  -0.000  -0.000  -0.000  -0.000   0.000   0.000   0.000  -0.000
  0.000  -0.000  -0.000   0.000   0.000  -0.000   0.000  -0.000  -0.000   0.000  -0.000   0.000  -0.000  -0.000  -0.000   0.000
 -0.000   0.000   0.000   0.000  -0.000  -0.000  -0.000   0.000  -0.000  -0.000  -0.000   0.000   0.000  -0.000  -0.000  -0.000
  0.000   0.000  -0.000   0.000   0.000  -0.000  -0.000  -0.000  -0.000   0.000   0.000  -0.000   0.000  -0.000   0.000   0.000
 -0.000  -0.000  -0.000  -0.000  -0.000   0.000   0.000   0.000   0.000  -0.000   0.000   0.000   0.000   0.000  -0.000   0.000
 -0.000  -0.000   0.000  -0.000   0.000   0.000   0.000   0.000   0.000  -0.000  -0.000  -0.000   0.000   0.000  -0.000   0.000
  0.000  -0.000  -0.000  -0.000   0.000  -0.000   0.000   0.000   0.000  -0.000  -0.000   0.000  -0.000  -0.000  -0.000   0.000
 -0.000   0.000   0.000   0.000   0.000   0.000  -0.000  -0.000  -0.000   0.000  -0.000   0.000   0.000   0.000   0.000  -0.000
  0.000   0.000  -0.000   0.000  -0.000  -0.000  -0.000  -0.000  -0.000   0.000   0.000   0.000  -0.000  -0.000   0.000   0.000
 -0.000   0.000   0.000   0.000  -0.000   0.000  -0.000  -0.000  -0.000   0.000   0.000  -0.000   0.000   0.000  -0.000  -0.000


------------------------ aborting loop because EDIFF is reached ----------------------------------------


    CHARGE:  cpu time    0.7323: real time    0.7339
    FORLOC:  cpu time    0.0439: real time    0.0440
    FORNL :  cpu time    0.7686: real time    0.7777
    FORCOR:  cpu time    2.0124: real time    2.0361
    FORHAR:  cpu time    0.2793: real time    0.2878
    MIXING:  cpu time    0.0501: real time    0.0502
    OFIELD:  cpu time    0.0000: real time    0.0000

 VOLUME and BASIS-vectors are now :
 -----------------------------------------------------------------------------
  energy-cutoff  :      400.00
  volume of cell :    10718.41
      direct lattice vectors                 reciprocal lattice vectors
    21.458823086  0.000000000  0.000000000     0.046600878  0.000000000  0.000000000
     0.000000000 20.591698169  0.000000000     0.000000000  0.048563260  0.000000000
     0.000000000  0.000000000 24.256727001     0.000000000  0.000000000  0.041225677

  length of vectors
    21.458823086 20.591698169 24.256727001     0.046600878  0.048563260  0.041225677


 FORCES acting on ions
    electron-ion (+dipol)            ewald-force                    non-local-force                 convergence-correction
 -----------------------------------------------------------------------------------------------
   0.783E+03 -.345E+03 -.210E+03   -.778E+03 0.345E+03 0.211E+03   -.553E+01 0.256E+00 -.124E+01   -.259E-01 -.138E-01 -.563E-01
   -.797E+03 0.194E+03 0.444E+03   0.791E+03 -.192E+03 -.441E+03   0.595E+01 -.218E+01 -.321E+01   0.107E-01 0.242E-02 0.507E-02
   0.677E+03 0.375E+03 0.443E+03   -.673E+03 -.372E+03 -.441E+03   -.495E+01 -.248E+01 -.211E+01   0.222E-01 0.208E-01 -.182E-01
   -.200E+03 0.561E+02 -.598E+03   0.197E+03 -.547E+02 0.592E+03   0.297E+01 -.137E+01 0.577E+01   0.448E-01 -.122E-01 0.166E-01
   -.625E+03 -.499E+03 -.198E+03   0.620E+03 0.495E+03 0.197E+03   0.573E+01 0.427E+01 0.604E+00   0.352E-01 -.322E-01 -.443E-01
   -.544E+02 0.898E+03 -.135E+03   0.533E+02 -.891E+03 0.130E+03   0.114E+01 -.735E+01 0.508E+01   -.158E-01 -.811E-02 -.120E+00
   0.141E+03 -.194E+03 -.575E+03   -.137E+03 0.193E+03 0.573E+03   -.365E+01 0.140E+01 0.131E+01   -.110E+00 0.658E-01 0.505E-01
   0.741E+02 -.484E+03 0.827E+03   -.736E+02 0.477E+03 -.822E+03   -.500E+00 0.661E+01 -.592E+01   -.603E-02 -.841E-01 0.489E-01
 -----------------------------------------------------------------------------------------------
   -.113E+01 0.931E+00 -.159E+00   0.284E-13 -.568E-13 0.000E+00   0.117E+01 -.841E+00 0.277E+00   -.452E-01 -.615E-01 -.118E+00
 
 
 POSITION                                       TOTAL-FORCE (eV/Angst)
 -----------------------------------------------------------------------------------
      9.19834     11.11099     11.28368         0.004033     -0.000899      0.029860
     12.85425     10.00352      9.35480         0.028603      0.000764      0.007614
      8.62066      9.36601      9.13804        -0.046861     -0.010475     -0.025045
     11.70200     10.69633     15.37329         0.030542      0.000234     -0.017371
     11.78246     11.26850     11.24478        -0.021427     -0.006701      0.040499
     10.73384      9.16112     10.54650         0.010179     -0.031204     -0.010214
     10.63422     11.18181     13.30091        -0.023596      0.027029     -0.011692
     10.54717     10.99571      9.06043         0.018527      0.021253     -0.013650
 -----------------------------------------------------------------------------------
    total drift:                               -0.007329      0.028548      0.000017


--------------------------------------------------------------------------------------------------------



  FREE ENERGIE OF THE ION-ELECTRON SYSTEM (eV)
  ---------------------------------------------------
  free  energy   TOTEN  =       -18.15704493 eV

  energy  without entropy=      -18.21155160  energy(sigma->0) =      -18.17521382
 
 d Force = 0.5920984E-04[ 0.658E-05, 0.112E-03]  d Energy = 0.9761595E-04-0.384E-04
 d Force =-0.4274847E+00[-0.428E+00,-0.427E+00]  d Ewald  =-0.4274849E+00 0.162E-06


--------------------------------------------------------------------------------------------------------


    POTLOK:  cpu time    2.1255: real time    2.1441


--------------------------------------------------------------------------------------------------------




--------------------------------------------------------------------------------------------------------


  
 reached required accuracy - stopping structural energy minimisation
     LOOP+:  cpu time   31.4075: real time   31.5460
    4ORBIT:  cpu time    0.0000: real time    0.0000

 total amount of memory used by VASP MPI-rank0   147179. kBytes
=======================================================================

   base      :      30000. kBytes
   nonl-proj :       5062. kBytes
   fftplans  :      28179. kBytes
   grid      :      73011. kBytes
   one-center:         15. kBytes
   wavefun   :      10912. kBytes
 
  
  
 General timing and accounting informations for this job:
 ========================================================
  
                  Total CPU time used (sec):     4495.406
                            User time (sec):     4444.626
                          System time (sec):       50.781
                         Elapsed time (sec):     4518.606
  
                   Maximum memory used (kb):      273436.
                   Average memory used (kb):           0.
  
                          Minor page faults:      8465617
                          Major page faults:       172732
                 Voluntary context switches:         4390
