<?xml version="1.0" encoding="ISO-8859-1"?>
<modeling>
 <generator>
  <i name="program" type="string">vasp </i>
  <i name="version" type="string">6.1.2  </i>
  <i name="subversion" type="string">22Jul20 (build Aug  2 2021 21:04:21) gamma-only                       parallel </i>
  <i name="platform" type="string">LinuxPGI </i>
  <i name="date" type="string">2021 12 12 </i>
  <i name="time" type="string">11:13:24 </i>
 </generator>
 <incar>
  <i type="int" name="ISPIN">     2</i>
  <i type="int" name="IBRION">     2</i>
  <i type="int" name="NSW">  1000</i>
  <i type="int" name="ISIF">     0</i>
  <i type="int" name="ISYM">     0</i>
  <i name="ENCUT">    400.00000000</i>
  <i type="logical" name="LREAL"> F  </i>
  <i type="int" name="ISMEAR">     1</i>
  <i name="SIGMA">      0.20000000</i>
  <i type="logical" name="LWAVE"> F  </i>
  <i type="logical" name="LCHARG"> F  </i>
  <i type="int" name="KPAR">     1</i>
  <i type="int" name="NCORE">     8</i>
  <i type="string" name="GGA"> PE</i>
  <i type="int" name="ISPIN">     2</i>
 </incar>
 <structure name="primitive_cell" >
  <crystal>
   <varray name="basis" >
    <v>      21.45882309       0.00000000       0.00000000 </v>
    <v>       0.00000000      20.59169817       0.00000000 </v>
    <v>       0.00000000       0.00000000      24.25672700 </v>
   </varray>
   <i name="volume">  10718.40747945 </i>
   <varray name="rec_basis" >
    <v>       0.04660088       0.00000000       0.00000000 </v>
    <v>       0.00000000       0.04856326       0.00000000 </v>
    <v>       0.00000000       0.00000000       0.04122568 </v>
   </varray>
  </crystal>
  <varray name="positions" >
   <v>       0.43868933       0.53185854       0.46671529 </v>
   <v>       0.55402348       0.47613176       0.37007167 </v>
   <v>       0.43691203       0.46384643       0.37782131 </v>
   <v>       0.51828169       0.55052990       0.62683564 </v>
   <v>       0.55630450       0.54236485       0.45733203 </v>
   <v>       0.50795564       0.43074052       0.45814749 </v>
   <v>       0.51159590       0.49710890       0.54572399 </v>
   <v>       0.48731216       0.57624289       0.37890537 </v>
  </varray>
 </structure>
 <varray name="primitive_index" >
  <v type="int" >        1 </v>
  <v type="int" >        2 </v>
  <v type="int" >        3 </v>
  <v type="int" >        4 </v>
  <v type="int" >        5 </v>
  <v type="int" >        6 </v>
  <v type="int" >        7 </v>
  <v type="int" >        8 </v>
 </varray>
 <kpoints>
  <generation param="Gamma">
   <v type="int" name="divisions">       1        1        1 </v>
   <v name="usershift">      0.00000000       0.00000000       0.00000000 </v>
   <v name="genvec1">      1.00000000       0.00000000       0.00000000 </v>
   <v name="genvec2">      0.00000000       1.00000000       0.00000000 </v>
   <v name="genvec3">      0.00000000       0.00000000       1.00000000 </v>
   <v name="shift">      0.00000000       0.00000000       0.00000000 </v>
  </generation>
  <varray name="kpointlist" >
   <v>       0.00000000       0.00000000       0.00000000 </v>
  </varray>
  <varray name="weights" >
   <v>       1.00000000 </v>
  </varray>
 </kpoints>
 <parameters>
  <separator name="general" >
   <i type="string" name="SYSTEM">unknown system</i>
   <i type="logical" name="LCOMPAT"> F  </i>
  </separator>
  <separator name="electronic" >
   <i type="string" name="PREC">normal</i>
   <i name="ENMAX">    400.00000000</i>
   <i name="ENAUG">    586.98000000</i>
   <i name="EDIFF">      0.00010000</i>
   <i type="int" name="IALGO">    38</i>
   <i type="int" name="IWAVPR">    11</i>
   <i type="int" name="NBANDS">    56</i>
   <i type="int" name="NBANDSLOW">    -1</i>
   <i type="int" name="NBANDSHIGH">    -1</i>
   <i name="NELECT">     88.00000000</i>
   <i type="int" name="TURBO">     0</i>
   <i type="int" name="IRESTART">     0</i>
   <i type="int" name="NREBOOT">     0</i>
   <i type="int" name="NMIN">     0</i>
   <i name="EREF">      0.00000000</i>
   <separator name="electronic smearing" >
    <i type="int" name="ISMEAR">     1</i>
    <i name="SIGMA">      0.20000000</i>
    <i name="KSPACING">      0.50000000</i>
    <i type="logical" name="KGAMMA"> T  </i>
    <i type="logical" name="KBLOWUP"> T  </i>
   </separator>
   <separator name="electronic projectors" >
    <i type="logical" name="LREAL"> F  </i>
    <v name="ROPT">      0.00000000      0.00000000</v>
    <i type="int" name="LMAXPAW">  -100</i>
    <i type="int" name="LMAXMIX">     2</i>
    <i type="logical" name="NLSPLINE"> F  </i>
   </separator>
   <separator name="electronic startup" >
    <i type="int" name="ISTART">     0</i>
    <i type="int" name="ICHARG">     2</i>
    <i type="int" name="INIWAV">     1</i>
   </separator>
   <separator name="electronic spin" >
    <i type="int" name="ISPIN">     2</i>
    <i type="logical" name="LNONCOLLINEAR"> F  </i>
    <v name="MAGMOM">      1.00000000      1.00000000      1.00000000      1.00000000      1.00000000      1.00000000      1.00000000      1.00000000</v>
    <i name="NUPDOWN">     -1.00000000</i>
    <i type="logical" name="LSORBIT"> F  </i>
    <v name="SAXIS">      0.00000000      0.00000000      1.00000000</v>
    <i type="logical" name="LSPIRAL"> F  </i>
    <v name="QSPIRAL">      0.00000000      0.00000000      0.00000000</v>
    <i type="logical" name="LZEROZ"> F  </i>
   </separator>
   <separator name="electronic exchange-correlation" >
    <i type="logical" name="LASPH"> F  </i>
    <i type="logical" name="LMETAGGA"> F  </i>
   </separator>
   <separator name="electronic convergence" >
    <i type="int" name="NELM">    60</i>
    <i type="int" name="NELMDL">     0</i>
    <i type="int" name="NELMIN">     2</i>
    <i name="ENINI">    400.00000000</i>
    <separator name="electronic convergence detail" >
     <i type="logical" name="LDIAG"> T  </i>
     <i type="logical" name="LSUBROT"> F  </i>
     <i name="WEIMIN">      0.00100000</i>
     <i name="EBREAK">      0.00000045</i>
     <i name="DEPER">      0.30000000</i>
     <i type="int" name="NRMM">     4</i>
     <i name="TIME">      0.40000000</i>
    </separator>
   </separator>
   <separator name="electronic mixer" >
    <i name="AMIX">      0.40000000</i>
    <i name="BMIX">      1.00000000</i>
    <i name="AMIN">      0.10000000</i>
    <i name="AMIX_MAG">      1.60000000</i>
    <i name="BMIX_MAG">      1.00000000</i>
    <separator name="electronic mixer details" >
     <i type="int" name="IMIX">     4</i>
     <i type="logical" name="MIXFIRST"> F  </i>
     <i type="int" name="MAXMIX">   -45</i>
     <i name="WC">    100.00000000</i>
     <i type="int" name="INIMIX">     1</i>
     <i type="int" name="MIXPRE">     1</i>
     <i type="int" name="MREMOVE">     5</i>
    </separator>
   </separator>
   <separator name="electronic dipolcorrection" >
    <i type="logical" name="LDIPOL"> F  </i>
    <i type="logical" name="LMONO"> F  </i>
    <i type="int" name="IDIPOL">     0</i>
    <i name="EPSILON">      1.00000000</i>
    <v name="DIPOL">   -100.00000000   -100.00000000   -100.00000000</v>
    <i name="EFIELD">      0.00000000</i>
   </separator>
  </separator>
  <separator name="grids" >
   <i type="int" name="NGX">   108</i>
   <i type="int" name="NGY">   108</i>
   <i type="int" name="NGZ">   120</i>
   <i type="int" name="NGXF">   216</i>
   <i type="int" name="NGYF">   216</i>
   <i type="int" name="NGZF">   240</i>
   <i type="logical" name="ADDGRID"> F  </i>
  </separator>
  <separator name="ionic" >
   <i type="int" name="NSW">  1000</i>
   <i type="int" name="IBRION">     2</i>
   <i type="int" name="MDALGO">     0</i>
   <i type="int" name="ISIF">     0</i>
   <i name="PSTRESS">      0.00000000</i>
   <i name="EDIFFG">      0.00100000</i>
   <i type="int" name="NFREE">     1</i>
   <i name="POTIM">      0.50000000</i>
   <i name="SMASS">     -3.00000000</i>
   <i name="SCALEE">      1.00000000</i>
  </separator>
  <separator name="ionic md" >
   <i name="TEBEG">      0.00010000</i>
   <i name="TEEND">      0.00010000</i>
   <i type="int" name="NBLOCK">     1</i>
   <i type="int" name="KBLOCK">  1000</i>
   <i type="int" name="NPACO">   256</i>
   <i name="APACO">     16.00000000</i>
  </separator>
  <separator name="symmetry" >
   <i type="int" name="ISYM">     0</i>
   <i name="SYMPREC">      0.00001000</i>
  </separator>
  <separator name="dos" >
   <i type="int" name="LORBIT">     0</i>
   <v name="RWIGS">     -1.00000000     -1.00000000</v>
   <i type="int" name="NEDOS">   301</i>
   <i name="EMIN">     10.00000000</i>
   <i name="EMAX">    -10.00000000</i>
   <i name="EFERMI">      0.00000000</i>
  </separator>
  <separator name="writing" >
   <i type="int" name="NWRITE">     2</i>
   <i type="logical" name="LWAVE"> F  </i>
   <i type="logical" name="LDOWNSAMPLE"> F  </i>
   <i type="logical" name="LCHARG"> F  </i>
   <i type="logical" name="LPARD"> F  </i>
   <i type="logical" name="LVTOT"> F  </i>
   <i type="logical" name="LVHAR"> F  </i>
   <i type="logical" name="LELF"> F  </i>
   <i type="logical" name="LOPTICS"> F  </i>
   <v name="STM">      0.00000000      0.00000000      0.00000000      0.00000000      0.00000000      0.00000000      0.00000000</v>
  </separator>
  <separator name="performance" >
   <i type="int" name="NPAR">     2</i>
   <i type="int" name="NSIM">     4</i>
   <i type="int" name="NBLK">    -1</i>
   <i type="logical" name="LPLANE"> T  </i>
   <i type="logical" name="LSCALAPACK"> T  </i>
   <i type="logical" name="LSCAAWARE"> F  </i>
   <i type="logical" name="LSCALU"> F  </i>
   <i type="logical" name="LASYNC"> F  </i>
   <i type="logical" name="LORBITALREAL"> F  </i>
  </separator>
  <separator name="miscellaneous" >
   <i type="int" name="IDIOT">     3</i>
   <i type="int" name="PHON_NSTRUCT">    -1</i>
   <i type="logical" name="LMUSIC"> F  </i>
   <v name="POMASS">    196.96600000     63.54600000</v>
   <v name="DARWINR">      0.00000000      0.00000000</v>
   <v name="DARWINV">      1.00000000      1.00000000</v>
   <i type="logical" name="LCORR"> T  </i>
  </separator>
  <i type="logical" name="GGA_COMPAT"> T  </i>
  <i type="logical" name="LBERRY"> F  </i>
  <i type="int" name="ICORELEVEL">     0</i>
  <i type="logical" name="LDAU"> F  </i>
  <i type="int" name="I_CONSTRAINED_M">     0</i>
  <separator name="electronic exchange-correlation" >
   <i type="string" name="GGA">PE</i>
   <i type="int" name="VOSKOWN">     0</i>
   <i type="logical" name="LHFCALC"> F  </i>
   <i type="string" name="PRECFOCK"></i>
   <i type="logical" name="LSYMGRAD"> F  </i>
   <i type="logical" name="LHFONE"> F  </i>
   <i type="logical" name="LRHFCALC"> F  </i>
   <i type="logical" name="LTHOMAS"> F  </i>
   <i type="logical" name="LMODELHF"> F  </i>
   <i type="logical" name="LFOCKACE"> F  </i>
   <i name="ENCUT4O">     -1.00000000</i>
   <i type="int" name="EXXOEP">     0</i>
   <i type="int" name="FOURORBIT">     0</i>
   <i name="AEXX">      0.00000000</i>
   <i name="HFALPHA">      0.00000000</i>
   <i name="MCALPHA">      0.00000000</i>
   <i name="ALDAX">      1.00000000</i>
   <i name="AGGAX">      1.00000000</i>
   <i name="ALDAC">      1.00000000</i>
   <i name="AGGAC">      1.00000000</i>
   <i type="int" name="NKREDX">     1</i>
   <i type="int" name="NKREDY">     1</i>
   <i type="int" name="NKREDZ">     1</i>
   <i type="logical" name="SHIFTRED"> F  </i>
   <i type="logical" name="ODDONLY"> F  </i>
   <i type="logical" name="EVENONLY"> F  </i>
   <i type="int" name="LMAXFOCK">     0</i>
   <i type="int" name="NMAXFOCKAE">     0</i>
   <i type="logical" name="LFOCKAEDFT"> F  </i>
   <i name="HFSCREEN">      0.00000000</i>
   <i name="HFSCREENC">      0.00000000</i>
   <i type="int" name="NBANDSGWLOW">     0</i>
  </separator>
  <separator name="vdW DFT" >
   <i type="logical" name="LUSE_VDW"> F  </i>
   <i name="Zab_VDW">     -0.84910000</i>
   <i name="PARAM1">      0.12340000</i>
   <i name="PARAM2">      1.00000000</i>
   <i name="PARAM3">      0.00000000</i>
  </separator>
  <separator name="model GW" >
   <i type="int" name="MODEL_GW">     0</i>
   <i name="MODEL_EPS0">    803.88056096</i>
   <i name="MODEL_ALPHA">      1.00000000</i>
  </separator>
  <separator name="linear response parameters" >
   <i type="logical" name="LEPSILON"> F  </i>
   <i type="logical" name="LRPA"> F  </i>
   <i type="logical" name="LNABLA"> F  </i>
   <i type="logical" name="LVEL"> F  </i>
   <i type="int" name="KINTER">     0</i>
   <i name="CSHIFT">      0.10000000</i>
   <i name="OMEGAMAX">     -1.00000000</i>
   <i name="DEG_THRESHOLD">      0.00200000</i>
   <i name="RTIME">     -0.10000000</i>
   <i name="WPLASMAI">      0.00000000</i>
   <v name="DFIELD">      0.00000000      0.00000000      0.00000000</v>
   <v name="WPLASMA">      0.00000000      0.00000000      0.00000000      0.00000000      0.00000000      0.00000000      0.00000000      0.00000000      0.00000000</v>
  </separator>
  <separator name="orbital magnetization" >
   <i type="logical" name="NUCIND"> F  </i>
   <v name="MAGPOS">      0.00000000      0.00000000      0.00000000</v>
   <i type="logical" name="LNICSALL"> T  </i>
   <i type="logical" name="ORBITALMAG"> F  </i>
   <i type="logical" name="LMAGBLOCH"> F  </i>
   <i type="logical" name="LCHIMAG"> F  </i>
   <i type="logical" name="LGAUGE"> T  </i>
   <i type="int" name="MAGATOM">     0</i>
   <v name="MAGDIPOL">      0.00000000      0.00000000      0.00000000</v>
   <v name="AVECCONST">      0.00000000      0.00000000      0.00000000</v>
  </separator>
  <separator name="response functions" >
   <i type="logical" name="LFINITE_TEMPERATURE"> F  </i>
   <i type="logical" name="LADDER"> F  </i>
   <i type="logical" name="LRPAFORCE"> F  </i>
   <i type="logical" name="LFXC"> F  </i>
   <i type="logical" name="LHARTREE"> T  </i>
   <i type="int" name="IBSE">     0</i>
   <v type="int" name="KPOINT">    -1     0     0     0</v>
   <i type="logical" name="LTCTC"> F  </i>
   <i type="logical" name="LTCTE"> F  </i>
   <i type="logical" name="LTETE"> F  </i>
   <i type="logical" name="LTRIPLET"> F  </i>
   <i type="logical" name="LFXCEPS"> F  </i>
   <i type="logical" name="LFXHEG"> F  </i>
   <i type="int" name="NATURALO">     2</i>
   <i type="logical" name="LHOLEGF"> F  </i>
   <i type="logical" name="L2ORDER"> F  </i>
   <i type="logical" name="LDMP1"> F  </i>
   <i type="logical" name="LMP2LT"> F  </i>
   <i type="logical" name="LSMP2LT"> F  </i>
   <i type="logical" name="LGWLF"> F  </i>
   <i name="ENCUTGW">     -2.00000000</i>
   <i name="ENCUTGWSOFT">     -2.00000000</i>
   <i name="ENCUTLF">     -1.00000000</i>
   <i type="logical" name="LESF_SPLINES"> F  </i>
   <i type="int" name="LMAXMP2">    -1</i>
   <i name="SCISSOR">      0.00000000</i>
   <i type="int" name="NOMEGA">     0</i>
   <i type="int" name="NOMEGAR">     0</i>
   <i type="int" name="NBANDSGW">    -1</i>
   <i type="int" name="NBANDSO">    -1</i>
   <i type="int" name="NBANDSV">    -1</i>
   <i type="int" name="NELM">     1</i>
   <i type="int" name="NELMHF">     1</i>
   <i type="int" name="DIM">     3</i>
   <i type="int" name="IESPILON">     4</i>
   <i type="int" name="ANTIRES">     0</i>
   <i name="OMEGAMAX">    -30.00000000</i>
   <i name="OMEGAMIN">    -30.00000000</i>
   <i name="OMEGATL">   -200.00000000</i>
   <i type="int" name="OMEGAGRID">     0</i>
   <i name="CSHIFT">     -0.10000000</i>
   <i type="logical" name="LSELFENERGY"> F  </i>
   <i type="logical" name="LSPECTRAL"> F  </i>
   <i type="logical" name="LSPECTRALGW"> F  </i>
   <i type="logical" name="LSINGLES"> F  </i>
   <i type="logical" name="LFERMIGW"> F  </i>
   <i type="logical" name="ODDONLYGW"> F  </i>
   <i type="logical" name="EVENONLYGW"> F  </i>
   <i type="int" name="NKREDLFX">     1</i>
   <i type="int" name="NKREDLFY">     1</i>
   <i type="int" name="NKREDLFZ">     1</i>
   <i type="int" name="MAXMEM">  2800</i>
   <i type="int" name="TELESCOPE">     0</i>
   <i type="int" name="NTAUPAR">    -1</i>
   <i type="int" name="NOMEGAPAR">    -1</i>
   <i name="LAMBDA">      1.00000000</i>
  </separator>
  <separator name="External order field" >
   <i name="OFIELD_KAPPA">      0.00000000</i>
   <v name="OFIELD_K">      0.00000000      0.00000000      0.00000000</v>
   <i name="OFIELD_Q6_NEAR">      0.00000000</i>
   <i name="OFIELD_Q6_FAR">      0.00000000</i>
   <i name="OFIELD_A">      0.00000000</i>
  </separator>
 </parameters>
 <atominfo>
  <atoms>       8 </atoms>
  <types>       2 </types>
  <array name="atoms" >
   <dimension dim="1">ion</dimension>
   <field type="string">element</field>
   <field type="int">atomtype</field>
   <set>
    <rc><c>Au</c><c>   1</c></rc>
    <rc><c>Au</c><c>   1</c></rc>
    <rc><c>Au</c><c>   1</c></rc>
    <rc><c>Au</c><c>   1</c></rc>
    <rc><c>Cu</c><c>   2</c></rc>
    <rc><c>Cu</c><c>   2</c></rc>
    <rc><c>Cu</c><c>   2</c></rc>
    <rc><c>Cu</c><c>   2</c></rc>
   </set>
  </array>
  <array name="atomtypes" >
   <dimension dim="1">type</dimension>
   <field type="int">atomspertype</field>
   <field type="string">element</field>
   <field>mass</field>
   <field>valence</field>
   <field type="string">pseudopotential</field>
   <set>
    <rc><c>   4</c><c>Au</c><c>    196.96600000</c><c>     11.00000000</c><c>  PAW_PBE Au 04Oct2007                  </c></rc>
    <rc><c>   4</c><c>Cu</c><c>     63.54600000</c><c>     11.00000000</c><c>  PAW_PBE Cu 22Jun2005                  </c></rc>
   </set>
  </array>
 </atominfo>
 <structure name="initialpos" >
  <crystal>
   <varray name="basis" >
    <v>      21.45882309       0.00000000       0.00000000 </v>
    <v>       0.00000000      20.59169817       0.00000000 </v>
    <v>       0.00000000       0.00000000      24.25672700 </v>
   </varray>
   <i name="volume">  10718.40747945 </i>
   <varray name="rec_basis" >
    <v>       0.04660088       0.00000000       0.00000000 </v>
    <v>       0.00000000       0.04856326       0.00000000 </v>
    <v>       0.00000000       0.00000000       0.04122568 </v>
   </varray>
  </crystal>
  <varray name="positions" >
   <v>       0.43868933       0.53185854       0.46671529 </v>
   <v>       0.55402348       0.47613176       0.37007167 </v>
   <v>       0.43691203       0.46384643       0.37782131 </v>
   <v>       0.51828169       0.55052990       0.62683564 </v>
   <v>       0.55630450       0.54236485       0.45733203 </v>
   <v>       0.50795564       0.43074052       0.45814749 </v>
   <v>       0.51159590       0.49710890       0.54572399 </v>
   <v>       0.48731216       0.57624289       0.37890537 </v>
  </varray>
 </structure>
 <calculation>
  <scstep>
   <time name="dav">    5.57    5.59</time>
   <time name="total">    7.72    7.76</time>
   <energy>
    <i name="alphaZ">      5.66091286 </i>
    <i name="ewald">   8695.50706111 </i>
    <i name="hartreedc"> -17304.55417945 </i>
    <i name="XCdc">    238.29791412 </i>
    <i name="pawpsdc">   8408.47588452 </i>
    <i name="pawaedc">  -8739.43322972 </i>
    <i name="eentropy">      0.05446540 </i>
    <i name="bandstr">     98.22543355 </i>
    <i name="atom">   9268.15263587 </i>
    <i name="e_fr_energy">    670.38689827 </i>
    <i name="e_wo_entrp">    670.33243287 </i>
    <i name="e_0_energy">    670.36874313 </i>
   </energy>
  </scstep>
  <scstep>
   <time name="dav">    7.60    7.62</time>
   <time name="total">    7.60    7.62</time>
   <energy>
    <i name="e_fr_energy">    323.96914877 </i>
    <i name="e_wo_entrp">    324.03280403 </i>
    <i name="e_0_energy">    323.99036719 </i>
   </energy>
  </scstep>
  <scstep>
   <time name="dav">    8.29    8.31</time>
   <time name="total">    8.29    8.31</time>
   <energy>
    <i name="e_fr_energy">    111.85955063 </i>
    <i name="e_wo_entrp">    111.87170223 </i>
    <i name="e_0_energy">    111.86360117 </i>
   </energy>
  </scstep>
  <scstep>
   <time name="dav">    9.14    9.18</time>
   <time name="total">    9.14    9.18</time>
   <energy>
    <i name="e_fr_energy">      6.31454422 </i>
    <i name="e_wo_entrp">      6.33658778 </i>
    <i name="e_0_energy">      6.32189207 </i>
   </energy>
  </scstep>
  <scstep>
   <time name="dav">    7.73    7.75</time>
   <time name="total">    8.51    8.54</time>
   <energy>
    <i name="e_fr_energy">    -16.90142734 </i>
    <i name="e_wo_entrp">    -16.85884961 </i>
    <i name="e_0_energy">    -16.88723476 </i>
   </energy>
  </scstep>
  <scstep>
   <time name="dav">    7.29    7.31</time>
   <time name="total">   10.18   10.21</time>
   <energy>
    <i name="e_fr_energy">    -11.20607844 </i>
    <i name="e_wo_entrp">    -11.20156671 </i>
    <i name="e_0_energy">    -11.20457453 </i>
   </energy>
  </scstep>
  <scstep>
   <time name="dav">    6.41    6.43</time>
   <time name="total">    9.37    9.41</time>
   <energy>
    <i name="e_fr_energy">     -6.30176422 </i>
    <i name="e_wo_entrp">     -6.29003030 </i>
    <i name="e_0_energy">     -6.29785291 </i>
   </energy>
  </scstep>
  <scstep>
   <time name="dav">    7.80    7.82</time>
   <time name="total">   10.72   10.76</time>
   <energy>
    <i name="e_fr_energy">     -6.73677981 </i>
    <i name="e_wo_entrp">     -6.72200071 </i>
    <i name="e_0_energy">     -6.73185344 </i>
   </energy>
  </scstep>
  <scstep>
   <time name="dav">    7.68    7.70</time>
   <time name="total">   10.65   10.69</time>
   <energy>
    <i name="e_fr_energy">     -8.87242123 </i>
    <i name="e_wo_entrp">     -8.87311732 </i>
    <i name="e_0_energy">     -8.87265326 </i>
   </energy>
  </scstep>
  <scstep>
   <time name="dav">    7.38    7.43</time>
   <time name="total">   10.34   10.41</time>
   <energy>
    <i name="e_fr_energy">    -10.54633382 </i>
    <i name="e_wo_entrp">    -10.54066891 </i>
    <i name="e_0_energy">    -10.54444552 </i>
   </energy>
  </scstep>
  <scstep>
   <time name="dav">    7.34    7.37</time>
   <time name="total">   10.28   10.32</time>
   <energy>
    <i name="e_fr_energy">    -11.59090932 </i>
    <i name="e_wo_entrp">    -11.58672698 </i>
    <i name="e_0_energy">    -11.58951520 </i>
   </energy>
  </scstep>
  <scstep>
   <time name="dav">    6.85    6.88</time>
   <time name="total">    9.81    9.86</time>
   <energy>
    <i name="e_fr_energy">    -13.21751113 </i>
    <i name="e_wo_entrp">    -13.22250010 </i>
    <i name="e_0_energy">    -13.21917412 </i>
   </energy>
  </scstep>
  <scstep>
   <time name="dav">    7.14    7.16</time>
   <time name="total">   10.03   10.06</time>
   <energy>
    <i name="e_fr_energy">    -14.19977382 </i>
    <i name="e_wo_entrp">    -14.21166344 </i>
    <i name="e_0_energy">    -14.20373702 </i>
   </energy>
  </scstep>
  <scstep>
   <time name="dav">    7.25    7.30</time>
   <time name="total">   10.25   10.32</time>
   <energy>
    <i name="e_fr_energy">    -14.83471000 </i>
    <i name="e_wo_entrp">    -14.84996839 </i>
    <i name="e_0_energy">    -14.83979613 </i>
   </energy>
  </scstep>
  <scstep>
   <time name="dav">    6.98    7.00</time>
   <time name="total">    9.93    9.97</time>
   <energy>
    <i name="e_fr_energy">    -15.54991343 </i>
    <i name="e_wo_entrp">    -15.56102454 </i>
    <i name="e_0_energy">    -15.55361713 </i>
   </energy>
  </scstep>
  <scstep>
   <time name="dav">    7.54    7.56</time>
   <time name="total">   10.56   10.59</time>
   <energy>
    <i name="e_fr_energy">    -15.74143938 </i>
    <i name="e_wo_entrp">    -15.74982570 </i>
    <i name="e_0_energy">    -15.74423482 </i>
   </energy>
  </scstep>
  <scstep>
   <time name="dav">    6.86    6.89</time>
   <time name="total">    9.89    9.93</time>
   <energy>
    <i name="e_fr_energy">    -15.95639422 </i>
    <i name="e_wo_entrp">    -15.96132326 </i>
    <i name="e_0_energy">    -15.95803724 </i>
   </energy>
  </scstep>
  <scstep>
   <time name="dav">    7.12    7.13</time>
   <time name="total">   10.15   10.17</time>
   <energy>
    <i name="e_fr_energy">    -16.25496013 </i>
    <i name="e_wo_entrp">    -16.25361102 </i>
    <i name="e_0_energy">    -16.25451043 </i>
   </energy>
  </scstep>
  <scstep>
   <time name="dav">    7.43    7.44</time>
   <time name="total">   10.46   10.49</time>
   <energy>
    <i name="e_fr_energy">    -16.43892883 </i>
    <i name="e_wo_entrp">    -16.43231592 </i>
    <i name="e_0_energy">    -16.43672453 </i>
   </energy>
  </scstep>
  <scstep>
   <time name="dav">    5.85    5.86</time>
   <time name="total">    8.90    8.93</time>
   <energy>
    <i name="e_fr_energy">    -16.51650892 </i>
    <i name="e_wo_entrp">    -16.50684664 </i>
    <i name="e_0_energy">    -16.51328816 </i>
   </energy>
  </scstep>
  <scstep>
   <time name="dav">    6.31    6.33</time>
   <time name="total">    9.36    9.39</time>
   <energy>
    <i name="e_fr_energy">    -16.56639220 </i>
    <i name="e_wo_entrp">    -16.55404943 </i>
    <i name="e_0_energy">    -16.56227794 </i>
   </energy>
  </scstep>
  <scstep>
   <time name="dav">    5.38    5.39</time>
   <time name="total">    8.44    8.47</time>
   <energy>
    <i name="e_fr_energy">    -16.58519404 </i>
    <i name="e_wo_entrp">    -16.57111190 </i>
    <i name="e_0_energy">    -16.58049999 </i>
   </energy>
  </scstep>
  <scstep>
   <time name="dav">    4.45    4.48</time>
   <time name="total">    7.53    7.58</time>
   <energy>
    <i name="e_fr_energy">    -16.59577220 </i>
    <i name="e_wo_entrp">    -16.58077669 </i>
    <i name="e_0_energy">    -16.59077370 </i>
   </energy>
  </scstep>
  <scstep>
   <time name="dav">    4.56    4.58</time>
   <time name="total">    7.66    7.68</time>
   <energy>
    <i name="e_fr_energy">    -16.60282853 </i>
    <i name="e_wo_entrp">    -16.58749694 </i>
    <i name="e_0_energy">    -16.59771800 </i>
   </energy>
  </scstep>
  <scstep>
   <time name="dav">    4.72    4.73</time>
   <time name="total">    7.82    7.85</time>
   <energy>
    <i name="e_fr_energy">    -16.60760195 </i>
    <i name="e_wo_entrp">    -16.59217631 </i>
    <i name="e_0_energy">    -16.60246007 </i>
   </energy>
  </scstep>
  <scstep>
   <time name="dav">    4.58    4.60</time>
   <time name="total">    7.70    7.74</time>
   <energy>
    <i name="e_fr_energy">    -16.61293662 </i>
    <i name="e_wo_entrp">    -16.59741701 </i>
    <i name="e_0_energy">    -16.60776341 </i>
   </energy>
  </scstep>
  <scstep>
   <time name="dav">    4.70    4.74</time>
   <time name="total">    7.79    7.85</time>
   <energy>
    <i name="e_fr_energy">    -16.61558763 </i>
    <i name="e_wo_entrp">    -16.60008112 </i>
    <i name="e_0_energy">    -16.61041880 </i>
   </energy>
  </scstep>
  <scstep>
   <time name="dav">    4.72    4.73</time>
   <time name="total">    7.85    7.88</time>
   <energy>
    <i name="e_fr_energy">    -16.61765489 </i>
    <i name="e_wo_entrp">    -16.60214921 </i>
    <i name="e_0_energy">    -16.61248633 </i>
   </energy>
  </scstep>
  <scstep>
   <time name="dav">    4.58    4.62</time>
   <time name="total">    7.73    7.79</time>
   <energy>
    <i name="e_fr_energy">    -16.61827394 </i>
    <i name="e_wo_entrp">    -16.60276458 </i>
    <i name="e_0_energy">    -16.61310415 </i>
   </energy>
  </scstep>
  <scstep>
   <time name="dav">    4.58    4.59</time>
   <time name="total">    7.74    7.77</time>
   <energy>
    <i name="e_fr_energy">    -16.61856893 </i>
    <i name="e_wo_entrp">    -16.60306792 </i>
    <i name="e_0_energy">    -16.61340193 </i>
   </energy>
  </scstep>
  <scstep>
   <time name="dav">    4.42    4.44</time>
   <time name="total">    7.56    7.58</time>
   <energy>
    <i name="e_fr_energy">    -16.61872761 </i>
    <i name="e_wo_entrp">    -16.60323172 </i>
    <i name="e_0_energy">    -16.61356231 </i>
   </energy>
  </scstep>
  <scstep>
   <time name="dav">    4.41    4.45</time>
   <time name="total">    6.58    6.62</time>
   <energy>
    <i name="alphaZ">      5.66091286 </i>
    <i name="ewald">   8695.50706111 </i>
    <i name="hartreedc"> -17251.64066526 </i>
    <i name="XCdc">    234.26448184 </i>
    <i name="pawpsdc">   9081.81108822 </i>
    <i name="pawaedc">  -9427.48662874 </i>
    <i name="eentropy">     -0.01549131 </i>
    <i name="bandstr">   -622.87220807 </i>
    <i name="atom">   9268.15263587 </i>
    <i name="e_fr_energy">    -16.61881347 </i>
    <i name="e_wo_entrp">    -16.60332217 </i>
    <i name="e_0_energy">    -16.61364971 </i>
   </energy>
  </scstep>
  <structure>
   <crystal>
    <varray name="basis" >
     <v>      21.45882309       0.00000000       0.00000000 </v>
     <v>       0.00000000      20.59169817       0.00000000 </v>
     <v>       0.00000000       0.00000000      24.25672700 </v>
    </varray>
    <i name="volume">  10718.40747945 </i>
    <varray name="rec_basis" >
     <v>       0.04660088       0.00000000       0.00000000 </v>
     <v>       0.00000000       0.04856326       0.00000000 </v>
     <v>       0.00000000       0.00000000       0.04122568 </v>
    </varray>
   </crystal>
   <varray name="positions" >
    <v>       0.43868933       0.53185854       0.46671529 </v>
    <v>       0.55402348       0.47613176       0.37007167 </v>
    <v>       0.43691203       0.46384643       0.37782131 </v>
    <v>       0.51828169       0.55052990       0.62683564 </v>
    <v>       0.55630450       0.54236485       0.45733203 </v>
    <v>       0.50795564       0.43074052       0.45814749 </v>
    <v>       0.51159590       0.49710890       0.54572399 </v>
    <v>       0.48731216       0.57624289       0.37890537 </v>
   </varray>
  </structure>
  <varray name="forces" >
   <v>      -0.60141175       0.65289800       1.34372362 </v>
   <v>       2.31949357      -0.04212135      -0.64625150 </v>
   <v>      -2.07645072      -0.85364775      -0.99303393 </v>
   <v>       0.19376667       0.67114190       1.34745232 </v>
   <v>       0.10323619      -0.16398059       0.23309379 </v>
   <v>       0.20568706       0.05387669       0.45439752 </v>
   <v>      -0.18923270      -0.54327761      -1.77839135 </v>
   <v>       0.04491169       0.22511071       0.03900954 </v>
  </varray>
  <energy>
   <i name="e_fr_energy">    -16.61881347 </i>
   <i name="e_wo_entrp">    -16.60332217 </i>
   <i name="e_0_energy">    -16.61364971 </i>
  </energy>
  <time name="totalsc">  293.39  294.60</time>
 </calculation>
 <calculation>
  <scstep>
   <time name="dav">    6.10    6.11</time>
   <time name="total">    8.97    9.01</time>
   <energy>
    <i name="alphaZ">      5.66091286 </i>
    <i name="ewald">   8434.09886968 </i>
    <i name="hartreedc"> -16995.52410629 </i>
    <i name="XCdc">    233.36225398 </i>
    <i name="pawpsdc">   9081.81774940 </i>
    <i name="pawaedc">  -9427.49330961 </i>
    <i name="eentropy">     -0.01501148 </i>
    <i name="bandstr">   -616.32612796 </i>
    <i name="atom">   9268.15263587 </i>
    <i name="e_fr_energy">    -16.26613355 </i>
    <i name="e_wo_entrp">    -16.25112207 </i>
    <i name="e_0_energy">    -16.26112972 </i>
   </energy>
  </scstep>
  <scstep>
   <time name="dav">    7.81    7.83</time>
   <time name="total">   10.78   10.82</time>
   <energy>
    <i name="e_fr_energy">    -17.11766513 </i>
    <i name="e_wo_entrp">    -17.10709046 </i>
    <i name="e_0_energy">    -17.11414024 </i>
   </energy>
  </scstep>
  <scstep>
   <time name="dav">    6.82    6.83</time>
   <time name="total">    9.77    9.81</time>
   <energy>
    <i name="e_fr_energy">    -17.05835202 </i>
    <i name="e_wo_entrp">    -17.04748912 </i>
    <i name="e_0_energy">    -17.05473106 </i>
   </energy>
  </scstep>
  <scstep>
   <time name="dav">    6.80    6.82</time>
   <time name="total">    9.72    9.75</time>
   <energy>
    <i name="e_fr_energy">    -17.03651563 </i>
    <i name="e_wo_entrp">    -17.02283141 </i>
    <i name="e_0_energy">    -17.03195422 </i>
   </energy>
  </scstep>
  <scstep>
   <time name="dav">    7.21    7.24</time>
   <time name="total">   10.18   10.23</time>
   <energy>
    <i name="e_fr_energy">    -17.03319338 </i>
    <i name="e_wo_entrp">    -17.02215600 </i>
    <i name="e_0_energy">    -17.02951426 </i>
   </energy>
  </scstep>
  <scstep>
   <time name="dav">    7.19    7.20</time>
   <time name="total">   10.17   10.19</time>
   <energy>
    <i name="e_fr_energy">    -17.03237581 </i>
    <i name="e_wo_entrp">    -17.02031770 </i>
    <i name="e_0_energy">    -17.02835644 </i>
   </energy>
  </scstep>
  <scstep>
   <time name="dav">    7.67    7.68</time>
   <time name="total">   10.53   10.57</time>
   <energy>
    <i name="e_fr_energy">    -17.03912456 </i>
    <i name="e_wo_entrp">    -17.02621055 </i>
    <i name="e_0_energy">    -17.03481989 </i>
   </energy>
  </scstep>
  <scstep>
   <time name="dav">    7.24    7.27</time>
   <time name="total">   10.11   10.17</time>
   <energy>
    <i name="e_fr_energy">    -17.04314560 </i>
    <i name="e_wo_entrp">    -17.03022453 </i>
    <i name="e_0_energy">    -17.03883858 </i>
   </energy>
  </scstep>
  <scstep>
   <time name="dav">    5.96    5.98</time>
   <time name="total">    8.95    8.99</time>
   <energy>
    <i name="e_fr_energy">    -17.04638094 </i>
    <i name="e_wo_entrp">    -17.03330956 </i>
    <i name="e_0_energy">    -17.04202382 </i>
   </energy>
  </scstep>
  <scstep>
   <time name="dav">    4.56    4.57</time>
   <time name="total">    7.45    7.48</time>
   <energy>
    <i name="e_fr_energy">    -17.05115026 </i>
    <i name="e_wo_entrp">    -17.03755714 </i>
    <i name="e_0_energy">    -17.04661922 </i>
   </energy>
  </scstep>
  <scstep>
   <time name="dav">    4.54    4.55</time>
   <time name="total">    7.51    7.54</time>
   <energy>
    <i name="e_fr_energy">    -17.05437273 </i>
    <i name="e_wo_entrp">    -17.04040700 </i>
    <i name="e_0_energy">    -17.04971749 </i>
   </energy>
  </scstep>
  <scstep>
   <time name="dav">    4.27    4.28</time>
   <time name="total">    7.29    7.32</time>
   <energy>
    <i name="e_fr_energy">    -17.05679391 </i>
    <i name="e_wo_entrp">    -17.04250954 </i>
    <i name="e_0_energy">    -17.05203245 </i>
   </energy>
  </scstep>
  <scstep>
   <time name="dav">    4.42    4.43</time>
   <time name="total">    7.44    7.48</time>
   <energy>
    <i name="e_fr_energy">    -17.06149071 </i>
    <i name="e_wo_entrp">    -17.04653926 </i>
    <i name="e_0_energy">    -17.05650689 </i>
   </energy>
  </scstep>
  <scstep>
   <time name="dav">    5.10    5.11</time>
   <time name="total">    8.13    8.15</time>
   <energy>
    <i name="e_fr_energy">    -17.06735551 </i>
    <i name="e_wo_entrp">    -17.05141571 </i>
    <i name="e_0_energy">    -17.06204224 </i>
   </energy>
  </scstep>
  <scstep>
   <time name="dav">    4.53    4.57</time>
   <time name="total">    7.57    7.63</time>
   <energy>
    <i name="e_fr_energy">    -17.07254186 </i>
    <i name="e_wo_entrp">    -17.05543674 </i>
    <i name="e_0_energy">    -17.06684015 </i>
   </energy>
  </scstep>
  <scstep>
   <time name="dav">    4.68    4.70</time>
   <time name="total">    7.74    7.78</time>
   <energy>
    <i name="e_fr_energy">    -17.07488338 </i>
    <i name="e_wo_entrp">    -17.05706203 </i>
    <i name="e_0_energy">    -17.06894293 </i>
   </energy>
  </scstep>
  <scstep>
   <time name="dav">    4.68    4.71</time>
   <time name="total">    7.74    7.78</time>
   <energy>
    <i name="e_fr_energy">    -17.07585279 </i>
    <i name="e_wo_entrp">    -17.05769094 </i>
    <i name="e_0_energy">    -17.06979884 </i>
   </energy>
  </scstep>
  <scstep>
   <time name="dav">    4.69    4.70</time>
   <time name="total">    7.76    7.78</time>
   <energy>
    <i name="e_fr_energy">    -17.07662519 </i>
    <i name="e_wo_entrp">    -17.05815569 </i>
    <i name="e_0_energy">    -17.07046869 </i>
   </energy>
  </scstep>
  <scstep>
   <time name="dav">    4.56    4.57</time>
   <time name="total">    7.65    7.67</time>
   <energy>
    <i name="e_fr_energy">    -17.07725259 </i>
    <i name="e_wo_entrp">    -17.05848840 </i>
    <i name="e_0_energy">    -17.07099786 </i>
   </energy>
  </scstep>
  <scstep>
   <time name="dav">    4.57    4.60</time>
   <time name="total">    7.59    7.64</time>
   <energy>
    <i name="e_fr_energy">    -17.07755015 </i>
    <i name="e_wo_entrp">    -17.05863621 </i>
    <i name="e_0_energy">    -17.07124550 </i>
   </energy>
  </scstep>
  <scstep>
   <time name="dav">    4.68    4.71</time>
   <time name="total">    7.81    7.85</time>
   <energy>
    <i name="e_fr_energy">    -17.07782585 </i>
    <i name="e_wo_entrp">    -17.05876561 </i>
    <i name="e_0_energy">    -17.07147244 </i>
   </energy>
  </scstep>
  <scstep>
   <time name="dav">    4.56    4.59</time>
   <time name="total">    7.63    7.68</time>
   <energy>
    <i name="e_fr_energy">    -17.07795999 </i>
    <i name="e_wo_entrp">    -17.05882211 </i>
    <i name="e_0_energy">    -17.07158069 </i>
   </energy>
  </scstep>
  <scstep>
   <time name="dav">    4.68    4.70</time>
   <time name="total">    7.82    7.85</time>
   <energy>
    <i name="e_fr_energy">    -17.07811971 </i>
    <i name="e_wo_entrp">    -17.05891945 </i>
    <i name="e_0_energy">    -17.07171962 </i>
   </energy>
  </scstep>
  <scstep>
   <time name="dav">    4.39    4.40</time>
   <time name="total">    7.48    7.49</time>
   <energy>
    <i name="e_fr_energy">    -17.07822504 </i>
    <i name="e_wo_entrp">    -17.05899203 </i>
    <i name="e_0_energy">    -17.07181404 </i>
   </energy>
  </scstep>
  <scstep>
   <time name="dav">    4.38    4.38</time>
   <time name="total">    7.43    7.45</time>
   <energy>
    <i name="e_fr_energy">    -17.07834215 </i>
    <i name="e_wo_entrp">    -17.05907130 </i>
    <i name="e_0_energy">    -17.07191853 </i>
   </energy>
  </scstep>
  <scstep>
   <time name="dav">    4.38    4.40</time>
   <time name="total">    6.57    6.60</time>
   <energy>
    <i name="alphaZ">      5.66091286 </i>
    <i name="ewald">   8434.09886968 </i>
    <i name="hartreedc"> -17001.89057127 </i>
    <i name="XCdc">    233.55068777 </i>
    <i name="pawpsdc">   8920.45895321 </i>
    <i name="pawaedc">  -9264.04104865 </i>
    <i name="eentropy">     -0.01929759 </i>
    <i name="bandstr">   -613.04954783 </i>
    <i name="atom">   9268.15263587 </i>
    <i name="e_fr_energy">    -17.07840594 </i>
    <i name="e_wo_entrp">    -17.05910836 </i>
    <i name="e_0_energy">    -17.07197341 </i>
   </energy>
  </scstep>
  <structure>
   <crystal>
    <varray name="basis" >
     <v>      21.45882309       0.00000000       0.00000000 </v>
     <v>       0.00000000      20.59169817       0.00000000 </v>
     <v>       0.00000000       0.00000000      24.25672700 </v>
    </varray>
    <i name="volume">  10718.40747945 </i>
    <varray name="rec_basis" >
     <v>       0.04660088       0.00000000       0.00000000 </v>
     <v>       0.00000000       0.04856326       0.00000000 </v>
     <v>       0.00000000       0.00000000       0.04122568 </v>
    </varray>
   </crystal>
   <varray name="positions" >
    <v>       0.43733727       0.53338816       0.46938773 </v>
    <v>       0.55923805       0.47603308       0.36878638 </v>
    <v>       0.43224386       0.46184649       0.37584633 </v>
    <v>       0.51871730       0.55210227       0.62951551 </v>
    <v>       0.55653659       0.54198068       0.45779561 </v>
    <v>       0.50841806       0.43086674       0.45905121 </v>
    <v>       0.51117048       0.49583609       0.54218706 </v>
    <v>       0.48741313       0.57677028       0.37898295 </v>
   </varray>
  </structure>
  <varray name="forces" >
   <v>      -0.42332839       0.12834277      -0.00665873 </v>
   <v>       0.47115188       0.14975089       0.08145646 </v>
   <v>      -0.23908724       0.11055231       0.03523386 </v>
   <v>       0.07140214      -0.13159837      -0.12925525 </v>
   <v>       0.00896225      -0.26175175      -0.12918493 </v>
   <v>       0.01758784       0.34349063      -0.35745646 </v>
   <v>       0.08531809       0.24177577       0.25033079 </v>
   <v>       0.00799344      -0.58056226       0.25553426 </v>
  </varray>
  <energy>
   <i name="e_fr_energy">    -17.07840594 </i>
   <i name="e_wo_entrp">    -17.05910836 </i>
   <i name="e_0_energy">    -17.07197341 </i>
  </energy>
  <time name="totalsc">  224.64  225.61</time>
 </calculation>
 <calculation>
  <scstep>
   <time name="dav">    5.63    5.65</time>
   <time name="total">    8.59    8.63</time>
   <energy>
    <i name="alphaZ">      5.66091286 </i>
    <i name="ewald">   8421.91858079 </i>
    <i name="hartreedc"> -16989.86991531 </i>
    <i name="XCdc">    233.51176197 </i>
    <i name="pawpsdc">   8920.46482744 </i>
    <i name="pawaedc">  -9264.04671829 </i>
    <i name="eentropy">     -0.01914482 </i>
    <i name="bandstr">   -612.85050161 </i>
    <i name="atom">   9268.15263587 </i>
    <i name="e_fr_energy">    -17.07756110 </i>
    <i name="e_wo_entrp">    -17.05841628 </i>
    <i name="e_0_energy">    -17.07117949 </i>
   </energy>
  </scstep>
  <scstep>
   <time name="dav">    7.80    7.84</time>
   <time name="total">   10.76   10.82</time>
   <energy>
    <i name="e_fr_energy">    -17.07921836 </i>
    <i name="e_wo_entrp">    -17.06014819 </i>
    <i name="e_0_energy">    -17.07286164 </i>
   </energy>
  </scstep>
  <scstep>
   <time name="dav">    6.36    6.39</time>
   <time name="total">    9.33    9.36</time>
   <energy>
    <i name="e_fr_energy">    -17.07915172 </i>
    <i name="e_wo_entrp">    -17.06009964 </i>
    <i name="e_0_energy">    -17.07280103 </i>
   </energy>
  </scstep>
  <scstep>
   <time name="dav">    5.79    5.80</time>
   <time name="total">    7.97    7.99</time>
   <energy>
    <i name="alphaZ">      5.66091286 </i>
    <i name="ewald">   8421.91858079 </i>
    <i name="hartreedc"> -16990.15201991 </i>
    <i name="XCdc">    233.52102353 </i>
    <i name="pawpsdc">   8916.30341518 </i>
    <i name="pawaedc">  -9259.83731289 </i>
    <i name="eentropy">     -0.01905836 </i>
    <i name="bandstr">   -612.62723896 </i>
    <i name="atom">   9268.15263587 </i>
    <i name="e_fr_energy">    -17.07906188 </i>
    <i name="e_wo_entrp">    -17.06000352 </i>
    <i name="e_0_energy">    -17.07270909 </i>
   </energy>
  </scstep>
  <structure>
   <crystal>
    <varray name="basis" >
     <v>      21.45882309       0.00000000       0.00000000 </v>
     <v>       0.00000000      20.59169817       0.00000000 </v>
     <v>       0.00000000       0.00000000      24.25672700 </v>
    </varray>
    <i name="volume">  10718.40747945 </i>
    <varray name="rec_basis" >
     <v>       0.04660088       0.00000000       0.00000000 </v>
     <v>       0.00000000       0.04856326       0.00000000 </v>
     <v>       0.00000000       0.00000000       0.04122568 </v>
    </varray>
   </crystal>
   <varray name="positions" >
    <v>       0.43727067       0.53346351       0.46951937 </v>
    <v>       0.55949490       0.47602822       0.36872307 </v>
    <v>       0.43201392       0.46174798       0.37574905 </v>
    <v>       0.51873876       0.55217972       0.62964751 </v>
    <v>       0.55654802       0.54196175       0.45781845 </v>
    <v>       0.50844084       0.43087296       0.45909573 </v>
    <v>       0.51114953       0.49577340       0.54201284 </v>
    <v>       0.48741810       0.57679626       0.37898677 </v>
   </varray>
  </structure>
  <varray name="forces" >
   <v>      -0.41584580       0.11073421      -0.07272122 </v>
   <v>       0.40426559       0.16051038       0.11379725 </v>
   <v>      -0.17412641       0.14962198       0.07993759 </v>
   <v>       0.06531800      -0.16295412      -0.18803518 </v>
   <v>       0.00441880      -0.26368158      -0.14667645 </v>
   <v>       0.00860716       0.35396356      -0.39468056 </v>
   <v>       0.10058332       0.26607228       0.34032696 </v>
   <v>       0.00677934      -0.61426671       0.26805162 </v>
  </varray>
  <energy>
   <i name="e_fr_energy">    -17.07906188 </i>
   <i name="e_wo_entrp">    -17.06000352 </i>
   <i name="e_0_energy">    -17.07270909 </i>
  </energy>
  <time name="totalsc">   43.34   43.55</time>
 </calculation>
 <calculation>
  <scstep>
   <time name="dav">    5.82    5.85</time>
   <time name="total">    8.77    8.83</time>
   <energy>
    <i name="alphaZ">      5.66091286 </i>
    <i name="ewald">   8431.29429181 </i>
    <i name="hartreedc"> -16999.77388130 </i>
    <i name="XCdc">    233.53676526 </i>
    <i name="pawpsdc">   8914.78780447 </i>
    <i name="pawaedc">  -9258.28234180 </i>
    <i name="eentropy">     -0.01729066 </i>
    <i name="bandstr">   -612.44044077 </i>
    <i name="atom">   9268.15263587 </i>
    <i name="e_fr_energy">    -17.08154426 </i>
    <i name="e_wo_entrp">    -17.06425360 </i>
    <i name="e_0_energy">    -17.07578070 </i>
   </energy>
  </scstep>
  <scstep>
   <time name="dav">    7.77    7.79</time>
   <time name="total">   10.75   10.78</time>
   <energy>
    <i name="e_fr_energy">    -17.14941455 </i>
    <i name="e_wo_entrp">    -17.13242355 </i>
    <i name="e_0_energy">    -17.14375088 </i>
   </energy>
  </scstep>
  <scstep>
   <time name="dav">    7.06    7.12</time>
   <time name="total">   10.04   10.11</time>
   <energy>
    <i name="e_fr_energy">    -17.14099226 </i>
    <i name="e_wo_entrp">    -17.12394770 </i>
    <i name="e_0_energy">    -17.13531074 </i>
   </energy>
  </scstep>
  <scstep>
   <time name="dav">    7.47    7.49</time>
   <time name="total">   10.43   10.46</time>
   <energy>
    <i name="e_fr_energy">    -17.13934030 </i>
    <i name="e_wo_entrp">    -17.12210870 </i>
    <i name="e_0_energy">    -17.13359643 </i>
   </energy>
  </scstep>
  <scstep>
   <time name="dav">    6.79    6.81</time>
   <time name="total">    9.72    9.76</time>
   <energy>
    <i name="e_fr_energy">    -17.13792653 </i>
    <i name="e_wo_entrp">    -17.12052405 </i>
    <i name="e_0_energy">    -17.13212570 </i>
   </energy>
  </scstep>
  <scstep>
   <time name="dav">    7.52    7.54</time>
   <time name="total">   10.49   10.54</time>
   <energy>
    <i name="e_fr_energy">    -17.13505150 </i>
    <i name="e_wo_entrp">    -17.11708723 </i>
    <i name="e_0_energy">    -17.12906341 </i>
   </energy>
  </scstep>
  <scstep>
   <time name="dav">    5.96    5.97</time>
   <time name="total">    8.83    8.86</time>
   <energy>
    <i name="e_fr_energy">    -17.13493006 </i>
    <i name="e_wo_entrp">    -17.11656168 </i>
    <i name="e_0_energy">    -17.12880727 </i>
   </energy>
  </scstep>
  <scstep>
   <time name="dav">    4.66    4.69</time>
   <time name="total">    7.62    7.65</time>
   <energy>
    <i name="e_fr_energy">    -17.13545937 </i>
    <i name="e_wo_entrp">    -17.11684751 </i>
    <i name="e_0_energy">    -17.12925542 </i>
   </energy>
  </scstep>
  <scstep>
   <time name="dav">    4.55    4.56</time>
   <time name="total">    7.42    7.45</time>
   <energy>
    <i name="e_fr_energy">    -17.13597952 </i>
    <i name="e_wo_entrp">    -17.11712338 </i>
    <i name="e_0_energy">    -17.12969414 </i>
   </energy>
  </scstep>
  <scstep>
   <time name="dav">    4.42    4.44</time>
   <time name="total">    7.38    7.41</time>
   <energy>
    <i name="e_fr_energy">    -17.13672355 </i>
    <i name="e_wo_entrp">    -17.11755768 </i>
    <i name="e_0_energy">    -17.13033492 </i>
   </energy>
  </scstep>
  <scstep>
   <time name="dav">    4.56    4.58</time>
   <time name="total">    7.46    7.49</time>
   <energy>
    <i name="e_fr_energy">    -17.13747664 </i>
    <i name="e_wo_entrp">    -17.11798968 </i>
    <i name="e_0_energy">    -17.13098099 </i>
   </energy>
  </scstep>
  <scstep>
   <time name="dav">    4.56    4.59</time>
   <time name="total">    7.57    7.62</time>
   <energy>
    <i name="e_fr_energy">    -17.13813319 </i>
    <i name="e_wo_entrp">    -17.11836284 </i>
    <i name="e_0_energy">    -17.13154307 </i>
   </energy>
  </scstep>
  <scstep>
   <time name="dav">    4.53    4.54</time>
   <time name="total">    7.54    7.56</time>
   <energy>
    <i name="e_fr_energy">    -17.13908529 </i>
    <i name="e_wo_entrp">    -17.11890849 </i>
    <i name="e_0_energy">    -17.13235969 </i>
   </energy>
  </scstep>
  <scstep>
   <time name="dav">    4.68    4.70</time>
   <time name="total">    7.70    7.74</time>
   <energy>
    <i name="e_fr_energy">    -17.14075451 </i>
    <i name="e_wo_entrp">    -17.11981849 </i>
    <i name="e_0_energy">    -17.13377584 </i>
   </energy>
  </scstep>
  <scstep>
   <time name="dav">    4.73    4.75</time>
   <time name="total">    7.75    7.79</time>
   <energy>
    <i name="e_fr_energy">    -17.14214220 </i>
    <i name="e_wo_entrp">    -17.12048847 </i>
    <i name="e_0_energy">    -17.13492429 </i>
   </energy>
  </scstep>
  <scstep>
   <time name="dav">    4.70    4.71</time>
   <time name="total">    7.73    7.78</time>
   <energy>
    <i name="e_fr_energy">    -17.14302235 </i>
    <i name="e_wo_entrp">    -17.12095663 </i>
    <i name="e_0_energy">    -17.13566711 </i>
   </energy>
  </scstep>
  <scstep>
   <time name="dav">    4.52    4.53</time>
   <time name="total">    7.58    7.60</time>
   <energy>
    <i name="e_fr_energy">    -17.14376599 </i>
    <i name="e_wo_entrp">    -17.12132925 </i>
    <i name="e_0_energy">    -17.13628708 </i>
   </energy>
  </scstep>
  <scstep>
   <time name="dav">    4.81    4.83</time>
   <time name="total">    7.88    7.92</time>
   <energy>
    <i name="e_fr_energy">    -17.14415439 </i>
    <i name="e_wo_entrp">    -17.12150772 </i>
    <i name="e_0_energy">    -17.13660550 </i>
   </energy>
  </scstep>
  <scstep>
   <time name="dav">    4.42    4.43</time>
   <time name="total">    7.48    7.51</time>
   <energy>
    <i name="e_fr_energy">    -17.14437841 </i>
    <i name="e_wo_entrp">    -17.12163541 </i>
    <i name="e_0_energy">    -17.13679741 </i>
   </energy>
  </scstep>
  <scstep>
   <time name="dav">    4.52    4.54</time>
   <time name="total">    7.55    7.60</time>
   <energy>
    <i name="e_fr_energy">    -17.14454738 </i>
    <i name="e_wo_entrp">    -17.12174170 </i>
    <i name="e_0_energy">    -17.13694549 </i>
   </energy>
  </scstep>
  <scstep>
   <time name="dav">    4.42    4.42</time>
   <time name="total">    7.51    7.54</time>
   <energy>
    <i name="e_fr_energy">    -17.14465636 </i>
    <i name="e_wo_entrp">    -17.12178391 </i>
    <i name="e_0_energy">    -17.13703221 </i>
   </energy>
  </scstep>
  <scstep>
   <time name="dav">    4.40    4.42</time>
   <time name="total">    6.57    6.61</time>
   <energy>
    <i name="alphaZ">      5.66091286 </i>
    <i name="ewald">   8431.29429181 </i>
    <i name="hartreedc"> -16999.76065818 </i>
    <i name="XCdc">    233.52868205 </i>
    <i name="pawpsdc">   8914.63378011 </i>
    <i name="pawaedc">  -9258.18124704 </i>
    <i name="eentropy">     -0.02288202 </i>
    <i name="bandstr">   -612.45022009 </i>
    <i name="atom">   9268.15263587 </i>
    <i name="e_fr_energy">    -17.14470462 </i>
    <i name="e_wo_entrp">    -17.12182260 </i>
    <i name="e_0_energy">    -17.13707728 </i>
   </energy>
  </scstep>
  <structure>
   <crystal>
    <varray name="basis" >
     <v>      21.45882309       0.00000000       0.00000000 </v>
     <v>       0.00000000      20.59169817       0.00000000 </v>
     <v>       0.00000000       0.00000000      24.25672700 </v>
    </varray>
    <i name="volume">  10718.40747945 </i>
    <varray name="rec_basis" >
     <v>       0.04660088       0.00000000       0.00000000 </v>
     <v>       0.00000000       0.04856326       0.00000000 </v>
     <v>       0.00000000       0.00000000       0.04122568 </v>
    </varray>
   </crystal>
   <varray name="positions" >
    <v>       0.43621431       0.53385250       0.46959521 </v>
    <v>       0.56084567       0.47639977       0.36884491 </v>
    <v>       0.43123100       0.46193591       0.37574561 </v>
    <v>       0.51892322       0.55192474       0.62949236 </v>
    <v>       0.55657732       0.54130601       0.45756235 </v>
    <v>       0.50849877       0.43172088       0.45837808 </v>
    <v>       0.51134256       0.49629722       0.54240269 </v>
    <v>       0.48744188       0.57538675       0.37953158 </v>
   </varray>
  </structure>
  <varray name="forces" >
   <v>      -0.28112901       0.03383992       0.01357429 </v>
   <v>       0.31623279       0.10408282       0.05592683 </v>
   <v>      -0.10002883       0.14163198       0.05902202 </v>
   <v>       0.07014309      -0.09844411      -0.05535746 </v>
   <v>      -0.00042225      -0.22350885      -0.03059546 </v>
   <v>      -0.02478661       0.36631803      -0.31924133 </v>
   <v>       0.03311331       0.21999799       0.08431347 </v>
   <v>      -0.01312250      -0.54391777       0.19235763 </v>
  </varray>
  <energy>
   <i name="e_fr_energy">    -17.14470462 </i>
   <i name="e_wo_entrp">    -17.12182260 </i>
   <i name="e_0_energy">    -17.13707728 </i>
  </energy>
  <time name="totalsc">  188.61  189.50</time>
 </calculation>
 <calculation>
  <scstep>
   <time name="dav">    6.08    6.10</time>
   <time name="total">    9.00    9.04</time>
   <energy>
    <i name="alphaZ">      5.66091286 </i>
    <i name="ewald">   8460.69356814 </i>
    <i name="hartreedc"> -17029.89171798 </i>
    <i name="XCdc">    233.63328105 </i>
    <i name="pawpsdc">   8914.62985646 </i>
    <i name="pawaedc">  -9258.17802491 </i>
    <i name="eentropy">     -0.02848246 </i>
    <i name="bandstr">   -611.30644802 </i>
    <i name="atom">   9268.15263587 </i>
    <i name="e_fr_energy">    -16.63441899 </i>
    <i name="e_wo_entrp">    -16.60593653 </i>
    <i name="e_0_energy">    -16.62492484 </i>
   </energy>
  </scstep>
  <scstep>
   <time name="dav">    7.80    7.83</time>
   <time name="total">   10.77   10.82</time>
   <energy>
    <i name="e_fr_energy">    -17.25095818 </i>
    <i name="e_wo_entrp">    -17.21431239 </i>
    <i name="e_0_energy">    -17.23874292 </i>
   </energy>
  </scstep>
  <scstep>
   <time name="dav">    7.18    7.20</time>
   <time name="total">   10.12   10.17</time>
   <energy>
    <i name="e_fr_energy">    -17.22616372 </i>
    <i name="e_wo_entrp">    -17.19202405 </i>
    <i name="e_0_energy">    -17.21478383 </i>
   </energy>
  </scstep>
  <scstep>
   <time name="dav">    7.50    7.52</time>
   <time name="total">   10.45   10.50</time>
   <energy>
    <i name="e_fr_energy">    -17.22088822 </i>
    <i name="e_wo_entrp">    -17.18571851 </i>
    <i name="e_0_energy">    -17.20916499 </i>
   </energy>
  </scstep>
  <scstep>
   <time name="dav">    6.82    6.84</time>
   <time name="total">    9.79    9.83</time>
   <energy>
    <i name="e_fr_energy">    -17.21652678 </i>
    <i name="e_wo_entrp">    -17.18031910 </i>
    <i name="e_0_energy">    -17.20445756 </i>
   </energy>
  </scstep>
  <scstep>
   <time name="dav">    7.52    7.54</time>
   <time name="total">   10.48   10.52</time>
   <energy>
    <i name="e_fr_energy">    -17.21104060 </i>
    <i name="e_wo_entrp">    -17.17366288 </i>
    <i name="e_0_energy">    -17.19858136 </i>
   </energy>
  </scstep>
  <scstep>
   <time name="dav">    6.76    6.78</time>
   <time name="total">    9.65    9.68</time>
   <energy>
    <i name="e_fr_energy">    -17.21230550 </i>
    <i name="e_wo_entrp">    -17.17423312 </i>
    <i name="e_0_energy">    -17.19961471 </i>
   </energy>
  </scstep>
  <scstep>
   <time name="dav">    5.95    5.97</time>
   <time name="total">    8.81    8.86</time>
   <energy>
    <i name="e_fr_energy">    -17.21384304 </i>
    <i name="e_wo_entrp">    -17.17529109 </i>
    <i name="e_0_energy">    -17.20099239 </i>
   </energy>
  </scstep>
  <scstep>
   <time name="dav">    4.54    4.55</time>
   <time name="total">    7.42    7.45</time>
   <energy>
    <i name="e_fr_energy">    -17.21558286 </i>
    <i name="e_wo_entrp">    -17.17651068 </i>
    <i name="e_0_energy">    -17.20255880 </i>
   </energy>
  </scstep>
  <scstep>
   <time name="dav">    4.55    4.56</time>
   <time name="total">    7.48    7.51</time>
   <energy>
    <i name="e_fr_energy">    -17.21772625 </i>
    <i name="e_wo_entrp">    -17.17817568 </i>
    <i name="e_0_energy">    -17.20454272 </i>
   </energy>
  </scstep>
  <scstep>
   <time name="dav">    4.26    4.29</time>
   <time name="total">    7.23    7.27</time>
   <energy>
    <i name="e_fr_energy">    -17.21915341 </i>
    <i name="e_wo_entrp">    -17.17919239 </i>
    <i name="e_0_energy">    -17.20583307 </i>
   </energy>
  </scstep>
  <scstep>
   <time name="dav">    4.41    4.42</time>
   <time name="total">    7.42    7.44</time>
   <energy>
    <i name="e_fr_energy">    -17.22069111 </i>
    <i name="e_wo_entrp">    -17.18027413 </i>
    <i name="e_0_energy">    -17.20721878 </i>
   </energy>
  </scstep>
  <scstep>
   <time name="dav">    4.36    4.37</time>
   <time name="total">    7.38    7.41</time>
   <energy>
    <i name="e_fr_energy">    -17.22377541 </i>
    <i name="e_wo_entrp">    -17.18242718 </i>
    <i name="e_0_energy">    -17.20999267 </i>
   </energy>
  </scstep>
  <scstep>
   <time name="dav">    4.12    4.13</time>
   <time name="total">    7.08    7.12</time>
   <energy>
    <i name="e_fr_energy">    -17.22680905 </i>
    <i name="e_wo_entrp">    -17.18451386 </i>
    <i name="e_0_energy">    -17.21271065 </i>
   </energy>
  </scstep>
  <scstep>
   <time name="dav">    4.53    4.55</time>
   <time name="total">    7.57    7.60</time>
   <energy>
    <i name="e_fr_energy">    -17.23014023 </i>
    <i name="e_wo_entrp">    -17.18669011 </i>
    <i name="e_0_energy">    -17.21565686 </i>
   </energy>
  </scstep>
  <scstep>
   <time name="dav">    4.78    4.81</time>
   <time name="total">    7.83    7.86</time>
   <energy>
    <i name="e_fr_energy">    -17.23285134 </i>
    <i name="e_wo_entrp">    -17.18833126 </i>
    <i name="e_0_energy">    -17.21801131 </i>
   </energy>
  </scstep>
  <scstep>
   <time name="dav">    4.79    4.81</time>
   <time name="total">    7.75    7.78</time>
   <energy>
    <i name="e_fr_energy">    -17.23369109 </i>
    <i name="e_wo_entrp">    -17.18877231 </i>
    <i name="e_0_energy">    -17.21871816 </i>
   </energy>
  </scstep>
  <scstep>
   <time name="dav">    4.37    4.38</time>
   <time name="total">    7.34    7.36</time>
   <energy>
    <i name="e_fr_energy">    -17.23455162 </i>
    <i name="e_wo_entrp">    -17.18928308 </i>
    <i name="e_0_energy">    -17.21946211 </i>
   </energy>
  </scstep>
  <scstep>
   <time name="dav">    4.67    4.68</time>
   <time name="total">    7.76    7.78</time>
   <energy>
    <i name="e_fr_energy">    -17.23544215 </i>
    <i name="e_wo_entrp">    -17.18974414 </i>
    <i name="e_0_energy">    -17.22020948 </i>
   </energy>
  </scstep>
  <scstep>
   <time name="dav">    4.53    4.54</time>
   <time name="total">    7.52    7.54</time>
   <energy>
    <i name="e_fr_energy">    -17.23571743 </i>
    <i name="e_wo_entrp">    -17.18990712 </i>
    <i name="e_0_energy">    -17.22044733 </i>
   </energy>
  </scstep>
  <scstep>
   <time name="dav">    4.41    4.42</time>
   <time name="total">    7.52    7.54</time>
   <energy>
    <i name="e_fr_energy">    -17.23596388 </i>
    <i name="e_wo_entrp">    -17.19005473 </i>
    <i name="e_0_energy">    -17.22066083 </i>
   </energy>
  </scstep>
  <scstep>
   <time name="dav">    4.54    4.57</time>
   <time name="total">    7.55    7.60</time>
   <energy>
    <i name="e_fr_energy">    -17.23619263 </i>
    <i name="e_wo_entrp">    -17.19014355 </i>
    <i name="e_0_energy">    -17.22084293 </i>
   </energy>
  </scstep>
  <scstep>
   <time name="dav">    4.55    4.56</time>
   <time name="total">    6.74    6.75</time>
   <energy>
    <i name="alphaZ">      5.66091286 </i>
    <i name="ewald">   8460.69356814 </i>
    <i name="hartreedc"> -17028.39518506 </i>
    <i name="XCdc">    233.56843868 </i>
    <i name="pawpsdc">   8925.06534116 </i>
    <i name="pawaedc">  -9268.93602477 </i>
    <i name="eentropy">     -0.04614891 </i>
    <i name="bandstr">   -612.99982671 </i>
    <i name="atom">   9268.15263587 </i>
    <i name="e_fr_energy">    -17.23628874 </i>
    <i name="e_wo_entrp">    -17.19013983 </i>
    <i name="e_0_energy">    -17.22090577 </i>
   </energy>
  </scstep>
  <structure>
   <crystal>
    <varray name="basis" >
     <v>      21.45882309       0.00000000       0.00000000 </v>
     <v>       0.00000000      20.59169817       0.00000000 </v>
     <v>       0.00000000       0.00000000      24.25672700 </v>
    </varray>
    <i name="volume">  10718.40747945 </i>
    <varray name="rec_basis" >
     <v>       0.04660088       0.00000000       0.00000000 </v>
     <v>       0.00000000       0.04856326       0.00000000 </v>
     <v>       0.00000000       0.00000000       0.04122568 </v>
    </varray>
   </crystal>
   <varray name="positions" >
    <v>       0.43304525       0.53501947       0.46982272 </v>
    <v>       0.56489798       0.47751445       0.36921041 </v>
    <v>       0.42888224       0.46249972       0.37573531 </v>
    <v>       0.51947660       0.55115980       0.62902693 </v>
    <v>       0.55666523       0.53933878       0.45679406 </v>
    <v>       0.50867258       0.43426465       0.45622512 </v>
    <v>       0.51192165       0.49786868       0.54357224 </v>
    <v>       0.48751320       0.57115824       0.38116599 </v>
   </varray>
  </structure>
  <varray name="forces" >
   <v>       0.11711650      -0.14814604       0.21119047 </v>
   <v>       0.14028915      -0.06898546      -0.18927191 </v>
   <v>       0.03116618       0.04796075      -0.01564876 </v>
   <v>       0.09156721       0.11102527       0.38348791 </v>
   <v>       0.01724172       0.05942007       0.38868252 </v>
   <v>      -0.20865866       0.29026025      -0.13955099 </v>
   <v>      -0.13247261       0.04298361      -0.63974202 </v>
   <v>      -0.05624949      -0.33451845       0.00085278 </v>
  </varray>
  <energy>
   <i name="e_fr_energy">    -17.23628874 </i>
   <i name="e_wo_entrp">    -17.19013983 </i>
   <i name="e_0_energy">    -17.22090577 </i>
  </energy>
  <time name="totalsc">  197.41  198.20</time>
 </calculation>
 <calculation>
  <scstep>
   <time name="dav">    5.97    5.99</time>
   <time name="total">    8.91    8.95</time>
   <energy>
    <i name="alphaZ">      5.66091286 </i>
    <i name="ewald">   8494.95256160 </i>
    <i name="hartreedc"> -17062.57606002 </i>
    <i name="XCdc">    233.63043004 </i>
    <i name="pawpsdc">   8925.04507945 </i>
    <i name="pawaedc">  -9268.91504198 </i>
    <i name="eentropy">     -0.04153501 </i>
    <i name="bandstr">   -613.09006067 </i>
    <i name="atom">   9268.15263587 </i>
    <i name="e_fr_energy">    -17.18107785 </i>
    <i name="e_wo_entrp">    -17.13954284 </i>
    <i name="e_0_energy">    -17.16723285 </i>
   </energy>
  </scstep>
  <scstep>
   <time name="dav">    7.79    7.81</time>
   <time name="total">   10.69   10.72</time>
   <energy>
    <i name="e_fr_energy">    -17.29825978 </i>
    <i name="e_wo_entrp">    -17.24720444 </i>
    <i name="e_0_energy">    -17.28124133 </i>
   </energy>
  </scstep>
  <scstep>
   <time name="dav">    7.64    7.66</time>
   <time name="total">   10.61   10.63</time>
   <energy>
    <i name="e_fr_energy">    -17.28577152 </i>
    <i name="e_wo_entrp">    -17.23806583 </i>
    <i name="e_0_energy">    -17.26986962 </i>
   </energy>
  </scstep>
  <scstep>
   <time name="dav">    7.36    7.42</time>
   <time name="total">   10.32   10.40</time>
   <energy>
    <i name="e_fr_energy">    -17.28463012 </i>
    <i name="e_wo_entrp">    -17.23660251 </i>
    <i name="e_0_energy">    -17.26862091 </i>
   </energy>
  </scstep>
  <scstep>
   <time name="dav">    6.94    6.96</time>
   <time name="total">    9.84    9.86</time>
   <energy>
    <i name="e_fr_energy">    -17.28344644 </i>
    <i name="e_wo_entrp">    -17.23504568 </i>
    <i name="e_0_energy">    -17.26731285 </i>
   </energy>
  </scstep>
  <scstep>
   <time name="dav">    8.21    8.24</time>
   <time name="total">   11.17   11.22</time>
   <energy>
    <i name="e_fr_energy">    -17.28155943 </i>
    <i name="e_wo_entrp">    -17.23255602 </i>
    <i name="e_0_energy">    -17.26522496 </i>
   </energy>
  </scstep>
  <scstep>
   <time name="dav">    6.19    6.21</time>
   <time name="total">    9.09    9.11</time>
   <energy>
    <i name="e_fr_energy">    -17.28153913 </i>
    <i name="e_wo_entrp">    -17.23229921 </i>
    <i name="e_0_energy">    -17.26512582 </i>
   </energy>
  </scstep>
  <scstep>
   <time name="dav">    5.49    5.53</time>
   <time name="total">    8.36    8.42</time>
   <energy>
    <i name="e_fr_energy">    -17.28182635 </i>
    <i name="e_wo_entrp">    -17.23267179 </i>
    <i name="e_0_energy">    -17.26544150 </i>
   </energy>
  </scstep>
  <scstep>
   <time name="dav">    4.54    4.55</time>
   <time name="total">    7.54    7.56</time>
   <energy>
    <i name="e_fr_energy">    -17.28220729 </i>
    <i name="e_wo_entrp">    -17.23269895 </i>
    <i name="e_0_energy">    -17.26570451 </i>
   </energy>
  </scstep>
  <scstep>
   <time name="dav">    4.39    4.40</time>
   <time name="total">    7.31    7.33</time>
   <energy>
    <i name="e_fr_energy">    -17.28267068 </i>
    <i name="e_wo_entrp">    -17.23289318 </i>
    <i name="e_0_energy">    -17.26607818 </i>
   </energy>
  </scstep>
  <scstep>
   <time name="dav">    4.26    4.28</time>
   <time name="total">    7.27    7.31</time>
   <energy>
    <i name="e_fr_energy">    -17.28319463 </i>
    <i name="e_wo_entrp">    -17.23317910 </i>
    <i name="e_0_energy">    -17.26652279 </i>
   </energy>
  </scstep>
  <scstep>
   <time name="dav">    4.54    4.55</time>
   <time name="total">    7.56    7.61</time>
   <energy>
    <i name="e_fr_energy">    -17.28361838 </i>
    <i name="e_wo_entrp">    -17.23341077 </i>
    <i name="e_0_energy">    -17.26688251 </i>
   </energy>
  </scstep>
  <scstep>
   <time name="dav">    3.94    3.97</time>
   <time name="total">    6.90    6.95</time>
   <energy>
    <i name="e_fr_energy">    -17.28417678 </i>
    <i name="e_wo_entrp">    -17.23369645 </i>
    <i name="e_0_energy">    -17.26735000 </i>
   </energy>
  </scstep>
  <scstep>
   <time name="dav">    4.13    4.14</time>
   <time name="total">    7.14    7.17</time>
   <energy>
    <i name="e_fr_energy">    -17.28542053 </i>
    <i name="e_wo_entrp">    -17.23430777 </i>
    <i name="e_0_energy">    -17.26838295 </i>
   </energy>
  </scstep>
  <scstep>
   <time name="dav">    4.54    4.55</time>
   <time name="total">    7.58    7.61</time>
   <energy>
    <i name="e_fr_energy">    -17.28657557 </i>
    <i name="e_wo_entrp">    -17.23484030 </i>
    <i name="e_0_energy">    -17.26933048 </i>
   </energy>
  </scstep>
  <scstep>
   <time name="dav">    4.36    4.37</time>
   <time name="total">    7.41    7.44</time>
   <energy>
    <i name="e_fr_energy">    -17.28745993 </i>
    <i name="e_wo_entrp">    -17.23523153 </i>
    <i name="e_0_energy">    -17.27005046 </i>
   </energy>
  </scstep>
  <scstep>
   <time name="dav">    4.69    4.70</time>
   <time name="total">    7.64    7.67</time>
   <energy>
    <i name="e_fr_energy">    -17.28805914 </i>
    <i name="e_wo_entrp">    -17.23548994 </i>
    <i name="e_0_energy">    -17.27053608 </i>
   </energy>
  </scstep>
  <scstep>
   <time name="dav">    4.66    4.68</time>
   <time name="total">    7.73    7.77</time>
   <energy>
    <i name="e_fr_energy">    -17.28866434 </i>
    <i name="e_wo_entrp">    -17.23572161 </i>
    <i name="e_0_energy">    -17.27101676 </i>
   </energy>
  </scstep>
  <scstep>
   <time name="dav">    4.57    4.60</time>
   <time name="total">    7.55    7.60</time>
   <energy>
    <i name="e_fr_energy">    -17.28891156 </i>
    <i name="e_wo_entrp">    -17.23581355 </i>
    <i name="e_0_energy">    -17.27121223 </i>
   </energy>
  </scstep>
  <scstep>
   <time name="dav">    4.56    4.59</time>
   <time name="total">    7.56    7.60</time>
   <energy>
    <i name="e_fr_energy">    -17.28917442 </i>
    <i name="e_wo_entrp">    -17.23590843 </i>
    <i name="e_0_energy">    -17.27141909 </i>
   </energy>
  </scstep>
  <scstep>
   <time name="dav">    4.52    4.53</time>
   <time name="total">    7.52    7.54</time>
   <energy>
    <i name="e_fr_energy">    -17.28932680 </i>
    <i name="e_wo_entrp">    -17.23593069 </i>
    <i name="e_0_energy">    -17.27152810 </i>
   </energy>
  </scstep>
  <scstep>
   <time name="dav">    4.44    4.46</time>
   <time name="total">    6.62    6.64</time>
   <energy>
    <i name="alphaZ">      5.66091286 </i>
    <i name="ewald">   8494.95256160 </i>
    <i name="hartreedc"> -17061.57515601 </i>
    <i name="XCdc">    233.60997879 </i>
    <i name="pawpsdc">   8931.26359727 </i>
    <i name="pawaedc">  -9275.25147149 </i>
    <i name="eentropy">     -0.05345592 </i>
    <i name="bandstr">   -614.04900245 </i>
    <i name="atom">   9268.15263587 </i>
    <i name="e_fr_energy">    -17.28939948 </i>
    <i name="e_wo_entrp">    -17.23594356 </i>
    <i name="e_0_energy">    -17.27158084 </i>
   </energy>
  </scstep>
  <structure>
   <crystal>
    <varray name="basis" >
     <v>      21.45882309       0.00000000       0.00000000 </v>
     <v>       0.00000000      20.59169817       0.00000000 </v>
     <v>       0.00000000       0.00000000      24.25672700 </v>
    </varray>
    <i name="volume">  10718.40747945 </i>
    <varray name="rec_basis" >
     <v>       0.04660088       0.00000000       0.00000000 </v>
     <v>       0.00000000       0.04856326       0.00000000 </v>
     <v>       0.00000000       0.00000000       0.04122568 </v>
    </varray>
   </crystal>
   <varray name="positions" >
    <v>       0.43240344       0.53497586       0.47036007 </v>
    <v>       0.56644850       0.47766296       0.36889710 </v>
    <v>       0.42826657       0.46279209       0.37569743 </v>
    <v>       0.51987054       0.55122488       0.62974304 </v>
    <v>       0.55673459       0.53891325       0.45743223 </v>
    <v>       0.50819890       0.43577750       0.45527825 </v>
    <v>       0.51175944       0.49844578       0.54249378 </v>
    <v>       0.48739274       0.56903147       0.38165088 </v>
   </varray>
  </structure>
  <varray name="forces" >
   <v>       0.06357626      -0.10452727       0.17416504 </v>
   <v>       0.10042293      -0.04904917      -0.12857509 </v>
   <v>      -0.03115466      -0.05950818      -0.08215598 </v>
   <v>       0.06770857      -0.04586273       0.11108253 </v>
   <v>       0.11564125       0.16800695       0.26959862 </v>
   <v>      -0.22237748       0.17616198      -0.17874365 </v>
   <v>      -0.08732840       0.15778361      -0.14595370 </v>
   <v>      -0.00648847      -0.24300518      -0.01941777 </v>
  </varray>
  <energy>
   <i name="e_fr_energy">    -17.28939948 </i>
   <i name="e_wo_entrp">    -17.23594356 </i>
   <i name="e_0_energy">    -17.27158084 </i>
  </energy>
  <time name="totalsc">  189.17  190.01</time>
 </calculation>
 <calculation>
  <scstep>
   <time name="dav">    6.22    6.23</time>
   <time name="total">    9.09    9.12</time>
   <energy>
    <i name="alphaZ">      5.66091286 </i>
    <i name="ewald">   8544.51978079 </i>
    <i name="hartreedc"> -17110.89076678 </i>
    <i name="XCdc">    233.71680760 </i>
    <i name="pawpsdc">   8931.25114206 </i>
    <i name="pawaedc">  -9275.23709706 </i>
    <i name="eentropy">     -0.03876892 </i>
    <i name="bandstr">   -614.23912111 </i>
    <i name="atom">   9268.15263587 </i>
    <i name="e_fr_energy">    -17.10447470 </i>
    <i name="e_wo_entrp">    -17.06570578 </i>
    <i name="e_0_energy">    -17.09155173 </i>
   </energy>
  </scstep>
  <scstep>
   <time name="dav">    7.81    7.84</time>
   <time name="total">   10.78   10.82</time>
   <energy>
    <i name="e_fr_energy">    -17.32502466 </i>
    <i name="e_wo_entrp">    -17.27033448 </i>
    <i name="e_0_energy">    -17.30679460 </i>
   </energy>
  </scstep>
  <scstep>
   <time name="dav">    7.89    7.94</time>
   <time name="total">   10.86   10.92</time>
   <energy>
    <i name="e_fr_energy">    -17.30848655 </i>
    <i name="e_wo_entrp">    -17.25925901 </i>
    <i name="e_0_energy">    -17.29207737 </i>
   </energy>
  </scstep>
  <scstep>
   <time name="dav">    7.79    7.81</time>
   <time name="total">   10.76   10.79</time>
   <energy>
    <i name="e_fr_energy">    -17.30621981 </i>
    <i name="e_wo_entrp">    -17.25618763 </i>
    <i name="e_0_energy">    -17.28954242 </i>
   </energy>
  </scstep>
  <scstep>
   <time name="dav">    6.94    6.96</time>
   <time name="total">    9.91    9.94</time>
   <energy>
    <i name="e_fr_energy">    -17.30400518 </i>
    <i name="e_wo_entrp">    -17.25347307 </i>
    <i name="e_0_energy">    -17.28716114 </i>
   </energy>
  </scstep>
  <scstep>
   <time name="dav">    8.08    8.13</time>
   <time name="total">   11.05   11.11</time>
   <energy>
    <i name="e_fr_energy">    -17.30166776 </i>
    <i name="e_wo_entrp">    -17.25058689 </i>
    <i name="e_0_energy">    -17.28464080 </i>
   </energy>
  </scstep>
  <scstep>
   <time name="dav">    6.82    6.87</time>
   <time name="total">    9.70    9.76</time>
   <energy>
    <i name="e_fr_energy">    -17.30243827 </i>
    <i name="e_wo_entrp">    -17.25152792 </i>
    <i name="e_0_energy">    -17.28546815 </i>
   </energy>
  </scstep>
  <scstep>
   <time name="dav">    4.56    4.58</time>
   <time name="total">    7.52    7.58</time>
   <energy>
    <i name="e_fr_energy">    -17.30314220 </i>
    <i name="e_wo_entrp">    -17.25181673 </i>
    <i name="e_0_energy">    -17.28603371 </i>
   </energy>
  </scstep>
  <scstep>
   <time name="dav">    4.69    4.72</time>
   <time name="total">    7.59    7.63</time>
   <energy>
    <i name="e_fr_energy">    -17.30368564 </i>
    <i name="e_wo_entrp">    -17.25209326 </i>
    <i name="e_0_energy">    -17.28648818 </i>
   </energy>
  </scstep>
  <scstep>
   <time name="dav">    4.28    4.28</time>
   <time name="total">    7.17    7.20</time>
   <energy>
    <i name="e_fr_energy">    -17.30450284 </i>
    <i name="e_wo_entrp">    -17.25272315 </i>
    <i name="e_0_energy">    -17.28724294 </i>
   </energy>
  </scstep>
  <scstep>
   <time name="dav">    4.56    4.59</time>
   <time name="total">    7.51    7.57</time>
   <energy>
    <i name="e_fr_energy">    -17.30514919 </i>
    <i name="e_wo_entrp">    -17.25311458 </i>
    <i name="e_0_energy">    -17.28780432 </i>
   </energy>
  </scstep>
  <scstep>
   <time name="dav">    3.97    4.00</time>
   <time name="total">    6.87    6.91</time>
   <energy>
    <i name="e_fr_energy">    -17.30579386 </i>
    <i name="e_wo_entrp">    -17.25356019 </i>
    <i name="e_0_energy">    -17.28838263 </i>
   </energy>
  </scstep>
  <scstep>
   <time name="dav">    4.13    4.14</time>
   <time name="total">    7.10    7.13</time>
   <energy>
    <i name="e_fr_energy">    -17.30791829 </i>
    <i name="e_wo_entrp">    -17.25495772 </i>
    <i name="e_0_energy">    -17.29026477 </i>
   </energy>
  </scstep>
  <scstep>
   <time name="dav">    4.57    4.57</time>
   <time name="total">    7.49    7.50</time>
   <energy>
    <i name="e_fr_energy">    -17.30982892 </i>
    <i name="e_wo_entrp">    -17.25612635 </i>
    <i name="e_0_energy">    -17.29192807 </i>
   </energy>
  </scstep>
  <scstep>
   <time name="dav">    4.54    4.56</time>
   <time name="total">    7.57    7.61</time>
   <energy>
    <i name="e_fr_energy">    -17.31078916 </i>
    <i name="e_wo_entrp">    -17.25669517 </i>
    <i name="e_0_energy">    -17.29275783 </i>
   </energy>
  </scstep>
  <scstep>
   <time name="dav">    4.25    4.27</time>
   <time name="total">    7.31    7.35</time>
   <energy>
    <i name="e_fr_energy">    -17.31194179 </i>
    <i name="e_wo_entrp">    -17.25740581 </i>
    <i name="e_0_energy">    -17.29376313 </i>
   </energy>
  </scstep>
  <scstep>
   <time name="dav">    4.48    4.50</time>
   <time name="total">    7.55    7.58</time>
   <energy>
    <i name="e_fr_energy">    -17.31289511 </i>
    <i name="e_wo_entrp">    -17.25787064 </i>
    <i name="e_0_energy">    -17.29455362 </i>
   </energy>
  </scstep>
  <scstep>
   <time name="dav">    4.66    4.68</time>
   <time name="total">    7.73    7.77</time>
   <energy>
    <i name="e_fr_energy">    -17.31390410 </i>
    <i name="e_wo_entrp">    -17.25828291 </i>
    <i name="e_0_energy">    -17.29536370 </i>
   </energy>
  </scstep>
  <scstep>
   <time name="dav">    4.71    4.72</time>
   <time name="total">    7.68    7.71</time>
   <energy>
    <i name="e_fr_energy">    -17.31436468 </i>
    <i name="e_wo_entrp">    -17.25849861 </i>
    <i name="e_0_energy">    -17.29574266 </i>
   </energy>
  </scstep>
  <scstep>
   <time name="dav">    4.53    4.53</time>
   <time name="total">    7.63    7.64</time>
   <energy>
    <i name="e_fr_energy">    -17.31467033 </i>
    <i name="e_wo_entrp">    -17.25862874 </i>
    <i name="e_0_energy">    -17.29598980 </i>
   </energy>
  </scstep>
  <scstep>
   <time name="dav">    4.55    4.56</time>
   <time name="total">    7.65    7.67</time>
   <energy>
    <i name="e_fr_energy">    -17.31492283 </i>
    <i name="e_wo_entrp">    -17.25869067 </i>
    <i name="e_0_energy">    -17.29617878 </i>
   </energy>
  </scstep>
  <scstep>
   <time name="dav">    4.55    4.56</time>
   <time name="total">    7.66    7.70</time>
   <energy>
    <i name="e_fr_energy">    -17.31514412 </i>
    <i name="e_wo_entrp">    -17.25870939 </i>
    <i name="e_0_energy">    -17.29633254 </i>
   </energy>
  </scstep>
  <scstep>
   <time name="dav">    4.56    4.59</time>
   <time name="total">    6.73    6.78</time>
   <energy>
    <i name="alphaZ">      5.66091286 </i>
    <i name="ewald">   8544.51978079 </i>
    <i name="hartreedc"> -17109.31487448 </i>
    <i name="XCdc">    233.68742331 </i>
    <i name="pawpsdc">   8944.35938257 </i>
    <i name="pawaedc">  -9288.58528086 </i>
    <i name="eentropy">     -0.05654270 </i>
    <i name="bandstr">   -615.73865175 </i>
    <i name="atom">   9268.15263587 </i>
    <i name="e_fr_energy">    -17.31521440 </i>
    <i name="e_wo_entrp">    -17.25867169 </i>
    <i name="e_0_energy">    -17.29636683 </i>
   </energy>
  </scstep>
  <structure>
   <crystal>
    <varray name="basis" >
     <v>      21.45882309       0.00000000       0.00000000 </v>
     <v>       0.00000000      20.59169817       0.00000000 </v>
     <v>       0.00000000       0.00000000      24.25672700 </v>
    </varray>
    <i name="volume">  10718.40747945 </i>
    <varray name="rec_basis" >
     <v>       0.04660088       0.00000000       0.00000000 </v>
     <v>       0.00000000       0.04856326       0.00000000 </v>
     <v>       0.00000000       0.00000000       0.04122568 </v>
    </varray>
   </crystal>
   <varray name="positions" >
    <v>       0.43148986       0.53491378       0.47112496 </v>
    <v>       0.56865558       0.47787435       0.36845112 </v>
    <v>       0.42739020       0.46320827       0.37564351 </v>
    <v>       0.52043129       0.55131753       0.63076238 </v>
    <v>       0.55683333       0.53830753       0.45834064 </v>
    <v>       0.50752465       0.43793095       0.45393043 </v>
    <v>       0.51152855       0.49926725       0.54095865 </v>
    <v>       0.48722127       0.56600414       0.38234109 </v>
   </varray>
  </structure>
  <varray name="forces" >
   <v>      -0.03806658      -0.02714317       0.10938254 </v>
   <v>       0.06201051      -0.01901693      -0.04728103 </v>
   <v>      -0.17909346      -0.25805057      -0.18978388 </v>
   <v>       0.03785099      -0.22402365      -0.22356731 </v>
   <v>       0.30576357       0.36650987       0.04763077 </v>
   <v>      -0.24548210      -0.04433576      -0.22507462 </v>
   <v>      -0.03683925       0.26140866       0.56466998 </v>
   <v>       0.09385632      -0.05534846      -0.03597644 </v>
  </varray>
  <energy>
   <i name="e_fr_energy">    -17.31521440 </i>
   <i name="e_wo_entrp">    -17.25867169 </i>
   <i name="e_0_energy">    -17.29636683 </i>
  </energy>
  <time name="totalsc">  197.83  199.02</time>
 </calculation>
[...]
       <r>    -2.0040    -0.2542    47.9630 </r>
       <r>    -1.9558    -0.0521    47.9604 </r>
       <r>    -1.9076     0.4821    47.9837 </r>
       <r>    -1.8594     1.4092    48.0516 </r>
       <r>    -1.8112     2.6249    48.1781 </r>
       <r>    -1.7630     3.8733    48.3648 </r>
       <r>    -1.7148     4.8658    48.5993 </r>
       <r>    -1.6666     5.4160    48.8604 </r>
       <r>    -1.6184     5.4918    49.1251 </r>
       <r>    -1.5702     5.1920    49.3753 </r>
       <r>    -1.5220     4.7296    49.6033 </r>
       <r>    -1.4738     4.4301    49.8168 </r>
       <r>    -1.4256     4.6365    50.0403 </r>
       <r>    -1.3774     5.4763    50.3043 </r>
       <r>    -1.3292     6.6541    50.6250 </r>
       <r>    -1.2810     7.5171    50.9873 </r>
       <r>    -1.2328     7.4373    51.3458 </r>
       <r>    -1.1846     6.2457    51.6468 </r>
       <r>    -1.1364     4.3792    51.8579 </r>
       <r>    -1.0882     2.6294    51.9846 </r>
       <r>    -1.0400     1.6812    52.0656 </r>
       <r>    -0.9918     1.7487    52.1499 </r>
       <r>    -0.9436     2.5073    52.2708 </r>
       <r>    -0.8954     3.3360    52.4316 </r>
       <r>    -0.8472     3.7151    52.6106 </r>
       <r>    -0.7990     3.5347    52.7810 </r>
       <r>    -0.7508     3.1084    52.9308 </r>
       <r>    -0.7026     2.8858    53.0699 </r>
       <r>    -0.6544     3.0938    53.2190 </r>
       <r>    -0.6062     3.6028    53.3927 </r>
       <r>    -0.5580     4.1028    53.5904 </r>
       <r>    -0.5098     4.3924    53.8022 </r>
       <r>    -0.4617     4.5000    54.0191 </r>
       <r>    -0.4135     4.5696    54.2393 </r>
       <r>    -0.3653     4.6880    54.4653 </r>
       <r>    -0.3171     4.8405    54.6986 </r>
       <r>    -0.2689     4.9767    54.9384 </r>
       <r>    -0.2207     5.0426    55.1815 </r>
       <r>    -0.1725     4.9402    55.4196 </r>
       <r>    -0.1243     4.5247    55.6377 </r>
       <r>    -0.0761     3.7120    55.8166 </r>
       <r>    -0.0279     2.5982    55.9418 </r>
       <r>     0.0203     1.4451    56.0115 </r>
       <r>     0.0685     0.5283    56.0370 </r>
       <r>     0.1167    -0.0160    56.0362 </r>
       <r>     0.1649    -0.2241    56.0254 </r>
       <r>     0.2131    -0.2277    56.0144 </r>
       <r>     0.2613    -0.1558    56.0069 </r>
       <r>     0.3095    -0.0842    56.0028 </r>
       <r>     0.3577    -0.0379    56.0010 </r>
       <r>     0.4059    -0.0145    56.0003 </r>
       <r>     0.4541    -0.0048    56.0001 </r>
       <r>     0.5023    -0.0014    56.0000 </r>
       <r>     0.5505    -0.0003    56.0000 </r>
       <r>     0.5987    -0.0001    56.0000 </r>
       <r>     0.6469    -0.0000    56.0000 </r>
       <r>     0.6951    -0.0000    56.0000 </r>
       <r>     0.7433    -0.0000    56.0000 </r>
       <r>     0.7915    -0.0000    56.0000 </r>
       <r>     0.8397    -0.0000    56.0000 </r>
       <r>     0.8879    -0.0000    56.0000 </r>
       <r>     0.9361    -0.0000    56.0000 </r>
       <r>     0.9843    -0.0000    56.0000 </r>
       <r>     1.0325    -0.0000    56.0000 </r>
       <r>     1.0807    -0.0000    56.0000 </r>
       <r>     1.1289     0.0000    56.0000 </r>
       <r>     1.1771     0.0000    56.0000 </r>
       <r>     1.2253     0.0000    56.0000 </r>
       <r>     1.2735     0.0000    56.0000 </r>
       <r>     1.3217     0.0000    56.0000 </r>
       <r>     1.3699     0.0000    56.0000 </r>
       <r>     1.4181     0.0000    56.0000 </r>
       <r>     1.4663     0.0000    56.0000 </r>
       <r>     1.5145     0.0000    56.0000 </r>
       <r>     1.5627     0.0000    56.0000 </r>
       <r>     1.6109     0.0000    56.0000 </r>
       <r>     1.6591     0.0000    56.0000 </r>
       <r>     1.7073     0.0000    56.0000 </r>
       <r>     1.7555     0.0000    56.0000 </r>
       <r>     1.8037     0.0000    56.0000 </r>
       <r>     1.8519     0.0000    56.0000 </r>
      </set>
      <set comment="spin 2">
       <r>   -12.6079     0.0000     0.0000 </r>
       <r>   -12.5597     0.0000     0.0000 </r>
       <r>   -12.5115     0.0000     0.0000 </r>
       <r>   -12.4633     0.0000     0.0000 </r>
       <r>   -12.4151     0.0000     0.0000 </r>
       <r>   -12.3669     0.0000     0.0000 </r>
       <r>   -12.3187     0.0000     0.0000 </r>
       <r>   -12.2705     0.0000     0.0000 </r>
       <r>   -12.2223    -0.0000    -0.0000 </r>
       <r>   -12.1741    -0.0000    -0.0000 </r>
       <r>   -12.1259    -0.0000    -0.0000 </r>
       <r>   -12.0777    -0.0000    -0.0000 </r>
       <r>   -12.0295    -0.0000    -0.0000 </r>
       <r>   -11.9813    -0.0000    -0.0000 </r>
       <r>   -11.9331    -0.0000    -0.0000 </r>
       <r>   -11.8849    -0.0000    -0.0000 </r>
       <r>   -11.8367    -0.0000    -0.0000 </r>
       <r>   -11.7885    -0.0000    -0.0000 </r>
       <r>   -11.7403    -0.0000    -0.0000 </r>
       <r>   -11.6921    -0.0000    -0.0000 </r>
       <r>   -11.6439    -0.0000    -0.0000 </r>
       <r>   -11.5957    -0.0000    -0.0000 </r>
       <r>   -11.5475    -0.0000    -0.0000 </r>
       <r>   -11.4993    -0.0000    -0.0000 </r>
       <r>   -11.4511    -0.0000    -0.0000 </r>
       <r>   -11.4029    -0.0000    -0.0000 </r>
       <r>   -11.3547    -0.0000    -0.0000 </r>
       <r>   -11.3065    -0.0001    -0.0000 </r>
       <r>   -11.2583    -0.0003    -0.0000 </r>
       <r>   -11.2101    -0.0014    -0.0001 </r>
       <r>   -11.1619    -0.0048    -0.0003 </r>
       <r>   -11.1137    -0.0145    -0.0010 </r>
       <r>   -11.0655    -0.0376    -0.0028 </r>
       <r>   -11.0173    -0.0833    -0.0068 </r>
       <r>   -10.9691    -0.1525    -0.0142 </r>
       <r>   -10.9209    -0.2175    -0.0247 </r>
       <r>   -10.8727    -0.1961    -0.0341 </r>
       <r>   -10.8245     0.0496    -0.0317 </r>
       <r>   -10.7763     0.6574    -0.0001 </r>
       <r>   -10.7281     1.6500     0.0795 </r>
       <r>   -10.6799     2.8331     0.2160 </r>
       <r>   -10.6317     3.8160     0.4000 </r>
       <r>   -10.5835     4.1975     0.6023 </r>
       <r>   -10.5353     3.8077     0.7858 </r>
       <r>   -10.4871     2.8201     0.9217 </r>
       <r>   -10.4389     1.6373     1.0006 </r>
       <r>   -10.3907     0.6483     1.0319 </r>
       <r>   -10.3425     0.0450     1.0341 </r>
       <r>   -10.2943    -0.1973     1.0246 </r>
       <r>   -10.2461    -0.2170     1.0141 </r>
       <r>   -10.1979    -0.1517     1.0068 </r>
       <r>   -10.1497    -0.0826     1.0028 </r>
       <r>   -10.1015    -0.0373     1.0010 </r>
       <r>   -10.0533    -0.0144     1.0003 </r>
       <r>   -10.0051    -0.0050     1.0001 </r>
       <r>    -9.9569    -0.0025     1.0000 </r>
       <r>    -9.9087    -0.0042     0.9997 </r>
       <r>    -9.8605    -0.0121     0.9992 </r>
       <r>    -9.8123    -0.0323     0.9976 </r>
       <r>    -9.7641    -0.0736     0.9941 </r>
       <r>    -9.7159    -0.1398     0.9873 </r>
       <r>    -9.6677    -0.2108     0.9772 </r>
       <r>    -9.6195    -0.2169     0.9667 </r>
       <r>    -9.5713    -0.0319     0.9652 </r>
       <r>    -9.5231     0.4815     0.9884 </r>
       <r>    -9.4749     1.3663     1.0542 </r>
       <r>    -9.4267     2.4690     1.1732 </r>
       <r>    -9.3785     3.4548     1.3398 </r>
       <r>    -9.3303     3.9901     1.5321 </r>
       <r>    -9.2821     3.9858     1.7242 </r>
       <r>    -9.2339     3.6794     1.9015 </r>
       <r>    -9.1857     3.4463     2.0676 </r>
       <r>    -9.1375     3.4861     2.2357 </r>
       <r>    -9.0893     3.6806     2.4131 </r>
       <r>    -9.0411     3.7687     2.5947 </r>
       <r>    -8.9929     3.6651     2.7714 </r>
       <r>    -8.9447     3.5978     2.9448 </r>
       <r>    -8.8965     3.9167     3.1336 </r>
       <r>    -8.8483     4.7502     3.3625 </r>
       <r>    -8.8001     5.8297     3.6435 </r>
       <r>    -8.7519     6.6393     3.9635 </r>
       <r>    -8.7037     6.7674     4.2897 </r>
       <r>    -8.6555     6.1803     4.5876 </r>
       <r>    -8.6073     5.2226     4.8393 </r>
       <r>    -8.5591     4.3705     5.0500 </r>
       <r>    -8.5109     3.9579     5.2407 </r>
       <r>    -8.4627     4.0942     5.4381 </r>
       <r>    -8.4145     4.7836     5.6686 </r>
       <r>    -8.3663     6.0309     5.9593 </r>
       <r>    -8.3181     7.7491     6.3328 </r>
       <r>    -8.2699     9.5619     6.7937 </r>
       <r>    -8.2217    10.8033     7.3144 </r>
       <r>    -8.1735    10.8628     7.8380 </r>
       <r>    -8.1253     9.6486     8.3030 </r>
       <r>    -8.0771     7.7606     8.6771 </r>
       <r>    -8.0289     6.1875     8.9753 </r>
       <r>    -7.9807     5.7391     9.2519 </r>
       <r>    -7.9325     6.6229     9.5712 </r>
       <r>    -7.8843     8.4115     9.9766 </r>
       <r>    -7.8361    10.3283    10.4744 </r>
       <r>    -7.7879    11.6006    11.0335 </r>
       <r>    -7.7397    11.7138    11.5981 </r>
       <r>    -7.6915    10.5641    12.1073 </r>
       <r>    -7.6433     8.5303    12.5185 </r>
       <r>    -7.5951     6.3929    12.8266 </r>
       <r>    -7.5469     5.0377    13.0694 </r>
       <r>    -7.4987     5.0483    13.3127 </r>
       <r>    -7.4505     6.4311    13.6227 </r>
       <r>    -7.4023     8.6353    14.0389 </r>
       <r>    -7.3541    10.8250    14.5607 </r>
       <r>    -7.3059    12.2320    15.1503 </r>
       <r>    -7.2577    12.4415    15.7499 </r>
       <r>    -7.2095    11.5178    16.3051 </r>
       <r>    -7.1613     9.9245    16.7834 </r>
       <r>    -7.1132     8.2782    17.1824 </r>
       <r>    -7.0650     7.0840    17.5239 </r>
       <r>    -7.0168     6.6136    17.8427 </r>
       <r>    -6.9686     6.9454    18.1774 </r>
       <r>    -6.9204     8.0297    18.5645 </r>
       <r>    -6.8722     9.6586    19.0300 </r>
       <r>    -6.8240    11.3988    19.5794 </r>
       <r>    -6.7758    12.6740    20.1903 </r>
       <r>    -6.7276    13.0625    20.8199 </r>
       <r>    -6.6794    12.5969    21.4270 </r>
       <r>    -6.6312    11.7481    21.9933 </r>
       <r>    -6.5830    11.0485    22.5258 </r>
       <r>    -6.5348    10.6983    23.0415 </r>
       <r>    -6.4866    10.5431    23.5496 </r>
       <r>    -6.4384    10.4190    24.0518 </r>
       <r>    -6.3902    10.4716    24.5566 </r>
       <r>    -6.3420    11.0885    25.0910 </r>
       <r>    -6.2938    12.4958    25.6933 </r>
       <r>    -6.2456    14.4122    26.3880 </r>
       <r>    -6.1974    16.1173    27.1648 </r>
       <r>    -6.1492    16.9476    27.9817 </r>
       <r>    -6.1010    16.8596    28.7943 </r>
       <r>    -6.0528    16.5944    29.5941 </r>
       <r>    -6.0046    17.2257    30.4244 </r>
       <r>    -5.9564    19.3420    31.3567 </r>
       <r>    -5.9082    22.4488    32.4387 </r>
       <r>    -5.8600    25.0865    33.6478 </r>
       <r>    -5.8118    25.6483    34.8841 </r>
       <r>    -5.7636    23.3584    36.0099 </r>
       <r>    -5.7154    18.7578    36.9140 </r>
       <r>    -5.6672    13.4082    37.5603 </r>
       <r>    -5.6190     9.0434    37.9962 </r>
       <r>    -5.5708     6.7081    38.3195 </r>
       <r>    -5.5226     6.3867    38.6273 </r>
       <r>    -5.4744     7.2934    38.9789 </r>
       <r>    -5.4262     8.5540    39.3912 </r>
       <r>    -5.3780     9.7422    39.8607 </r>
       <r>    -5.3298    10.8900    40.3856 </r>
       <r>    -5.2816    12.0798    40.9679 </r>
       <r>    -5.2334    13.0797    41.5983 </r>
       <r>    -5.1852    13.3734    42.2429 </r>
       <r>    -5.1370    12.5144    42.8461 </r>
       <r>    -5.0888    10.4612    43.3503 </r>
       <r>    -5.0406     7.6332    43.7182 </r>
       <r>    -4.9924     4.6950    43.9445 </r>
       <r>    -4.9442     2.2464    44.0528 </r>
       <r>    -4.8960     0.6055    44.0820 </r>
       <r>    -4.8478    -0.2323    44.0708 </r>
       <r>    -4.7996    -0.4869    44.0473 </r>
       <r>    -4.7514    -0.4342    44.0264 </r>
       <r>    -4.7032    -0.2882    44.0125 </r>
       <r>    -4.6550    -0.1634    44.0046 </r>
       <r>    -4.6068    -0.0979    43.9999 </r>
       <r>    -4.5586    -0.0931    43.9954 </r>
       <r>    -4.5104    -0.1379    43.9887 </r>
       <r>    -4.4622    -0.2036    43.9789 </r>
       <r>    -4.4140    -0.2207    43.9683 </r>
       <r>    -4.3658    -0.0634    43.9652 </r>
       <r>    -4.3176     0.4176    43.9854 </r>
       <r>    -4.2694     1.2962    44.0478 </r>
       <r>    -4.2212     2.4536    44.1661 </r>
       <r>    -4.1730     3.5490    44.3372 </r>
       <r>    -4.1248     4.1569    44.5375 </r>
       <r>    -4.0766     4.0103    44.7308 </r>
       <r>    -4.0284     3.1712    44.8837 </r>
       <r>    -3.9802     1.9871    44.9794 </r>
       <r>    -3.9320     0.8691    45.0213 </r>
       <r>    -3.8838     0.0760    45.0250 </r>
       <r>    -3.8356    -0.3440    45.0084 </r>
       <r>    -3.7874    -0.4532    44.9866 </r>
       <r>    -3.7392    -0.2869    44.9727 </r>
       <r>    -3.6910     0.1972    44.9823 </r>
       <r>    -3.6428     1.0394    45.0324 </r>
       <r>    -3.5946     2.1415    45.1356 </r>
       <r>    -3.5464     3.2118    45.2904 </r>
       <r>    -3.4982     3.8915    45.4779 </r>
       <r>    -3.4500     4.0037    45.6709 </r>
       <r>    -3.4018     3.7153    45.8500 </r>
       <r>    -3.3536     3.4302    46.0153 </r>
       <r>    -3.3054     3.4651    46.1823 </r>
       <r>    -3.2572     3.7826    46.3647 </r>
       <r>    -3.2090     4.0233    46.5586 </r>
       <r>    -3.1608     3.8072    46.7421 </r>
       <r>    -3.1126     3.0339    46.8883 </r>
       <r>    -3.0644     1.9345    46.9816 </r>
       <r>    -3.0162     0.8740    47.0237 </r>
       <r>    -2.9680     0.1096    47.0290 </r>
       <r>    -2.9198    -0.3059    47.0142 </r>
       <r>    -2.8716    -0.4470    46.9927 </r>
       <r>    -2.8234    -0.3725    46.9747 </r>
       <r>    -2.7752    -0.0449    46.9726 </r>
       <r>    -2.7270     0.6286    47.0029 </r>
       <r>    -2.6788     1.6601    47.0829 </r>
       <r>    -2.6306     2.8569    47.2206 </r>
       <r>    -2.5824     3.8334    47.4053 </r>
       <r>    -2.5342     4.1965    47.6076 </r>
       <r>    -2.4860     3.7874    47.7902 </r>
       <r>    -2.4378     2.7888    47.9246 </r>
       <r>    -2.3896     1.6064    48.0020 </r>
       <r>    -2.3414     0.6254    48.0322 </r>
       <r>    -2.2932     0.0295    48.0336 </r>
       <r>    -2.2450    -0.2145    48.0232 </r>
       <r>    -2.1968    -0.2536    48.0110 </r>
       <r>    -2.1486    -0.2341    47.9997 </r>
       <r>    -2.1004    -0.2386    47.9882 </r>
       <r>    -2.0522    -0.2704    47.9752 </r>
       <r>    -2.0040    -0.2542    47.9630 </r>
       <r>    -1.9558    -0.0521    47.9604 </r>
       <r>    -1.9076     0.4821    47.9837 </r>
       <r>    -1.8594     1.4092    48.0516 </r>
       <r>    -1.8112     2.6249    48.1781 </r>
       <r>    -1.7630     3.8733    48.3648 </r>
       <r>    -1.7148     4.8658    48.5993 </r>
       <r>    -1.6666     5.4159    48.8604 </r>
       <r>    -1.6184     5.4918    49.1251 </r>
       <r>    -1.5702     5.1920    49.3753 </r>
       <r>    -1.5220     4.7296    49.6033 </r>
       <r>    -1.4738     4.4301    49.8168 </r>
       <r>    -1.4256     4.6365    50.0403 </r>
       <r>    -1.3774     5.4763    50.3042 </r>
       <r>    -1.3292     6.6540    50.6250 </r>
       <r>    -1.2810     7.5171    50.9873 </r>
       <r>    -1.2328     7.4373    51.3458 </r>
       <r>    -1.1846     6.2457    51.6468 </r>
       <r>    -1.1364     4.3792    51.8579 </r>
       <r>    -1.0882     2.6294    51.9846 </r>
       <r>    -1.0400     1.6812    52.0656 </r>
       <r>    -0.9918     1.7487    52.1499 </r>
       <r>    -0.9436     2.5072    52.2708 </r>
       <r>    -0.8954     3.3360    52.4316 </r>
       <r>    -0.8472     3.7151    52.6106 </r>
       <r>    -0.7990     3.5347    52.7810 </r>
       <r>    -0.7508     3.1085    52.9308 </r>
       <r>    -0.7026     2.8858    53.0699 </r>
       <r>    -0.6544     3.0938    53.2190 </r>
       <r>    -0.6062     3.6028    53.3927 </r>
       <r>    -0.5580     4.1028    53.5904 </r>
       <r>    -0.5098     4.3924    53.8022 </r>
       <r>    -0.4617     4.5000    54.0191 </r>
       <r>    -0.4135     4.5696    54.2393 </r>
       <r>    -0.3653     4.6880    54.4653 </r>
       <r>    -0.3171     4.8405    54.6986 </r>
       <r>    -0.2689     4.9767    54.9384 </r>
       <r>    -0.2207     5.0426    55.1815 </r>
       <r>    -0.1725     4.9402    55.4196 </r>
       <r>    -0.1243     4.5247    55.6377 </r>
       <r>    -0.0761     3.7120    55.8166 </r>
       <r>    -0.0279     2.5982    55.9418 </r>
       <r>     0.0203     1.4451    56.0115 </r>
       <r>     0.0685     0.5282    56.0370 </r>
       <r>     0.1167    -0.0160    56.0362 </r>
       <r>     0.1649    -0.2241    56.0254 </r>
       <r>     0.2131    -0.2277    56.0144 </r>
       <r>     0.2613    -0.1558    56.0069 </r>
       <r>     0.3095    -0.0842    56.0028 </r>
       <r>     0.3577    -0.0379    56.0010 </r>
       <r>     0.4059    -0.0145    56.0003 </r>
       <r>     0.4541    -0.0048    56.0001 </r>
       <r>     0.5023    -0.0014    56.0000 </r>
       <r>     0.5505    -0.0003    56.0000 </r>
       <r>     0.5987    -0.0001    56.0000 </r>
       <r>     0.6469    -0.0000    56.0000 </r>
       <r>     0.6951    -0.0000    56.0000 </r>
       <r>     0.7433    -0.0000    56.0000 </r>
       <r>     0.7915    -0.0000    56.0000 </r>
       <r>     0.8397    -0.0000    56.0000 </r>
       <r>     0.8879    -0.0000    56.0000 </r>
       <r>     0.9361    -0.0000    56.0000 </r>
       <r>     0.9843    -0.0000    56.0000 </r>
       <r>     1.0325    -0.0000    56.0000 </r>
       <r>     1.0807    -0.0000    56.0000 </r>
       <r>     1.1289     0.0000    56.0000 </r>
       <r>     1.1771     0.0000    56.0000 </r>
       <r>     1.2253     0.0000    56.0000 </r>
       <r>     1.2735     0.0000    56.0000 </r>
       <r>     1.3217     0.0000    56.0000 </r>
       <r>     1.3699     0.0000    56.0000 </r>
       <r>     1.4181     0.0000    56.0000 </r>
       <r>     1.4663     0.0000    56.0000 </r>
       <r>     1.5145     0.0000    56.0000 </r>
       <r>     1.5627     0.0000    56.0000 </r>
       <r>     1.6109     0.0000    56.0000 </r>
       <r>     1.6591     0.0000    56.0000 </r>
       <r>     1.7073     0.0000    56.0000 </r>
       <r>     1.7555     0.0000    56.0000 </r>
       <r>     1.8037     0.0000    56.0000 </r>
       <r>     1.8519     0.0000    56.0000 </r>
      </set>
     </set>
    </array>
   </total>
  </dos>
 </calculation>
 <structure name="finalpos" >
  <crystal>
   <varray name="basis" >
    <v>      21.45882309       0.00000000       0.00000000 </v>
    <v>       0.00000000      20.59169817       0.00000000 </v>
    <v>       0.00000000       0.00000000      24.25672700 </v>
   </varray>
   <i name="volume">  10718.40747945 </i>
   <varray name="rec_basis" >
    <v>       0.04660088       0.00000000       0.00000000 </v>
    <v>       0.00000000       0.04856326       0.00000000 </v>
    <v>       0.00000000       0.00000000       0.04122568 </v>
   </varray>
  </crystal>
  <varray name="positions" >
   <v>       0.42865050       0.53958612       0.46517722 </v>
   <v>       0.59901950       0.48580342       0.38565791 </v>
   <v>       0.40173047       0.45484417       0.37672189 </v>
   <v>       0.54532336       0.51944887       0.63377415 </v>
   <v>       0.54907313       0.54723511       0.46357377 </v>
   <v>       0.50020621       0.44489372       0.43478654 </v>
   <v>       0.49556396       0.54302498       0.54833904 </v>
   <v>       0.49150758       0.53398738       0.37352227 </v>
  </varray>
 </structure>
</modeling>
