unknown system                          
            1
    21.458823    0.000000    0.000000
     0.000000   20.591698    0.000000
     0.000000    0.000000   24.256727
   Au   Cu
     4     4
Direct configuration=     1
   0.43868933  0.53185854  0.46671529
   0.55402348  0.47613176  0.37007167
   0.43691203  0.46384643  0.37782131
   0.51828169  0.55052990  0.62683564
   0.55630450  0.54236485  0.45733203
   0.50795564  0.43074052  0.45814749
   0.51159590  0.49710890  0.54572399
   0.48731216  0.57624289  0.37890537
Direct configuration=     2
   0.43733727  0.53338816  0.46938773
   0.55923805  0.47603308  0.36878638
   0.43224386  0.46184649  0.37584633
   0.51871730  0.55210227  0.62951551
   0.55653659  0.54198068  0.45779561
   0.50841806  0.43086674  0.45905121
   0.51117048  0.49583609  0.54218706
   0.48741313  0.57677028  0.37898295
Direct configuration=     3
   0.43727067  0.53346351  0.46951937
   0.55949490  0.47602822  0.36872307
   0.43201392  0.46174798  0.37574905
   0.51873876  0.55217972  0.62964751
   0.55654802  0.54196175  0.45781845
   0.50844084  0.43087296  0.45909573
   0.51114953  0.49577340  0.54201284
   0.48741810  0.57679626  0.37898677
Direct configuration=     4
   0.43621431  0.53385250  0.46959521
   0.56084567  0.47639977  0.36884491
   0.43123100  0.46193591  0.37574561
   0.51892322  0.55192474  0.62949236
   0.55657732  0.54130601  0.45756235
   0.50849877  0.43172088  0.45837808
   0.51134256  0.49629722  0.54240269
   0.48744188  0.57538675  0.37953158
Direct configuration=     5
   0.43304525  0.53501947  0.46982272
   0.56489798  0.47751445  0.36921041
   0.42888224  0.46249972  0.37573531
   0.51947660  0.55115980  0.62902693
   0.55666523  0.53933878  0.45679406
   0.50867258  0.43426465  0.45622512
   0.51192165  0.49786868  0.54357224
   0.48751320  0.57115824  0.38116599
Direct configuration=     6
   0.43240344  0.53497586  0.47036007
   0.56644850  0.47766296  0.36889710
   0.42826657  0.46279209  0.37569743
   0.51987054  0.55122488  0.62974304
   0.55673459  0.53891325  0.45743223
   0.50819890  0.43577750  0.45527825
   0.51175944  0.49844578  0.54249378
   0.48739274  0.56903147  0.38165088
Direct configuration=     7
   0.43148986  0.53491378  0.47112496
   0.56865558  0.47787435  0.36845112
   0.42739020  0.46320827  0.37564351
   0.52043129  0.55131753  0.63076238
   0.55683333  0.53830753  0.45834064
   0.50752465  0.43793095  0.45393043
   0.51152855  0.49926725  0.54095865
   0.48722127  0.56600414  0.38234109
Direct configuration=     8
   0.43083825  0.53481784  0.47180096
   0.57016958  0.47796758  0.36808630
   0.42647855  0.46292973  0.37527210
   0.52086037  0.55090659  0.63100651
   0.55751007  0.53869394  0.45899718
   0.50660678  0.43919368  0.45268176
   0.51130916  0.50033192  0.54099636
   0.48730198  0.56398250  0.38271161
Direct configuration=     9
   0.42888341  0.53453003  0.47382895
   0.57471158  0.47824729  0.36699185
   0.42374358  0.46209411  0.37415787
   0.52214759  0.54967379  0.63173893
   0.55954029  0.53985317  0.46096679
   0.50385319  0.44298187  0.44893574
   0.51065098  0.50352596  0.54110950
   0.48754412  0.55791756  0.38382317
Direct configuration=    10
   0.42497373  0.53395441  0.47788493
   0.58379558  0.47880672  0.36480293
   0.41827365  0.46042287  0.37192942
   0.52472203  0.54720819  0.63320375
   0.56360074  0.54217163  0.46490601
   0.49834600  0.45055827  0.44144369
   0.50933462  0.50991402  0.54133577
   0.48802839  0.54578769  0.38604628
Direct configuration=    11
   0.42770307  0.53435625  0.47505345
   0.57745404  0.47841618  0.36633101
   0.42209221  0.46158956  0.37348510
   0.52292481  0.54892943  0.63218115
   0.56076614  0.54055311  0.46215604
   0.50219057  0.44526919  0.44667389
   0.51025357  0.50545451  0.54117781
   0.48769032  0.55425556  0.38449433
Direct configuration=    12
   0.42596281  0.53410003  0.47685883
   0.58149748  0.47866519  0.36535669
   0.41965745  0.46084566  0.37249318
   0.52407074  0.54783194  0.63283317
   0.56257352  0.54158510  0.46390946
   0.49973922  0.44864157  0.44333905
   0.50966764  0.50829795  0.54127853
   0.48790588  0.54885634  0.38548387
Direct configuration=    13
   0.42684161  0.53422942  0.47594715
   0.57945562  0.47853945  0.36584871
   0.42088696  0.46122132  0.37299408
   0.52349207  0.54838615  0.63250391
   0.56166083  0.54106397  0.46302401
   0.50097711  0.44693858  0.44502308
   0.50996352  0.50686206  0.54122767
   0.48779702  0.55158284  0.38498417
Direct configuration=    14
   0.42643327  0.53423131  0.47622535
   0.58025886  0.47865535  0.36579201
   0.42003288  0.46079070  0.37262026
   0.52376864  0.54807336  0.63262173
   0.56210453  0.54129776  0.46322664
   0.50058411  0.44773617  0.44430733
   0.50984026  0.50750262  0.54145819
   0.48805219  0.55053653  0.38530127
Direct configuration=    15
   0.42520824  0.53423699  0.47705996
   0.58266859  0.47900304  0.36562191
   0.41747064  0.45949883  0.37149881
   0.52459835  0.54713500  0.63297517
   0.56343566  0.54199913  0.46383454
   0.49940512  0.45012896  0.44216006
   0.50947045  0.50942427  0.54214975
   0.48881770  0.54739758  0.38625258
Direct configuration=    16
   0.42465273  0.53423956  0.47743843
   0.58376132  0.47916071  0.36554478
   0.41630874  0.45891301  0.37099027
   0.52497459  0.54670948  0.63313544
   0.56403928  0.54231718  0.46411020
   0.49887048  0.45121401  0.44118634
   0.50930276  0.51029568  0.54246335
   0.48916483  0.54597417  0.38668397
Direct configuration=    17
   0.42483409  0.53423872  0.47731487
   0.58340457  0.47910923  0.36556996
   0.41668807  0.45910427  0.37115630
   0.52485176  0.54684840  0.63308311
   0.56384221  0.54221334  0.46402020
   0.49904503  0.45085976  0.44150424
   0.50935751  0.51001118  0.54236097
   0.48905150  0.54643888  0.38654313
Direct configuration=    18
   0.42482063  0.53432187  0.47707708
   0.58325818  0.47922658  0.36588120
   0.41624101  0.45883516  0.37096349
   0.52492817  0.54680715  0.63320022
   0.56382835  0.54212499  0.46371430
   0.49941190  0.45073171  0.44166986
   0.50934089  0.50998356  0.54244300
   0.48924560  0.54679276  0.38660363
Direct configuration=    19
   0.42478024  0.53457131  0.47636371
   0.58281900  0.47957863  0.36681493
   0.41489983  0.45802781  0.37038508
   0.52515742  0.54668342  0.63355155
   0.56378677  0.54185995  0.46279659
   0.50051252  0.45034755  0.44216671
   0.50929106  0.50990069  0.54268908
   0.48982790  0.54785441  0.38678512
Direct configuration=    20
   0.42469947  0.53507020  0.47493697
   0.58194064  0.48028273  0.36868237
   0.41221747  0.45641312  0.36922825
   0.52561591  0.54643596  0.63425422
   0.56370361  0.54132986  0.46096119
   0.50271375  0.44957923  0.44316043
   0.50919138  0.50973496  0.54318125
   0.49099250  0.54997772  0.38714811
Direct configuration=    21
   0.42474842  0.53476788  0.47580157
   0.58247292  0.47985605  0.36755071
   0.41384296  0.45739161  0.36992928
   0.52533807  0.54658592  0.63382841
   0.56375400  0.54165109  0.46207343
   0.50137982  0.45004483  0.44255824
   0.50925179  0.50983539  0.54288300
   0.49028676  0.54869101  0.38692814
Direct configuration=    22
   0.42495591  0.53473915  0.47526675
   0.58249896  0.47998138  0.36802631
   0.41373022  0.45738478  0.37001078
   0.52554761  0.54641315  0.63407431
   0.56386344  0.54163012  0.46182982
   0.50137075  0.45001611  0.44248611
   0.50914015  0.51000850  0.54284450
   0.48996770  0.54865060  0.38701420
Direct configuration=    23
   0.42557839  0.53465296  0.47366231
   0.58257707  0.48035736  0.36945309
   0.41339202  0.45736429  0.37025530
   0.52617624  0.54589483  0.63481203
   0.56419174  0.54156722  0.46109897
   0.50134353  0.44992996  0.44226971
   0.50880525  0.51052783  0.54272900
   0.48901051  0.54852934  0.38727238
Direct configuration=    24
   0.42579292  0.53462325  0.47310935
   0.58260399  0.48048694  0.36994482
   0.41327546  0.45735722  0.37033957
   0.52639288  0.54571620  0.63506627
   0.56430488  0.54154554  0.46084709
   0.50133415  0.44990027  0.44219513
   0.50868982  0.51070681  0.54268920
   0.48868062  0.54848756  0.38736135
Direct configuration=    25
   0.42570023  0.53472118  0.47280245
   0.58312904  0.48055882  0.37037776
   0.41314812  0.45733959  0.37054095
   0.52679600  0.54510780  0.63518134
   0.56446276  0.54174641  0.46099147
   0.50109008  0.44949891  0.44204410
   0.50853009  0.51148404  0.54271505
   0.48821841  0.54836705  0.38689967
Direct configuration=    26
   0.42542217  0.53501495  0.47188175
   0.58470419  0.48077447  0.37167657
   0.41276607  0.45728668  0.37114508
   0.52800535  0.54328260  0.63552654
   0.56493640  0.54234901  0.46142459
   0.50035788  0.44829481  0.44159102
   0.50805089  0.51381572  0.54279260
   0.48683179  0.54800554  0.38551463
Direct configuration=    27
   0.42534026  0.53513648  0.47186510
   0.58512262  0.48095359  0.37211813
   0.41236535  0.45704079  0.37121587
   0.52848608  0.54258824  0.63566472
   0.56464764  0.54240546  0.46152376
   0.50030607  0.44824512  0.44146261
   0.50779414  0.51469678  0.54267650
   0.48701255  0.54775731  0.38502610
Direct configuration=    28
   0.42509455  0.53550107  0.47181514
   0.58637793  0.48149095  0.37344282
   0.41116320  0.45630313  0.37142823
   0.52992830  0.54050519  0.63607925
   0.56378136  0.54257481  0.46182127
   0.50015067  0.44809604  0.44107737
   0.50702387  0.51733999  0.54232821
   0.48755484  0.54701261  0.38356048
Direct configuration=    29
   0.42460313  0.53623025  0.47171522
   0.58888855  0.48256567  0.37609221
   0.40875889  0.45482780  0.37185294
   0.53281273  0.53633908  0.63690832
   0.56204880  0.54291349  0.46241628
   0.49983987  0.44779787  0.44030690
   0.50548334  0.52262641  0.54163164
   0.48863943  0.54552322  0.38062926
Direct configuration=    30
   0.42459847  0.53631936  0.47154782
   0.58926831  0.48268995  0.37640810
   0.40848230  0.45468263  0.37194723
   0.53320672  0.53574827  0.63693548
   0.56174150  0.54299752  0.46243466
   0.49975702  0.44786670  0.44017761
   0.50527686  0.52332775  0.54176530
   0.48874356  0.54519161  0.38033658
Direct configuration=    31
   0.42458449  0.53658670  0.47104563
   0.59040758  0.48306279  0.37735578
   0.40765253  0.45424709  0.37223007
   0.53438869  0.53397586  0.63701693
   0.56081960  0.54324959  0.46248980
   0.49950849  0.44807318  0.43978977
   0.50465740  0.52543178  0.54216628
   0.48905595  0.54419679  0.37945853
Direct configuration=    32
   0.42455654  0.53712139  0.47004124
   0.59268613  0.48380848  0.37925113
   0.40599299  0.45337603  0.37279576
   0.53675264  0.53043103  0.63717983
   0.55897579  0.54375374  0.46260008
   0.49901142  0.44848613  0.43901408
   0.50341850  0.52963985  0.54296823
   0.48968073  0.54220714  0.37770243
Direct configuration=    33
   0.42450064  0.53819076  0.46803246
   0.59724323  0.48529987  0.38304185
   0.40267390  0.45163389  0.37392714
   0.54148054  0.52334137  0.63750564
   0.55528817  0.54476204  0.46282063
   0.49801728  0.44931204  0.43746269
   0.50094068  0.53805597  0.54457214
   0.49093030  0.53822784  0.37419023
Direct configuration=    34
   0.42521046  0.53840066  0.46723083
   0.59788545  0.48528775  0.38328338
   0.40272363  0.45193865  0.37429506
   0.54193737  0.52247179  0.63673389
   0.55427598  0.54532119  0.46278052
   0.49787173  0.44925682  0.43699083
   0.50048901  0.53904510  0.54606013
   0.49068111  0.53710182  0.37417814
Direct configuration=    35
   0.42621117  0.53869658  0.46610065
   0.59879087  0.48527067  0.38362390
   0.40279373  0.45236830  0.37481377
   0.54258142  0.52124583  0.63564586
   0.55284897  0.54610950  0.46272398
   0.49766654  0.44917897  0.43632559
   0.49985223  0.54043961  0.54815794
   0.49032980  0.53551432  0.37416110
Direct configuration=    36
   0.42750950  0.53929224  0.46585884
   0.59890373  0.48525629  0.38379053
   0.40274683  0.45285012  0.37502222
   0.54323278  0.52052770  0.63541364
   0.55144707  0.54678257  0.46289068
   0.49820428  0.44825804  0.43603783
   0.49877715  0.54120149  0.54840610
   0.49025340  0.53465533  0.37413294
Direct configuration=    37
   0.42991274  0.54039484  0.46541123
   0.59911264  0.48522967  0.38409899
   0.40266001  0.45374198  0.37540809
   0.54443846  0.51919842  0.63498379
   0.54885210  0.54802845  0.46319925
   0.49919966  0.44655335  0.43550517
   0.49678714  0.54261177  0.54886544
   0.49011198  0.53306530  0.37408081
Direct configuration=    38
   0.42929014  0.54010920  0.46552719
   0.59905852  0.48523657  0.38401908
   0.40268250  0.45351093  0.37530813
   0.54412611  0.51954279  0.63509515
   0.54952437  0.54770569  0.46311931
   0.49894179  0.44699497  0.43564316
   0.49730269  0.54224641  0.54874644
   0.49014862  0.53347722  0.37409431
Direct configuration=    39
   0.42918367  0.54051364  0.46583591
   0.59852900  0.48549898  0.38444290
   0.40221370  0.45358036  0.37538639
   0.54450282  0.51932071  0.63516899
   0.54942590  0.54779681  0.46304429
   0.49974213  0.44580724  0.43570901
   0.49669388  0.54252189  0.54839102
   0.49078363  0.53378416  0.37357428
Direct configuration=    40
   0.42917262  0.54055563  0.46586796
   0.59847402  0.48552623  0.38448690
   0.40216503  0.45358757  0.37539451
   0.54454193  0.51929765  0.63517666
   0.54941568  0.54780628  0.46303650
   0.49982523  0.44568392  0.43571584
   0.49663067  0.54255049  0.54835412
   0.49084956  0.53381603  0.37352028
Direct configuration=    41
   0.42894257  0.54043070  0.46565583
   0.59833785  0.48564122  0.38473742
   0.40221508  0.45381625  0.37566989
   0.54456107  0.51932954  0.63491771
   0.54948155  0.54773627  0.46301253
   0.49992906  0.44540967  0.43563432
   0.49663228  0.54256907  0.54851395
   0.49097527  0.53389108  0.37341113
Direct configuration=    42
   0.42885853  0.54038506  0.46557833
   0.59828810  0.48568323  0.38482895
   0.40223337  0.45389980  0.37577050
   0.54456807  0.51934120  0.63482310
   0.54950561  0.54771069  0.46300378
   0.49996699  0.44530947  0.43560453
   0.49663287  0.54257585  0.54857234
   0.49102120  0.53391849  0.37337125
Direct configuration=    43
   0.42886006  0.54017247  0.46544324
   0.59837787  0.48570677  0.38498723
   0.40225990  0.45413717  0.37605672
   0.54468627  0.51935360  0.63467347
   0.54937697  0.54764123  0.46315479
   0.49995661  0.44521355  0.43548755
   0.49649609  0.54263031  0.54839967
   0.49106096  0.53396869  0.37335013
Direct configuration=    44
   0.42886174  0.53993816  0.46529434
   0.59847681  0.48573271  0.38516168
   0.40228915  0.45439881  0.37637218
   0.54481656  0.51936728  0.63450854
   0.54923518  0.54756466  0.46332123
   0.49994517  0.44510782  0.43535860
   0.49634534  0.54269034  0.54820936
   0.49110478  0.53402401  0.37332684
Direct configuration=    45
   0.42879597  0.53978453  0.46527117
   0.59866659  0.48575354  0.38535870
   0.40200457  0.45454577  0.37656480
   0.54496029  0.51941152  0.63418537
   0.54911533  0.54743796  0.46346228
   0.50009587  0.44498499  0.43521278
   0.49611340  0.54276839  0.54816478
   0.49132272  0.53413709  0.37333290
Direct configuration=    46
   0.42871946  0.53960585  0.46524424
   0.59888731  0.48577777  0.38558784
   0.40167358  0.45471670  0.37678882
   0.54512745  0.51946297  0.63380949
   0.54897594  0.54729058  0.46362633
   0.50027114  0.44484213  0.43504318
   0.49584364  0.54285918  0.54811293
   0.49157620  0.53426861  0.37333995
Direct configuration=    47
   0.42866786  0.53959109  0.46519409
   0.59898623  0.48579697  0.38564027
   0.40171616  0.45481209  0.37673874
   0.54527406  0.51945242  0.63378304
   0.54904867  0.54724907  0.46358700
   0.50022256  0.44488074  0.43485113
   0.49563435  0.54298326  0.54828213
   0.49152485  0.53405816  0.37347638
Direct configuration=    48
   0.42865050  0.53958612  0.46517722
   0.59901950  0.48580342  0.38565791
   0.40173047  0.45484417  0.37672189
   0.54532336  0.51944887  0.63377415
   0.54907313  0.54723511  0.46357377
   0.50020621  0.44489372  0.43478654
   0.49556396  0.54302498  0.54833904
   0.49150758  0.53398738  0.37352227
