  13  13   0   0
  0.8987046E+03  0.2167549E-08  0.2408265E-08  0.2238139E-08  0.5000000E-15
   1.0000000000000000E-004
  CAR 
 unknown system                          
      2.36424998    -12.52965123  301     -4.01061625      1.00000000
    -12.530  0.0000E+00  0.0000E+00  0.0000E+00  0.0000E+00
    -12.480  0.0000E+00  0.0000E+00  0.0000E+00  0.0000E+00
    -12.430  0.0000E+00  0.0000E+00  0.0000E+00  0.0000E+00
    -12.381  0.0000E+00  0.0000E+00  0.0000E+00  0.0000E+00
    -12.331  0.0000E+00  0.0000E+00  0.0000E+00  0.0000E+00
    -12.281  0.0000E+00  0.0000E+00  0.0000E+00  0.0000E+00
    -12.232  0.0000E+00  0.0000E+00  0.0000E+00  0.0000E+00
    -12.182  0.0000E+00  0.0000E+00  0.0000E+00  0.0000E+00
    -12.132 -0.5823E-29 -0.5784E-29 -0.2891E-30 -0.2872E-30
    -12.083 -0.2777E-27 -0.2760E-27 -0.1408E-28 -0.1399E-28
    -12.033 -0.1191E-25 -0.1184E-25 -0.6055E-27 -0.6017E-27
    -11.984 -0.4510E-24 -0.4483E-24 -0.2300E-25 -0.2286E-25
    -11.934 -0.1507E-22 -0.1498E-22 -0.7712E-24 -0.7667E-24
    -11.884 -0.4444E-21 -0.4420E-21 -0.2284E-22 -0.2271E-22
    -11.835 -0.1157E-19 -0.1150E-19 -0.5970E-21 -0.5938E-21
    -11.785 -0.2655E-18 -0.2641E-18 -0.1378E-19 -0.1371E-19
    -11.735 -0.5376E-17 -0.5349E-17 -0.2807E-18 -0.2793E-18
    -11.686 -0.9263E-16 -0.9217E-16 -0.4879E-17 -0.4855E-17
    -11.636 -0.1463E-14 -0.1456E-14 -0.7750E-16 -0.7713E-16
    -11.586 -0.2021E-13 -0.2013E-13 -0.1081E-14 -0.1076E-14
    -11.537 -0.2461E-12 -0.2451E-12 -0.1330E-13 -0.1324E-13
    -11.487 -0.2636E-11 -0.2626E-11 -0.1442E-12 -0.1436E-12
    -11.437 -0.2484E-10 -0.2475E-10 -0.1377E-11 -0.1372E-11
    -11.388 -0.2057E-09 -0.2049E-09 -0.1159E-10 -0.1155E-10
    -11.338 -0.1495E-08 -0.1490E-08 -0.8580E-10 -0.8552E-10
    -11.288 -0.9525E-08 -0.9496E-08 -0.5587E-09 -0.5570E-09
    -11.239 -0.5313E-07 -0.5299E-07 -0.3197E-08 -0.3188E-08
    -11.189 -0.2589E-06 -0.2583E-06 -0.1605E-07 -0.1601E-07
    -11.140 -0.1099E-05 -0.1097E-05 -0.7062E-07 -0.7045E-07
    -11.090 -0.4049E-05 -0.4041E-05 -0.2716E-06 -0.2711E-06
    -11.040 -0.1287E-04 -0.1285E-04 -0.9106E-06 -0.9089E-06
    -10.991 -0.3500E-04 -0.3494E-04 -0.2648E-05 -0.2644E-05
    -10.941 -0.8021E-04 -0.8011E-04 -0.6630E-05 -0.6621E-05
    -10.891 -0.1507E-03 -0.1506E-03 -0.1411E-04 -0.1410E-04
    -10.842 -0.2175E-03 -0.2174E-03 -0.2491E-04 -0.2489E-04
    -10.792 -0.1916E-03 -0.1918E-03 -0.3442E-04 -0.3441E-04
    -10.742  0.7829E-04  0.7753E-04 -0.3053E-04 -0.3056E-04
    -10.693  0.7381E-03  0.7366E-03  0.6110E-05  0.6009E-05
    -10.643  0.1795E-02  0.1793E-02  0.9525E-04  0.9505E-04
    -10.593  0.3010E-02  0.3008E-02  0.2447E-03  0.2444E-03
    -10.544  0.3940E-02  0.3939E-02  0.4403E-03  0.4400E-03
    -10.494  0.4176E-02  0.4176E-02  0.6476E-03  0.6473E-03
    -10.445  0.3606E-02  0.3607E-02  0.8266E-03  0.8264E-03
    -10.395  0.2494E-02  0.2496E-02  0.9505E-03  0.9503E-03
    -10.345  0.1301E-02  0.1303E-02  0.1015E-02  0.1015E-02
    -10.296  0.4011E-03  0.4023E-03  0.1035E-02  0.1035E-02
    -10.246 -0.7853E-04 -0.7804E-04  0.1031E-02  0.1031E-02
    -10.196 -0.2227E-03 -0.2227E-03  0.1020E-02  0.1020E-02
    -10.147 -0.1933E-03 -0.1934E-03  0.1010E-02  0.1010E-02
    -10.097 -0.1181E-03 -0.1182E-03  0.1005E-02  0.1005E-02
    -10.047 -0.5741E-04 -0.5749E-04  0.1002E-02  0.1002E-02
     -9.998 -0.2322E-04 -0.2326E-04  0.1001E-02  0.1001E-02
     -9.948 -0.7973E-05 -0.7989E-05  0.1000E-02  0.1000E-02
     -9.898 -0.2352E-05 -0.2357E-05  0.1000E-02  0.1000E-02
     -9.849 -0.6009E-06 -0.6024E-06  0.1000E-02  0.1000E-02
     -9.799 -0.1370E-06 -0.1374E-06  0.1000E-02  0.1000E-02
     -9.749 -0.4844E-07 -0.4848E-07  0.1000E-02  0.1000E-02
     -9.700 -0.1226E-06 -0.1224E-06  0.1000E-02  0.1000E-02
     -9.650 -0.5390E-06 -0.5384E-06  0.1000E-02  0.1000E-02
     -9.601 -0.2132E-05 -0.2130E-05  0.9999E-03  0.9999E-03
     -9.551 -0.7308E-05 -0.7301E-05  0.9995E-03  0.9995E-03
     -9.501 -0.2154E-04 -0.2152E-04  0.9984E-03  0.9984E-03
     -9.452 -0.5397E-04 -0.5393E-04  0.9957E-03  0.9958E-03
     -9.402 -0.1128E-03 -0.1127E-03  0.9902E-03  0.9902E-03
     -9.352 -0.1888E-03 -0.1888E-03  0.9808E-03  0.9808E-03
     -9.303 -0.2275E-03 -0.2276E-03  0.9695E-03  0.9695E-03
     -9.253 -0.1090E-03 -0.1092E-03  0.9641E-03  0.9641E-03
     -9.203  0.3226E-03  0.3222E-03  0.9801E-03  0.9801E-03
     -9.154  0.1154E-02  0.1153E-02  0.1037E-02  0.1037E-02
     -9.104  0.2270E-02  0.2269E-02  0.1150E-02  0.1150E-02
     -9.054  0.3331E-02  0.3330E-02  0.1315E-02  0.1315E-02
     -9.005  0.3945E-02  0.3945E-02  0.1511E-02  0.1511E-02
     -8.955  0.3963E-02  0.3963E-02  0.1708E-02  0.1708E-02
     -8.905  0.3624E-02  0.3624E-02  0.1888E-02  0.1888E-02
     -8.856  0.3382E-02  0.3382E-02  0.2056E-02  0.2056E-02
     -8.806  0.3513E-02  0.3512E-02  0.2230E-02  0.2230E-02
     -8.757  0.3868E-02  0.3868E-02  0.2422E-02  0.2422E-02
     -8.707  0.4012E-02  0.4012E-02  0.2621E-02  0.2621E-02
     -8.657  0.3597E-02  0.3597E-02  0.2800E-02  0.2800E-02
     -8.608  0.2641E-02  0.2642E-02  0.2931E-02  0.2931E-02
     -8.558  0.1481E-02  0.1483E-02  0.3005E-02  0.3005E-02
     -8.508  0.4939E-03  0.4949E-03  0.3029E-02  0.3029E-02
     -8.459 -0.1374E-03 -0.1368E-03  0.3022E-02  0.3022E-02
     -8.409 -0.4414E-03 -0.4412E-03  0.3000E-02  0.3001E-02
     -8.359 -0.5168E-03 -0.5169E-03  0.2975E-02  0.2975E-02
     -8.310 -0.3774E-03 -0.3779E-03  0.2956E-02  0.2956E-02
     -8.260  0.9356E-04  0.9261E-04  0.2961E-02  0.2961E-02
     -8.210  0.1054E-02  0.1053E-02  0.3013E-02  0.3013E-02
     -8.161  0.2535E-02  0.2533E-02  0.3139E-02  0.3139E-02
     -8.111  0.4308E-02  0.4306E-02  0.3353E-02  0.3352E-02
     -8.061  0.5895E-02  0.5894E-02  0.3645E-02  0.3645E-02
     -8.012  0.6760E-02  0.6760E-02  0.3981E-02  0.3981E-02
     -7.962  0.6580E-02  0.6582E-02  0.4308E-02  0.4307E-02
     -7.913  0.5475E-02  0.5477E-02  0.4580E-02  0.4579E-02
     -7.863  0.4033E-02  0.4034E-02  0.4780E-02  0.4780E-02
     -7.813  0.3077E-02  0.3077E-02  0.4933E-02  0.4932E-02
     -7.764  0.3248E-02  0.3246E-02  0.5094E-02  0.5094E-02
     -7.714  0.4644E-02  0.4641E-02  0.5324E-02  0.5324E-02
     -7.664  0.6816E-02  0.6813E-02  0.5663E-02  0.5662E-02
     -7.615  0.9142E-02  0.9140E-02  0.6117E-02  0.6116E-02
     -7.565  0.1123E-01  0.1123E-01  0.6674E-02  0.6674E-02
     -7.515  0.1300E-01  0.1300E-01  0.7319E-02  0.7319E-02
     -7.466  0.1436E-01  0.1436E-01  0.8032E-02  0.8032E-02
     -7.416  0.1507E-01  0.1507E-01  0.8780E-02  0.8780E-02
     -7.366  0.1494E-01  0.1494E-01  0.9522E-02  0.9522E-02
     -7.317  0.1417E-01  0.1417E-01  0.1023E-01  0.1023E-01
     -7.267  0.1335E-01  0.1335E-01  0.1089E-01  0.1089E-01
     -7.217  0.1302E-01  0.1302E-01  0.1154E-01  0.1153E-01
     -7.168  0.1326E-01  0.1326E-01  0.1219E-01  0.1219E-01
     -7.118  0.1367E-01  0.1367E-01  0.1287E-01  0.1287E-01
     -7.069  0.1389E-01  0.1389E-01  0.1356E-01  0.1356E-01
     -7.019  0.1398E-01  0.1398E-01  0.1426E-01  0.1426E-01
     -6.969  0.1436E-01  0.1436E-01  0.1497E-01  0.1497E-01
     -6.920  0.1546E-01  0.1546E-01  0.1574E-01  0.1574E-01
     -6.870  0.1731E-01  0.1731E-01  0.1660E-01  0.1659E-01
     -6.820  0.1939E-01  0.1939E-01  0.1756E-01  0.1756E-01
     -6.771  0.2086E-01  0.2086E-01  0.1859E-01  0.1859E-01
     -6.721  0.2101E-01  0.2101E-01  0.1964E-01  0.1964E-01
     -6.671  0.1966E-01  0.1966E-01  0.2061E-01  0.2061E-01
     -6.622  0.1735E-01  0.1735E-01  0.2147E-01  0.2147E-01
     -6.572  0.1502E-01  0.1502E-01  0.2222E-01  0.2222E-01
     -6.522  0.1357E-01  0.1357E-01  0.2289E-01  0.2289E-01
     -6.473  0.1359E-01  0.1358E-01  0.2357E-01  0.2357E-01
     -6.423  0.1522E-01  0.1521E-01  0.2432E-01  0.2432E-01
     -6.374  0.1813E-01  0.1813E-01  0.2522E-01  0.2522E-01
     -6.324  0.2150E-01  0.2150E-01  0.2629E-01  0.2629E-01
     -6.274  0.2419E-01  0.2418E-01  0.2749E-01  0.2749E-01
     -6.225  0.2532E-01  0.2532E-01  0.2875E-01  0.2875E-01
     -6.175  0.2490E-01  0.2491E-01  0.2999E-01  0.2998E-01
     -6.125  0.2383E-01  0.2383E-01  0.3117E-01  0.3117E-01
     -6.076  0.2333E-01  0.2333E-01  0.3233E-01  0.3233E-01
     -6.026  0.2423E-01  0.2422E-01  0.3353E-01  0.3353E-01
     -5.976  0.2648E-01  0.2648E-01  0.3484E-01  0.3484E-01
     -5.927  0.2945E-01  0.2945E-01  0.3631E-01  0.3631E-01
     -5.877  0.3240E-01  0.3240E-01  0.3791E-01  0.3791E-01
     -5.827  0.3495E-01  0.3495E-01  0.3965E-01  0.3965E-01
     -5.778  0.3702E-01  0.3702E-01  0.4149E-01  0.4149E-01
     -5.728  0.3854E-01  0.3854E-01  0.4340E-01  0.4340E-01
     -5.678  0.3935E-01  0.3935E-01  0.4535E-01  0.4535E-01
     -5.629  0.3942E-01  0.3942E-01  0.4731E-01  0.4731E-01
     -5.579  0.3913E-01  0.3913E-01  0.4925E-01  0.4925E-01
     -5.530  0.3925E-01  0.3925E-01  0.5120E-01  0.5120E-01
     -5.480  0.4046E-01  0.4046E-01  0.5321E-01  0.5321E-01
     -5.430  0.4276E-01  0.4275E-01  0.5533E-01  0.5533E-01
     -5.381  0.4521E-01  0.4521E-01  0.5758E-01  0.5758E-01
     -5.331  0.4626E-01  0.4626E-01  0.5988E-01  0.5987E-01
     -5.281  0.4450E-01  0.4450E-01  0.6209E-01  0.6208E-01
     -5.232  0.3945E-01  0.3946E-01  0.6404E-01  0.6404E-01
     -5.182  0.3187E-01  0.3188E-01  0.6563E-01  0.6563E-01
     -5.132  0.2336E-01  0.2337E-01  0.6679E-01  0.6679E-01
     -5.083  0.1569E-01  0.1570E-01  0.6757E-01  0.6756E-01
     -5.033  0.1012E-01  0.1012E-01  0.6807E-01  0.6807E-01
     -4.983  0.7045E-02  0.7046E-02  0.6842E-01  0.6842E-01
     -4.934  0.6022E-02  0.6021E-02  0.6872E-01  0.6872E-01
     -4.884  0.6075E-02  0.6074E-02  0.6902E-01  0.6902E-01
     -4.834  0.6165E-02  0.6165E-02  0.6932E-01  0.6932E-01
     -4.785  0.5619E-02  0.5621E-02  0.6960E-01  0.6960E-01
     -4.735  0.4328E-02  0.4331E-02  0.6982E-01  0.6982E-01
     -4.686  0.2649E-02  0.2652E-02  0.6995E-01  0.6995E-01
     -4.636  0.1130E-02  0.1133E-02  0.7001E-01  0.7001E-01
     -4.586  0.2343E-03  0.2350E-03  0.7002E-01  0.7002E-01
     -4.537  0.1868E-03  0.1859E-03  0.7003E-01  0.7003E-01
     -4.487  0.9338E-03  0.9315E-03  0.7007E-01  0.7007E-01
     -4.437  0.2149E-02  0.2146E-02  0.7018E-01  0.7018E-01
     -4.388  0.3308E-02  0.3307E-02  0.7034E-01  0.7034E-01
     -4.338  0.3899E-02  0.3899E-02  0.7054E-01  0.7054E-01
     -4.288  0.3700E-02  0.3701E-02  0.7072E-01  0.7072E-01
     -4.239  0.2954E-02  0.2955E-02  0.7087E-01  0.7087E-01
     -4.189  0.2243E-02  0.2241E-02  0.7098E-01  0.7098E-01
     -4.139  0.2096E-02  0.2091E-02  0.7108E-01  0.7108E-01
     -4.090  0.2626E-02  0.2619E-02  0.7121E-01  0.7121E-01
     -4.040  0.3449E-02  0.3443E-02  0.7138E-01  0.7138E-01
     -3.990  0.3962E-02  0.3961E-02  0.7158E-01  0.7158E-01
     -3.941  0.3759E-02  0.3763E-02  0.7177E-01  0.7177E-01
     -3.891  0.2870E-02  0.2878E-02  0.7191E-01  0.7191E-01
     -3.842  0.1670E-02  0.1679E-02  0.7199E-01  0.7199E-01
     -3.792  0.5862E-03  0.5923E-03  0.7202E-01  0.7202E-01
     -3.742 -0.1499E-03 -0.1467E-03  0.7202E-01  0.7202E-01
     -3.693 -0.5185E-03 -0.5175E-03  0.7199E-01  0.7199E-01
     -3.643 -0.5603E-03 -0.5609E-03  0.7196E-01  0.7196E-01
     -3.593 -0.2227E-03 -0.2245E-03  0.7195E-01  0.7195E-01
     -3.544  0.6527E-03  0.6495E-03  0.7198E-01  0.7198E-01
     -3.494  0.2174E-02  0.2169E-02  0.7209E-01  0.7209E-01
     -3.444  0.4184E-02  0.4180E-02  0.7230E-01  0.7230E-01
     -3.395  0.6180E-02  0.6176E-02  0.7261E-01  0.7260E-01
     -3.345  0.7475E-02  0.7473E-02  0.7298E-01  0.7298E-01
     -3.295  0.7556E-02  0.7558E-02  0.7335E-01  0.7335E-01
     -3.246  0.6392E-02  0.6396E-02  0.7367E-01  0.7367E-01
     -3.196  0.4452E-02  0.4456E-02  0.7389E-01  0.7389E-01
     -3.146  0.2425E-02  0.2429E-02  0.7401E-01  0.7401E-01
     -3.097  0.8577E-03  0.8603E-03  0.7405E-01  0.7405E-01
     -3.047 -0.5681E-04 -0.5552E-04  0.7405E-01  0.7405E-01
     -2.998 -0.4413E-03 -0.4408E-03  0.7403E-01  0.7403E-01
     -2.948 -0.5440E-03 -0.5438E-03  0.7400E-01  0.7400E-01
     -2.898 -0.5477E-03 -0.5476E-03  0.7397E-01  0.7397E-01
     -2.849 -0.4636E-03 -0.4640E-03  0.7395E-01  0.7395E-01
     -2.799 -0.1279E-03 -0.1297E-03  0.7394E-01  0.7394E-01
     -2.749  0.6990E-03  0.6948E-03  0.7398E-01  0.7398E-01
     -2.700  0.2150E-02  0.2144E-02  0.7409E-01  0.7409E-01
     -2.650  0.4073E-02  0.4065E-02  0.7429E-01  0.7429E-01
     -2.600  0.5997E-02  0.5989E-02  0.7459E-01  0.7458E-01
     -2.551  0.7343E-02  0.7339E-02  0.7495E-01  0.7495E-01
     -2.501  0.7770E-02  0.7769E-02  0.7534E-01  0.7533E-01
     -2.451  0.7373E-02  0.7375E-02  0.7570E-01  0.7570E-01
     -2.402  0.6558E-02  0.6560E-02  0.7603E-01  0.7603E-01
     -2.352  0.5684E-02  0.5687E-02  0.7631E-01  0.7631E-01
     -2.303  0.4821E-02  0.4825E-02  0.7655E-01  0.7655E-01
     -2.253  0.3830E-02  0.3836E-02  0.7674E-01  0.7674E-01
     -2.203  0.2665E-02  0.2671E-02  0.7687E-01  0.7687E-01
     -2.154  0.1566E-02  0.1569E-02  0.7695E-01  0.7695E-01
     -2.104  0.9691E-03  0.9651E-03  0.7700E-01  0.7700E-01
     -2.054  0.1220E-02  0.1208E-02  0.7706E-01  0.7706E-01
     -2.005  0.2336E-02  0.2319E-02  0.7717E-01  0.7717E-01
     -1.955  0.3962E-02  0.3946E-02  0.7737E-01  0.7737E-01
     -1.905  0.5523E-02  0.5513E-02  0.7765E-01  0.7764E-01
     -1.856  0.6475E-02  0.6475E-02  0.7797E-01  0.7796E-01
     -1.806  0.6531E-02  0.6540E-02  0.7829E-01  0.7829E-01
     -1.756  0.5784E-02  0.5798E-02  0.7858E-01  0.7858E-01
     -1.707  0.4668E-02  0.4681E-02  0.7881E-01  0.7881E-01
     -1.657  0.3732E-02  0.3741E-02  0.7900E-01  0.7899E-01
     -1.607  0.3322E-02  0.3327E-02  0.7916E-01  0.7916E-01
     -1.558  0.3377E-02  0.3378E-02  0.7933E-01  0.7933E-01
     -1.508  0.3540E-02  0.3539E-02  0.7950E-01  0.7950E-01
     -1.459  0.3544E-02  0.3542E-02  0.7968E-01  0.7968E-01
     -1.409  0.3521E-02  0.3515E-02  0.7985E-01  0.7985E-01
     -1.359  0.3900E-02  0.3890E-02  0.8005E-01  0.8005E-01
     -1.310  0.4952E-02  0.4939E-02  0.8029E-01  0.8029E-01
     -1.260  0.6391E-02  0.6381E-02  0.8061E-01  0.8061E-01
     -1.210  0.7458E-02  0.7456E-02  0.8098E-01  0.8098E-01
     -1.161  0.7463E-02  0.7469E-02  0.8135E-01  0.8135E-01
     -1.111  0.6332E-02  0.6343E-02  0.8167E-01  0.8166E-01
     -1.061  0.4691E-02  0.4699E-02  0.8190E-01  0.8190E-01
     -1.012  0.3403E-02  0.3402E-02  0.8207E-01  0.8207E-01
     -0.962  0.2972E-02  0.2963E-02  0.8222E-01  0.8221E-01
     -0.912  0.3297E-02  0.3285E-02  0.8238E-01  0.8238E-01
     -0.863  0.3908E-02  0.3899E-02  0.8257E-01  0.8257E-01
     -0.813  0.4398E-02  0.4394E-02  0.8279E-01  0.8279E-01
     -0.763  0.4642E-02  0.4643E-02  0.8302E-01  0.8302E-01
     -0.714  0.4673E-02  0.4677E-02  0.8325E-01  0.8325E-01
     -0.664  0.4465E-02  0.4473E-02  0.8348E-01  0.8347E-01
     -0.615  0.3936E-02  0.3947E-02  0.8367E-01  0.8367E-01
     -0.565  0.3145E-02  0.3153E-02  0.8383E-01  0.8383E-01
     -0.515  0.2398E-02  0.2397E-02  0.8395E-01  0.8394E-01
     -0.466  0.2093E-02  0.2077E-02  0.8405E-01  0.8405E-01
     -0.416  0.2420E-02  0.2392E-02  0.8417E-01  0.8417E-01
     -0.366  0.3260E-02  0.3223E-02  0.8433E-01  0.8433E-01
     -0.317  0.4364E-02  0.4314E-02  0.8455E-01  0.8454E-01
     -0.267  0.5609E-02  0.5532E-02  0.8483E-01  0.8482E-01
     -0.217  0.7015E-02  0.6898E-02  0.8518E-01  0.8516E-01
     -0.168  0.8513E-02  0.8366E-02  0.8560E-01  0.8557E-01
     -0.118  0.9746E-02  0.9618E-02  0.8608E-01  0.8605E-01
     -0.068  0.1021E-01  0.1017E-01  0.8659E-01  0.8656E-01
     -0.019  0.9655E-02  0.9760E-02  0.8707E-01  0.8704E-01
      0.031  0.8438E-02  0.8648E-02  0.8749E-01  0.8747E-01
      0.081  0.7423E-02  0.7594E-02  0.8786E-01  0.8785E-01
      0.130  0.7503E-02  0.7436E-02  0.8823E-01  0.8822E-01
      0.180  0.9007E-02  0.8586E-02  0.8868E-01  0.8864E-01
      0.229  0.1139E-01  0.1071E-01  0.8924E-01  0.8917E-01
      0.279  0.1347E-01  0.1280E-01  0.8991E-01  0.8981E-01
      0.329  0.1402E-01  0.1369E-01  0.9061E-01  0.9049E-01
      0.378  0.1250E-01  0.1267E-01  0.9123E-01  0.9112E-01
      0.428  0.9330E-02  0.9898E-02  0.9169E-01  0.9161E-01
      0.478  0.5599E-02  0.6297E-02  0.9197E-01  0.9192E-01
      0.527  0.2416E-02  0.2992E-02  0.9209E-01  0.9207E-01
      0.577  0.3854E-03  0.7239E-03  0.9211E-01  0.9211E-01
      0.627 -0.5103E-03 -0.3849E-03  0.9208E-01  0.9209E-01
      0.676 -0.6599E-03 -0.6580E-03  0.9205E-01  0.9205E-01
      0.726 -0.4907E-03 -0.5308E-03  0.9202E-01  0.9203E-01
      0.776 -0.2784E-03 -0.3162E-03  0.9201E-01  0.9201E-01
      0.825 -0.1295E-03 -0.1527E-03  0.9200E-01  0.9200E-01
      0.875 -0.5089E-04 -0.6196E-04  0.9200E-01  0.9200E-01
      0.925 -0.1715E-04 -0.2149E-04  0.9200E-01  0.9200E-01
      0.974 -0.5003E-05 -0.6435E-05  0.9200E-01  0.9200E-01
      1.024 -0.1270E-05 -0.1674E-05  0.9200E-01  0.9200E-01
      1.073 -0.2813E-06 -0.3799E-06  0.9200E-01  0.9200E-01
      1.123 -0.5458E-07 -0.7541E-07  0.9200E-01  0.9200E-01
      1.173 -0.9287E-08 -0.1312E-07  0.9200E-01  0.9200E-01
      1.222 -0.1388E-08 -0.2005E-08  0.9200E-01  0.9200E-01
      1.272 -0.1825E-09 -0.2693E-09  0.9200E-01  0.9200E-01
      1.322 -0.2111E-10 -0.3182E-10  0.9200E-01  0.9200E-01
      1.371 -0.2150E-11 -0.3311E-11  0.9200E-01  0.9200E-01
      1.421 -0.1930E-12 -0.3035E-12  0.9200E-01  0.9200E-01
      1.471 -0.1527E-13 -0.2451E-13  0.9200E-01  0.9200E-01
      1.520 -0.1069E-14 -0.1749E-14  0.9200E-01  0.9200E-01
      1.570 -0.6262E-16 -0.1118E-15  0.9200E-01  0.9200E-01
      1.620 -0.4473E-17 -0.4473E-17  0.9200E-01  0.9200E-01
      1.669  0.0000E+00  0.0000E+00  0.9200E-01  0.9200E-01
      1.719  0.0000E+00  0.0000E+00  0.9200E-01  0.9200E-01
      1.768  0.0000E+00  0.0000E+00  0.9200E-01  0.9200E-01
      1.818  0.0000E+00  0.0000E+00  0.9200E-01  0.9200E-01
      1.868  0.0000E+00  0.0000E+00  0.9200E-01  0.9200E-01
      1.917  0.0000E+00  0.0000E+00  0.9200E-01  0.9200E-01
      1.967  0.0000E+00  0.0000E+00  0.9200E-01  0.9200E-01
      2.017  0.0000E+00  0.0000E+00  0.9200E-01  0.9200E-01
      2.066  0.0000E+00  0.0000E+00  0.9200E-01  0.9200E-01
      2.116  0.0000E+00  0.0000E+00  0.9200E-01  0.9200E-01
      2.166  0.0000E+00  0.0000E+00  0.9200E-01  0.9200E-01
      2.215  0.0000E+00  0.0000E+00  0.9200E-01  0.9200E-01
      2.265  0.0000E+00  0.0000E+00  0.9200E-01  0.9200E-01
      2.315  0.0000E+00  0.0000E+00  0.9200E-01  0.9200E-01
      2.364  0.0000E+00  0.0000E+00  0.9200E-01  0.9200E-01
