   13   13 1000    2
  0.8987046E+03  0.2167549E-08  0.2408265E-08  0.2238139E-08  0.5000000E-15
   1.0000000000000000E-004
  CAR 
 unknown system                          
    143      1     92
 
  0.1262379E-14  0.1262379E-14  0.1262379E-14  0.1000000E+01
    1      -10.529651    -10.529567   1.000000   1.000000
    2       -9.015148     -9.015109   1.000000   1.000000
    3       -8.729674     -8.729615   1.000000   1.000000
    4       -8.074435     -8.074368   1.000000   1.000000
    5       -7.950324     -7.950293   1.000000   1.000000
    6       -7.639670     -7.639639   1.000000   1.000000
    7       -7.626627     -7.626543   1.000000   1.000000
    8       -7.460662     -7.460615   1.000000   1.000000
    9       -7.435378     -7.435342   1.000000   1.000000
   10       -7.396704     -7.396652   1.000000   1.000000
   11       -7.317281     -7.317236   1.000000   1.000000
   12       -7.186786     -7.186750   1.000000   1.000000
   13       -7.139909     -7.139863   1.000000   1.000000
   14       -7.105337     -7.105292   1.000000   1.000000
   15       -6.993906     -6.993854   1.000000   1.000000
   16       -6.935112     -6.935072   1.000000   1.000000
   17       -6.866206     -6.866171   1.000000   1.000000
   18       -6.790618     -6.790591   1.000000   1.000000
   19       -6.774132     -6.774093   1.000000   1.000000
   20       -6.746429     -6.746392   1.000000   1.000000
   21       -6.687607     -6.687570   1.000000   1.000000
   22       -6.650388     -6.650356   1.000000   1.000000
   23       -6.538352     -6.538306   1.000000   1.000000
   24       -6.485512     -6.485473   1.000000   1.000000
   25       -6.413427     -6.413373   1.000000   1.000000
   26       -6.312177     -6.312129   1.000000   1.000000
   27       -6.294157     -6.294110   1.000000   1.000000
   28       -6.273868     -6.273828   1.000000   1.000000
   29       -6.256532     -6.256486   1.000000   1.000000
   30       -6.235735     -6.235691   1.000000   1.000000
   31       -6.140550     -6.140504   1.000000   1.000000
   32       -6.135436     -6.135390   1.000000   1.000000
   33       -6.068082     -6.068032   1.000000   1.000000
   34       -6.014572     -6.014529   1.000000   1.000000
   35       -5.970810     -5.970756   1.000000   1.000000
   36       -5.942887     -5.942846   1.000000   1.000000
   37       -5.908818     -5.908786   1.000000   1.000000
   38       -5.902377     -5.902347   1.000000   1.000000
   39       -5.880309     -5.880267   1.000000   1.000000
   40       -5.829116     -5.829062   1.000000   1.000000
   41       -5.813079     -5.813038   1.000000   1.000000
   42       -5.748708     -5.748672   1.000000   1.000000
   43       -5.737250     -5.737221   1.000000   1.000000
   44       -5.718102     -5.718069   1.000000   1.000000
   45       -5.705631     -5.705599   1.000000   1.000000
   46       -5.701237     -5.701199   1.000000   1.000000
   47       -5.662103     -5.662059   1.000000   1.000000
   48       -5.614851     -5.614809   1.000000   1.000000
   49       -5.600351     -5.600295   1.000000   1.000000
   50       -5.583509     -5.583451   1.000000   1.000000
   51       -5.548561     -5.548514   1.000000   1.000000
   52       -5.530253     -5.530210   1.000000   1.000000
   53       -5.485706     -5.485665   1.000000   1.000000
   54       -5.483197     -5.483154   1.000000   1.000000
   55       -5.420075     -5.420024   1.000000   1.000000
   56       -5.407409     -5.407376   1.000000   1.000000
   57       -5.396766     -5.396738   1.000000   1.000000
   58       -5.373425     -5.373360   1.000000   1.000000
   59       -5.354871     -5.354823   1.000000   1.000000
   60       -5.332200     -5.332153   1.000000   1.000000
   61       -5.321107     -5.321043   1.000000   1.000000
   62       -5.304437     -5.304398   1.000000   1.000000
   63       -5.270938     -5.270907   1.000000   1.000000
   64       -5.250445     -5.250403   1.000000   1.000000
   65       -5.233344     -5.233300   1.000000   1.000000
   66       -5.230502     -5.230466   1.000000   1.000000
   67       -5.148868     -5.148814   1.000000   1.000000
   68       -5.105583     -5.105546   1.000000   1.000000
   69       -4.926448     -4.926375   1.000000   1.000000
   70       -4.807516     -4.807431   1.000000   1.000000
   71       -4.351147     -4.351033   1.018432   1.018457
   72       -4.006437     -4.006100   0.482321   0.480893
   73       -3.388094     -3.387968  -0.000049  -0.000049
   74       -3.295997     -3.295898  -0.000003  -0.000003
   75       -2.595329     -2.595154  -0.000000  -0.000000
   76       -2.502565     -2.502341  -0.000000  -0.000000
   77       -2.304088     -2.303840  -0.000000  -0.000000
   78       -1.921414     -1.920794  -0.000000  -0.000000
   79       -1.784605     -1.784266  -0.000000  -0.000000
   80       -1.512555     -1.512329  -0.000000  -0.000000
   81       -1.237832     -1.237349  -0.000000  -0.000000
   82       -1.176509     -1.176247  -0.000000  -0.000000
   83       -0.878398     -0.877672  -0.000000  -0.000000
   84       -0.656176     -0.655479  -0.000000  -0.000000
   85       -0.337187     -0.335489  -0.000000  -0.000000
   86       -0.150673     -0.148672  -0.000000  -0.000000
   87       -0.087130     -0.084323  -0.000000  -0.000000
   88        0.000962      0.006777  -0.000000  -0.000000
   89        0.192306      0.185680  -0.000000  -0.000000
   90        0.279005      0.290755  -0.000000  -0.000000
   91        0.321078      0.332918  -0.000000  -0.000000
   92        0.355724      0.364250  -0.000000  -0.000000
