       N       E                     dE             d eps       ncg     rms          rms(c)
DAV:   1     0.974886744014E+03    0.97489E+03   -0.26207E+04   368   0.759E+02
DAV:   2     0.230956523343E+03   -0.74393E+03   -0.67302E+03   368   0.226E+02
DAV:   3     0.383428121770E+01   -0.22712E+03   -0.21903E+03   472   0.133E+02
DAV:   4    -0.355100546810E+02   -0.39344E+02   -0.36480E+02   440   0.108E+02
DAV:   5    -0.372127179550E+02   -0.17027E+01   -0.16871E+01   480   0.206E+01    0.284E+01
DAV:   6    -0.158005568477E+02    0.21412E+02   -0.13587E+02   396   0.892E+01    0.122E+01
DAV:   7    -0.113954384166E+02    0.44051E+01   -0.31895E+01   432   0.545E+01    0.477E+00
DAV:   8    -0.106123418924E+02    0.78310E+00   -0.35553E+00   460   0.349E+01    0.382E+00
DAV:   9    -0.122965560858E+02   -0.16842E+01   -0.98495E-01   488   0.270E+01    0.254E+00
DAV:  10    -0.178181674450E+02   -0.55216E+01   -0.31340E+00   456   0.957E+00    0.183E+00
DAV:  11    -0.208486034466E+02   -0.30304E+01   -0.10841E+00   488   0.122E+01    0.174E+00
DAV:  12    -0.219592253848E+02   -0.11106E+01   -0.34367E-01   536   0.379E+00    0.167E+00
DAV:  13    -0.245608271355E+02   -0.26016E+01   -0.10126E+00   452   0.497E+00    0.127E+00
DAV:  14    -0.277346490658E+02   -0.31738E+01   -0.14452E+00   528   0.877E+00    0.102E+00
DAV:  15    -0.291052368956E+02   -0.13706E+01   -0.31460E-01   488   0.631E+00    0.718E-01
DAV:  16    -0.306257519606E+02   -0.15205E+01   -0.34658E-01   480   0.286E+00    0.560E-01
DAV:  17    -0.315039197960E+02   -0.87817E+00   -0.16355E-01   448   0.331E+00    0.424E-01
DAV:  18    -0.320076549357E+02   -0.50374E+00   -0.62779E-02   504   0.270E+00    0.290E-01
DAV:  19    -0.324990539811E+02   -0.49140E+00   -0.41786E-02   512   0.128E+00    0.214E-01
DAV:  20    -0.326809974248E+02   -0.18194E+00   -0.73855E-03   552   0.142E+00    0.137E-01
DAV:  21    -0.328476597265E+02   -0.16666E+00   -0.59845E-03   512   0.809E-01    0.985E-02
DAV:  22    -0.329188729385E+02   -0.71213E-01   -0.38069E-03   516   0.816E-01    0.700E-02
DAV:  23    -0.329493615378E+02   -0.30489E-01   -0.16284E-03   464   0.408E-01    0.479E-02
DAV:  24    -0.329700752887E+02   -0.20714E-01   -0.10277E-03   404   0.309E-01    0.372E-02
DAV:  25    -0.329828684949E+02   -0.12793E-01   -0.42019E-04   328   0.284E-01    0.286E-02
DAV:  26    -0.329971517224E+02   -0.14283E-01   -0.70804E-04   368   0.175E-01    0.227E-02
DAV:  27    -0.330041569548E+02   -0.70052E-02   -0.34394E-04   324   0.160E-01    0.173E-02
DAV:  28    -0.330073481366E+02   -0.31912E-02   -0.13599E-04   284   0.135E-01    0.129E-02
DAV:  29    -0.330099086113E+02   -0.25605E-02   -0.11042E-04   264   0.909E-02    0.101E-02
DAV:  30    -0.330123926735E+02   -0.24841E-02   -0.82558E-05   272   0.758E-02    0.703E-03
DAV:  31    -0.330132841821E+02   -0.89151E-03   -0.35547E-05   272   0.592E-02    0.615E-03
DAV:  32    -0.330136062574E+02   -0.32208E-03   -0.21880E-05   264   0.428E-02    0.435E-03
DAV:  33    -0.330139037497E+02   -0.29749E-03   -0.18992E-05   248   0.332E-02    0.401E-03
DAV:  34    -0.330140772973E+02   -0.17355E-03   -0.12101E-05   260   0.321E-02    0.289E-03
DAV:  35    -0.330141325262E+02   -0.55229E-04   -0.69436E-06   240   0.212E-02
   1 F= -.33014133E+02 E0= -.33003689E+02  d E =-.330141E+02  mag=     0.0085
       N       E                     dE             d eps       ncg     rms          rms(c)
DAV:   1    -0.330300255186E+02   -0.15948E-01   -0.14538E+01   392   0.131E+01    0.314E-01
DAV:   2    -0.330555976390E+02   -0.25572E-01   -0.27691E-01   560   0.361E+00    0.307E-01
DAV:   3    -0.330550564431E+02    0.54120E-03   -0.12977E-02   432   0.240E+00    0.190E-01
DAV:   4    -0.330549097369E+02    0.14671E-03   -0.20897E-03   448   0.939E-01    0.152E-01
DAV:   5    -0.330548247097E+02    0.85027E-04   -0.97746E-04   488   0.275E-01
   2 F= -.33054825E+02 E0= -.33043858E+02  d E =-.406922E-01  mag=     0.0080
       N       E                     dE             d eps       ncg     rms          rms(c)
DAV:   1    -0.330275003394E+02    0.27409E-01   -0.25407E+01   392   0.174E+01    0.433E-01
DAV:   2    -0.330725737206E+02   -0.45073E-01   -0.49254E-01   560   0.470E+00    0.400E-01
DAV:   3    -0.330714679525E+02    0.11058E-02   -0.21498E-02   424   0.310E+00    0.245E-01
DAV:   4    -0.330712033030E+02    0.26465E-03   -0.40568E-03   432   0.131E+00    0.194E-01
DAV:   5    -0.330709736075E+02    0.22970E-03   -0.18004E-03   548   0.340E-01    0.963E-02
DAV:   6    -0.330710683235E+02   -0.94716E-04   -0.79435E-04   412   0.644E-01
   3 F= -.33071068E+02 E0= -.33059073E+02  d E =-.569358E-01  mag=     0.0068
       N       E                     dE             d eps       ncg     rms          rms(c)
DAV:   1    -0.330721965884E+02   -0.12230E-02   -0.34318E+00   400   0.631E+00    0.126E-01
DAV:   2    -0.330779693583E+02   -0.57728E-02   -0.60552E-02   560   0.196E+00    0.165E-01
DAV:   3    -0.330777758160E+02    0.19354E-03   -0.31365E-03   416   0.115E+00    0.919E-02
DAV:   4    -0.330777621386E+02    0.13677E-04   -0.58158E-04   384   0.348E-01
   4 F= -.33077762E+02 E0= -.33065605E+02  d E =-.669382E-02  mag=     0.0063
       N       E                     dE             d eps       ncg     rms          rms(c)
DAV:   1    -0.330432029083E+02    0.34573E-01   -0.24726E+01   396   0.171E+01    0.381E-01
DAV:   2    -0.330900525831E+02   -0.46850E-01   -0.49830E-01   556   0.559E+00    0.498E-01
DAV:   3    -0.330878273911E+02    0.22252E-02   -0.23471E-02   412   0.314E+00    0.298E-01
DAV:   4    -0.330874993489E+02    0.32804E-03   -0.48991E-03   496   0.990E-01    0.255E-01
DAV:   5    -0.330867362355E+02    0.76311E-03   -0.15964E-03   460   0.523E-01    0.158E-01
DAV:   6    -0.330865268247E+02    0.20941E-03   -0.26793E-03   588   0.918E-01    0.709E-02
DAV:   7    -0.330864671277E+02    0.59697E-04   -0.49156E-04   392   0.641E-01
   5 F= -.33086467E+02 E0= -.33073794E+02  d E =-.153988E-01  mag=     0.0051
       N       E                     dE             d eps       ncg     rms          rms(c)
DAV:   1    -0.330846987672E+02    0.18281E-02   -0.54668E+00   396   0.799E+00    0.153E-01
DAV:   2    -0.330947613263E+02   -0.10063E-01   -0.10395E-01   556   0.209E+00    0.190E-01
DAV:   3    -0.330944147638E+02    0.34656E-03   -0.26762E-03   412   0.100E+00    0.123E-01
DAV:   4    -0.330943521665E+02    0.62597E-04   -0.65005E-04   376   0.461E-01
   6 F= -.33094352E+02 E0= -.33081467E+02  d E =-.788504E-02  mag=     0.0046
       N       E                     dE             d eps       ncg     rms          rms(c)
DAV:   1    -0.330832859867E+02    0.11129E-01   -0.86569E+00   396   0.101E+01    0.192E-01
DAV:   2    -0.330989490841E+02   -0.15663E-01   -0.16213E-01   556   0.245E+00    0.250E-01
DAV:   3    -0.330983765918E+02    0.57249E-03   -0.26920E-03   416   0.854E-01    0.186E-01
DAV:   4    -0.330981587099E+02    0.21788E-03   -0.84716E-04   384   0.633E-01    0.161E-01
DAV:   5    -0.330977733954E+02    0.38531E-03   -0.96594E-04   540   0.601E-01    0.664E-02
DAV:   6    -0.330977785973E+02   -0.52019E-05   -0.69287E-04   496   0.227E-01
   7 F= -.33097779E+02 E0= -.33084614E+02  d E =-.113115E-01  mag=     0.0038
       N       E                     dE             d eps       ncg     rms          rms(c)
DAV:   1    -0.330961923538E+02    0.15810E-02   -0.30781E+00   416   0.597E+00    0.123E-01
DAV:   2    -0.331011164195E+02   -0.49241E-02   -0.51556E-02   576   0.179E+00    0.147E-01
DAV:   3    -0.331009866907E+02    0.12973E-03   -0.28079E-03   400   0.988E-01    0.899E-02
DAV:   4    -0.331009621604E+02    0.24530E-04   -0.48360E-04   384   0.323E-01
   8 F= -.33100962E+02 E0= -.33087583E+02  d E =-.318356E-02  mag=     0.0035
       N       E                     dE             d eps       ncg     rms          rms(c)
DAV:   1    -0.330577531849E+02    0.43234E-01   -0.27838E+01   408   0.182E+01    0.425E-01
DAV:   2    -0.331098813885E+02   -0.52128E-01   -0.55474E-01   576   0.650E+00    0.550E-01
DAV:   3    -0.331069318630E+02    0.29495E-02   -0.28930E-02   408   0.370E+00    0.324E-01
DAV:   4    -0.331067050786E+02    0.22678E-03   -0.61556E-03   416   0.874E-01    0.285E-01
DAV:   5    -0.331055415175E+02    0.11636E-02   -0.21348E-03   484   0.540E-01    0.167E-01
DAV:   6    -0.331051937508E+02    0.34777E-03   -0.29503E-03   624   0.869E-01    0.652E-02
DAV:   7    -0.331051558287E+02    0.37922E-04   -0.52839E-04   408   0.650E-01
   9 F= -.33105156E+02 E0= -.33091119E+02  d E =-.737723E-02  mag=     0.0027
       N       E                     dE             d eps       ncg     rms          rms(c)
DAV:   1    -0.331003264541E+02    0.48673E-02   -0.38281E+00   400   0.666E+00    0.164E-01
DAV:   2    -0.331067711724E+02   -0.64447E-02   -0.69328E-02   560   0.250E+00    0.189E-01
DAV:   3    -0.331065433981E+02    0.22777E-03   -0.53606E-03   416   0.159E+00    0.959E-02
DAV:   4    -0.331065633061E+02   -0.19908E-04   -0.10287E-03   392   0.367E-01    0.807E-02
DAV:   5    -0.331065188429E+02    0.44463E-04   -0.17476E-04   224   0.193E-01
  10 F= -.33106519E+02 E0= -.33092751E+02  d E =-.136301E-02  mag=     0.0023
       N       E                     dE             d eps       ncg     rms          rms(c)
DAV:   1    -0.331065324759E+02    0.30830E-04   -0.37325E-02   512   0.774E-01    0.284E-02
DAV:   2    -0.331065626439E+02   -0.30168E-04   -0.47528E-04   384   0.542E-01
  11 F= -.33106563E+02 E0= -.33092797E+02  d E =-.140682E-02  mag=     0.0022
       N       E                     dE             d eps       ncg     rms          rms(c)
DAV:   1    -0.331060815923E+02    0.45088E-03   -0.52895E-01   400   0.249E+00    0.512E-02
DAV:   2    -0.331069692626E+02   -0.88767E-03   -0.92364E-03   560   0.863E-01    0.685E-02
DAV:   3    -0.331069332731E+02    0.35990E-04   -0.54090E-04   384   0.539E-01
  12 F= -.33106933E+02 E0= -.33093138E+02  d E =-.370629E-03  mag=     0.0021
       N       E                     dE             d eps       ncg     rms          rms(c)
DAV:   1    -0.331068374463E+02    0.13182E-03   -0.27838E-02   400   0.582E-01    0.289E-02
DAV:   2    -0.331068803293E+02   -0.42883E-04   -0.40481E-04   320   0.166E-01
  13 F= -.33106880E+02 E0= -.33093096E+02  d E =-.317685E-03  mag=     0.0020
