 vasp.6.1.2 22Jul20 (build Jan 14 2022 17:24:41) gamma-only                      
 executed on             LinuxPGI date 2022.01.31  15:26:01
 running on    8 total cores
 distrk:  each k-point on    8 cores,    1 groups
 distr:  one band on NCORE=   8 cores,    1 groups


--------------------------------------------------------------------------------------------------------


 INCAR:
 POTCAR:    PAW_PBE Cu 22Jun2005                  
 -----------------------------------------------------------------------------
|                                                                             |
|           W    W    AA    RRRRR   N    N  II  N    N   GGGG   !!!           |
|           W    W   A  A   R    R  NN   N  II  NN   N  G    G  !!!           |
|           W    W  A    A  R    R  N N  N  II  N N  N  G       !!!           |
|           W WW W  AAAAAA  RRRRR   N  N N  II  N  N N  G  GGG   !            |
|           WW  WW  A    A  R   R   N   NN  II  N   NN  G    G                |
|           W    W  A    A  R    R  N    N  II  N    N   GGGG   !!!           |
|                                                                             |
|     You use a magnetic or noncollinear calculation, but did not specify     |
|     the initial magnetic moment with the MAGMOM tag. Note that a            |
|     default of 1 will be used for all atoms. This ferromagnetic setup       |
|     may break the symmetry of the crystal, in particular it may rule        |
|     out finding an antiferromagnetic solution. Thence, we recommend         |
|     setting the initial magnetic moment manually or verifying carefully     |
|     that this magnetic setup is desired.                                    |
|                                                                             |
 -----------------------------------------------------------------------------

 -----------------------------------------------------------------------------
|                                                                             |
|           W    W    AA    RRRRR   N    N  II  N    N   GGGG   !!!           |
|           W    W   A  A   R    R  NN   N  II  NN   N  G    G  !!!           |
|           W    W  A    A  R    R  N N  N  II  N N  N  G       !!!           |
|           W WW W  AAAAAA  RRRRR   N  N N  II  N  N N  G  GGG   !            |
|           WW  WW  A    A  R   R   N   NN  II  N   NN  G    G                |
|           W    W  A    A  R    R  N    N  II  N    N   GGGG   !!!           |
|                                                                             |
|     For optimal performance we recommend to set                             |
|       NCORE = 4 - approx SQRT(number of cores).                             |
|     NCORE specifies how many cores store one orbital (NPAR=cpu/NCORE).      |
|     This setting can greatly improve the performance of VASP for DFT.       |
|     The default, NCORE=1 might be grossly inefficient on modern             |
|     multi-core architectures or massively parallel machines. Do your        |
|     own testing!!!!                                                         |
|     Unfortunately you need to use the default for GW and RPA                |
|     calculations (for HF NCORE is supported but not extensively tested      |
|     yet).                                                                   |
|                                                                             |
 -----------------------------------------------------------------------------

 POTCAR:    PAW_PBE Cu 22Jun2005                  
   SHA256 =  0e71e558f37a4e8407882b4609ceaae59938afaad9ced71dfe8490308a0ab630 Cu/POTCAR             
   COPYR  = (c) Copyright 22Jun2005 Georg Kresse                                                    
   COPYR  = This file is part of the software VASP. Any use, copying, and all other rights are regul
   COPYR  = If you do not have a valid VASP license, you may not use, copy or distribute this file. 
   VRHFIN =Cu: d10 p1                                                                               
   LEXCH  = PE                                                                                      
   EATOM  =  1390.9808 eV,  102.2342 Ry                                                             
                                                                                                    
   TITEL  = PAW_PBE Cu 22Jun2005                                                                    
   LULTRA =        F    use ultrasoft PP ?                                                          
   IUNSCR =        1    unscreen: 0-lin 1-nonlin 2-no                                               
   RPACOR =    2.000    partial core radius                                                         
   POMASS =   63.546; ZVAL   =   11.000    mass and valenz                                          
   RCORE  =    2.300    outmost cutoff radius                                                       
   RWIGS  =    2.200; RWIGS  =    1.164    wigner-seitz radius (au A)                               
   ENMAX  =  295.446; ENMIN  =  221.585 eV                                                          
   ICORE  =        3    local potential                                                             
   LCOR   =        T    correct aug charges                                                         
   LPAW   =        T    paw PP                                                                      
   EAUG   =  586.980                                                                                
   DEXC   =    0.000                                                                                
   RMAX   =    2.344    core radius for proj-oper                                                   
   RAUG   =    1.300    factor for augmentation sphere                                              
   RDEP   =    2.302    radius for radial grids                                                     
   RDEPT  =    1.771    core radius for aug-charge                                                  
                                                                                                    
   Atomic configuration                                                                             
    9 entries                                                                                       
     n  l   j            E        occ.                                                              
     1  0  0.50     -8850.2468   2.0000                                                             
     2  0  0.50     -1062.3498   2.0000                                                             
     2  1  1.50      -916.8226   6.0000                                                             
     3  0  0.50      -114.6929   2.0000                                                             
     3  1  1.50       -72.1325   6.0000                                                             
     3  2  2.50        -5.0394  10.0000                                                             
     4  0  0.50        -4.6097   1.0000                                                             
     4  1  0.50        -4.0817   0.0000                                                             
     4  3  2.50        -1.3606   0.0000                                                             
   Description                                                                                      
     l       E           TYP  RCUT    TYP  RCUT                                                     
     2     -5.0393973     23  2.200                                                                 
     2     10.8846608     23  2.200                                                                 
     0     -4.6097109     23  2.200                                                                 
     0      8.2520465     23  2.200                                                                 
     1     -2.7211652     23  2.200                                                                 
     1     21.7055443     23  2.200                                                                 
     3      2.7211652     23  2.300                                                                 
  local pseudopotential read in
  partial core-charges read in
  partial kinetic energy density read in
  atomic valenz-charges read in
  non local Contribution for L=            2  read in
    real space projection operators read in
  non local Contribution for L=            2  read in
    real space projection operators read in
  non local Contribution for L=            0  read in
    real space projection operators read in
  non local Contribution for L=            0  read in
    real space projection operators read in
  non local Contribution for L=            1  read in
    real space projection operators read in
  non local Contribution for L=            1  read in
    real space projection operators read in
    PAW grid and wavefunctions read in
 
   number of l-projection  operators is LMAX  =            6
   number of lm-projection operators is LMMAX =           18
 
  PAW_PBE Cu 22Jun2005                  :
 energy of atom  1       EATOM=-1390.9808
 kinetic energy error for atom=    0.0232 (will be added to EATOM!!)
 
 
 POSCAR: Cu
  positions in cartesian coordinates
  No initial velocities read in
 exchange correlation table for  LEXCH =        8
   RHO(1)=    0.500       N(1)  =     2000
   RHO(2)=  100.500       N(2)  =     4000
 


--------------------------------------------------------------------------------------------------------


 ion  position               nearest neighbor table
   1  0.522  0.453  0.497-   9 2.44   3 2.47   2 2.47  13 2.48   8 2.48   6 2.48   7 2.53
   2  0.426  0.508  0.493-  10 2.45   1 2.47  13 2.47   7 2.49   5 2.49   4 2.50   8 2.55
   3  0.593  0.533  0.503-  11 2.43  12 2.45   1 2.47   5 2.47   6 2.49   9 2.50
   4  0.481  0.593  0.529-  11 2.44  12 2.45   6 2.46   5 2.46  10 2.47   2 2.50
   5  0.509  0.552  0.432-   9 2.44   8 2.46   4 2.46   3 2.47   2 2.49  11 2.50
   6  0.521  0.514  0.587-  10 2.45   7 2.45   4 2.46  12 2.48   1 2.48   3 2.49
   7  0.441  0.442  0.578-  13 2.43   6 2.45  10 2.46   2 2.49   1 2.53
   8  0.469  0.461  0.400-  13 2.42   5 2.46   9 2.47   1 2.48   2 2.55
   9  0.581  0.478  0.408-   5 2.44   1 2.44   8 2.47   3 2.50
  10  0.412  0.540  0.596-   6 2.45   2 2.45   7 2.46   4 2.47
  11  0.571  0.629  0.476-   3 2.43  12 2.44   4 2.44   5 2.50
  12  0.579  0.602  0.581-  11 2.44   4 2.45   3 2.45   6 2.48
  13  0.422  0.406  0.478-   8 2.42   7 2.43   2 2.47   1 2.48
 

IMPORTANT INFORMATION: All symmetrisations will be switched off!
NOSYMM: (Re-)initialisation of all symmetry stuff for point group C_1.


----------------------------------------------------------------------------------------

                                     Primitive cell                                     

  volume of cell :   11683.1596

  direct lattice vectors                    reciprocal lattice vectors
    21.675494134  0.000000000  0.000000000     0.046135050  0.000000000  0.000000000
     0.000000000 24.082649527  0.000000000     0.000000000  0.041523670  0.000000000
     0.000000000  0.000000000 22.381389091     0.000000000  0.000000000  0.044679979

  length of vectors
    21.675494134 24.082649527 22.381389091     0.046135050  0.041523670  0.044679979

  position of ions in fractional coordinates (direct lattice)
     0.522087834  0.452977553  0.497245008
     0.425807023  0.507758247  0.492673095
     0.593312175  0.532736607  0.502765530
     0.480593101  0.592779815  0.529087529
     0.508633987  0.551895621  0.432024707
     0.520894130  0.513916501  0.586614683
     0.440694145  0.442442718  0.577619473
     0.469283530  0.461105985  0.399524042
     0.581366470  0.477967977  0.408445706
     0.412077382  0.539635969  0.596007732
     0.570918769  0.628659574  0.476400851
     0.579159671  0.602171467  0.581457364
     0.422470052  0.405970716  0.477942303

  ion indices of the primitive-cell ions
   primitive index   ion index
                 1           1
                 2           2
                 3           3
                 4           4
                 5           5
                 6           6
                 7           7
                 8           8
                 9           9
                10          10
                11          11
                12          12
                13          13

----------------------------------------------------------------------------------------

 
 
 KPOINTS: KPOINTS created by Atomic Simulation Env

Automatic generation of k-mesh.
Space group operators:
 irot       det(A)        alpha          n_x          n_y          n_z        tau_x        tau_y        tau_z
    1     1.000000     0.000000     1.000000     0.000000     0.000000     0.000000     0.000000     0.000000
 
 Subroutine IBZKPT returns following result:
 ===========================================
 
 Found      1 irreducible k-points:
 
 Following reciprocal coordinates:
            Coordinates               Weight
  0.000000  0.000000  0.000000      1.000000
 
 Following cartesian coordinates:
            Coordinates               Weight
  0.000000  0.000000  0.000000      1.000000
 


--------------------------------------------------------------------------------------------------------




 Dimension of arrays:
   k-points           NKPTS =      1   k-points in BZ     NKDIM =      1   number of bands    NBANDS=     92
   number of dos      NEDOS =    301   number of ions     NIONS =     13
   non local maximal  LDIM  =      6   non local SUM 2l+1 LMDIM =     18
   total plane-waves  NPLWV = ******
   max r-space proj   IRMAX =      1   max aug-charges    IRDMAX=   3798
   dimension x,y,z NGX =   108 NGY =  120 NGZ =  112
   dimension x,y,z NGXF=   216 NGYF=  240 NGZF=  224
   support grid    NGXF=   216 NGYF=  240 NGZF=  224
   ions per type =              13
   NGX,Y,Z   is equivalent  to a cutoff of   8.28,  8.28,  8.32 a.u.
   NGXF,Y,Z  is equivalent  to a cutoff of  16.57, 16.57, 16.64 a.u.

 SYSTEM =  unknown system                          
 POSCAR =  Cu                                      

 Startparameter for this run:
   NWRITE =      2    write-flag & timer
   PREC   = normal    normal or accurate (medium, high low for compatibility)
   ISTART =      0    job   : 0-new  1-cont  2-samecut
   ICHARG =      2    charge: 1-file 2-atom 10-const
   ISPIN  =      2    spin polarized calculation?
   LNONCOLLINEAR =      F non collinear calculations
   LSORBIT =      F    spin-orbit coupling
   INIWAV =      1    electr: 0-lowe 1-rand  2-diag
   LASPH  =      F    aspherical Exc in radial PAW
   METAGGA=      F    non-selfconsistent MetaGGA calc.

 Electronic Relaxation 1
   ENCUT  =  400.0 eV  29.40 Ry    5.42 a.u.  35.35 39.27 36.50*2*pi/ulx,y,z
   ENINI  =  400.0     initial cutoff
   ENAUG  =  587.0 eV  augmentation charge cutoff
   NELM   =     60;   NELMIN=  2; NELMDL=  0     # of ELM steps 
   EDIFF  = 0.1E-03   stopping-criterion for ELM
   LREAL  =      F    real-space projection
   NLSPLINE    = F    spline interpolate recip. space projectors
   LCOMPAT=      F    compatible to vasp.4.4
   GGA_COMPAT  = T    GGA compatible to vasp.4.4-vasp.4.6
   LMAXPAW     = -100 max onsite density
   LMAXMIX     =    2 max onsite mixed and CHGCAR
   VOSKOWN=      0    Vosko Wilk Nusair interpolation
   ROPT   =    0.00000
 Ionic relaxation
   EDIFFG = 0.1E-02   stopping-criterion for IOM
   NSW    =   1000    number of steps for IOM
   NBLOCK =      1;   KBLOCK =   1000    inner block; outer block 
   IBRION =      2    ionic relax: 0-MD 1-quasi-New 2-CG
   NFREE  =      1    steps in history (QN), initial steepest desc. (CG)
   ISIF   =      0    stress and relaxation
   IWAVPR =     11    prediction:  0-non 1-charg 2-wave 3-comb
   ISYM   =      0    0-nonsym 1-usesym 2-fastsym
   LCORR  =      T    Harris-Foulkes like correction to forces

   POTIM  = 0.5000    time-step for ionic-motion
   TEIN   =    0.0    initial temperature
   TEBEG  =    0.0;   TEEND  =   0.0 temperature during run
   SMASS  =  -3.00    Nose mass-parameter (am)
   estimated Nose-frequenzy (Omega)   =  0.10E-29 period in steps = 0.13E+47 mass=  -0.107E-25a.u.
   SCALEE = 1.0000    scale energy and forces
   NPACO  =    256;   APACO  = 16.0  distance and # of slots for P.C.
   PSTRESS=    0.0 pullay stress

  Mass of Ions in am
   POMASS =  63.55
  Ionic Valenz
   ZVAL   =  11.00
  Atomic Wigner-Seitz radii
   RWIGS  =  -1.00
  virtual crystal weights 
   VCA    =   1.00
   NELECT =     143.0000    total number of electrons
   NUPDOWN=      -1.0000    fix difference up-down

 DOS related values:
   EMIN   =  10.00;   EMAX   =-10.00  energy-range for DOS
   EFERMI =   0.00
   ISMEAR =     1;   SIGMA  =   0.20  broadening in eV -4-tet -1-fermi 0-gaus

 Electronic relaxation 2 (details)
   IALGO  =     38    algorithm
   LDIAG  =      T    sub-space diagonalisation (order eigenvalues)
   LSUBROT=      F    optimize rotation matrix (better conditioning)
   TURBO    =      0    0=normal 1=particle mesh
   IRESTART =      0    0=no restart 2=restart with 2 vectors
   NREBOOT  =      0    no. of reboots
   NMIN     =      0    reboot dimension
   EREF     =   0.00    reference energy to select bands
   IMIX   =      4    mixing-type and parameters
     AMIX     =   0.40;   BMIX     =  1.00
     AMIX_MAG =   1.60;   BMIX_MAG =  1.00
     AMIN     =   0.10
     WC   =   100.;   INIMIX=   1;  MIXPRE=   1;  MAXMIX= -45

 Intra band minimization:
   WEIMIN = 0.0010     energy-eigenvalue tresh-hold
   EBREAK =  0.27E-06  absolut break condition
   DEPER  =   0.30     relativ break condition  

   TIME   =   0.40     timestep for ELM

  volume/ion in A,a.u.               =     898.70      6064.76
  Fermi-wavevector in a.u.,A,eV,Ry     =   0.377283  0.712961  1.936682  0.142342
  Thomas-Fermi vector in A             =   1.309747
 
 Write flags
   LWAVE        =      F    write WAVECAR
   LDOWNSAMPLE  =      F    k-point downsampling of WAVECAR
   LCHARG       =      F    write CHGCAR
   LVTOT        =      F    write LOCPOT, total local potential
   LVHAR        =      F    write LOCPOT, Hartree potential only
   LELF         =      F    write electronic localiz. function (ELF)
   LORBIT       =      0    0 simple, 1 ext, 2 COOP (PROOUT), +10 PAW based schemes


 Dipole corrections
   LMONO  =      F    monopole corrections only (constant potential shift)
   LDIPOL =      F    correct potential (dipole corrections)
   IDIPOL =      0    1-x, 2-y, 3-z, 4-all directions 
   EPSILON=  1.0000000 bulk dielectric constant

 Exchange correlation treatment:
   GGA     =    PE    GGA type
   LEXCH   =     8    internal setting for exchange type
   VOSKOWN=      0    Vosko Wilk Nusair interpolation
   LHFCALC =     F    Hartree Fock is set to
   LHFONE  =     F    Hartree Fock one center treatment
   AEXX    =    0.0000 exact exchange contribution

 Linear response parameters
   LEPSILON=     F    determine dielectric tensor
   LRPA    =     F    only Hartree local field effects (RPA)
   LNABLA  =     F    use nabla operator in PAW spheres
   LVEL    =     F    velocity operator in full k-point grid
   LINTERFAST=   F  fast interpolation
   KINTER  =     0    interpolate to denser k-point grid
   CSHIFT  =0.1000    complex shift for real part using Kramers Kronig
   OMEGAMAX=  -1.0    maximum frequency
   DEG_THRESHOLD= 0.2000000E-02 threshold for treating states as degnerate
   RTIME   =   -0.100 relaxation time in fs
  (WPLASMAI=    0.000 imaginary part of plasma frequency in eV, 0.658/RTIME)
   DFIELD  = 0.0000000 0.0000000 0.0000000 field for delta impulse in time
 
 Orbital magnetization related:
   ORBITALMAG=     F  switch on orbital magnetization
   LCHIMAG   =     F  perturbation theory with respect to B field
   DQ        =  0.001000  dq finite difference perturbation B field
   LLRAUG    =     F  two centre corrections for induced B field



--------------------------------------------------------------------------------------------------------


 conjugate gradient relaxation of ions
 charge density and potential will be updated during run
 spin polarized calculation
 Variant of blocked Davidson
 Davidson routine will perform the subspace rotation
 perform sub-space diagonalisation
    after iterative eigenvector-optimisation
 modified Broyden-mixing scheme, WC =      100.0
 initial mixing is a Kerker type mixing with AMIX =  0.4000 and BMIX =      1.0000
 Hartree-type preconditioning will be used
 using additional bands            20
 reciprocal scheme for non local part
 use partial core corrections
 calculate Harris-corrections to forces 
   (improved forces if not selfconsistent)
 use gradient corrections 
 use of overlap-Matrix (Vanderbilt PP)
 Methfessel and Paxton  Order N= 1 SIGMA  =   0.20


--------------------------------------------------------------------------------------------------------


  energy-cutoff  :      400.00
  volume of cell :    11683.16
      direct lattice vectors                 reciprocal lattice vectors
    21.675494134  0.000000000  0.000000000     0.046135050  0.000000000  0.000000000
     0.000000000 24.082649527  0.000000000     0.000000000  0.041523670  0.000000000
     0.000000000  0.000000000 22.381389091     0.000000000  0.000000000  0.044679979

  length of vectors
    21.675494134 24.082649527 22.381389091     0.046135050  0.041523670  0.044679979


 
 k-points in units of 2pi/SCALE and weight: KPOINTS created by Atomic Simulation Env
   0.00000000  0.00000000  0.00000000       1.000
 
 k-points in reciprocal lattice and weights: KPOINTS created by Atomic Simulation Env
   0.00000000  0.00000000  0.00000000       1.000
 
 position of ions in fractional coordinates (direct lattice) 
   0.52208783  0.45297755  0.49724501
   0.42580702  0.50775825  0.49267310
   0.59331218  0.53273661  0.50276553
   0.48059310  0.59277981  0.52908753
   0.50863399  0.55189562  0.43202471
   0.52089413  0.51391650  0.58661468
   0.44069414  0.44244272  0.57761947
   0.46928353  0.46110598  0.39952404
   0.58136647  0.47796798  0.40844571
   0.41207738  0.53963597  0.59600773
   0.57091877  0.62865957  0.47640085
   0.57915967  0.60217147  0.58145736
   0.42247005  0.40597072  0.47794230
 
 position of ions in cartesian coordinates  (Angst):
  11.31651179 10.90889965 11.12903400
   9.22957762 12.22816392 11.02670823
  12.86033458 12.82970900 11.25259095
  10.41709294 14.27570853 11.84171384
  11.02489301 13.29110883  9.66931306
  11.29063766 12.37647097 13.12925146
   9.55226335 10.65519292 12.92792616
  10.17195241 11.10465382  8.94190304
  12.60140551 11.51073528  9.14158228
   8.93198087 12.99586391 13.33948096
  12.37494642 15.13978819 10.66251282
  12.55357205 14.50188440 13.01382351
   9.15724714  9.77685047 10.69701264
 


--------------------------------------------------------------------------------------------------------


 use parallel FFT for orbitals z direction half grid
 k-point   1 :   0.0000 0.0000 0.0000  plane waves:  106127

 maximum and minimum number of plane-waves per node :     13270    13260

 maximum number of plane-waves:    106127
 maximum index in each direction: 
   IXMAX=   35   IYMAX=   39   IZMAX=   36
   IXMIN=  -35   IYMIN=  -39   IZMIN=    0


 parallel 3D FFT for wavefunctions:
    minimum data exchange during FFTs selected (reduces bandwidth)
 parallel 3D FFT for charge:
    minimum data exchange during FFTs selected (reduces bandwidth)


 total amount of memory used by VASP MPI-rank0   247335. kBytes
=======================================================================

   base      :      30000. kBytes
   nonl-proj :       4670. kBytes
   fftplans  :      53180. kBytes
   grid      :     120341. kBytes
   one-center:         31. kBytes
   wavefun   :      39113. kBytes
 
     INWAV:  cpu time    0.0000: real time    0.0000
 Broyden mixing: mesh for mixing (old mesh)
   NGX = 71   NGY = 79   NGZ = 73
  (NGX  =216   NGY  =240   NGZ  =224)
  gives a total of 409457 points

 initial charge density was supplied:
 charge density of overlapping atoms calculated
 number of electron     143.0000000 magnetization      13.0000000
 keeping initial charge density in first step


--------------------------------------------------------------------------------------------------------


 Maximum index for augmentation-charges           455 (set IRDMAX)


--------------------------------------------------------------------------------------------------------


 First call to EWALD:  gamma=   0.078
 Maximum number of real-space cells 3x 3x 3
 Maximum number of reciprocal cells 3x 3x 3

    FEWALD:  cpu time    0.0013: real time    0.0013


--------------------------------------- Iteration      1(   1)  ---------------------------------------


    POTLOK:  cpu time    3.8564: real time    3.8810
    SETDIJ:  cpu time    0.0341: real time    0.0341
     EDDAV:  cpu time   13.8494: real time   13.8672
       DOS:  cpu time    0.0050: real time    0.0050
    --------------------------------------------
      LOOP:  cpu time   17.7449: real time   17.7873

 eigenvalue-minimisations  :   368
 total energy-change (2. order) : 0.9748867E+03  (-0.2620654E+04)
 number of electron     143.0000000 magnetization      13.0000000
 augmentation part      143.0000000 magnetization      13.0000000

 Free energy of the ion-electron system (eV)
  ---------------------------------------------------
  alpha Z        PSCENC =        10.57885388
  Ewald energy   TEWEN  =     24027.52600484
  -Hartree energ DENC   =    -40495.83720826
  -exchange      EXHF   =         0.00000000
  -V(xc)+E(xc)   XCENC  =       584.37007299
  PAW double counting   =     15965.26744864   -17340.97210982
  entropy T*S    EENTRO =         0.01295442
  eigenvalues    EBANDS =       141.49140474
  atomic energy  EATOM  =     18082.44932260
  Solvation  Ediel_sol  =         0.00000000
  ---------------------------------------------------
  free energy    TOTEN  =       974.88674401 eV

  energy without entropy =      974.87378959  energy(sigma->0) =      974.88242587


--------------------------------------------------------------------------------------------------------




--------------------------------------- Iteration      1(   2)  ---------------------------------------


     EDDAV:  cpu time   15.0748: real time   15.0926
       DOS:  cpu time    0.0043: real time    0.0043
    --------------------------------------------
      LOOP:  cpu time   15.0791: real time   15.0969

 eigenvalue-minimisations  :   368
 total energy-change (2. order) :-0.7439302E+03  (-0.6730151E+03)
 number of electron     143.0000000 magnetization      13.0000000
 augmentation part      143.0000000 magnetization      13.0000000

 Free energy of the ion-electron system (eV)
  ---------------------------------------------------
  alpha Z        PSCENC =        10.57885388
  Ewald energy   TEWEN  =     24027.52600484
  -Hartree energ DENC   =    -40495.83720826
  -exchange      EXHF   =         0.00000000
  -V(xc)+E(xc)   XCENC  =       584.37007299
  PAW double counting   =     15965.26744864   -17340.97210982
  entropy T*S    EENTRO =        -0.01801275
  eigenvalues    EBANDS =      -602.40784876
  atomic energy  EATOM  =     18082.44932260
  Solvation  Ediel_sol  =         0.00000000
  ---------------------------------------------------
  free energy    TOTEN  =       230.95652334 eV

  energy without entropy =      230.97453610  energy(sigma->0) =      230.96252759


--------------------------------------------------------------------------------------------------------




--------------------------------------- Iteration      1(   3)  ---------------------------------------


     EDDAV:  cpu time   18.0207: real time   18.0471
       DOS:  cpu time    0.0046: real time    0.0046
    --------------------------------------------
      LOOP:  cpu time   18.0253: real time   18.0518

 eigenvalue-minimisations  :   472
 total energy-change (2. order) :-0.2271222E+03  (-0.2190340E+03)
 number of electron     143.0000000 magnetization      13.0000000
 augmentation part      143.0000000 magnetization      13.0000000

 Free energy of the ion-electron system (eV)
  ---------------------------------------------------
  alpha Z        PSCENC =        10.57885388
  Ewald energy   TEWEN  =     24027.52600484
  -Hartree energ DENC   =    -40495.83720826
  -exchange      EXHF   =         0.00000000
  -V(xc)+E(xc)   XCENC  =       584.37007299
  PAW double counting   =     15965.26744864   -17340.97210982
  entropy T*S    EENTRO =         0.01088497
  eigenvalues    EBANDS =      -829.55898860
  atomic energy  EATOM  =     18082.44932260
  Solvation  Ediel_sol  =         0.00000000
  ---------------------------------------------------
  free energy    TOTEN  =         3.83428122 eV

  energy without entropy =        3.82339625  energy(sigma->0) =        3.83065289


--------------------------------------------------------------------------------------------------------




--------------------------------------- Iteration      1(   4)  ---------------------------------------


     EDDAV:  cpu time   17.1220: real time   17.1464
       DOS:  cpu time    0.0032: real time    0.0032
    --------------------------------------------
      LOOP:  cpu time   17.1252: real time   17.1497

 eigenvalue-minimisations  :   440
 total energy-change (2. order) :-0.3934434E+02  (-0.3648036E+02)
 number of electron     143.0000000 magnetization      13.0000000
 augmentation part      143.0000000 magnetization      13.0000000

 Free energy of the ion-electron system (eV)
  ---------------------------------------------------
  alpha Z        PSCENC =        10.57885388
  Ewald energy   TEWEN  =     24027.52600484
  -Hartree energ DENC   =    -40495.83720826
  -exchange      EXHF   =         0.00000000
  -V(xc)+E(xc)   XCENC  =       584.37007299
  PAW double counting   =     15965.26744864   -17340.97210982
  entropy T*S    EENTRO =         0.01796269
  eigenvalues    EBANDS =      -868.91040222
  atomic energy  EATOM  =     18082.44932260
  Solvation  Ediel_sol  =         0.00000000
  ---------------------------------------------------
  free energy    TOTEN  =       -35.51005468 eV

  energy without entropy =      -35.52801737  energy(sigma->0) =      -35.51604224


--------------------------------------------------------------------------------------------------------




--------------------------------------- Iteration      1(   5)  ---------------------------------------


     EDDAV:  cpu time   18.3388: real time   18.3609
       DOS:  cpu time    0.0053: real time    0.0053
    CHARGE:  cpu time    1.4982: real time    1.5019
    MIXING:  cpu time    0.0765: real time    0.0766
    --------------------------------------------
      LOOP:  cpu time   19.9187: real time   19.9447

 eigenvalue-minimisations  :   480
 total energy-change (2. order) :-0.1702663E+01  (-0.1687137E+01)
 number of electron     142.9999738 magnetization      11.8037147
 augmentation part       87.5087577 magnetization      11.9229687

 Broyden mixing:
  rms(total) = 0.28432E+01    rms(broyden)= 0.28431E+01
  rms(prec ) = 0.29146E+01
  weight for this iteration     100.00

 Free energy of the ion-electron system (eV)
  ---------------------------------------------------
  alpha Z        PSCENC =        10.57885388
  Ewald energy   TEWEN  =     24027.52600484
  -Hartree energ DENC   =    -40495.83720826
  -exchange      EXHF   =         0.00000000
  -V(xc)+E(xc)   XCENC  =       584.37007299
  PAW double counting   =     15965.26744864   -17340.97210982
  entropy T*S    EENTRO =         0.01483239
  eigenvalues    EBANDS =      -870.60993520
  atomic energy  EATOM  =     18082.44932260
  Solvation  Ediel_sol  =         0.00000000
  ---------------------------------------------------
  free energy    TOTEN  =       -37.21271796 eV

  energy without entropy =      -37.22755034  energy(sigma->0) =      -37.21766208


--------------------------------------------------------------------------------------------------------




--------------------------------------- Iteration      1(   6)  ---------------------------------------


    POTLOK:  cpu time    4.3558: real time    4.3615
    SETDIJ:  cpu time    0.0380: real time    0.0380
     EDDAV:  cpu time   15.8114: real time   15.8311
       DOS:  cpu time    0.0020: real time    0.0020
    CHARGE:  cpu time    1.4369: real time    1.4392
    MIXING:  cpu time    0.0771: real time    0.0772
    --------------------------------------------
      LOOP:  cpu time   21.7214: real time   21.7644

 eigenvalue-minimisations  :   396
 total energy-change (2. order) : 0.2141216E+02  (-0.1358697E+02)
 number of electron     142.9999713 magnetization      11.1380897
 augmentation part       95.0082107 magnetization       7.1011511

 Broyden mixing:
  rms(total) = 0.12250E+01    rms(broyden)= 0.12247E+01
  rms(prec ) = 0.12948E+01
  weight for this iteration     100.00

 eigenvalues of (default mixing * dielectric matrix)
  average eigenvalue GAMMA=   0.8205
  0.8205

 Free energy of the ion-electron system (eV)
  ---------------------------------------------------
  alpha Z        PSCENC =        10.57885388
  Ewald energy   TEWEN  =     24027.52600484
  -Hartree energ DENC   =    -40282.30415535
  -exchange      EXHF   =         0.00000000
  -V(xc)+E(xc)   XCENC  =       586.24614534
  PAW double counting   =     16117.30557585   -17448.03072560
  entropy T*S    EENTRO =        -0.04726459
  eigenvalues    EBANDS =     -1109.52431381
  atomic energy  EATOM  =     18082.44932260
  Solvation  Ediel_sol  =         0.00000000
  ---------------------------------------------------
  free energy    TOTEN  =       -15.80055685 eV

  energy without entropy =      -15.75329226  energy(sigma->0) =      -15.78480198


--------------------------------------------------------------------------------------------------------




--------------------------------------- Iteration      1(   7)  ---------------------------------------


    POTLOK:  cpu time    4.3710: real time    4.3920
    SETDIJ:  cpu time    0.0399: real time    0.0400
     EDDAV:  cpu time   16.9586: real time   16.9894
       DOS:  cpu time    0.0024: real time    0.0024
    CHARGE:  cpu time    1.5342: real time    1.5358
    MIXING:  cpu time    0.0985: real time    0.0985
    --------------------------------------------
      LOOP:  cpu time   23.0045: real time   23.0428

 eigenvalue-minimisations  :   432
 total energy-change (2. order) : 0.4405118E+01  (-0.3189484E+01)
 number of electron     142.9999723 magnetization      10.1801013
 augmentation part       91.7328444 magnetization       6.0742295

 Broyden mixing:
  rms(total) = 0.47684E+00    rms(broyden)= 0.47673E+00
  rms(prec ) = 0.49667E+00
  weight for this iteration     100.00

 eigenvalues of (default mixing * dielectric matrix)
  average eigenvalue GAMMA=   0.8798
  1.1126  0.6470

 Free energy of the ion-electron system (eV)
  ---------------------------------------------------
  alpha Z        PSCENC =        10.57885388
  Ewald energy   TEWEN  =     24027.52600484
  -Hartree energ DENC   =    -40442.57038802
  -exchange      EXHF   =         0.00000000
  -V(xc)+E(xc)   XCENC  =       593.39587412
  PAW double counting   =     16421.99187877   -17806.33227241
  entropy T*S    EENTRO =        -0.03821332
  eigenvalues    EBANDS =      -898.39649886
  atomic energy  EATOM  =     18082.44932260
  Solvation  Ediel_sol  =         0.00000000
  ---------------------------------------------------
  free energy    TOTEN  =       -11.39543842 eV

  energy without entropy =      -11.35722509  energy(sigma->0) =      -11.38270064


--------------------------------------------------------------------------------------------------------




--------------------------------------- Iteration      1(   8)  ---------------------------------------


    POTLOK:  cpu time    4.1860: real time    4.1924
    SETDIJ:  cpu time    0.0379: real time    0.0379
     EDDAV:  cpu time   17.5850: real time   17.6085
       DOS:  cpu time    0.0047: real time    0.0047
    CHARGE:  cpu time    1.4563: real time    1.4580
    MIXING:  cpu time    0.0900: real time    0.0901
    --------------------------------------------
      LOOP:  cpu time   23.3599: real time   23.3916

 eigenvalue-minimisations  :   460
 total energy-change (2. order) : 0.7830965E+00  (-0.3555302E+00)
 number of electron     142.9999725 magnetization       9.6415035
 augmentation part       91.6469187 magnetization       5.3863537

 Broyden mixing:
  rms(total) = 0.38153E+00    rms(broyden)= 0.38150E+00
  rms(prec ) = 0.39698E+00
  weight for this iteration     100.00

 eigenvalues of (default mixing * dielectric matrix)
  average eigenvalue GAMMA=   0.8302
  1.1926  0.6490  0.6490

 Free energy of the ion-electron system (eV)
  ---------------------------------------------------
  alpha Z        PSCENC =        10.57885388
  Ewald energy   TEWEN  =     24027.52600484
  -Hartree energ DENC   =    -40468.46860581
  -exchange      EXHF   =         0.00000000
  -V(xc)+E(xc)   XCENC  =       593.32066587
  PAW double counting   =     16641.97345142   -18033.83886857
  entropy T*S    EENTRO =        -0.04667078
  eigenvalues    EBANDS =      -864.10649534
  atomic energy  EATOM  =     18082.44932260
  Solvation  Ediel_sol  =         0.00000000
  ---------------------------------------------------
  free energy    TOTEN  =       -10.61234189 eV

  energy without entropy =      -10.56567112  energy(sigma->0) =      -10.59678497


--------------------------------------------------------------------------------------------------------




--------------------------------------- Iteration      1(   9)  ---------------------------------------


    POTLOK:  cpu time    4.3422: real time    4.3520
    SETDIJ:  cpu time    0.0412: real time    0.0413
     EDDAV:  cpu time   17.7102: real time   17.7319
       DOS:  cpu time    0.0027: real time    0.0027
    CHARGE:  cpu time    1.4543: real time    1.4565
    MIXING:  cpu time    0.0952: real time    0.0953
    --------------------------------------------
      LOOP:  cpu time   23.6459: real time   23.6797

 eigenvalue-minimisations  :   488
 total energy-change (2. order) :-0.1684214E+01  (-0.9849485E-01)
 number of electron     142.9999724 magnetization       8.3066435
 augmentation part       91.6853438 magnetization       4.2140762

 Broyden mixing:
  rms(total) = 0.25355E+00    rms(broyden)= 0.25353E+00
  rms(prec ) = 0.26011E+00
  weight for this iteration     100.00

 eigenvalues of (default mixing * dielectric matrix)
  average eigenvalue GAMMA=   1.0072
  1.4325  1.4325  0.6913  0.4725

 Free energy of the ion-electron system (eV)
  ---------------------------------------------------
  alpha Z        PSCENC =        10.57885388
  Ewald energy   TEWEN  =     24027.52600484
  -Hartree energ DENC   =    -40474.10746953
  -exchange      EXHF   =         0.00000000
  -V(xc)+E(xc)   XCENC  =       591.63082678
  PAW double counting   =     16701.98360693   -18094.97646134
  entropy T*S    EENTRO =        -0.03702715
  eigenvalues    EBANDS =      -857.34421307
  atomic energy  EATOM  =     18082.44932260
  Solvation  Ediel_sol  =         0.00000000
  ---------------------------------------------------
  free energy    TOTEN  =       -12.29655609 eV

  energy without entropy =      -12.25952893  energy(sigma->0) =      -12.28421370


--------------------------------------------------------------------------------------------------------




--------------------------------------- Iteration      1(  10)  ---------------------------------------


    POTLOK:  cpu time    4.3237: real time    4.3310
    SETDIJ:  cpu time    0.0376: real time    0.0377
     EDDAV:  cpu time   16.8170: real time   16.8378
       DOS:  cpu time    0.0014: real time    0.0014
    CHARGE:  cpu time    1.4473: real time    1.4490
    MIXING:  cpu time    0.1044: real time    0.1045
    --------------------------------------------
      LOOP:  cpu time   22.7315: real time   22.7613

 eigenvalue-minimisations  :   456
 total energy-change (2. order) :-0.5521611E+01  (-0.3133951E+00)
 number of electron     142.9999724 magnetization       7.5553215
 augmentation part       91.8992438 magnetization       4.1669946

 Broyden mixing:
  rms(total) = 0.18319E+00    rms(broyden)= 0.18317E+00
  rms(prec ) = 0.18820E+00
  weight for this iteration     100.00

 eigenvalues of (default mixing * dielectric matrix)
  average eigenvalue GAMMA=   1.0625
  1.7593  1.7593  0.6441  0.6441  0.5057

 Free energy of the ion-electron system (eV)
  ---------------------------------------------------
  alpha Z        PSCENC =        10.57885388
  Ewald energy   TEWEN  =     24027.52600484
  -Hartree energ DENC   =    -40480.43499419
  -exchange      EXHF   =         0.00000000
  -V(xc)+E(xc)   XCENC  =       586.76849429
  PAW double counting   =     16775.76452173   -18168.46970216
  entropy T*S    EENTRO =        -0.06815193
  eigenvalues    EBANDS =      -851.93251650
  atomic energy  EATOM  =     18082.44932260
  Solvation  Ediel_sol  =         0.00000000
  ---------------------------------------------------
  free energy    TOTEN  =       -17.81816744 eV

  energy without entropy =      -17.75001551  energy(sigma->0) =      -17.79545013


--------------------------------------------------------------------------------------------------------




--------------------------------------- Iteration      1(  11)  ---------------------------------------


    POTLOK:  cpu time    4.3851: real time    4.3933
    SETDIJ:  cpu time    0.0378: real time    0.0378
     EDDAV:  cpu time   17.9023: real time   17.9236
       DOS:  cpu time    0.0040: real time    0.0040
    CHARGE:  cpu time    1.3860: real time    1.3896
    MIXING:  cpu time    0.1155: real time    0.1156
    --------------------------------------------
      LOOP:  cpu time   23.8307: real time   23.8639

 eigenvalue-minimisations  :   488
 total energy-change (2. order) :-0.3030436E+01  (-0.1084086E+00)
 number of electron     142.9999724 magnetization       7.0350591
 augmentation part       91.8948435 magnetization       4.5969167

 Broyden mixing:
  rms(total) = 0.17441E+00    rms(broyden)= 0.17429E+00
  rms(prec ) = 0.17811E+00
  weight for this iteration     100.00

 eigenvalues of (default mixing * dielectric matrix)
  average eigenvalue GAMMA=   0.9504
  1.8948  1.6820  0.6796  0.6796  0.4907  0.2758

 Free energy of the ion-electron system (eV)
  ---------------------------------------------------
  alpha Z        PSCENC =        10.57885388
  Ewald energy   TEWEN  =     24027.52600484
  -Hartree energ DENC   =    -40483.73344915
  -exchange      EXHF   =         0.00000000
  -V(xc)+E(xc)   XCENC  =       584.48998213
  PAW double counting   =     16779.68872292   -18172.74031200
  entropy T*S    EENTRO =        -0.05439224
  eigenvalues    EBANDS =      -849.05333642
  atomic energy  EATOM  =     18082.44932260
  Solvation  Ediel_sol  =         0.00000000
  ---------------------------------------------------
  free energy    TOTEN  =       -20.84860345 eV

  energy without entropy =      -20.79421120  energy(sigma->0) =      -20.83047270


--------------------------------------------------------------------------------------------------------




--------------------------------------- Iteration      1(  12)  ---------------------------------------


    POTLOK:  cpu time    4.3084: real time    4.3140
    SETDIJ:  cpu time    0.0372: real time    0.0372
     EDDAV:  cpu time   19.8667: real time   19.8983
       DOS:  cpu time    0.0061: real time    0.0062
    CHARGE:  cpu time    1.5419: real time    1.5457
    MIXING:  cpu time    0.1469: real time    0.1471
    --------------------------------------------
      LOOP:  cpu time   25.9074: real time   25.9484

 eigenvalue-minimisations  :   536
 total energy-change (2. order) :-0.1110622E+01  (-0.3436681E-01)
 number of electron     142.9999724 magnetization       5.8636543
 augmentation part       91.8702198 magnetization       3.8799251

 Broyden mixing:
  rms(total) = 0.16725E+00    rms(broyden)= 0.16721E+00
  rms(prec ) = 0.17064E+00
  weight for this iteration     100.00

 eigenvalues of (default mixing * dielectric matrix)
  average eigenvalue GAMMA=   1.1004
  2.2776  1.8920  0.8808  0.8808  0.6398  0.6398  0.4923

 Free energy of the ion-electron system (eV)
  ---------------------------------------------------
  alpha Z        PSCENC =        10.57885388
  Ewald energy   TEWEN  =     24027.52600484
  -Hartree energ DENC   =    -40487.89690765
  -exchange      EXHF   =         0.00000000
  -V(xc)+E(xc)   XCENC  =       583.77914906
  PAW double counting   =     16781.37121647   -18175.25604493
  entropy T*S    EENTRO =        -0.02318995
  eigenvalues    EBANDS =      -844.48762969
  atomic energy  EATOM  =     18082.44932260
  Solvation  Ediel_sol  =         0.00000000
  ---------------------------------------------------
  free energy    TOTEN  =       -21.95922538 eV

  energy without entropy =      -21.93603543  energy(sigma->0) =      -21.95149540


--------------------------------------------------------------------------------------------------------




--------------------------------------- Iteration      1(  13)  ---------------------------------------


    POTLOK:  cpu time    4.1723: real time    4.1790
    SETDIJ:  cpu time    0.0421: real time    0.0422
     EDDAV:  cpu time   17.3108: real time   17.3337
       DOS:  cpu time    0.0028: real time    0.0028
    CHARGE:  cpu time    1.4556: real time    1.4574
    MIXING:  cpu time    0.1348: real time    0.1349
    --------------------------------------------
      LOOP:  cpu time   23.1184: real time   23.1500

 eigenvalue-minimisations  :   452
 total energy-change (2. order) :-0.2601602E+01  (-0.1012610E+00)
 number of electron     142.9999724 magnetization       4.2485178
 augmentation part       91.8390835 magnetization       2.8309872

 Broyden mixing:
  rms(total) = 0.12713E+00    rms(broyden)= 0.12707E+00
  rms(prec ) = 0.13024E+00
  weight for this iteration     100.00

 eigenvalues of (default mixing * dielectric matrix)
  average eigenvalue GAMMA=   1.2746
  3.8486  1.8064  1.1207  1.1207  0.6617  0.5846  0.5846  0.4694

 Free energy of the ion-electron system (eV)
  ---------------------------------------------------
  alpha Z        PSCENC =        10.57885388
  Ewald energy   TEWEN  =     24027.52600484
  -Hartree energ DENC   =    -40493.03857021
  -exchange      EXHF   =         0.00000000
  -V(xc)+E(xc)   XCENC  =       581.89132944
  PAW double counting   =     16772.65056067   -18166.93834235
  entropy T*S    EENTRO =         0.03812898
  eigenvalues    EBANDS =      -839.71811498
  atomic energy  EATOM  =     18082.44932260
  Solvation  Ediel_sol  =         0.00000000
  ---------------------------------------------------
  free energy    TOTEN  =       -24.56082714 eV

  energy without entropy =      -24.59895612  energy(sigma->0) =      -24.57353680


--------------------------------------------------------------------------------------------------------




--------------------------------------- Iteration      1(  14)  ---------------------------------------


    POTLOK:  cpu time    4.3040: real time    4.3135
    SETDIJ:  cpu time    0.0408: real time    0.0409
     EDDAV:  cpu time   18.7438: real time   18.7666
       DOS:  cpu time    0.0041: real time    0.0041
    CHARGE:  cpu time    1.4458: real time    1.4476
    MIXING:  cpu time    0.1476: real time    0.1478
    --------------------------------------------
      LOOP:  cpu time   24.6862: real time   24.7205

 eigenvalue-minimisations  :   528
 total energy-change (2. order) :-0.3173822E+01  (-0.1445242E+00)
 number of electron     142.9999724 magnetization       4.0655768
 augmentation part       91.7803991 magnetization       2.8463251

 Broyden mixing:
  rms(total) = 0.10242E+00    rms(broyden)= 0.10241E+00
  rms(prec ) = 0.10675E+00
  weight for this iteration     100.00

 eigenvalues of (default mixing * dielectric matrix)
  average eigenvalue GAMMA=   1.2223
  3.6468  2.0487  1.1532  1.1532  0.6946  0.6946  0.5740  0.5740  0.4619

 Free energy of the ion-electron system (eV)
  ---------------------------------------------------
  alpha Z        PSCENC =        10.57885388
  Ewald energy   TEWEN  =     24027.52600484
  -Hartree energ DENC   =    -40495.42528045
  -exchange      EXHF   =         0.00000000
  -V(xc)+E(xc)   XCENC  =       579.41728320
  PAW double counting   =     16745.74209749   -18139.86358988
  entropy T*S    EENTRO =         0.03609928
  eigenvalues    EBANDS =      -838.19544002
  atomic energy  EATOM  =     18082.44932260
  Solvation  Ediel_sol  =         0.00000000
  ---------------------------------------------------
  free energy    TOTEN  =       -27.73464907 eV

  energy without entropy =      -27.77074835  energy(sigma->0) =      -27.74668216


--------------------------------------------------------------------------------------------------------




--------------------------------------- Iteration      1(  15)  ---------------------------------------


    POTLOK:  cpu time    4.2929: real time    4.3513
    SETDIJ:  cpu time    0.0371: real time    0.0372
     EDDAV:  cpu time   17.8932: real time   17.9147
       DOS:  cpu time    0.0035: real time    0.0035
    CHARGE:  cpu time    1.4565: real time    1.4607
    MIXING:  cpu time    0.1321: real time    0.1323
    --------------------------------------------
      LOOP:  cpu time   23.8154: real time   23.8996

 eigenvalue-minimisations  :   488
 total energy-change (2. order) :-0.1370588E+01  (-0.3145985E-01)
 number of electron     142.9999724 magnetization       3.4585371
 augmentation part       91.7937738 magnetization       2.3194144

 Broyden mixing:
  rms(total) = 0.71794E-01    rms(broyden)= 0.71789E-01
  rms(prec ) = 0.74501E-01
  weight for this iteration     100.00

 eigenvalues of (default mixing * dielectric matrix)
  average eigenvalue GAMMA=   1.3137
  3.4622  3.4622  1.2476  1.2476  0.7961  0.7961  0.5828  0.5828  0.4934  0.4661

 Free energy of the ion-electron system (eV)
  ---------------------------------------------------
  alpha Z        PSCENC =        10.57885388
  Ewald energy   TEWEN  =     24027.52600484
  -Hartree energ DENC   =    -40488.48629742
  -exchange      EXHF   =         0.00000000
  -V(xc)+E(xc)   XCENC  =       578.23352186
  PAW double counting   =     16720.49243761   -18113.62583385
  entropy T*S    EENTRO =         0.03508818
  eigenvalues    EBANDS =      -846.30833458
  atomic energy  EATOM  =     18082.44932260
  Solvation  Ediel_sol  =         0.00000000
  ---------------------------------------------------
  free energy    TOTEN  =       -29.10523690 eV

  energy without entropy =      -29.14032507  energy(sigma->0) =      -29.11693296


--------------------------------------------------------------------------------------------------------




--------------------------------------- Iteration      1(  16)  ---------------------------------------


    POTLOK:  cpu time    4.3635: real time    4.3691
    SETDIJ:  cpu time    0.0371: real time    0.0371
     EDDAV:  cpu time   18.1442: real time   18.1690
       DOS:  cpu time    0.0025: real time    0.0025
    CHARGE:  cpu time    1.4711: real time    1.4729
    MIXING:  cpu time    0.1718: real time    0.1720
    --------------------------------------------
      LOOP:  cpu time   24.1902: real time   24.2225

 eigenvalue-minimisations  :   480
 total energy-change (2. order) :-0.1520515E+01  (-0.3465805E-01)
 number of electron     142.9999724 magnetization       2.7294562
 augmentation part       91.8658619 magnetization       1.7469984

 Broyden mixing:
  rms(total) = 0.55951E-01    rms(broyden)= 0.55944E-01
  rms(prec ) = 0.57593E-01
  weight for this iteration     100.00

 eigenvalues of (default mixing * dielectric matrix)
  average eigenvalue GAMMA=   1.3931
  4.9401  3.0877  1.3591  1.1790  1.1790  0.7776  0.6528  0.6528  0.5185  0.5185
  0.4595

 Free energy of the ion-electron system (eV)
  ---------------------------------------------------
  alpha Z        PSCENC =        10.57885388
  Ewald energy   TEWEN  =     24027.52600484
  -Hartree energ DENC   =    -40477.51972015
  -exchange      EXHF   =         0.00000000
  -V(xc)+E(xc)   XCENC  =       576.79536664
  PAW double counting   =     16684.57913821   -18076.61264943
  entropy T*S    EENTRO =         0.03036191
  eigenvalues    EBANDS =      -858.45243046
  atomic energy  EATOM  =     18082.44932260
  Solvation  Ediel_sol  =         0.00000000
  ---------------------------------------------------
  free energy    TOTEN  =       -30.62575196 eV

  energy without entropy =      -30.65611387  energy(sigma->0) =      -30.63587260


--------------------------------------------------------------------------------------------------------




--------------------------------------- Iteration      1(  17)  ---------------------------------------


    POTLOK:  cpu time    4.4117: real time    4.4220
    SETDIJ:  cpu time    0.0375: real time    0.0375
     EDDAV:  cpu time   16.5356: real time   16.5556
       DOS:  cpu time    0.0063: real time    0.0064
    CHARGE:  cpu time    1.4249: real time    1.4266
    MIXING:  cpu time    0.1887: real time    0.1890
    --------------------------------------------
      LOOP:  cpu time   22.6047: real time   22.6371

 eigenvalue-minimisations  :   448
 total energy-change (2. order) :-0.8781678E+00  (-0.1635490E-01)
 number of electron     142.9999724 magnetization       2.0416288
 augmentation part       91.8356651 magnetization       1.2004218

 Broyden mixing:
  rms(total) = 0.42359E-01    rms(broyden)= 0.42348E-01
  rms(prec ) = 0.44086E-01
  weight for this iteration     100.00

 eigenvalues of (default mixing * dielectric matrix)
  average eigenvalue GAMMA=   1.4763
  6.2300  2.4332  2.4332  1.2190  1.2190  0.7443  0.7443  0.6155  0.6155  0.4883
  0.4868  0.4868

 Free energy of the ion-electron system (eV)
  ---------------------------------------------------
  alpha Z        PSCENC =        10.57885388
  Ewald energy   TEWEN  =     24027.52600484
  -Hartree energ DENC   =    -40472.46737906
  -exchange      EXHF   =         0.00000000
  -V(xc)+E(xc)   XCENC  =       575.99319909
  PAW double counting   =     16675.49899635   -18068.37438839
  entropy T*S    EENTRO =         0.01789170
  eigenvalues    EBANDS =      -862.72642080
  atomic energy  EATOM  =     18082.44932260
  Solvation  Ediel_sol  =         0.00000000
  ---------------------------------------------------
  free energy    TOTEN  =       -31.50391980 eV

  energy without entropy =      -31.52181150  energy(sigma->0) =      -31.50988370


--------------------------------------------------------------------------------------------------------




--------------------------------------- Iteration      1(  18)  ---------------------------------------


    POTLOK:  cpu time    4.3034: real time    4.4353
    SETDIJ:  cpu time    0.0425: real time    0.0425
     EDDAV:  cpu time   18.1819: real time   18.2085
       DOS:  cpu time    0.0036: real time    0.0036
    CHARGE:  cpu time    1.4574: real time    1.4590
    MIXING:  cpu time    0.1996: real time    0.1998
    --------------------------------------------
      LOOP:  cpu time   24.1884: real time   24.3487

 eigenvalue-minimisations  :   504
 total energy-change (2. order) :-0.5037351E+00  (-0.6277869E-02)
 number of electron     142.9999724 magnetization       1.3686960
 augmentation part       91.8146645 magnetization       0.6636076

 Broyden mixing:
  rms(total) = 0.28976E-01    rms(broyden)= 0.28955E-01
  rms(prec ) = 0.30540E-01
  weight for this iteration     100.00

 eigenvalues of (default mixing * dielectric matrix)
  average eigenvalue GAMMA=   1.5724
  7.5606  2.6737  2.6737  1.2040  1.2040  0.9215  0.9215  0.6332  0.6332  0.5678
  0.5035  0.5035  0.4414

 Free energy of the ion-electron system (eV)
  ---------------------------------------------------
  alpha Z        PSCENC =        10.57885388
  Ewald energy   TEWEN  =     24027.52600484
  -Hartree energ DENC   =    -40467.94317603
  -exchange      EXHF   =         0.00000000
  -V(xc)+E(xc)   XCENC  =       575.48052493
  PAW double counting   =     16677.53946980   -18071.40278238
  entropy T*S    EENTRO =         0.00401695
  eigenvalues    EBANDS =      -866.23988950
  atomic energy  EATOM  =     18082.44932260
  Solvation  Ediel_sol  =         0.00000000
  ---------------------------------------------------
  free energy    TOTEN  =       -32.00765494 eV

  energy without entropy =      -32.01167189  energy(sigma->0) =      -32.00899392


--------------------------------------------------------------------------------------------------------




--------------------------------------- Iteration      1(  19)  ---------------------------------------


    POTLOK:  cpu time    4.3072: real time    4.3202
    SETDIJ:  cpu time    0.0310: real time    0.0452
     EDDAV:  cpu time   18.2763: real time   18.2994
       DOS:  cpu time    0.0042: real time    0.0042
    CHARGE:  cpu time    1.4336: real time    1.4358
    MIXING:  cpu time    0.2176: real time    0.2178
    --------------------------------------------
      LOOP:  cpu time   24.2698: real time   24.3226

 eigenvalue-minimisations  :   512
 total energy-change (2. order) :-0.4913990E+00  (-0.4178588E-02)
 number of electron     142.9999724 magnetization       1.0856408
 augmentation part       91.8437480 magnetization       0.5593758

 Broyden mixing:
  rms(total) = 0.21420E-01    rms(broyden)= 0.21377E-01
  rms(prec ) = 0.22973E-01
  weight for this iteration     100.00

 eigenvalues of (default mixing * dielectric matrix)
  average eigenvalue GAMMA=   1.5984
  8.1489  2.9377  2.9377  1.2020  1.2020  0.9826  0.9826  0.7385  0.6506  0.6506
  0.5081  0.5081  0.4639  0.4639

 Free energy of the ion-electron system (eV)
  ---------------------------------------------------
  alpha Z        PSCENC =        10.57885388
  Ewald energy   TEWEN  =     24027.52600484
  -Hartree energ DENC   =    -40461.96423688
  -exchange      EXHF   =         0.00000000
  -V(xc)+E(xc)   XCENC  =       574.89259225
  PAW double counting   =     16677.99078689   -18071.90166884
  entropy T*S    EENTRO =        -0.01028596
  eigenvalues    EBANDS =      -872.06042275
  atomic energy  EATOM  =     18082.44932260
  Solvation  Ediel_sol  =         0.00000000
  ---------------------------------------------------
  free energy    TOTEN  =       -32.49905398 eV

  energy without entropy =      -32.48876802  energy(sigma->0) =      -32.49562533


--------------------------------------------------------------------------------------------------------




--------------------------------------- Iteration      1(  20)  ---------------------------------------


    POTLOK:  cpu time    4.3347: real time    4.3515
    SETDIJ:  cpu time    0.0376: real time    0.0376
     EDDAV:  cpu time   20.2890: real time   20.3132
       DOS:  cpu time    0.0045: real time    0.0045
    CHARGE:  cpu time    1.4876: real time    1.4897
    MIXING:  cpu time    0.2430: real time    0.2454
    --------------------------------------------
      LOOP:  cpu time   26.3964: real time   26.4420

 eigenvalue-minimisations  :   552
 total energy-change (2. order) :-0.1819434E+00  (-0.7385543E-03)
 number of electron     142.9999724 magnetization       0.7574174
 augmentation part       91.8443766 magnetization       0.3151707

 Broyden mixing:
  rms(total) = 0.13651E-01    rms(broyden)= 0.13623E-01
  rms(prec ) = 0.14929E-01
  weight for this iteration     100.00

 eigenvalues of (default mixing * dielectric matrix)
  average eigenvalue GAMMA=   1.7208
  9.7454  3.2065  3.2065  1.5396  1.1870  1.1870  0.8726  0.8726  0.6720  0.6720
  0.6998  0.5063  0.5063  0.4517  0.4873

 Free energy of the ion-electron system (eV)
  ---------------------------------------------------
  alpha Z        PSCENC =        10.57885388
  Ewald energy   TEWEN  =     24027.52600484
  -Hartree energ DENC   =    -40459.65389897
  -exchange      EXHF   =         0.00000000
  -V(xc)+E(xc)   XCENC  =       574.68368105
  PAW double counting   =     16684.15823745   -18078.09556805
  entropy T*S    EENTRO =        -0.01696951
  eigenvalues    EBANDS =      -874.31066071
  atomic energy  EATOM  =     18082.44932260
  Solvation  Ediel_sol  =         0.00000000
  ---------------------------------------------------
  free energy    TOTEN  =       -32.68099742 eV

  energy without entropy =      -32.66402791  energy(sigma->0) =      -32.67534092


--------------------------------------------------------------------------------------------------------




--------------------------------------- Iteration      1(  21)  ---------------------------------------


    POTLOK:  cpu time    4.1118: real time    4.1170
    SETDIJ:  cpu time    0.0332: real time    0.0332
     EDDAV:  cpu time   19.1155: real time   19.1404
       DOS:  cpu time    0.0033: real time    0.0033
    CHARGE:  cpu time    1.4565: real time    1.4585
    MIXING:  cpu time    0.2445: real time    0.2448
    --------------------------------------------
      LOOP:  cpu time   24.9647: real time   24.9972

 eigenvalue-minimisations  :   512
 total energy-change (2. order) :-0.1666623E+00  (-0.5984531E-03)
 number of electron     142.9999724 magnetization       0.5311321
 augmentation part       91.8393972 magnetization       0.1885687

 Broyden mixing:
  rms(total) = 0.98501E-02    rms(broyden)= 0.98112E-02
  rms(prec ) = 0.10943E-01
  weight for this iteration     100.00

 eigenvalues of (default mixing * dielectric matrix)
  average eigenvalue GAMMA=   1.8043
 11.0049  3.4416  3.4416  2.0470  1.1877  1.1877  1.1321  0.7908  0.7908  0.6699
  0.6699  0.5878  0.4924  0.4924  0.4878  0.4441

 Free energy of the ion-electron system (eV)
  ---------------------------------------------------
  alpha Z        PSCENC =        10.57885388
  Ewald energy   TEWEN  =     24027.52600484
  -Hartree energ DENC   =    -40457.29274772
  -exchange      EXHF   =         0.00000000
  -V(xc)+E(xc)   XCENC  =       574.51294427
  PAW double counting   =     16686.27312965   -18080.13158759
  entropy T*S    EENTRO =        -0.02278759
  eigenvalues    EBANDS =      -876.74079206
  atomic energy  EATOM  =     18082.44932260
  Solvation  Ediel_sol  =         0.00000000
  ---------------------------------------------------
  free energy    TOTEN  =       -32.84765973 eV

  energy without entropy =      -32.82487214  energy(sigma->0) =      -32.84006386


--------------------------------------------------------------------------------------------------------




--------------------------------------- Iteration      1(  22)  ---------------------------------------


    POTLOK:  cpu time    4.2946: real time    4.3052
    SETDIJ:  cpu time    0.0378: real time    0.0378
     EDDAV:  cpu time   18.4731: real time   18.5072
       DOS:  cpu time    0.0050: real time    0.0050
    CHARGE:  cpu time    1.4484: real time    1.4501
    MIXING:  cpu time    0.2697: real time    0.2720
    --------------------------------------------
      LOOP:  cpu time   24.5286: real time   24.5772

 eigenvalue-minimisations  :   516
 total energy-change (2. order) :-0.7121321E-01  (-0.3806932E-03)
 number of electron     142.9999724 magnetization       0.3999876
 augmentation part       91.8362930 magnetization       0.1376394

 Broyden mixing:
  rms(total) = 0.70023E-02    rms(broyden)= 0.69642E-02
  rms(prec ) = 0.77616E-02
  weight for this iteration     100.00

 eigenvalues of (default mixing * dielectric matrix)
  average eigenvalue GAMMA=   1.7973
 11.6126  3.6069  3.6069  2.1527  1.1910  1.1910  1.2582  0.8026  0.8026  0.6396
  0.6396  0.6392  0.4978  0.4978  0.4986  0.4586  0.4586

 Free energy of the ion-electron system (eV)
  ---------------------------------------------------
  alpha Z        PSCENC =        10.57885388
  Ewald energy   TEWEN  =     24027.52600484
  -Hartree energ DENC   =    -40455.67474174
  -exchange      EXHF   =         0.00000000
  -V(xc)+E(xc)   XCENC  =       574.44704154
  PAW double counting   =     16684.93189455   -18078.61691860
  entropy T*S    EENTRO =        -0.02615696
  eigenvalues    EBANDS =      -878.53417303
  atomic energy  EATOM  =     18082.44932260
  Solvation  Ediel_sol  =         0.00000000
  ---------------------------------------------------
  free energy    TOTEN  =       -32.91887294 eV

  energy without entropy =      -32.89271598  energy(sigma->0) =      -32.91015395


--------------------------------------------------------------------------------------------------------




--------------------------------------- Iteration      1(  23)  ---------------------------------------


    POTLOK:  cpu time    4.3008: real time    4.3087
    SETDIJ:  cpu time    0.0426: real time    0.0431
     EDDAV:  cpu time   17.0356: real time   17.0580
       DOS:  cpu time    0.0061: real time    0.0061
    CHARGE:  cpu time    1.4644: real time    1.4661
    MIXING:  cpu time    0.2765: real time    0.2768
    --------------------------------------------
      LOOP:  cpu time   23.1260: real time   23.1823

 eigenvalue-minimisations  :   464
 total energy-change (2. order) :-0.3048860E-01  (-0.1628390E-03)
 number of electron     142.9999724 magnetization       0.2930661
 augmentation part       91.8331680 magnetization       0.0836219

 Broyden mixing:
  rms(total) = 0.47925E-02    rms(broyden)= 0.47649E-02
  rms(prec ) = 0.54281E-02
  weight for this iteration     100.00

 eigenvalues of (default mixing * dielectric matrix)
  average eigenvalue GAMMA=   1.8193
 12.2889  3.7781  3.7781  2.1960  1.4593  1.1924  1.1924  0.8632  0.8632  0.7040
  0.7040  0.6552  0.6552  0.5057  0.5057  0.4464  0.4798  0.4798

 Free energy of the ion-electron system (eV)
  ---------------------------------------------------
  alpha Z        PSCENC =        10.57885388
  Ewald energy   TEWEN  =     24027.52600484
  -Hartree energ DENC   =    -40454.76526388
  -exchange      EXHF   =         0.00000000
  -V(xc)+E(xc)   XCENC  =       574.41714135
  PAW double counting   =     16685.78246485   -18079.41661766
  entropy T*S    EENTRO =        -0.02803665
  eigenvalues    EBANDS =      -879.49323085
  atomic energy  EATOM  =     18082.44932260
  Solvation  Ediel_sol  =         0.00000000
  ---------------------------------------------------
  free energy    TOTEN  =       -32.94936154 eV

  energy without entropy =      -32.92132488  energy(sigma->0) =      -32.94001599


--------------------------------------------------------------------------------------------------------




--------------------------------------- Iteration      1(  24)  ---------------------------------------


    POTLOK:  cpu time    4.3163: real time    4.3479
    SETDIJ:  cpu time    0.0420: real time    0.0420
     EDDAV:  cpu time   15.9680: real time   15.9920
       DOS:  cpu time    0.0027: real time    0.0027
    CHARGE:  cpu time    1.4315: real time    1.4370
    MIXING:  cpu time    0.2892: real time    0.2895
    --------------------------------------------
      LOOP:  cpu time   22.0496: real time   22.0877

 eigenvalue-minimisations  :   404
 total energy-change (2. order) :-0.2071375E-01  (-0.1027672E-03)
 number of electron     142.9999724 magnetization       0.2275668
 augmentation part       91.8352712 magnetization       0.0648247

 Broyden mixing:
  rms(total) = 0.37237E-02    rms(broyden)= 0.36985E-02
  rms(prec ) = 0.42105E-02
  weight for this iteration     100.00

 eigenvalues of (default mixing * dielectric matrix)
  average eigenvalue GAMMA=   1.8325
 12.7567  3.9266  3.9266  2.1610  1.7224  1.1992  1.1992  1.0556  1.0556  0.7546
  0.7546  0.6702  0.6702  0.5915  0.4976  0.4976  0.4850  0.4462  0.4462

 Free energy of the ion-electron system (eV)
  ---------------------------------------------------
  alpha Z        PSCENC =        10.57885388
  Ewald energy   TEWEN  =     24027.52600484
  -Hartree energ DENC   =    -40453.79554588
  -exchange      EXHF   =         0.00000000
  -V(xc)+E(xc)   XCENC  =       574.38856169
  PAW double counting   =     16685.80184150   -18079.39902273
  entropy T*S    EENTRO =        -0.02936947
  eigenvalues    EBANDS =      -880.49072171
  atomic energy  EATOM  =     18082.44932260
  Solvation  Ediel_sol  =         0.00000000
  ---------------------------------------------------
  free energy    TOTEN  =       -32.97007529 eV

  energy without entropy =      -32.94070582  energy(sigma->0) =      -32.96028547


--------------------------------------------------------------------------------------------------------




--------------------------------------- Iteration      1(  25)  ---------------------------------------


    POTLOK:  cpu time    4.2572: real time    4.2644
    SETDIJ:  cpu time    0.0330: real time    0.0330
     EDDAV:  cpu time   13.0053: real time   13.0214
       DOS:  cpu time    0.0030: real time    0.0030
    CHARGE:  cpu time    1.4607: real time    1.4627
    MIXING:  cpu time    0.3090: real time    0.3093
    --------------------------------------------
      LOOP:  cpu time   19.0682: real time   19.0937

 eigenvalue-minimisations  :   328
 total energy-change (2. order) :-0.1279321E-01  (-0.4201853E-04)
 number of electron     142.9999724 magnetization       0.1405798
 augmentation part       91.8367068 magnetization       0.0079854

 Broyden mixing:
  rms(total) = 0.28566E-02    rms(broyden)= 0.28404E-02
  rms(prec ) = 0.32366E-02
  weight for this iteration     100.00

 eigenvalues of (default mixing * dielectric matrix)
  average eigenvalue GAMMA=   1.8794
 13.3599  4.2701  4.2701  2.3412  2.3412  1.1925  1.1925  1.1366  1.1366  0.7741
  0.7741  0.6640  0.6640  0.6496  0.5001  0.5001  0.4827  0.4827  0.4422  0.4145

 Free energy of the ion-electron system (eV)
  ---------------------------------------------------
  alpha Z        PSCENC =        10.57885388
  Ewald energy   TEWEN  =     24027.52600484
  -Hartree energ DENC   =    -40453.06766242
  -exchange      EXHF   =         0.00000000
  -V(xc)+E(xc)   XCENC  =       574.37057491
  PAW double counting   =     16685.18893394   -18078.77003388
  entropy T*S    EENTRO =        -0.03004984
  eigenvalues    EBANDS =      -881.22881251
  atomic energy  EATOM  =     18082.44932260
  Solvation  Ediel_sol  =         0.00000000
  ---------------------------------------------------
  free energy    TOTEN  =       -32.98286849 eV

  energy without entropy =      -32.95281865  energy(sigma->0) =      -32.97285188


--------------------------------------------------------------------------------------------------------




--------------------------------------- Iteration      1(  26)  ---------------------------------------


    POTLOK:  cpu time    4.3031: real time    4.3080
    SETDIJ:  cpu time    0.0375: real time    0.0376
     EDDAV:  cpu time   14.9404: real time   14.9611
       DOS:  cpu time    0.0031: real time    0.0031
    CHARGE:  cpu time    1.2811: real time    1.2843
    MIXING:  cpu time    0.2544: real time    0.2547
    --------------------------------------------
      LOOP:  cpu time   20.8195: real time   20.8487

 eigenvalue-minimisations  :   368
 total energy-change (2. order) :-0.1428323E-01  (-0.7080411E-04)
 number of electron     142.9999724 magnetization       0.0863443
 augmentation part       91.8378339 magnetization      -0.0038376

 Broyden mixing:
  rms(total) = 0.22662E-02    rms(broyden)= 0.22389E-02
  rms(prec ) = 0.24806E-02
  weight for this iteration     100.00

 eigenvalues of (default mixing * dielectric matrix)
  average eigenvalue GAMMA=   1.9096
 13.8345  4.5873  4.5873  2.5247  2.5247  1.4746  1.1890  1.1890  1.0525  0.8076
  0.8076  0.7664  0.6611  0.6611  0.6378  0.5054  0.5054  0.4926  0.4496  0.4588
  0.3841

 Free energy of the ion-electron system (eV)
  ---------------------------------------------------
  alpha Z        PSCENC =        10.57885388
  Ewald energy   TEWEN  =     24027.52600484
  -Hartree energ DENC   =    -40452.17259213
  -exchange      EXHF   =         0.00000000
  -V(xc)+E(xc)   XCENC  =       574.35273609
  PAW double counting   =     16684.58131723   -18078.17532572
  entropy T*S    EENTRO =        -0.03071614
  eigenvalues    EBANDS =      -882.10675235
  atomic energy  EATOM  =     18082.44932260
  Solvation  Ediel_sol  =         0.00000000
  ---------------------------------------------------
  free energy    TOTEN  =       -32.99715172 eV

  energy without entropy =      -32.96643558  energy(sigma->0) =      -32.98691301


--------------------------------------------------------------------------------------------------------




--------------------------------------- Iteration      1(  27)  ---------------------------------------


    POTLOK:  cpu time    4.1335: real time    4.1428
    SETDIJ:  cpu time    0.0366: real time    0.0367
     EDDAV:  cpu time   13.6451: real time   13.6633
       DOS:  cpu time    0.0029: real time    0.0029
    CHARGE:  cpu time    1.4276: real time    1.4300
    MIXING:  cpu time    0.3382: real time    0.3386
    --------------------------------------------
      LOOP:  cpu time   19.5839: real time   19.6142

 eigenvalue-minimisations  :   324
 total energy-change (2. order) :-0.7005232E-02  (-0.3439424E-04)
 number of electron     142.9999724 magnetization       0.0596186
 augmentation part       91.8362006 magnetization       0.0002653

 Broyden mixing:
  rms(total) = 0.17287E-02    rms(broyden)= 0.17052E-02
  rms(prec ) = 0.18733E-02
  weight for this iteration     100.00

 eigenvalues of (default mixing * dielectric matrix)
  average eigenvalue GAMMA=   1.9124
 14.2763  4.7908  4.7908  2.7011  2.7011  1.6603  1.1917  1.1917  1.0485  0.8467
  0.8467  0.6834  0.6834  0.6717  0.6717  0.5744  0.4979  0.4979  0.4775  0.4485
  0.4485  0.3712

 Free energy of the ion-electron system (eV)
  ---------------------------------------------------
  alpha Z        PSCENC =        10.57885388
  Ewald energy   TEWEN  =     24027.52600484
  -Hartree energ DENC   =    -40451.58900974
  -exchange      EXHF   =         0.00000000
  -V(xc)+E(xc)   XCENC  =       574.34518626
  PAW double counting   =     16684.66255194   -18078.28351782
  entropy T*S    EENTRO =        -0.03104638
  eigenvalues    EBANDS =      -882.66250253
  atomic energy  EATOM  =     18082.44932260
  Solvation  Ediel_sol  =         0.00000000
  ---------------------------------------------------
  free energy    TOTEN  =       -33.00415695 eV

  energy without entropy =      -32.97311058  energy(sigma->0) =      -32.99380816


--------------------------------------------------------------------------------------------------------




--------------------------------------- Iteration      1(  28)  ---------------------------------------


    POTLOK:  cpu time    4.2933: real time    4.3003
    SETDIJ:  cpu time    0.0416: real time    0.0417
     EDDAV:  cpu time   11.9090: real time   11.9257
       DOS:  cpu time    0.0068: real time    0.0068
    CHARGE:  cpu time    1.4107: real time    1.4123
    MIXING:  cpu time    0.3771: real time    0.3776
    --------------------------------------------
      LOOP:  cpu time   18.0385: real time   18.0643

 eigenvalue-minimisations  :   284
 total energy-change (2. order) :-0.3191182E-02  (-0.1359927E-04)
 number of electron     142.9999724 magnetization       0.0421902
 augmentation part       91.8356935 magnetization      -0.0005521

 Broyden mixing:
  rms(total) = 0.12918E-02    rms(broyden)= 0.12798E-02
  rms(prec ) = 0.13904E-02
  weight for this iteration     100.00

 eigenvalues of (default mixing * dielectric matrix)
  average eigenvalue GAMMA=   1.8927
 14.4696  4.8607  4.8607  2.8371  2.8371  1.7557  1.1939  1.1939  1.1540  0.8821
  0.8821  0.7474  0.7474  0.6669  0.6669  0.6264  0.5018  0.5018  0.4813  0.4627
  0.4535  0.3891  0.3595

 Free energy of the ion-electron system (eV)
  ---------------------------------------------------
  alpha Z        PSCENC =        10.57885388
  Ewald energy   TEWEN  =     24027.52600484
  -Hartree energ DENC   =    -40451.22293398
  -exchange      EXHF   =         0.00000000
  -V(xc)+E(xc)   XCENC  =       574.34134151
  PAW double counting   =     16684.70239819   -18078.33167010
  entropy T*S    EENTRO =        -0.03118747
  eigenvalues    EBANDS =      -883.01947761
  atomic energy  EATOM  =     18082.44932260
  Solvation  Ediel_sol  =         0.00000000
  ---------------------------------------------------
  free energy    TOTEN  =       -33.00734814 eV

  energy without entropy =      -32.97616067  energy(sigma->0) =      -32.99695231


--------------------------------------------------------------------------------------------------------




--------------------------------------- Iteration      1(  29)  ---------------------------------------


    POTLOK:  cpu time    4.2894: real time    4.2964
    SETDIJ:  cpu time    0.0412: real time    0.0412
     EDDAV:  cpu time   11.9403: real time   11.9572
       DOS:  cpu time    0.0046: real time    0.0046
    CHARGE:  cpu time    1.4436: real time    1.4473
    MIXING:  cpu time    0.3765: real time    0.3769
    --------------------------------------------
      LOOP:  cpu time   18.0956: real time   18.1236

 eigenvalue-minimisations  :   264
 total energy-change (2. order) :-0.2560475E-02  (-0.1104243E-04)
 number of electron     142.9999724 magnetization       0.0291208
 augmentation part       91.8356298 magnetization      -0.0021896

 Broyden mixing:
  rms(total) = 0.10052E-02    rms(broyden)= 0.99826E-03
  rms(prec ) = 0.10653E-02
  weight for this iteration     100.00

 eigenvalues of (default mixing * dielectric matrix)
  average eigenvalue GAMMA=   1.9045
 14.7265  5.0953  5.0953  2.9866  2.9866  1.9110  1.1945  1.1945  1.3269  0.9846
  0.9846  0.7678  0.7678  0.6772  0.6772  0.6538  0.6093  0.5022  0.5022  0.4841
  0.4530  0.4530  0.3832  0.2910

 Free energy of the ion-electron system (eV)
  ---------------------------------------------------
  alpha Z        PSCENC =        10.57885388
  Ewald energy   TEWEN  =     24027.52600484
  -Hartree energ DENC   =    -40450.89014890
  -exchange      EXHF   =         0.00000000
  -V(xc)+E(xc)   XCENC  =       574.33691684
  PAW double counting   =     16684.79693512   -18078.42571775
  entropy T*S    EENTRO =        -0.03126701
  eigenvalues    EBANDS =      -883.35080822
  atomic energy  EATOM  =     18082.44932260
  Solvation  Ediel_sol  =         0.00000000
  ---------------------------------------------------
  free energy    TOTEN  =       -33.00990861 eV

  energy without entropy =      -32.97864160  energy(sigma->0) =      -32.99948627


--------------------------------------------------------------------------------------------------------




--------------------------------------- Iteration      1(  30)  ---------------------------------------


    POTLOK:  cpu time    4.4110: real time    4.4206
    SETDIJ:  cpu time    0.0405: real time    0.0405
     EDDAV:  cpu time   11.4973: real time   11.5151
       DOS:  cpu time    0.0036: real time    0.0036
    CHARGE:  cpu time    1.4327: real time    1.4347
    MIXING:  cpu time    0.4246: real time    0.4250
    --------------------------------------------
      LOOP:  cpu time   17.8096: real time   17.8396

 eigenvalue-minimisations  :   272
 total energy-change (2. order) :-0.2484062E-02  (-0.8255793E-05)
[...]
     26      -6.3122      1.00000
     27      -6.2942      1.00000
     28      -6.2739      1.00000
     29      -6.2565      1.00000
     30      -6.2357      1.00000
     31      -6.1405      1.00000
     32      -6.1354      1.00000
     33      -6.0681      1.00000
     34      -6.0146      1.00000
     35      -5.9708      1.00000
     36      -5.9429      1.00000
     37      -5.9088      1.00000
     38      -5.9024      1.00000
     39      -5.8803      1.00000
     40      -5.8291      1.00000
     41      -5.8131      1.00000
     42      -5.7487      1.00000
     43      -5.7372      1.00000
     44      -5.7181      1.00000
     45      -5.7056      1.00000
     46      -5.7012      1.00000
     47      -5.6621      1.00000
     48      -5.6149      1.00000
     49      -5.6004      1.00000
     50      -5.5835      1.00000
     51      -5.5486      1.00000
     52      -5.5303      1.00000
     53      -5.4857      1.00000
     54      -5.4832      1.00000
     55      -5.4201      1.00000
     56      -5.4074      1.00000
     57      -5.3968      1.00000
     58      -5.3734      1.00000
     59      -5.3549      1.00000
     60      -5.3322      1.00000
     61      -5.3211      1.00000
     62      -5.3044      1.00000
     63      -5.2709      1.00000
     64      -5.2504      1.00000
     65      -5.2333      1.00000
     66      -5.2305      1.00000
     67      -5.1489      1.00000
     68      -5.1056      1.00000
     69      -4.9264      1.00000
     70      -4.8075      1.00000
     71      -4.3511      1.01843
     72      -4.0064      0.48232
     73      -3.3881     -0.00005
     74      -3.2960     -0.00000
     75      -2.5953     -0.00000
     76      -2.5026     -0.00000
     77      -2.3041     -0.00000
     78      -1.9214     -0.00000
     79      -1.7846     -0.00000
     80      -1.5126     -0.00000
     81      -1.2378     -0.00000
     82      -1.1765     -0.00000
     83      -0.8784     -0.00000
     84      -0.6562     -0.00000
     85      -0.3372     -0.00000
     86      -0.1507     -0.00000
     87      -0.0871     -0.00000
     88       0.0010     -0.00000
     89       0.1923     -0.00000
     90       0.2790     -0.00000
     91       0.3211     -0.00000
     92       0.3557     -0.00000

 spin component 2

 k-point     1 :       0.0000    0.0000    0.0000
  band No.  band energies     occupation 
      1     -10.5296      1.00000
      2      -9.0151      1.00000
      3      -8.7296      1.00000
      4      -8.0744      1.00000
      5      -7.9503      1.00000
      6      -7.6396      1.00000
      7      -7.6265      1.00000
      8      -7.4606      1.00000
      9      -7.4353      1.00000
     10      -7.3967      1.00000
     11      -7.3172      1.00000
     12      -7.1868      1.00000
     13      -7.1399      1.00000
     14      -7.1053      1.00000
     15      -6.9939      1.00000
     16      -6.9351      1.00000
     17      -6.8662      1.00000
     18      -6.7906      1.00000
     19      -6.7741      1.00000
     20      -6.7464      1.00000
     21      -6.6876      1.00000
     22      -6.6504      1.00000
     23      -6.5383      1.00000
     24      -6.4855      1.00000
     25      -6.4134      1.00000
     26      -6.3121      1.00000
     27      -6.2941      1.00000
     28      -6.2738      1.00000
     29      -6.2565      1.00000
     30      -6.2357      1.00000
     31      -6.1405      1.00000
     32      -6.1354      1.00000
     33      -6.0680      1.00000
     34      -6.0145      1.00000
     35      -5.9708      1.00000
     36      -5.9428      1.00000
     37      -5.9088      1.00000
     38      -5.9023      1.00000
     39      -5.8803      1.00000
     40      -5.8291      1.00000
     41      -5.8130      1.00000
     42      -5.7487      1.00000
     43      -5.7372      1.00000
     44      -5.7181      1.00000
     45      -5.7056      1.00000
     46      -5.7012      1.00000
     47      -5.6621      1.00000
     48      -5.6148      1.00000
     49      -5.6003      1.00000
     50      -5.5835      1.00000
     51      -5.5485      1.00000
     52      -5.5302      1.00000
     53      -5.4857      1.00000
     54      -5.4832      1.00000
     55      -5.4200      1.00000
     56      -5.4074      1.00000
     57      -5.3967      1.00000
     58      -5.3734      1.00000
     59      -5.3548      1.00000
     60      -5.3322      1.00000
     61      -5.3210      1.00000
     62      -5.3044      1.00000
     63      -5.2709      1.00000
     64      -5.2504      1.00000
     65      -5.2333      1.00000
     66      -5.2305      1.00000
     67      -5.1488      1.00000
     68      -5.1055      1.00000
     69      -4.9264      1.00000
     70      -4.8074      1.00000
     71      -4.3510      1.01846
     72      -4.0061      0.48089
     73      -3.3880     -0.00005
     74      -3.2959     -0.00000
     75      -2.5952     -0.00000
     76      -2.5023     -0.00000
     77      -2.3038     -0.00000
     78      -1.9208     -0.00000
     79      -1.7843     -0.00000
     80      -1.5123     -0.00000
     81      -1.2373     -0.00000
     82      -1.1762     -0.00000
     83      -0.8777     -0.00000
     84      -0.6555     -0.00000
     85      -0.3355     -0.00000
     86      -0.1487     -0.00000
     87      -0.0843     -0.00000
     88       0.0068     -0.00000
     89       0.1857     -0.00000
     90       0.2908     -0.00000
     91       0.3329     -0.00000
     92       0.3642     -0.00000


--------------------------------------------------------------------------------------------------------


 soft charge-density along one line, spin component            1
         0         1         2         3         4         5         6         7         8         9
 total charge-density along one line
 
 soft charge-density along one line, spin component            2
         0         1         2         3         4         5         6         7         8         9
 total charge-density along one line
 
 pseudopotential strength for first ion, spin component:            1
-10.935   0.004   0.025  -0.003   0.003   1.338  -0.004  -0.020
  0.004 -10.935  -0.002  -0.019   0.005  -0.004   1.338   0.002
  0.025  -0.002 -10.966   0.005   0.016  -0.020   0.002   1.363
 -0.003  -0.019   0.005 -10.960   0.009   0.003   0.016  -0.004
  0.003   0.005   0.016   0.009 -10.925  -0.002  -0.004  -0.013
  1.338  -0.004  -0.020   0.003  -0.002   6.063   0.003   0.015
 -0.004   1.338   0.002   0.016  -0.004   0.003   6.061  -0.002
 -0.020   0.002   1.363  -0.004  -0.013   0.015  -0.002   6.043
  0.003   0.016  -0.004   1.359  -0.007  -0.002  -0.011   0.003
 -0.002  -0.004  -0.013  -0.007   1.331   0.001   0.003   0.009
  0.008   0.002   0.005  -0.002   0.005  -0.003  -0.001  -0.002
  0.015   0.003   0.009  -0.004   0.009  -0.005  -0.002  -0.004
  0.011   0.002   0.008   0.000   0.015  -0.011  -0.003  -0.006
  0.000  -0.014   0.002   0.011  -0.000  -0.001   0.012  -0.005
 -0.013   0.000  -0.006   0.002   0.011   0.011  -0.001   0.007
  0.013   0.003   0.009   0.000   0.017  -0.014  -0.005  -0.007
  0.000  -0.016   0.004   0.014  -0.000  -0.001   0.014  -0.008
 -0.015   0.000  -0.008   0.002   0.014   0.012  -0.001   0.009
 pseudopotential strength for first ion, spin component:            2
-10.935   0.004   0.025  -0.003   0.003   1.338  -0.004  -0.020
  0.004 -10.935  -0.002  -0.019   0.005  -0.004   1.338   0.002
  0.025  -0.002 -10.966   0.005   0.016  -0.020   0.002   1.363
 -0.003  -0.019   0.005 -10.960   0.009   0.003   0.016  -0.004
  0.003   0.005   0.016   0.009 -10.925  -0.002  -0.004  -0.013
  1.338  -0.004  -0.020   0.003  -0.002   6.063   0.003   0.015
 -0.004   1.338   0.002   0.016  -0.004   0.003   6.061  -0.002
 -0.020   0.002   1.363  -0.004  -0.013   0.015  -0.002   6.043
  0.003   0.016  -0.004   1.359  -0.007  -0.002  -0.011   0.003
 -0.002  -0.004  -0.013  -0.007   1.331   0.001   0.003   0.009
  0.008   0.002   0.005  -0.002   0.005  -0.003  -0.001  -0.002
  0.015   0.003   0.009  -0.004   0.009  -0.005  -0.002  -0.004
  0.011   0.002   0.008   0.000   0.015  -0.011  -0.003  -0.006
  0.000  -0.014   0.002   0.011  -0.000  -0.001   0.012  -0.005
 -0.013   0.000  -0.006   0.002   0.011   0.011  -0.001   0.007
  0.013   0.003   0.009   0.000   0.017  -0.014  -0.005  -0.007
  0.000  -0.016   0.004   0.014  -0.000  -0.001   0.014  -0.008
 -0.015   0.000  -0.008   0.002   0.014   0.012  -0.001   0.009
 total augmentation occupancy for first ion, spin component:            1
  1.938  -0.001   0.015   0.000   0.003  -0.013   0.001  -0.008   0.001  -0.002  -0.018  -0.012  -0.015  -0.004   0.039   0.008
 -0.001   1.938  -0.001  -0.007   0.001   0.001  -0.026   0.001   0.006  -0.003   0.010  -0.003   0.006   0.031   0.006  -0.003
  0.015  -0.001   1.913   0.003   0.009  -0.008   0.001  -0.010  -0.002  -0.005  -0.010  -0.004  -0.022   0.008  -0.001   0.009
  0.000  -0.007   0.003   1.934   0.005   0.001   0.006  -0.002  -0.016  -0.004  -0.000   0.003   0.012  -0.005  -0.001  -0.000
  0.003   0.001   0.009   0.005   1.941  -0.002  -0.003  -0.005  -0.004  -0.027  -0.014  -0.007  -0.013  -0.011  -0.019   0.015
 -0.013   0.001  -0.008   0.001  -0.002   0.014   0.000  -0.000  -0.001   0.000   0.041  -0.001  -0.010   0.001   0.016   0.000
  0.001  -0.026   0.001   0.006  -0.003   0.000   0.012  -0.000   0.001  -0.000   0.006   0.001  -0.002   0.022  -0.002   0.000
 -0.008   0.001  -0.010  -0.002  -0.005  -0.000  -0.000   0.013  -0.001  -0.001   0.014  -0.000  -0.004  -0.012   0.012   0.000
  0.001   0.006  -0.002  -0.016  -0.004  -0.001   0.001  -0.001   0.017  -0.000  -0.011   0.001  -0.003  -0.020  -0.012   0.000
 -0.002  -0.003  -0.005  -0.004  -0.027   0.000  -0.000  -0.001  -0.000   0.012   0.032  -0.003  -0.018  -0.003  -0.023   0.001
 -0.018   0.010  -0.010  -0.000  -0.014   0.041   0.006   0.014  -0.011   0.032   1.668  -0.144   0.153  -0.024  -0.108  -0.021
 -0.012  -0.003  -0.004   0.003  -0.007  -0.001   0.001  -0.000   0.001  -0.003  -0.144   0.017  -0.019   0.009   0.020   0.002
 -0.015   0.006  -0.022   0.012  -0.013  -0.010  -0.002  -0.004  -0.003  -0.018   0.153  -0.019   0.135   0.008   0.046  -0.010
 -0.004   0.031   0.008  -0.005  -0.011   0.001   0.022  -0.012  -0.020  -0.003  -0.024   0.009   0.008   0.199  -0.011   0.000
  0.039   0.006  -0.001  -0.001  -0.019   0.016  -0.002   0.012  -0.012  -0.023  -0.108   0.020   0.046  -0.011   0.198  -0.002
  0.008  -0.003   0.009  -0.000   0.015   0.000   0.000   0.000   0.000   0.001  -0.021   0.002  -0.010   0.000  -0.002   0.001
 -0.000  -0.016  -0.002   0.008   0.001   0.000  -0.001   0.001   0.001   0.000   0.005  -0.001   0.000  -0.012   0.001  -0.000
 -0.016  -0.000  -0.005  -0.001   0.009  -0.001   0.000  -0.001   0.001   0.002   0.016  -0.002  -0.002   0.001  -0.013   0.000
 total augmentation occupancy for first ion, spin component:            2
 -0.000  -0.000   0.000  -0.000   0.000   0.000  -0.000  -0.000   0.000  -0.000   0.000   0.000   0.000   0.000   0.000  -0.000
 -0.000  -0.000  -0.000   0.000  -0.000  -0.000   0.000   0.000  -0.000   0.000  -0.000  -0.000  -0.000  -0.000  -0.000   0.000
  0.000  -0.000   0.000  -0.000   0.000  -0.000   0.000  -0.000   0.000  -0.000   0.000   0.000   0.000   0.000  -0.000   0.000
 -0.000   0.000  -0.000   0.000  -0.000   0.000  -0.000   0.000  -0.000   0.000  -0.000  -0.000  -0.000  -0.000   0.000   0.000
  0.000  -0.000   0.000  -0.000   0.000  -0.000   0.000  -0.000   0.000  -0.000   0.000   0.000   0.000   0.000  -0.000   0.000
  0.000  -0.000  -0.000   0.000  -0.000   0.000   0.000   0.000  -0.000   0.000  -0.000  -0.000  -0.000  -0.000   0.000   0.000
 -0.000   0.000   0.000  -0.000   0.000   0.000   0.000  -0.000   0.000  -0.000   0.000   0.000   0.000   0.000   0.000  -0.000
 -0.000   0.000  -0.000   0.000  -0.000   0.000  -0.000   0.000  -0.000   0.000  -0.000  -0.000  -0.000  -0.000   0.000   0.000
  0.000  -0.000   0.000  -0.000   0.000  -0.000   0.000  -0.000   0.000  -0.000   0.000   0.000   0.000   0.000   0.000  -0.000
 -0.000   0.000  -0.000   0.000  -0.000   0.000  -0.000   0.000  -0.000   0.000  -0.000  -0.000  -0.000  -0.000   0.000   0.000
  0.000  -0.000   0.000  -0.000   0.000  -0.000   0.000  -0.000   0.000  -0.000   0.000   0.000   0.000   0.000  -0.000  -0.000
  0.000  -0.000   0.000  -0.000   0.000  -0.000   0.000  -0.000   0.000  -0.000   0.000   0.000   0.000   0.000  -0.000   0.000
  0.000  -0.000   0.000  -0.000   0.000  -0.000   0.000  -0.000   0.000  -0.000   0.000   0.000   0.000   0.000  -0.000  -0.000
  0.000  -0.000   0.000  -0.000   0.000  -0.000   0.000  -0.000   0.000  -0.000   0.000   0.000   0.000   0.000   0.000  -0.000
  0.000  -0.000  -0.000   0.000  -0.000   0.000   0.000   0.000   0.000   0.000  -0.000  -0.000  -0.000   0.000  -0.000   0.000
 -0.000   0.000   0.000   0.000   0.000   0.000  -0.000   0.000  -0.000   0.000  -0.000   0.000  -0.000  -0.000   0.000   0.000
 -0.000   0.000   0.000  -0.000   0.000   0.000  -0.000   0.000  -0.000   0.000  -0.000  -0.000  -0.000  -0.000  -0.000   0.000
  0.000  -0.000  -0.000   0.000  -0.000  -0.000  -0.000  -0.000  -0.000  -0.000   0.000   0.000   0.000  -0.000  -0.000  -0.000


------------------------ aborting loop because EDIFF is reached ----------------------------------------


    CHARGE:  cpu time    1.4591: real time    1.4628
    FORLOC:  cpu time    0.1649: real time    0.1651
    FORNL :  cpu time    9.9670: real time    9.9823
    FORCOR:  cpu time    4.2847: real time    4.2951
    FORHAR:  cpu time    0.5727: real time    0.5732
    MIXING:  cpu time    0.0852: real time    0.0853
    OFIELD:  cpu time    0.0000: real time    0.0000

 VOLUME and BASIS-vectors are now :
 -----------------------------------------------------------------------------
  energy-cutoff  :      400.00
  volume of cell :    11683.16
      direct lattice vectors                 reciprocal lattice vectors
    21.675494134  0.000000000  0.000000000     0.046135050  0.000000000  0.000000000
     0.000000000 24.082649527  0.000000000     0.000000000  0.041523670  0.000000000
     0.000000000  0.000000000 22.381389091     0.000000000  0.000000000  0.044679979

  length of vectors
    21.675494134 24.082649527 22.381389091     0.046135050  0.041523670  0.044679979


 FORCES acting on ions
    electron-ion (+dipol)            ewald-force                    non-local-force                 convergence-correction
 -----------------------------------------------------------------------------------------------
   -.576E+03 0.106E+04 -.101E+03   0.576E+03 -.106E+04 0.102E+03   0.730E+00 -.395E+01 -.105E+01   -.384E-01 -.257E-01 0.223E-01
   0.117E+04 -.182E+03 0.302E+03   -.116E+04 0.183E+03 -.302E+03   -.416E+01 -.979E+00 -.131E+00   0.290E-01 -.128E-01 -.256E-01
   -.126E+04 0.469E+02 -.593E+02   0.126E+04 -.475E+02 0.586E+02   0.423E+01 0.586E+00 0.614E+00   0.205E-01 -.640E-03 0.535E-02
   0.554E+03 -.112E+04 -.185E+03   -.553E+03 0.112E+04 0.185E+03   -.103E+01 0.404E+01 0.460E+00   0.148E-01 -.153E-02 -.264E-02
   0.182E+03 -.663E+03 0.111E+04   -.181E+03 0.662E+03 -.110E+04   -.148E+01 0.106E+01 -.514E+01   -.275E-02 0.230E-01 -.159E-01
   -.443E+03 0.276E+03 -.120E+04   0.443E+03 -.273E+03 0.119E+04   0.574E+00 -.259E+01 0.485E+01   0.172E-01 0.160E-01 0.159E-01
   0.530E+03 0.904E+03 -.916E+03   -.529E+03 -.899E+03 0.910E+03   -.163E+01 -.464E+01 0.568E+01   -.404E-02 0.118E-01 -.969E-02
   0.389E+03 0.507E+03 0.123E+04   -.387E+03 -.506E+03 -.123E+04   -.230E+01 -.134E+01 -.703E+01   0.218E-01 -.113E-02 0.922E-02
   -.963E+03 0.432E+03 0.937E+03   0.956E+03 -.428E+03 -.931E+03   0.750E+01 -.307E+01 -.591E+01   -.209E-01 0.421E-02 -.111E-01
   0.962E+03 -.420E+03 -.941E+03   -.955E+03 0.416E+03 0.935E+03   -.699E+01 0.373E+01 0.612E+01   -.164E-01 -.267E-01 0.291E-02
   -.577E+03 -.119E+04 0.468E+03   0.573E+03 0.118E+04 -.465E+03   0.428E+01 0.869E+01 -.296E+01   0.576E-02 0.262E-01 0.337E-01
   -.712E+03 -.791E+03 -.909E+03   0.706E+03 0.785E+03 0.903E+03   0.528E+01 0.594E+01 0.625E+01   -.500E-03 -.327E-03 -.277E-02
   0.749E+03 0.114E+04 0.259E+03   -.743E+03 -.113E+04 -.257E+03   -.553E+01 -.835E+01 -.193E+01   -.247E-01 0.110E-01 -.431E-02
 -----------------------------------------------------------------------------------------------
   0.586E+00 0.868E+00 0.197E+00   -.455E-12 0.000E+00 -.568E-13   -.531E+00 -.867E+00 -.189E+00   0.144E-02 0.234E-01 0.176E-01
 
 
 POSITION                                       TOTAL-FORCE (eV/Angst)
 -----------------------------------------------------------------------------------
     11.29758     10.86665     11.14241        -0.016450     -0.023147      0.019015
      9.27466     12.21809     11.02840         0.018758     -0.003186     -0.024406
     12.72835     12.85711     11.27066         0.013816     -0.007851     -0.003777
     10.49378     14.19837     11.81252        -0.000464     -0.003593      0.001610
     11.00282     13.33536      9.60502         0.002857      0.019437     -0.019969
     11.31074     12.33409     13.16748         0.008878      0.006399      0.018026
      9.51772     10.67004     12.90046         0.000148      0.007069     -0.001579
     10.21508     11.10160      8.97142         0.013592      0.002572      0.005024
     12.60315     11.60850      9.18434        -0.019229      0.004888     -0.007317
      9.02741     13.02553     13.35455        -0.009108     -0.021161      0.000958
     12.37650     15.10458     10.58728         0.002083      0.017023      0.019084
     12.49392     14.47518     13.05950         0.001590     -0.004947     -0.000124
      9.14071      9.79993     10.68883        -0.016472      0.006498     -0.006544
 -----------------------------------------------------------------------------------
    total drift:                                0.057048      0.024244      0.025725


--------------------------------------------------------------------------------------------------------



  FREE ENERGIE OF THE ION-ELECTRON SYSTEM (eV)
  ---------------------------------------------------
  free  energy   TOTEN  =       -33.10688033 eV

  energy  without entropy=      -33.06552757  energy(sigma->0) =      -33.09309608
 
 d Force =-0.5726239E-04[-0.159E-03, 0.449E-04]  d Energy =-0.5294378E-04-0.432E-05
 d Force =-0.5110348E+00[-0.511E+00,-0.511E+00]  d Ewald  =-0.5110352E+00 0.410E-06


--------------------------------------------------------------------------------------------------------


    POTLOK:  cpu time    4.2926: real time    4.3040


--------------------------------------------------------------------------------------------------------




--------------------------------------------------------------------------------------------------------


  
 reached required accuracy - stopping structural energy minimisation
     LOOP+:  cpu time   58.8655: real time   62.0218
    4ORBIT:  cpu time    0.0000: real time    0.0000

 total amount of memory used by VASP MPI-rank0   247335. kBytes
=======================================================================

   base      :      30000. kBytes
   nonl-proj :       4670. kBytes
   fftplans  :      53180. kBytes
   grid      :     120341. kBytes
   one-center:         31. kBytes
   wavefun   :      39113. kBytes
 
  
  
 General timing and accounting informations for this job:
 ========================================================
  
                  Total CPU time used (sec):     2252.205
                            User time (sec):     2236.713
                          System time (sec):       15.492
                         Elapsed time (sec):     2285.454
  
                   Maximum memory used (kb):      498944.
                   Average memory used (kb):           0.
  
                          Minor page faults:      5500897
                          Major page faults:        45876
                 Voluntary context switches:         2055
