<?xml version="1.0" encoding="ISO-8859-1"?>
<modeling>
 <generator>
  <i name="program" type="string">vasp </i>
  <i name="version" type="string">6.1.2  </i>
  <i name="subversion" type="string">22Jul20 (build Jan 14 2022 17:24:41) gamma-only                       parallel </i>
  <i name="platform" type="string">LinuxPGI </i>
  <i name="date" type="string">2022 01 31 </i>
  <i name="time" type="string">15:26:01 </i>
 </generator>
 <incar>
  <i type="int" name="ISPIN">     2</i>
  <i type="int" name="IBRION">     2</i>
  <i type="int" name="NSW">  1000</i>
  <i type="int" name="ISIF">     0</i>
  <i type="int" name="ISYM">     0</i>
  <i name="ENCUT">    400.00000000</i>
  <i type="logical" name="LREAL"> F  </i>
  <i type="int" name="ISMEAR">     1</i>
  <i name="SIGMA">      0.20000000</i>
  <i type="logical" name="LWAVE"> F  </i>
  <i type="logical" name="LCHARG"> F  </i>
  <i type="int" name="KPAR">     1</i>
  <i type="int" name="NCORE">     8</i>
  <i type="string" name="GGA"> PE</i>
  <i type="int" name="ISPIN">     2</i>
 </incar>
 <structure name="primitive_cell" >
  <crystal>
   <varray name="basis" >
    <v>      21.67549413       0.00000000       0.00000000 </v>
    <v>       0.00000000      24.08264953       0.00000000 </v>
    <v>       0.00000000       0.00000000      22.38138909 </v>
   </varray>
   <i name="volume">  11683.15960331 </i>
   <varray name="rec_basis" >
    <v>       0.04613505       0.00000000       0.00000000 </v>
    <v>       0.00000000       0.04152367       0.00000000 </v>
    <v>       0.00000000       0.00000000       0.04467998 </v>
   </varray>
  </crystal>
  <varray name="positions" >
   <v>       0.52208783       0.45297755       0.49724501 </v>
   <v>       0.42580702       0.50775825       0.49267310 </v>
   <v>       0.59331218       0.53273661       0.50276553 </v>
   <v>       0.48059310       0.59277981       0.52908753 </v>
   <v>       0.50863399       0.55189562       0.43202471 </v>
   <v>       0.52089413       0.51391650       0.58661468 </v>
   <v>       0.44069414       0.44244272       0.57761947 </v>
   <v>       0.46928353       0.46110598       0.39952404 </v>
   <v>       0.58136647       0.47796798       0.40844571 </v>
   <v>       0.41207738       0.53963597       0.59600773 </v>
   <v>       0.57091877       0.62865957       0.47640085 </v>
   <v>       0.57915967       0.60217147       0.58145736 </v>
   <v>       0.42247005       0.40597072       0.47794230 </v>
  </varray>
 </structure>
 <varray name="primitive_index" >
  <v type="int" >        1 </v>
  <v type="int" >        2 </v>
  <v type="int" >        3 </v>
  <v type="int" >        4 </v>
  <v type="int" >        5 </v>
  <v type="int" >        6 </v>
  <v type="int" >        7 </v>
  <v type="int" >        8 </v>
  <v type="int" >        9 </v>
  <v type="int" >       10 </v>
  <v type="int" >       11 </v>
  <v type="int" >       12 </v>
  <v type="int" >       13 </v>
 </varray>
 <kpoints>
  <generation param="Gamma">
   <v type="int" name="divisions">       1        1        1 </v>
   <v name="usershift">      0.00000000       0.00000000       0.00000000 </v>
   <v name="genvec1">      1.00000000       0.00000000       0.00000000 </v>
   <v name="genvec2">      0.00000000       1.00000000       0.00000000 </v>
   <v name="genvec3">      0.00000000       0.00000000       1.00000000 </v>
   <v name="shift">      0.00000000       0.00000000       0.00000000 </v>
  </generation>
  <varray name="kpointlist" >
   <v>       0.00000000       0.00000000       0.00000000 </v>
  </varray>
  <varray name="weights" >
   <v>       1.00000000 </v>
  </varray>
 </kpoints>
 <parameters>
  <separator name="general" >
   <i type="string" name="SYSTEM">unknown system</i>
   <i type="logical" name="LCOMPAT"> F  </i>
  </separator>
  <separator name="electronic" >
   <i type="string" name="PREC">normal</i>
   <i name="ENMAX">    400.00000000</i>
   <i name="ENAUG">    586.98000000</i>
   <i name="EDIFF">      0.00010000</i>
   <i type="int" name="IALGO">    38</i>
   <i type="int" name="IWAVPR">    11</i>
   <i type="int" name="NBANDS">    92</i>
   <i type="int" name="NBANDSLOW">    -1</i>
   <i type="int" name="NBANDSHIGH">    -1</i>
   <i name="NELECT">    143.00000000</i>
   <i type="int" name="TURBO">     0</i>
   <i type="int" name="IRESTART">     0</i>
   <i type="int" name="NREBOOT">     0</i>
   <i type="int" name="NMIN">     0</i>
   <i name="EREF">      0.00000000</i>
   <separator name="electronic smearing" >
    <i type="int" name="ISMEAR">     1</i>
    <i name="SIGMA">      0.20000000</i>
    <i name="KSPACING">      0.50000000</i>
    <i type="logical" name="KGAMMA"> T  </i>
    <i type="logical" name="KBLOWUP"> T  </i>
   </separator>
   <separator name="electronic projectors" >
    <i type="logical" name="LREAL"> F  </i>
    <v name="ROPT">      0.00000000</v>
    <i type="int" name="LMAXPAW">  -100</i>
    <i type="int" name="LMAXMIX">     2</i>
    <i type="logical" name="NLSPLINE"> F  </i>
   </separator>
   <separator name="electronic startup" >
    <i type="int" name="ISTART">     0</i>
    <i type="int" name="ICHARG">     2</i>
    <i type="int" name="INIWAV">     1</i>
   </separator>
   <separator name="electronic spin" >
    <i type="int" name="ISPIN">     2</i>
    <i type="logical" name="LNONCOLLINEAR"> F  </i>
    <v name="MAGMOM">      1.00000000      1.00000000      1.00000000      1.00000000      1.00000000      1.00000000      1.00000000      1.00000000      1.00000000      1.00000000      1.00000000      1.00000000      1.00000000</v>
    <i name="NUPDOWN">     -1.00000000</i>
    <i type="logical" name="LSORBIT"> F  </i>
    <v name="SAXIS">      0.00000000      0.00000000      1.00000000</v>
    <i type="logical" name="LSPIRAL"> F  </i>
    <v name="QSPIRAL">      0.00000000      0.00000000      0.00000000</v>
    <i type="logical" name="LZEROZ"> F  </i>
   </separator>
   <separator name="electronic exchange-correlation" >
    <i type="logical" name="LASPH"> F  </i>
    <i type="logical" name="LMETAGGA"> F  </i>
   </separator>
   <separator name="electronic convergence" >
    <i type="int" name="NELM">    60</i>
    <i type="int" name="NELMDL">     0</i>
    <i type="int" name="NELMIN">     2</i>
    <i name="ENINI">    400.00000000</i>
    <separator name="electronic convergence detail" >
     <i type="logical" name="LDIAG"> T  </i>
     <i type="logical" name="LSUBROT"> F  </i>
     <i name="WEIMIN">      0.00100000</i>
     <i name="EBREAK">      0.00000027</i>
     <i name="DEPER">      0.30000000</i>
     <i type="int" name="NRMM">     4</i>
     <i name="TIME">      0.40000000</i>
    </separator>
   </separator>
   <separator name="electronic mixer" >
    <i name="AMIX">      0.40000000</i>
    <i name="BMIX">      1.00000000</i>
    <i name="AMIN">      0.10000000</i>
    <i name="AMIX_MAG">      1.60000000</i>
    <i name="BMIX_MAG">      1.00000000</i>
    <separator name="electronic mixer details" >
     <i type="int" name="IMIX">     4</i>
     <i type="logical" name="MIXFIRST"> F  </i>
     <i type="int" name="MAXMIX">   -45</i>
     <i name="WC">    100.00000000</i>
     <i type="int" name="INIMIX">     1</i>
     <i type="int" name="MIXPRE">     1</i>
     <i type="int" name="MREMOVE">     5</i>
    </separator>
   </separator>
   <separator name="electronic dipolcorrection" >
    <i type="logical" name="LDIPOL"> F  </i>
    <i type="logical" name="LMONO"> F  </i>
    <i type="int" name="IDIPOL">     0</i>
    <i name="EPSILON">      1.00000000</i>
    <v name="DIPOL">   -100.00000000   -100.00000000   -100.00000000</v>
    <i name="EFIELD">      0.00000000</i>
   </separator>
  </separator>
  <separator name="grids" >
   <i type="int" name="NGX">   108</i>
   <i type="int" name="NGY">   120</i>
   <i type="int" name="NGZ">   112</i>
   <i type="int" name="NGXF">   216</i>
   <i type="int" name="NGYF">   240</i>
   <i type="int" name="NGZF">   224</i>
   <i type="logical" name="ADDGRID"> F  </i>
  </separator>
  <separator name="ionic" >
   <i type="int" name="NSW">  1000</i>
   <i type="int" name="IBRION">     2</i>
   <i type="int" name="MDALGO">     0</i>
   <i type="int" name="ISIF">     0</i>
   <i name="PSTRESS">      0.00000000</i>
   <i name="EDIFFG">      0.00100000</i>
   <i type="int" name="NFREE">     1</i>
   <i name="POTIM">      0.50000000</i>
   <i name="SMASS">     -3.00000000</i>
   <i name="SCALEE">      1.00000000</i>
  </separator>
  <separator name="ionic md" >
   <i name="TEBEG">      0.00010000</i>
   <i name="TEEND">      0.00010000</i>
   <i type="int" name="NBLOCK">     1</i>
   <i type="int" name="KBLOCK">  1000</i>
   <i type="int" name="NPACO">   256</i>
   <i name="APACO">     16.00000000</i>
  </separator>
  <separator name="symmetry" >
   <i type="int" name="ISYM">     0</i>
   <i name="SYMPREC">      0.00001000</i>
  </separator>
  <separator name="dos" >
   <i type="int" name="LORBIT">     0</i>
   <v name="RWIGS">     -1.00000000</v>
   <i type="int" name="NEDOS">   301</i>
   <i name="EMIN">     10.00000000</i>
   <i name="EMAX">    -10.00000000</i>
   <i name="EFERMI">      0.00000000</i>
  </separator>
  <separator name="writing" >
   <i type="int" name="NWRITE">     2</i>
   <i type="logical" name="LWAVE"> F  </i>
   <i type="logical" name="LDOWNSAMPLE"> F  </i>
   <i type="logical" name="LCHARG"> F  </i>
   <i type="logical" name="LPARD"> F  </i>
   <i type="logical" name="LVTOT"> F  </i>
   <i type="logical" name="LVHAR"> F  </i>
   <i type="logical" name="LELF"> F  </i>
   <i type="logical" name="LOPTICS"> F  </i>
   <v name="STM">      0.00000000      0.00000000      0.00000000      0.00000000      0.00000000      0.00000000      0.00000000</v>
  </separator>
  <separator name="performance" >
   <i type="int" name="NPAR">     1</i>
   <i type="int" name="NSIM">     4</i>
   <i type="int" name="NBLK">    -1</i>
   <i type="logical" name="LPLANE"> T  </i>
   <i type="logical" name="LSCALAPACK"> T  </i>
   <i type="logical" name="LSCAAWARE"> F  </i>
   <i type="logical" name="LSCALU"> F  </i>
   <i type="logical" name="LASYNC"> F  </i>
   <i type="logical" name="LORBITALREAL"> F  </i>
  </separator>
  <separator name="miscellaneous" >
   <i type="int" name="IDIOT">     3</i>
   <i type="int" name="PHON_NSTRUCT">    -1</i>
   <i type="logical" name="LMUSIC"> F  </i>
   <v name="POMASS">     63.54600000</v>
   <v name="DARWINR">      0.00000000</v>
   <v name="DARWINV">      1.00000000</v>
   <i type="logical" name="LCORR"> T  </i>
  </separator>
  <i type="logical" name="GGA_COMPAT"> T  </i>
  <i type="logical" name="LBERRY"> F  </i>
  <i type="int" name="ICORELEVEL">     0</i>
  <i type="logical" name="LDAU"> F  </i>
  <i type="int" name="I_CONSTRAINED_M">     0</i>
  <separator name="electronic exchange-correlation" >
   <i type="string" name="GGA">PE</i>
   <i type="int" name="VOSKOWN">     0</i>
   <i type="logical" name="LHFCALC"> F  </i>
   <i type="string" name="PRECFOCK"></i>
   <i type="logical" name="LSYMGRAD"> F  </i>
   <i type="logical" name="LHFONE"> F  </i>
   <i type="logical" name="LRHFCALC"> F  </i>
   <i type="logical" name="LTHOMAS"> F  </i>
   <i type="logical" name="LMODELHF"> F  </i>
   <i type="logical" name="LFOCKACE"> F  </i>
   <i name="ENCUT4O">     -1.00000000</i>
   <i type="int" name="EXXOEP">     0</i>
   <i type="int" name="FOURORBIT">     0</i>
   <i name="AEXX">      0.00000000</i>
   <i name="HFALPHA">      0.00000000</i>
   <i name="MCALPHA">      0.00000000</i>
   <i name="ALDAX">      1.00000000</i>
   <i name="AGGAX">      1.00000000</i>
   <i name="ALDAC">      1.00000000</i>
   <i name="AGGAC">      1.00000000</i>
   <i type="int" name="NKREDX">     1</i>
   <i type="int" name="NKREDY">     1</i>
   <i type="int" name="NKREDZ">     1</i>
   <i type="logical" name="SHIFTRED"> F  </i>
   <i type="logical" name="ODDONLY"> F  </i>
   <i type="logical" name="EVENONLY"> F  </i>
   <i type="int" name="LMAXFOCK">     0</i>
   <i type="int" name="NMAXFOCKAE">     0</i>
   <i type="logical" name="LFOCKAEDFT"> F  </i>
   <i name="HFSCREEN">      0.00000000</i>
   <i name="HFSCREENC">      0.00000000</i>
   <i type="int" name="NBANDSGWLOW">     0</i>
  </separator>
  <separator name="vdW DFT" >
   <i type="logical" name="LUSE_VDW"> F  </i>
   <i name="Zab_VDW">     -0.84910000</i>
   <i name="PARAM1">      0.12340000</i>
   <i name="PARAM2">      1.00000000</i>
   <i name="PARAM3">      0.00000000</i>
  </separator>
  <separator name="model GW" >
   <i type="int" name="MODEL_GW">     0</i>
   <i name="MODEL_EPS0">    539.22275092</i>
   <i name="MODEL_ALPHA">      1.00000000</i>
  </separator>
  <separator name="linear response parameters" >
   <i type="logical" name="LEPSILON"> F  </i>
   <i type="logical" name="LRPA"> F  </i>
   <i type="logical" name="LNABLA"> F  </i>
   <i type="logical" name="LVEL"> F  </i>
   <i type="int" name="KINTER">     0</i>
   <i name="CSHIFT">      0.10000000</i>
   <i name="OMEGAMAX">     -1.00000000</i>
   <i name="DEG_THRESHOLD">      0.00200000</i>
   <i name="RTIME">     -0.10000000</i>
   <i name="WPLASMAI">      0.00000000</i>
   <v name="DFIELD">      0.00000000      0.00000000      0.00000000</v>
   <v name="WPLASMA">      0.00000000      0.00000000      0.00000000      0.00000000      0.00000000      0.00000000      0.00000000      0.00000000      0.00000000</v>
  </separator>
  <separator name="orbital magnetization" >
   <i type="logical" name="NUCIND"> F  </i>
   <v name="MAGPOS">      0.00000000      0.00000000      0.00000000</v>
   <i type="logical" name="LNICSALL"> T  </i>
   <i type="logical" name="ORBITALMAG"> F  </i>
   <i type="logical" name="LMAGBLOCH"> F  </i>
   <i type="logical" name="LCHIMAG"> F  </i>
   <i type="logical" name="LGAUGE"> T  </i>
   <i type="int" name="MAGATOM">     0</i>
   <v name="MAGDIPOL">      0.00000000      0.00000000      0.00000000</v>
   <v name="AVECCONST">      0.00000000      0.00000000      0.00000000</v>
  </separator>
  <separator name="response functions" >
   <i type="logical" name="LFINITE_TEMPERATURE"> F  </i>
   <i type="logical" name="LADDER"> F  </i>
   <i type="logical" name="LRPAFORCE"> F  </i>
   <i type="logical" name="LFXC"> F  </i>
   <i type="logical" name="LHARTREE"> T  </i>
   <i type="int" name="IBSE">     0</i>
   <v type="int" name="KPOINT">    -1     0     0     0</v>
   <i type="logical" name="LTCTC"> F  </i>
   <i type="logical" name="LTCTE"> F  </i>
   <i type="logical" name="LTETE"> F  </i>
   <i type="logical" name="LTRIPLET"> F  </i>
   <i type="logical" name="LFXCEPS"> F  </i>
   <i type="logical" name="LFXHEG"> F  </i>
   <i type="int" name="NATURALO">     2</i>
   <i type="logical" name="LHOLEGF"> F  </i>
   <i type="logical" name="L2ORDER"> F  </i>
   <i type="logical" name="LDMP1"> F  </i>
   <i type="logical" name="LMP2LT"> F  </i>
   <i type="logical" name="LSMP2LT"> F  </i>
   <i type="logical" name="LGWLF"> F  </i>
   <i name="ENCUTGW">     -2.00000000</i>
   <i name="ENCUTGWSOFT">     -2.00000000</i>
   <i name="ENCUTLF">     -1.00000000</i>
   <i type="logical" name="LESF_SPLINES"> F  </i>
   <i type="int" name="LMAXMP2">    -1</i>
   <i name="SCISSOR">      0.00000000</i>
   <i type="int" name="NOMEGA">     0</i>
   <i type="int" name="NOMEGAR">     0</i>
   <i type="int" name="NBANDSGW">    -1</i>
   <i type="int" name="NBANDSO">    -1</i>
   <i type="int" name="NBANDSV">    -1</i>
   <i type="int" name="NELM">     1</i>
   <i type="int" name="NELMHF">     1</i>
   <i type="int" name="DIM">     3</i>
   <i type="int" name="IESPILON">     4</i>
   <i type="int" name="ANTIRES">     0</i>
   <i name="OMEGAMAX">    -30.00000000</i>
   <i name="OMEGAMIN">    -30.00000000</i>
   <i name="OMEGATL">   -200.00000000</i>
   <i type="int" name="OMEGAGRID">     0</i>
   <i name="CSHIFT">     -0.10000000</i>
   <i type="logical" name="LSELFENERGY"> F  </i>
   <i type="logical" name="LSPECTRAL"> F  </i>
   <i type="logical" name="LSPECTRALGW"> F  </i>
   <i type="logical" name="LSINGLES"> F  </i>
   <i type="logical" name="LFERMIGW"> F  </i>
   <i type="logical" name="ODDONLYGW"> F  </i>
   <i type="logical" name="EVENONLYGW"> F  </i>
   <i type="int" name="NKREDLFX">     1</i>
   <i type="int" name="NKREDLFY">     1</i>
   <i type="int" name="NKREDLFZ">     1</i>
   <i type="int" name="MAXMEM">  2800</i>
   <i type="int" name="TELESCOPE">     0</i>
   <i type="int" name="NTAUPAR">    -1</i>
   <i type="int" name="NOMEGAPAR">    -1</i>
   <i name="LAMBDA">      1.00000000</i>
  </separator>
  <separator name="External order field" >
   <i name="OFIELD_KAPPA">      0.00000000</i>
   <v name="OFIELD_K">      0.00000000      0.00000000      0.00000000</v>
   <i name="OFIELD_Q6_NEAR">      0.00000000</i>
   <i name="OFIELD_Q6_FAR">      0.00000000</i>
   <i name="OFIELD_A">      0.00000000</i>
  </separator>
 </parameters>
 <atominfo>
  <atoms>      13 </atoms>
  <types>       1 </types>
  <array name="atoms" >
   <dimension dim="1">ion</dimension>
   <field type="string">element</field>
   <field type="int">atomtype</field>
   <set>
    <rc><c>Cu</c><c>   1</c></rc>
    <rc><c>Cu</c><c>   1</c></rc>
    <rc><c>Cu</c><c>   1</c></rc>
    <rc><c>Cu</c><c>   1</c></rc>
    <rc><c>Cu</c><c>   1</c></rc>
    <rc><c>Cu</c><c>   1</c></rc>
    <rc><c>Cu</c><c>   1</c></rc>
    <rc><c>Cu</c><c>   1</c></rc>
    <rc><c>Cu</c><c>   1</c></rc>
    <rc><c>Cu</c><c>   1</c></rc>
    <rc><c>Cu</c><c>   1</c></rc>
    <rc><c>Cu</c><c>   1</c></rc>
    <rc><c>Cu</c><c>   1</c></rc>
   </set>
  </array>
  <array name="atomtypes" >
   <dimension dim="1">type</dimension>
   <field type="int">atomspertype</field>
   <field type="string">element</field>
   <field>mass</field>
   <field>valence</field>
   <field type="string">pseudopotential</field>
   <set>
    <rc><c>  13</c><c>Cu</c><c>     63.54600000</c><c>     11.00000000</c><c>  PAW_PBE Cu 22Jun2005                  </c></rc>
   </set>
  </array>
 </atominfo>
 <structure name="initialpos" >
  <crystal>
   <varray name="basis" >
    <v>      21.67549413       0.00000000       0.00000000 </v>
    <v>       0.00000000      24.08264953       0.00000000 </v>
    <v>       0.00000000       0.00000000      22.38138909 </v>
   </varray>
   <i name="volume">  11683.15960331 </i>
   <varray name="rec_basis" >
    <v>       0.04613505       0.00000000       0.00000000 </v>
    <v>       0.00000000       0.04152367       0.00000000 </v>
    <v>       0.00000000       0.00000000       0.04467998 </v>
   </varray>
  </crystal>
  <varray name="positions" >
   <v>       0.52208783       0.45297755       0.49724501 </v>
   <v>       0.42580702       0.50775825       0.49267310 </v>
   <v>       0.59331218       0.53273661       0.50276553 </v>
   <v>       0.48059310       0.59277981       0.52908753 </v>
   <v>       0.50863399       0.55189562       0.43202471 </v>
   <v>       0.52089413       0.51391650       0.58661468 </v>
   <v>       0.44069414       0.44244272       0.57761947 </v>
   <v>       0.46928353       0.46110598       0.39952404 </v>
   <v>       0.58136647       0.47796798       0.40844571 </v>
   <v>       0.41207738       0.53963597       0.59600773 </v>
   <v>       0.57091877       0.62865957       0.47640085 </v>
   <v>       0.57915967       0.60217147       0.58145736 </v>
   <v>       0.42247005       0.40597072       0.47794230 </v>
  </varray>
 </structure>
 <calculation>
  <scstep>
   <time name="dav">   13.85   13.87</time>
   <time name="total">   17.74   17.79</time>
   <energy>
    <i name="alphaZ">     10.57885388 </i>
    <i name="ewald">  24027.52600484 </i>
    <i name="hartreedc"> -40495.83720826 </i>
    <i name="XCdc">    584.37007299 </i>
    <i name="pawpsdc">  15965.26744864 </i>
    <i name="pawaedc"> -17340.97210982 </i>
    <i name="eentropy">      0.01295442 </i>
    <i name="bandstr">    141.49140474 </i>
    <i name="atom">  18082.44932260 </i>
    <i name="e_fr_energy">    974.88674401 </i>
    <i name="e_wo_entrp">    974.87378959 </i>
    <i name="e_0_energy">    974.88242587 </i>
   </energy>
  </scstep>
  <scstep>
   <time name="dav">   15.07   15.09</time>
   <time name="total">   15.08   15.10</time>
   <energy>
    <i name="e_fr_energy">    230.95652334 </i>
    <i name="e_wo_entrp">    230.97453610 </i>
    <i name="e_0_energy">    230.96252759 </i>
   </energy>
  </scstep>
  <scstep>
   <time name="dav">   18.02   18.05</time>
   <time name="total">   18.03   18.05</time>
   <energy>
    <i name="e_fr_energy">      3.83428122 </i>
    <i name="e_wo_entrp">      3.82339625 </i>
    <i name="e_0_energy">      3.83065289 </i>
   </energy>
  </scstep>
  <scstep>
   <time name="dav">   17.12   17.15</time>
   <time name="total">   17.13   17.15</time>
   <energy>
    <i name="e_fr_energy">    -35.51005468 </i>
    <i name="e_wo_entrp">    -35.52801737 </i>
    <i name="e_0_energy">    -35.51604224 </i>
   </energy>
  </scstep>
  <scstep>
   <time name="dav">   18.34   18.36</time>
   <time name="total">   19.92   19.94</time>
   <energy>
    <i name="e_fr_energy">    -37.21271796 </i>
    <i name="e_wo_entrp">    -37.22755034 </i>
    <i name="e_0_energy">    -37.21766208 </i>
   </energy>
  </scstep>
  <scstep>
   <time name="dav">   15.81   15.83</time>
   <time name="total">   21.72   21.76</time>
   <energy>
    <i name="e_fr_energy">    -15.80055685 </i>
    <i name="e_wo_entrp">    -15.75329226 </i>
    <i name="e_0_energy">    -15.78480198 </i>
   </energy>
  </scstep>
  <scstep>
   <time name="dav">   16.96   16.99</time>
   <time name="total">   23.00   23.04</time>
   <energy>
    <i name="e_fr_energy">    -11.39543842 </i>
    <i name="e_wo_entrp">    -11.35722509 </i>
    <i name="e_0_energy">    -11.38270064 </i>
   </energy>
  </scstep>
  <scstep>
   <time name="dav">   17.58   17.61</time>
   <time name="total">   23.36   23.39</time>
   <energy>
    <i name="e_fr_energy">    -10.61234189 </i>
    <i name="e_wo_entrp">    -10.56567112 </i>
    <i name="e_0_energy">    -10.59678497 </i>
   </energy>
  </scstep>
  <scstep>
   <time name="dav">   17.71   17.73</time>
   <time name="total">   23.65   23.68</time>
   <energy>
    <i name="e_fr_energy">    -12.29655609 </i>
    <i name="e_wo_entrp">    -12.25952893 </i>
    <i name="e_0_energy">    -12.28421370 </i>
   </energy>
  </scstep>
  <scstep>
   <time name="dav">   16.82   16.84</time>
   <time name="total">   22.73   22.76</time>
   <energy>
    <i name="e_fr_energy">    -17.81816744 </i>
    <i name="e_wo_entrp">    -17.75001551 </i>
    <i name="e_0_energy">    -17.79545013 </i>
   </energy>
  </scstep>
  <scstep>
   <time name="dav">   17.90   17.92</time>
   <time name="total">   23.83   23.86</time>
   <energy>
    <i name="e_fr_energy">    -20.84860345 </i>
    <i name="e_wo_entrp">    -20.79421120 </i>
    <i name="e_0_energy">    -20.83047270 </i>
   </energy>
  </scstep>
  <scstep>
   <time name="dav">   19.87   19.90</time>
   <time name="total">   25.91   25.95</time>
   <energy>
    <i name="e_fr_energy">    -21.95922538 </i>
    <i name="e_wo_entrp">    -21.93603543 </i>
    <i name="e_0_energy">    -21.95149540 </i>
   </energy>
  </scstep>
  <scstep>
   <time name="dav">   17.31   17.33</time>
   <time name="total">   23.12   23.15</time>
   <energy>
    <i name="e_fr_energy">    -24.56082714 </i>
    <i name="e_wo_entrp">    -24.59895612 </i>
    <i name="e_0_energy">    -24.57353680 </i>
   </energy>
  </scstep>
  <scstep>
   <time name="dav">   18.74   18.77</time>
   <time name="total">   24.69   24.72</time>
   <energy>
    <i name="e_fr_energy">    -27.73464907 </i>
    <i name="e_wo_entrp">    -27.77074835 </i>
    <i name="e_0_energy">    -27.74668216 </i>
   </energy>
  </scstep>
  <scstep>
   <time name="dav">   17.89   17.91</time>
   <time name="total">   23.82   23.90</time>
   <energy>
    <i name="e_fr_energy">    -29.10523690 </i>
    <i name="e_wo_entrp">    -29.14032507 </i>
    <i name="e_0_energy">    -29.11693296 </i>
   </energy>
  </scstep>
  <scstep>
   <time name="dav">   18.14   18.17</time>
   <time name="total">   24.19   24.22</time>
   <energy>
    <i name="e_fr_energy">    -30.62575196 </i>
    <i name="e_wo_entrp">    -30.65611387 </i>
    <i name="e_0_energy">    -30.63587260 </i>
   </energy>
  </scstep>
  <scstep>
   <time name="dav">   16.54   16.56</time>
   <time name="total">   22.60   22.64</time>
   <energy>
    <i name="e_fr_energy">    -31.50391980 </i>
    <i name="e_wo_entrp">    -31.52181150 </i>
    <i name="e_0_energy">    -31.50988370 </i>
   </energy>
  </scstep>
  <scstep>
   <time name="dav">   18.18   18.21</time>
   <time name="total">   24.19   24.35</time>
   <energy>
    <i name="e_fr_energy">    -32.00765494 </i>
    <i name="e_wo_entrp">    -32.01167189 </i>
    <i name="e_0_energy">    -32.00899392 </i>
   </energy>
  </scstep>
  <scstep>
   <time name="dav">   18.28   18.30</time>
   <time name="total">   24.27   24.32</time>
   <energy>
    <i name="e_fr_energy">    -32.49905398 </i>
    <i name="e_wo_entrp">    -32.48876802 </i>
    <i name="e_0_energy">    -32.49562533 </i>
   </energy>
  </scstep>
  <scstep>
   <time name="dav">   20.29   20.31</time>
   <time name="total">   26.40   26.44</time>
   <energy>
    <i name="e_fr_energy">    -32.68099742 </i>
    <i name="e_wo_entrp">    -32.66402791 </i>
    <i name="e_0_energy">    -32.67534092 </i>
   </energy>
  </scstep>
  <scstep>
   <time name="dav">   19.12   19.14</time>
   <time name="total">   24.96   25.00</time>
   <energy>
    <i name="e_fr_energy">    -32.84765973 </i>
    <i name="e_wo_entrp">    -32.82487214 </i>
    <i name="e_0_energy">    -32.84006386 </i>
   </energy>
  </scstep>
  <scstep>
   <time name="dav">   18.47   18.51</time>
   <time name="total">   24.53   24.58</time>
   <energy>
    <i name="e_fr_energy">    -32.91887294 </i>
    <i name="e_wo_entrp">    -32.89271598 </i>
    <i name="e_0_energy">    -32.91015395 </i>
   </energy>
  </scstep>
  <scstep>
   <time name="dav">   17.04   17.06</time>
   <time name="total">   23.13   23.18</time>
   <energy>
    <i name="e_fr_energy">    -32.94936154 </i>
    <i name="e_wo_entrp">    -32.92132488 </i>
    <i name="e_0_energy">    -32.94001599 </i>
   </energy>
  </scstep>
  <scstep>
   <time name="dav">   15.97   15.99</time>
   <time name="total">   22.05   22.09</time>
   <energy>
    <i name="e_fr_energy">    -32.97007529 </i>
    <i name="e_wo_entrp">    -32.94070582 </i>
    <i name="e_0_energy">    -32.96028547 </i>
   </energy>
  </scstep>
  <scstep>
   <time name="dav">   13.01   13.02</time>
   <time name="total">   19.07   19.09</time>
   <energy>
    <i name="e_fr_energy">    -32.98286849 </i>
    <i name="e_wo_entrp">    -32.95281865 </i>
    <i name="e_0_energy">    -32.97285188 </i>
   </energy>
  </scstep>
  <scstep>
   <time name="dav">   14.94   14.96</time>
   <time name="total">   20.82   20.85</time>
   <energy>
    <i name="e_fr_energy">    -32.99715172 </i>
    <i name="e_wo_entrp">    -32.96643558 </i>
    <i name="e_0_energy">    -32.98691301 </i>
   </energy>
  </scstep>
  <scstep>
   <time name="dav">   13.65   13.66</time>
   <time name="total">   19.58   19.61</time>
   <energy>
    <i name="e_fr_energy">    -33.00415695 </i>
    <i name="e_wo_entrp">    -32.97311058 </i>
    <i name="e_0_energy">    -32.99380816 </i>
   </energy>
  </scstep>
  <scstep>
   <time name="dav">   11.91   11.93</time>
   <time name="total">   18.04   18.06</time>
   <energy>
    <i name="e_fr_energy">    -33.00734814 </i>
    <i name="e_wo_entrp">    -32.97616067 </i>
    <i name="e_0_energy">    -32.99695231 </i>
   </energy>
  </scstep>
  <scstep>
   <time name="dav">   11.94   11.96</time>
   <time name="total">   18.10   18.12</time>
   <energy>
    <i name="e_fr_energy">    -33.00990861 </i>
    <i name="e_wo_entrp">    -32.97864160 </i>
    <i name="e_0_energy">    -32.99948627 </i>
   </energy>
  </scstep>
  <scstep>
   <time name="dav">   11.50   11.52</time>
   <time name="total">   17.81   17.84</time>
   <energy>
    <i name="e_fr_energy">    -33.01239267 </i>
    <i name="e_wo_entrp">    -32.98108547 </i>
    <i name="e_0_energy">    -33.00195694 </i>
   </energy>
  </scstep>
  <scstep>
   <time name="dav">   12.21   12.23</time>
   <time name="total">   18.44   18.46</time>
   <energy>
    <i name="e_fr_energy">    -33.01328418 </i>
    <i name="e_wo_entrp">    -32.98197069 </i>
    <i name="e_0_energy">    -33.00284635 </i>
   </energy>
  </scstep>
  <scstep>
   <time name="dav">   11.33   11.35</time>
   <time name="total">   17.57   17.60</time>
   <energy>
    <i name="e_fr_energy">    -33.01360626 </i>
    <i name="e_wo_entrp">    -32.98228750 </i>
    <i name="e_0_energy">    -33.00316667 </i>
   </energy>
  </scstep>
  <scstep>
   <time name="dav">   11.49   11.50</time>
   <time name="total">   17.79   17.82</time>
   <energy>
    <i name="e_fr_energy">    -33.01390375 </i>
    <i name="e_wo_entrp">    -32.98257754 </i>
    <i name="e_0_energy">    -33.00346168 </i>
   </energy>
  </scstep>
  <scstep>
   <time name="dav">   11.63   11.65</time>
   <time name="total">   17.67   17.69</time>
   <energy>
    <i name="e_fr_energy">    -33.01407730 </i>
    <i name="e_wo_entrp">    -32.98274836 </i>
    <i name="e_0_energy">    -33.00363432 </i>
   </energy>
  </scstep>
  <scstep>
   <time name="dav">   11.02   11.04</time>
   <time name="total">   15.40   15.42</time>
   <energy>
    <i name="alphaZ">     10.57885388 </i>
    <i name="ewald">  24027.52600484 </i>
    <i name="hartreedc"> -40450.58648449 </i>
    <i name="XCdc">    574.33089152 </i>
    <i name="pawpsdc">  16685.05264160 </i>
    <i name="pawaedc"> -18078.66313209 </i>
    <i name="eentropy">     -0.03133055 </i>
    <i name="bandstr">   -883.67089983 </i>
    <i name="atom">  18082.44932260 </i>
    <i name="e_fr_energy">    -33.01413253 </i>
    <i name="e_wo_entrp">    -32.98280198 </i>
    <i name="e_0_energy">    -33.00368901 </i>
   </energy>
  </scstep>
  <structure>
   <crystal>
    <varray name="basis" >
     <v>      21.67549413       0.00000000       0.00000000 </v>
     <v>       0.00000000      24.08264953       0.00000000 </v>
     <v>       0.00000000       0.00000000      22.38138909 </v>
    </varray>
    <i name="volume">  11683.15960331 </i>
    <varray name="rec_basis" >
     <v>       0.04613505       0.00000000       0.00000000 </v>
     <v>       0.00000000       0.04152367       0.00000000 </v>
     <v>       0.00000000       0.00000000       0.04467998 </v>
    </varray>
   </crystal>
   <varray name="positions" >
    <v>       0.52208783       0.45297755       0.49724501 </v>
    <v>       0.42580702       0.50775825       0.49267310 </v>
    <v>       0.59331218       0.53273661       0.50276553 </v>
    <v>       0.48059310       0.59277981       0.52908753 </v>
    <v>       0.50863399       0.55189562       0.43202471 </v>
    <v>       0.52089413       0.51391650       0.58661468 </v>
    <v>       0.44069414       0.44244272       0.57761947 </v>
    <v>       0.46928353       0.46110598       0.39952404 </v>
    <v>       0.58136647       0.47796798       0.40844571 </v>
    <v>       0.41207738       0.53963597       0.59600773 </v>
    <v>       0.57091877       0.62865957       0.47640085 </v>
    <v>       0.57915967       0.60217147       0.58145736 </v>
    <v>       0.42247005       0.40597072       0.47794230 </v>
   </varray>
  </structure>
  <varray name="forces" >
   <v>      -0.20876219       0.03171878      -0.08231942 </v>
   <v>       0.19396692      -0.14438654       0.07651105 </v>
   <v>      -0.36120030       0.13258181      -0.07335925 </v>
   <v>       0.24824968      -0.28315735       0.04231155 </v>
   <v>       0.22799109       0.03624767       0.16315864 </v>
   <v>      -0.00856310       0.24165193      -0.10609578 </v>
   <v>      -0.04365276       0.07523582      -0.23172861 </v>
   <v>       0.06708017      -0.02615668       0.20104439 </v>
   <v>      -0.12445864       0.20785417       0.15272887 </v>
   <v>       0.24998514      -0.00630436      -0.08254281 </v>
   <v>      -0.11320101      -0.24717896      -0.15973239 </v>
   <v>      -0.23391426      -0.21126663       0.03803218 </v>
   <v>       0.10647925       0.19316032       0.06199159 </v>
  </varray>
  <energy>
   <i name="e_fr_energy">    -33.01413253 </i>
   <i name="e_wo_entrp">    -32.98280198 </i>
   <i name="e_0_energy">    -33.00368901 </i>
  </energy>
  <time name="totalsc">  762.61  764.15</time>
 </calculation>
 <calculation>
  <scstep>
   <time name="dav">   15.56   15.59</time>
   <time name="total">   21.37   21.40</time>
   <energy>
    <i name="alphaZ">     10.57885388 </i>
    <i name="ewald">  24209.15184284 </i>
    <i name="hartreedc"> -40630.60891775 </i>
    <i name="XCdc">    574.62625145 </i>
    <i name="pawpsdc">  16685.04607798 </i>
    <i name="pawaedc"> -18078.65647710 </i>
    <i name="eentropy">     -0.03263782 </i>
    <i name="bandstr">   -885.58434158 </i>
    <i name="atom">  18082.44932260 </i>
    <i name="e_fr_energy">    -33.03002552 </i>
    <i name="e_wo_entrp">    -32.99738770 </i>
    <i name="e_0_energy">    -33.01914625 </i>
   </energy>
  </scstep>
  <scstep>
   <time name="dav">   19.81   19.84</time>
   <time name="total">   25.73   25.78</time>
   <energy>
    <i name="e_fr_energy">    -33.05559764 </i>
    <i name="e_wo_entrp">    -33.02271871 </i>
    <i name="e_0_energy">    -33.04463800 </i>
   </energy>
  </scstep>
  <scstep>
   <time name="dav">   16.20   16.22</time>
   <time name="total">   22.13   22.17</time>
   <energy>
    <i name="e_fr_energy">    -33.05505644 </i>
    <i name="e_wo_entrp">    -33.02243198 </i>
    <i name="e_0_energy">    -33.04418162 </i>
   </energy>
  </scstep>
  <scstep>
   <time name="dav">   16.59   16.61</time>
   <time name="total">   22.49   22.53</time>
   <energy>
    <i name="e_fr_energy">    -33.05490974 </i>
    <i name="e_wo_entrp">    -33.02213835 </i>
    <i name="e_0_energy">    -33.04398594 </i>
   </energy>
  </scstep>
  <scstep>
   <time name="dav">   17.78   17.81</time>
   <time name="total">   22.09   22.13</time>
   <energy>
    <i name="alphaZ">     10.57885388 </i>
    <i name="ewald">  24209.15184284 </i>
    <i name="hartreedc"> -40628.77118936 </i>
    <i name="XCdc">    574.52644398 </i>
    <i name="pawpsdc">  16713.27255797 </i>
    <i name="pawaedc"> -18107.30771027 </i>
    <i name="eentropy">     -0.03290085 </i>
    <i name="bandstr">   -886.92204548 </i>
    <i name="atom">  18082.44932260 </i>
    <i name="e_fr_energy">    -33.05482471 </i>
    <i name="e_wo_entrp">    -33.02192386 </i>
    <i name="e_0_energy">    -33.04385776 </i>
   </energy>
  </scstep>
  <structure>
   <crystal>
    <varray name="basis" >
     <v>      21.67549413       0.00000000       0.00000000 </v>
     <v>       0.00000000      24.08264953       0.00000000 </v>
     <v>       0.00000000       0.00000000      22.38138909 </v>
    </varray>
    <i name="volume">  11683.15960331 </i>
    <varray name="rec_basis" >
     <v>       0.04613505       0.00000000       0.00000000 </v>
     <v>       0.00000000       0.04152367       0.00000000 </v>
     <v>       0.00000000       0.00000000       0.04467998 </v>
    </varray>
   </crystal>
   <varray name="positions" >
    <v>       0.52162320       0.45304109       0.49706757 </v>
    <v>       0.42623873       0.50746901       0.49283801 </v>
    <v>       0.59250826       0.53300220       0.50260741 </v>
    <v>       0.48114562       0.59221259       0.52917873 </v>
    <v>       0.50914142       0.55196823       0.43237639 </v>
    <v>       0.52087507       0.51440058       0.58638600 </v>
    <v>       0.44059699       0.44259343       0.57711999 </v>
    <v>       0.46943283       0.46105359       0.39995739 </v>
    <v>       0.58108947       0.47838435       0.40877491 </v>
    <v>       0.41263377       0.53962334       0.59582981 </v>
    <v>       0.57066682       0.62816442       0.47605655 </v>
    <v>       0.57863905       0.60174826       0.58153934 </v>
    <v>       0.42270704       0.40635766       0.47807592 </v>
   </varray>
  </structure>
  <varray name="forces" >
   <v>      -0.09481692       0.00682772      -0.02490421 </v>
   <v>       0.12043004      -0.04908598       0.04014062 </v>
   <v>      -0.23777179       0.06220579      -0.02672327 </v>
   <v>       0.15166759      -0.18354491       0.00626260 </v>
   <v>       0.09687371       0.02470193       0.05302107 </v>
   <v>      -0.00559593       0.08635974      -0.03872504 </v>
   <v>      -0.02978515       0.05421081      -0.12960819 </v>
   <v>       0.05533110      -0.00066674       0.11396972 </v>
   <v>      -0.06095190       0.15915489       0.09879270 </v>
   <v>       0.17546436       0.01220961      -0.03531324 </v>
   <v>      -0.05959350      -0.13049589      -0.15492317 </v>
   <v>      -0.14486873      -0.12538727       0.07292489 </v>
   <v>       0.03361712       0.08351030       0.02508551 </v>
  </varray>
  <energy>
   <i name="e_fr_energy">    -33.05482471 </i>
   <i name="e_wo_entrp">    -33.02192386 </i>
   <i name="e_0_energy">    -33.04385776 </i>
  </energy>
  <time name="totalsc">  135.93  144.87</time>
 </calculation>
 <calculation>
  <scstep>
   <time name="dav">   15.62   15.64</time>
   <time name="total">   21.38   21.42</time>
   <energy>
    <i name="alphaZ">     10.57885388 </i>
    <i name="ewald">  24452.03709317 </i>
    <i name="hartreedc"> -40869.09420520 </i>
    <i name="XCdc">    574.92469967 </i>
    <i name="pawpsdc">  16720.91845226 </i>
    <i name="pawaedc"> -18115.24148879 </i>
    <i name="eentropy">     -0.03547290 </i>
    <i name="bandstr">   -889.56475502 </i>
    <i name="atom">  18082.44932260 </i>
    <i name="e_fr_energy">    -33.02750034 </i>
    <i name="e_wo_entrp">    -32.99202743 </i>
    <i name="e_0_energy">    -33.01567604 </i>
   </energy>
  </scstep>
  <scstep>
   <time name="dav">   20.39   20.41</time>
   <time name="total">   26.20   26.24</time>
   <energy>
    <i name="e_fr_energy">    -33.07257372 </i>
    <i name="e_wo_entrp">    -33.03664250 </i>
    <i name="e_0_energy">    -33.06059665 </i>
   </energy>
  </scstep>
  <scstep>
   <time name="dav">   16.67   16.69</time>
   <time name="total">   22.45   22.48</time>
   <energy>
    <i name="e_fr_energy">    -33.07146795 </i>
    <i name="e_wo_entrp">    -33.03597321 </i>
    <i name="e_0_energy">    -33.05963637 </i>
   </energy>
  </scstep>
  <scstep>
   <time name="dav">   16.61   16.63</time>
   <time name="total">   22.26   22.30</time>
   <energy>
    <i name="e_fr_energy">    -33.07120330 </i>
    <i name="e_wo_entrp">    -33.03544259 </i>
    <i name="e_0_energy">    -33.05928306 </i>
   </energy>
  </scstep>
  <scstep>
   <time name="dav">   19.53   19.56</time>
   <time name="total">   25.42   25.46</time>
   <energy>
    <i name="e_fr_energy">    -33.07097361 </i>
    <i name="e_wo_entrp">    -33.03503187 </i>
    <i name="e_0_energy">    -33.05899303 </i>
   </energy>
  </scstep>
  <scstep>
   <time name="dav">   15.98   16.01</time>
   <time name="total">   20.08   20.12</time>
   <energy>
    <i name="alphaZ">     10.57885388 </i>
    <i name="ewald">  24452.03709317 </i>
    <i name="hartreedc"> -40866.38374607 </i>
    <i name="XCdc">    574.77847835 </i>
    <i name="pawpsdc">  16770.76681798 </i>
    <i name="pawaedc"> -18166.01160963 </i>
    <i name="eentropy">     -0.03598594 </i>
    <i name="bandstr">   -891.25029265 </i>
    <i name="atom">  18082.44932260 </i>
    <i name="e_fr_energy">    -33.07106832 </i>
    <i name="e_wo_entrp">    -33.03508238 </i>
    <i name="e_0_energy">    -33.05907301 </i>
   </energy>
  </scstep>
  <structure>
   <crystal>
    <varray name="basis" >
     <v>      21.67549413       0.00000000       0.00000000 </v>
     <v>       0.00000000      24.08264953       0.00000000 </v>
     <v>       0.00000000       0.00000000      22.38138909 </v>
    </varray>
    <i name="volume">  11683.15960331 </i>
    <varray name="rec_basis" >
     <v>       0.04613505       0.00000000       0.00000000 </v>
     <v>       0.00000000       0.04152367       0.00000000 </v>
     <v>       0.00000000       0.00000000       0.04467998 </v>
    </varray>
   </crystal>
   <varray name="positions" >
    <v>       0.52100935       0.45312504       0.49683315 </v>
    <v>       0.42680907       0.50708689       0.49305589 </v>
    <v>       0.59144619       0.53335307       0.50239850 </v>
    <v>       0.48187558       0.59146322       0.52929922 </v>
    <v>       0.50981181       0.55206416       0.43284101 </v>
    <v>       0.52084989       0.51504011       0.58608387 </v>
    <v>       0.44046863       0.44279254       0.57646010 </v>
    <v>       0.46963007       0.46098436       0.40052989 </v>
    <v>       0.58072351       0.47893444       0.40920983 </v>
    <v>       0.41336882       0.53960666       0.59559476 </v>
    <v>       0.57033396       0.62751027       0.47560169 </v>
    <v>       0.57795125       0.60118914       0.58164764 </v>
    <v>       0.42302013       0.40686885       0.47825246 </v>
   </varray>
  </structure>
  <varray name="forces" >
   <v>       0.07674589      -0.03203365       0.05811003 </v>
   <v>       0.01153529       0.09273989      -0.01458970 </v>
   <v>      -0.04185467      -0.04324624       0.04693945 </v>
   <v>      -0.00354422      -0.01761979      -0.05482693 </v>
   <v>      -0.10429943       0.01232071      -0.12020956 </v>
   <v>       0.00535388      -0.14763750       0.07183990 </v>
   <v>      -0.01091719       0.01995959       0.03239601 </v>
   <v>       0.03826016       0.03304980      -0.02124342 </v>
   <v>       0.02834790       0.08507982       0.02237867 </v>
   <v>       0.06794853       0.03711303       0.03295412 </v>
   <v>       0.01481168       0.03528417      -0.14225230 </v>
   <v>      -0.01194797       0.00245289       0.11797215 </v>
   <v>      -0.07043984      -0.07746274      -0.02946842 </v>
  </varray>
  <energy>
   <i name="e_fr_energy">    -33.07106832 </i>
   <i name="e_wo_entrp">    -33.03508238 </i>
   <i name="e_0_energy">    -33.05907301 </i>
  </energy>
  <time name="totalsc">  159.27  159.62</time>
 </calculation>
 <calculation>
  <scstep>
   <time name="dav">   14.94   14.96</time>
   <time name="total">   20.53   20.56</time>
   <energy>
    <i name="alphaZ">     10.57885388 </i>
    <i name="ewald">  24467.45964570 </i>
    <i name="hartreedc"> -40881.93514390 </i>
    <i name="XCdc">    574.79613900 </i>
    <i name="pawpsdc">  16770.89293594 </i>
    <i name="pawaedc"> -18166.15889147 </i>
    <i name="eentropy">     -0.03643688 </i>
    <i name="bandstr">   -891.11862145 </i>
    <i name="atom">  18082.44932260 </i>
    <i name="e_fr_energy">    -33.07219659 </i>
    <i name="e_wo_entrp">    -33.03575971 </i>
    <i name="e_0_energy">    -33.06005096 </i>
   </energy>
  </scstep>
  <scstep>
   <time name="dav">   19.70   19.73</time>
   <time name="total">   25.59   25.63</time>
   <energy>
    <i name="e_fr_energy">    -33.07796936 </i>
    <i name="e_wo_entrp">    -33.04141126 </i>
    <i name="e_0_energy">    -33.06578333 </i>
   </energy>
  </scstep>
  <scstep>
   <time name="dav">   16.34   16.36</time>
   <time name="total">   22.18   22.22</time>
   <energy>
    <i name="e_fr_energy">    -33.07777582 </i>
    <i name="e_wo_entrp">    -33.04133427 </i>
    <i name="e_0_energy">    -33.06562863 </i>
   </energy>
  </scstep>
  <scstep>
   <time name="dav">   14.82   14.84</time>
   <time name="total">   19.19   19.23</time>
   <energy>
    <i name="alphaZ">     10.57885388 </i>
    <i name="ewald">  24467.45964570 </i>
    <i name="hartreedc"> -40881.90967832 </i>
    <i name="XCdc">    574.78693490 </i>
    <i name="pawpsdc">  16771.69241402 </i>
    <i name="pawaedc"> -18166.87419115 </i>
    <i name="eentropy">     -0.03647223 </i>
    <i name="bandstr">   -891.22459153 </i>
    <i name="atom">  18082.44932260 </i>
    <i name="e_fr_energy">    -33.07776214 </i>
    <i name="e_wo_entrp">    -33.04128991 </i>
    <i name="e_0_energy">    -33.06560473 </i>
   </energy>
  </scstep>
  <structure>
   <crystal>
    <varray name="basis" >
     <v>      21.67549413       0.00000000       0.00000000 </v>
     <v>       0.00000000      24.08264953       0.00000000 </v>
     <v>       0.00000000       0.00000000      22.38138909 </v>
    </varray>
    <i name="volume">  11683.15960331 </i>
    <varray name="rec_basis" >
     <v>       0.04613505       0.00000000       0.00000000 </v>
     <v>       0.00000000       0.04152367       0.00000000 </v>
     <v>       0.00000000       0.00000000       0.04467998 </v>
    </varray>
   </crystal>
   <varray name="positions" >
    <v>       0.52109231       0.45306210       0.49694072 </v>
    <v>       0.42696509       0.50723897       0.49306334 </v>
    <v>       0.59109832       0.53331957       0.50248115 </v>
    <v>       0.48202375       0.59125624       0.52917592 </v>
    <v>       0.50966357       0.55211615       0.43261410 </v>
    <v>       0.52085950       0.51480477       0.58621418 </v>
    <v>       0.44041010       0.44288623       0.57640542 </v>
    <v>       0.46978046       0.46105307       0.40059604 </v>
    <v>       0.58072399       0.47926908       0.40936504 </v>
    <v>       0.41371927       0.53969703       0.59563363 </v>
    <v>       0.57030353       0.62745790       0.47511550 </v>
    <v>       0.57776862       0.60107422       0.58199258 </v>
    <v>       0.42288976       0.40678343       0.47821040 </v>
   </varray>
  </structure>
  <varray name="forces" >
   <v>       0.05401309      -0.05432606       0.05009957 </v>
   <v>      -0.00627276       0.05517170      -0.02711882 </v>
   <v>      -0.02586352      -0.00671212       0.06155198 </v>
   <v>       0.01726486       0.01186823      -0.05505215 </v>
   <v>      -0.11089374       0.02894138      -0.12526176 </v>
   <v>       0.02222321      -0.14449768       0.07893454 </v>
   <v>      -0.01703693      -0.00048217       0.03302956 </v>
   <v>       0.02370650       0.01647928      -0.01817657 </v>
   <v>       0.05092286       0.05286454      -0.00286958 </v>
   <v>       0.03146778       0.04365801       0.05092515 </v>
   <v>       0.02207143       0.02833498      -0.09198747 </v>
   <v>      -0.00730922       0.01722165       0.07360920 </v>
   <v>      -0.05429357      -0.04852175      -0.02768366 </v>
  </varray>
  <energy>
   <i name="e_fr_energy">    -33.07776214 </i>
   <i name="e_wo_entrp">    -33.04128991 </i>
   <i name="e_0_energy">    -33.06560473 </i>
  </energy>
  <time name="totalsc">  109.65  116.98</time>
 </calculation>
 <calculation>
  <scstep>
   <time name="dav">   14.99   15.01</time>
   <time name="total">   20.84   20.87</time>
   <energy>
    <i name="alphaZ">     10.57885388 </i>
    <i name="ewald">  24508.68404827 </i>
    <i name="hartreedc"> -40923.05726435 </i>
    <i name="XCdc">    574.83223110 </i>
    <i name="pawpsdc">  16771.72496853 </i>
    <i name="pawaedc"> -18166.91534589 </i>
    <i name="eentropy">     -0.03759413 </i>
    <i name="bandstr">   -891.30242292 </i>
    <i name="atom">  18082.44932260 </i>
    <i name="e_fr_energy">    -33.04320291 </i>
    <i name="e_wo_entrp">    -33.00560878 </i>
    <i name="e_0_energy">    -33.03067153 </i>
   </energy>
  </scstep>
  <scstep>
   <time name="dav">   19.67   19.70</time>
   <time name="total">   25.49   25.54</time>
   <energy>
    <i name="e_fr_energy">    -33.09005258 </i>
    <i name="e_wo_entrp">    -33.05190115 </i>
    <i name="e_0_energy">    -33.07733544 </i>
   </energy>
  </scstep>
  <scstep>
   <time name="dav">   16.30   16.32</time>
   <time name="total">   22.13   22.16</time>
   <energy>
    <i name="e_fr_energy">    -33.08782739 </i>
    <i name="e_wo_entrp">    -33.05013539 </i>
    <i name="e_0_energy">    -33.07526339 </i>
   </energy>
  </scstep>
  <scstep>
   <time name="dav">   18.18   18.20</time>
   <time name="total">   23.91   23.95</time>
   <energy>
    <i name="e_fr_energy">    -33.08749935 </i>
    <i name="e_wo_entrp">    -33.04969659 </i>
    <i name="e_0_energy">    -33.07489843 </i>
   </energy>
  </scstep>
  <scstep>
   <time name="dav">   14.87   14.89</time>
   <time name="total">   20.55   20.58</time>
   <energy>
    <i name="e_fr_energy">    -33.08673624 </i>
    <i name="e_wo_entrp">    -33.04886557 </i>
    <i name="e_0_energy">    -33.07411268 </i>
   </energy>
  </scstep>
  <scstep>
   <time name="dav">   18.55   18.58</time>
   <time name="total">   24.19   24.22</time>
   <energy>
    <i name="e_fr_energy">    -33.08652682 </i>
    <i name="e_wo_entrp">    -33.04843795 </i>
    <i name="e_0_energy">    -33.07383053 </i>
   </energy>
  </scstep>
  <scstep>
   <time name="dav">   15.70   15.72</time>
   <time name="total">   19.99   20.02</time>
   <energy>
    <i name="alphaZ">     10.57885388 </i>
    <i name="ewald">  24508.68404827 </i>
    <i name="hartreedc"> -40922.79871960 </i>
    <i name="XCdc">    574.81780527 </i>
    <i name="pawpsdc">  16776.84634695 </i>
    <i name="pawaedc"> -18172.25485785 </i>
    <i name="eentropy">     -0.03801916 </i>
    <i name="bandstr">   -891.37124750 </i>
    <i name="atom">  18082.44932260 </i>
    <i name="e_fr_energy">    -33.08646713 </i>
    <i name="e_wo_entrp">    -33.04844797 </i>
    <i name="e_0_energy">    -33.07379408 </i>
   </energy>
  </scstep>
  <structure>
   <crystal>
    <varray name="basis" >
     <v>      21.67549413       0.00000000       0.00000000 </v>
     <v>       0.00000000      24.08264953       0.00000000 </v>
     <v>       0.00000000       0.00000000      22.38138909 </v>
    </varray>
    <i name="volume">  11683.15960331 </i>
    <varray name="rec_basis" >
     <v>       0.04613505       0.00000000       0.00000000 </v>
     <v>       0.00000000       0.04152367       0.00000000 </v>
     <v>       0.00000000       0.00000000       0.04467998 </v>
    </varray>
   </crystal>
   <varray name="positions" >
    <v>       0.52131456       0.45289347       0.49722891 </v>
    <v>       0.42738313       0.50764643       0.49308329 </v>
    <v>       0.59016627       0.53322981       0.50270260 </v>
    <v>       0.48242076       0.59070169       0.52884556 </v>
    <v>       0.50926642       0.55225543       0.43200614 </v>
    <v>       0.52088525       0.51417424       0.58656331 </v>
    <v>       0.44025329       0.44313724       0.57625889 </v>
    <v>       0.47018339       0.46123714       0.40077327 </v>
    <v>       0.58072527       0.48016569       0.40978089 </v>
    <v>       0.41465821       0.53993917       0.59573779 </v>
    <v>       0.57022197       0.62731759       0.47381286 </v>
    <v>       0.57727929       0.60076630       0.58291678 </v>
    <v>       0.42254047       0.40655456       0.47809772 </v>
   </varray>
  </structure>
  <varray name="forces" >
   <v>      -0.01414108      -0.10399962       0.02817042 </v>
   <v>      -0.04057615      -0.04728279      -0.05608744 </v>
   <v>       0.00920557       0.09084578       0.09696283 </v>
   <v>       0.07688281       0.09159930      -0.05346232 </v>
   <v>      -0.11156726       0.07700217      -0.12805947 </v>
   <v>       0.06861544      -0.12266843       0.09088629 </v>
   <v>      -0.02948406      -0.04394919       0.02369579 </v>
   <v>      -0.01116532      -0.02255948      -0.00676103 </v>
   <v>       0.08812967      -0.00417501      -0.05113286 </v>
   <v>      -0.03288333       0.05513077       0.08687175 </v>
   <v>       0.01949520      -0.01602106       0.02505917 </v>
   <v>      -0.01387447       0.02144804      -0.03362055 </v>
   <v>      -0.00863702       0.02462953      -0.02252257 </v>
  </varray>
  <energy>
   <i name="e_fr_energy">    -33.08646713 </i>
   <i name="e_wo_entrp">    -33.04844797 </i>
   <i name="e_0_energy">    -33.07379408 </i>
  </energy>
  <time name="totalsc">  179.52  179.87</time>
 </calculation>
 <calculation>
  <scstep>
   <time name="dav">   14.94   14.96</time>
   <time name="total">   20.77   20.81</time>
   <energy>
    <i name="alphaZ">     10.57885388 </i>
    <i name="ewald">  24461.29864654 </i>
    <i name="hartreedc"> -40876.14463040 </i>
    <i name="XCdc">    574.74353240 </i>
    <i name="pawpsdc">  16777.03481799 </i>
    <i name="pawaedc"> -18172.45368691 </i>
    <i name="eentropy">     -0.03850315 </i>
    <i name="bandstr">   -890.55305172 </i>
    <i name="atom">  18082.44932260 </i>
    <i name="e_fr_energy">    -33.08469877 </i>
    <i name="e_wo_entrp">    -33.04619562 </i>
    <i name="e_0_energy">    -33.07186438 </i>
   </energy>
  </scstep>
  <scstep>
   <time name="dav">   19.70   19.73</time>
   <time name="total">   25.53   25.57</time>
   <energy>
    <i name="e_fr_energy">    -33.09476133 </i>
    <i name="e_wo_entrp">    -33.05603184 </i>
    <i name="e_0_energy">    -33.08185150 </i>
   </energy>
  </scstep>
  <scstep>
   <time name="dav">   16.29   16.31</time>
   <time name="total">   22.18   22.21</time>
   <energy>
    <i name="e_fr_energy">    -33.09441476 </i>
    <i name="e_wo_entrp">    -33.05577929 </i>
    <i name="e_0_energy">    -33.08153627 </i>
   </energy>
  </scstep>
  <scstep>
   <time name="dav">   15.15   15.17</time>
   <time name="total">   19.34   19.36</time>
   <energy>
    <i name="alphaZ">     10.57885388 </i>
    <i name="ewald">  24461.29864654 </i>
    <i name="hartreedc"> -40876.29738113 </i>
    <i name="XCdc">    574.75213794 </i>
    <i name="pawpsdc">  16771.59839066 </i>
    <i name="pawaedc"> -18166.81194087 </i>
    <i name="eentropy">     -0.03865574 </i>
    <i name="bandstr">   -890.62372605 </i>
    <i name="atom">  18082.44932260 </i>
    <i name="e_fr_energy">    -33.09435217 </i>
    <i name="e_wo_entrp">    -33.05569643 </i>
    <i name="e_0_energy">    -33.08146692 </i>
   </energy>
  </scstep>
  <structure>
   <crystal>
    <varray name="basis" >
     <v>      21.67549413       0.00000000       0.00000000 </v>
     <v>       0.00000000      24.08264953       0.00000000 </v>
     <v>       0.00000000       0.00000000      22.38138909 </v>
    </varray>
    <i name="volume">  11683.15960331 </i>
    <varray name="rec_basis" >
     <v>       0.04613505       0.00000000       0.00000000 </v>
     <v>       0.00000000       0.04152367       0.00000000 </v>
     <v>       0.00000000       0.00000000       0.04467998 </v>
    </varray>
   </crystal>
   <varray name="positions" >
    <v>       0.52133012       0.45257649       0.49738251 </v>
    <v>       0.42737150       0.50762630       0.49292952 </v>
    <v>       0.58995450       0.53344598       0.50303398 </v>
    <v>       0.48274730       0.59080081       0.52860952 </v>
    <v>       0.50883838       0.55249382       0.43148770 </v>
    <v>       0.52109254       0.51368983       0.58691017 </v>
    <v>       0.44012689       0.44308583       0.57628849 </v>
    <v>       0.47025393       0.46122489       0.40079951 </v>
    <v>       0.58098337       0.48038432       0.40974255 </v>
    <v>       0.41480249       0.54014632       0.59601054 </v>
    <v>       0.57025811       0.62723948       0.47355025 </v>
    <v>       0.57711339       0.60074391       0.58305823 </v>
    <v>       0.42242575       0.40656079       0.47800506 </v>
   </varray>
  </structure>
  <varray name="forces" >
   <v>      -0.00564173      -0.05987575       0.00036783 </v>
   <v>      -0.01563570      -0.03638546      -0.01194681 </v>
   <v>      -0.04641570       0.04456572       0.03280001 </v>
   <v>       0.04327684       0.00550903      -0.01685316 </v>
   <v>      -0.04983593       0.04768952      -0.09189304 </v>
   <v>       0.03299589      -0.06509945       0.05959603 </v>
   <v>      -0.03488158      -0.02365991       0.01230608 </v>
   <v>       0.00908953      -0.02205768      -0.00180130 </v>
   <v>       0.03737831       0.01912959      -0.00361554 </v>
   <v>       0.01303470       0.03534843       0.03193593 </v>
   <v>       0.03119975      -0.00017955       0.02324067 </v>
   <v>      -0.00858697       0.02677768      -0.02055056 </v>
   <v>      -0.00597741       0.02823784      -0.01358614 </v>
  </varray>
  <energy>
   <i name="e_fr_energy">    -33.09435217 </i>
   <i name="e_wo_entrp">    -33.05569643 </i>
   <i name="e_0_energy">    -33.08146692 </i>
  </energy>
  <time name="totalsc">  110.02  110.27</time>
 </calculation>
 <calculation>
  <scstep>
   <time name="dav">   15.34   15.35</time>
   <time name="total">   20.94   20.97</time>
   <energy>
    <i name="alphaZ">     10.57885388 </i>
    <i name="ewald">  24401.68719670 </i>
    <i name="hartreedc"> -40817.32810267 </i>
    <i name="XCdc">    574.65373659 </i>
    <i name="pawpsdc">  16769.39896310 </i>
    <i name="pawaedc"> -18164.53939888 </i>
    <i name="eentropy">     -0.03933696 </i>
    <i name="bandstr">   -889.94452035 </i>
    <i name="atom">  18082.44932260 </i>
    <i name="e_fr_energy">    -33.08328599 </i>
    <i name="e_wo_entrp">    -33.04394903 </i>
    <i name="e_0_energy">    -33.07017367 </i>
   </energy>
  </scstep>
  <scstep>
   <time name="dav">   20.46   20.49</time>
   <time name="total">   26.29   26.34</time>
   <energy>
    <i name="e_fr_energy">    -33.09894908 </i>
    <i name="e_wo_entrp">    -33.05942933 </i>
    <i name="e_0_energy">    -33.08577583 </i>
   </energy>
  </scstep>
  <scstep>
   <time name="dav">   13.70   13.72</time>
   <time name="total">   19.28   19.31</time>
   <energy>
    <i name="e_fr_energy">    -33.09837659 </i>
    <i name="e_wo_entrp">    -33.05888798 </i>
    <i name="e_0_energy">    -33.08521372 </i>
   </energy>
  </scstep>
  <scstep>
   <time name="dav">   14.31   14.33</time>
   <time name="total">   20.05   20.08</time>
   <energy>
    <i name="e_fr_energy">    -33.09815871 </i>
    <i name="e_wo_entrp">    -33.05867112 </i>
    <i name="e_0_energy">    -33.08499618 </i>
   </energy>
  </scstep>
  <scstep>
   <time name="dav">   19.17   19.19</time>
   <time name="total">   25.00   25.03</time>
   <energy>
    <i name="e_fr_energy">    -33.09777340 </i>
    <i name="e_wo_entrp">    -33.05826458 </i>
    <i name="e_0_energy">    -33.08460379 </i>
   </energy>
  </scstep>
  <scstep>
   <time name="dav">   18.77   18.80</time>
   <time name="total">   23.05   23.09</time>
   <energy>
    <i name="alphaZ">     10.57885388 </i>
    <i name="ewald">  24401.68719670 </i>
    <i name="hartreedc"> -40818.34917562 </i>
    <i name="XCdc">    574.70041869 </i>
    <i name="pawpsdc">  16754.45805975 </i>
    <i name="pawaedc"> -18149.39886207 </i>
    <i name="eentropy">     -0.03949266 </i>
    <i name="bandstr">   -889.18409986 </i>
    <i name="atom">  18082.44932260 </i>
    <i name="e_fr_energy">    -33.09777860 </i>
    <i name="e_wo_entrp">    -33.05828593 </i>
    <i name="e_0_energy">    -33.08461438 </i>
   </energy>
  </scstep>
  <structure>
   <crystal>
    <varray name="basis" >
     <v>      21.67549413       0.00000000       0.00000000 </v>
     <v>       0.00000000      24.08264953       0.00000000 </v>
     <v>       0.00000000       0.00000000      22.38138909 </v>
    </varray>
    <i name="volume">  11683.15960331 </i>
    <varray name="rec_basis" >
     <v>       0.04613505       0.00000000       0.00000000 </v>
     <v>       0.00000000       0.04152367       0.00000000 </v>
     <v>       0.00000000       0.00000000       0.04467998 </v>
    </varray>
   </crystal>
   <varray name="positions" >
    <v>       0.52134967       0.45217811       0.49757556 </v>
    <v>       0.42735689       0.50760101       0.49273626 </v>
    <v>       0.58968834       0.53371767       0.50345046 </v>
    <v>       0.48315772       0.59092539       0.52831285 </v>
    <v>       0.50830041       0.55279343       0.43083609 </v>
    <v>       0.52135306       0.51308101       0.58734612 </v>
    <v>       0.43996803       0.44302120       0.57632569 </v>
    <v>       0.47034257       0.46120949       0.40083248 </v>
    <v>       0.58130775       0.48065910       0.40969435 </v>
    <v>       0.41498382       0.54040666       0.59635335 </v>
    <v>       0.57030353       0.62714131       0.47322018 </v>
    <v>       0.57690489       0.60071577       0.58323600 </v>
    <v>       0.42228158       0.40656861       0.47788861 </v>
   </varray>
  </structure>
  <varray name="forces" >
   <v>       0.00233037      -0.01140142      -0.02382811 </v>
   <v>       0.01179427      -0.02121481       0.02808393 </v>
   <v>      -0.10605486      -0.01216974      -0.03908858 </v>
   <v>       0.00549338      -0.08725079       0.02129240 </v>
   <v>       0.01998607       0.00945926      -0.03910589 </v>
   <v>      -0.00850760       0.00853093       0.01295708 </v>
   <v>      -0.03500317       0.00071038      -0.00011789 </v>
   <v>       0.03208039      -0.01621151       0.00465989 </v>
   <v>      -0.01915147       0.05065722       0.04888743 </v>
   <v>       0.07059297       0.01286768      -0.02179802 </v>
   <v>       0.03776775       0.00899392       0.01733825 </v>
   <v>      -0.00710054       0.02698202      -0.00420054 </v>
   <v>      -0.00422756       0.03004687      -0.00507995 </v>
  </varray>
  <energy>
   <i name="e_fr_energy">    -33.09777860 </i>
   <i name="e_wo_entrp">    -33.05828593 </i>
   <i name="e_0_energy">    -33.08461438 </i>
  </energy>
  <time name="totalsc">  156.91  157.31</time>
 </calculation>
 <calculation>
  <scstep>
   <time name="dav">   15.53   15.56</time>
   <time name="total">   21.36   21.39</time>
   <energy>
    <i name="alphaZ">     10.57885388 </i>
    <i name="ewald">  24405.53419621 </i>
    <i name="hartreedc"> -40822.16294292 </i>
    <i name="XCdc">    574.70809238 </i>
    <i name="pawpsdc">  16754.49842607 </i>
    <i name="pawaedc"> -18149.43787213 </i>
    <i name="eentropy">     -0.04000199 </i>
    <i name="bandstr">   -889.22426646 </i>
    <i name="atom">  18082.44932260 </i>
    <i name="e_fr_energy">    -33.09619235 </i>
    <i name="e_wo_entrp">    -33.05619036 </i>
    <i name="e_0_energy">    -33.08285836 </i>
   </energy>
  </scstep>
  <scstep>
   <time name="dav">   20.08   20.10</time>
   <time name="total">   25.93   25.97</time>
   <energy>
    <i name="e_fr_energy">    -33.10111642 </i>
    <i name="e_wo_entrp">    -33.06089491 </i>
    <i name="e_0_energy">    -33.08770925 </i>
   </energy>
  </scstep>
  <scstep>
   <time name="dav">   15.13   15.15</time>
   <time name="total">   20.96   20.99</time>
   <energy>
    <i name="e_fr_energy">    -33.10098669 </i>
    <i name="e_wo_entrp">    -33.06087624 </i>
    <i name="e_0_energy">    -33.08761654 </i>
   </energy>
  </scstep>
  <scstep>
   <time name="dav">   15.35   15.37</time>
   <time name="total">   19.65   19.69</time>
   <energy>
    <i name="alphaZ">     10.57885388 </i>
    <i name="ewald">  24405.53419621 </i>
    <i name="hartreedc"> -40822.06598726 </i>
    <i name="XCdc">    574.69923787 </i>
    <i name="pawpsdc">  16754.94470273 </i>
    <i name="pawaedc"> -18149.78300479 </i>
    <i name="eentropy">     -0.04013888 </i>
    <i name="bandstr">   -889.41814451 </i>
    <i name="atom">  18082.44932260 </i>
    <i name="e_fr_energy">    -33.10096216 </i>
    <i name="e_wo_entrp">    -33.06082328 </i>
    <i name="e_0_energy">    -33.08758253 </i>
   </energy>
  </scstep>
  <structure>
   <crystal>
    <varray name="basis" >
     <v>      21.67549413       0.00000000       0.00000000 </v>
     <v>       0.00000000      24.08264953       0.00000000 </v>
     <v>       0.00000000       0.00000000      22.38138909 </v>
    </varray>
    <i name="volume">  11683.15960331 </i>
    <varray name="rec_basis" >
     <v>       0.04613505       0.00000000       0.00000000 </v>
     <v>       0.00000000       0.04152367       0.00000000 </v>
     <v>       0.00000000       0.00000000       0.04467998 </v>
    </varray>
   </crystal>
   <varray name="positions" >
    <v>       0.52136599       0.45198187       0.49756800 </v>
    <v>       0.42739424       0.50752104       0.49275883 </v>
    <v>       0.58919415       0.53378580       0.50347780 </v>
    <v>       0.48334131       0.59068758       0.52827016 </v>
    <v>       0.50815928       0.55294393       0.43043792 </v>
    <v>       0.52142570       0.51286660       0.58756570 </v>
    <v>       0.43977664       0.44299780       0.57634009 </v>
    <v>       0.47049530       0.46114995       0.40086213 </v>
    <v>       0.58136687       0.48093543       0.40984845 </v>
    <v>       0.41531443       0.54055276       0.59641263 </v>
    <v>       0.57045985       0.62713183       0.47315017 </v>
    <v>       0.57679584       0.60079345       0.58329192 </v>
    <v>       0.42220867       0.40667071       0.47782422 </v>
   </varray>
  </structure>
  <varray name="forces" >
   <v>      -0.00069115      -0.00721925      -0.00744833 </v>
   <v>       0.02252477      -0.00758830       0.02196710 </v>
   <v>      -0.09455431      -0.01735410      -0.02871847 </v>
   <v>       0.00893821      -0.07916352       0.00274377 </v>
   <v>       0.01267778       0.01880838      -0.02399693 </v>
   <v>      -0.00081229       0.00822534       0.00854847 </v>
   <v>      -0.02512159       0.00639545       0.00067996 </v>
   <v>       0.03199364      -0.01092443      -0.00392614 </v>
   <v>      -0.01762169       0.03931286       0.03522800 </v>
   <v>       0.05173895       0.00337469      -0.01742793 </v>
   <v>       0.02590676       0.01094135       0.01866490 </v>
   <v>      -0.00310299       0.02071880      -0.00273500 </v>
   <v>      -0.01187609       0.01447273      -0.00357940 </v>
  </varray>
  <energy>
   <i name="e_fr_energy">    -33.10096216 </i>
   <i name="e_wo_entrp">    -33.06082328 </i>
   <i name="e_0_energy">    -33.08758253 </i>
  </energy>
  <time name="totalsc">  109.44  110.35</time>
 </calculation>
 <calculation>
  <scstep>
   <time name="dav">   15.33   15.35</time>
   <time name="total">   21.06   21.09</time>
   <energy>
    <i name="alphaZ">     10.57885388 </i>
    <i name="ewald">  24416.01009919 </i>
    <i name="hartreedc"> -40832.50750895 </i>
    <i name="XCdc">    574.72701211 </i>
    <i name="pawpsdc">  16754.92192831 </i>
    <i name="pawaedc"> -18149.77899323 </i>
    <i name="eentropy">     -0.04160492 </i>
    <i name="bandstr">   -889.41686216 </i>
    <i name="atom">  18082.44932260 </i>
    <i name="e_fr_energy">    -33.05775318 </i>
    <i name="e_wo_entrp">    -33.01614826 </i>
    <i name="e_0_energy">    -33.04388488 </i>
   </energy>
  </scstep>
  <scstep>
   <time name="dav">   20.19   20.22</time>
   <time name="total">   26.01   26.05</time>
   <energy>
    <i name="e_fr_energy">    -33.10988139 </i>
    <i name="e_wo_entrp">    -33.06757400 </i>
    <i name="e_0_energy">    -33.09577892 </i>
   </energy>
  </scstep>
  <scstep>
   <time name="dav">   15.99   16.01</time>
   <time name="total">   21.87   21.91</time>
   <energy>
    <i name="e_fr_energy">    -33.10693186 </i>
    <i name="e_wo_entrp">    -33.06490782 </i>
    <i name="e_0_energy">    -33.09292385 </i>
   </energy>
  </scstep>
  <scstep>
   <time name="dav">   16.16   16.18</time>
   <time name="total">   21.78   21.81</time>
   <energy>
    <i name="e_fr_energy">    -33.10670508 </i>
    <i name="e_wo_entrp">    -33.06465665 </i>
    <i name="e_0_energy">    -33.09268893 </i>
   </energy>
  </scstep>
  <scstep>
   <time name="dav">   17.58   17.60</time>
   <time name="total">   23.41   23.45</time>
   <energy>
    <i name="e_fr_energy">    -33.10554152 </i>
    <i name="e_wo_entrp">    -33.06350664 </i>
    <i name="e_0_energy">    -33.09152989 </i>
   </energy>
  </scstep>
  <scstep>
   <time name="dav">   21.76   21.78</time>
   <time name="total">   27.59   27.63</time>
   <energy>
    <i name="e_fr_energy">    -33.10519375 </i>
    <i name="e_wo_entrp">    -33.06294843 </i>
    <i name="e_0_energy">    -33.09111198 </i>
   </energy>
  </scstep>
  <scstep>
   <time name="dav">   15.55   15.57</time>
   <time name="total">   19.81   19.84</time>
   <energy>
    <i name="alphaZ">     10.57885388 </i>
    <i name="ewald">  24416.01009919 </i>
    <i name="hartreedc"> -40832.36306421 </i>
    <i name="XCdc">    574.72102144 </i>
    <i name="pawpsdc">  16757.85910796 </i>
    <i name="pawaedc"> -18152.93444993 </i>
    <i name="eentropy">     -0.04210968 </i>
    <i name="bandstr">   -889.38393707 </i>
    <i name="atom">  18082.44932260 </i>
    <i name="e_fr_energy">    -33.10515583 </i>
    <i name="e_wo_entrp">    -33.06304615 </i>
    <i name="e_0_energy">    -33.09111927 </i>
   </energy>
  </scstep>
  <structure>
   <crystal>
    <varray name="basis" >
     <v>      21.67549413       0.00000000       0.00000000 </v>
     <v>       0.00000000      24.08264953       0.00000000 </v>
     <v>       0.00000000       0.00000000      22.38138909 </v>
    </varray>
    <i name="volume">  11683.15960331 </i>
    <varray name="rec_basis" >
     <v>       0.04613505       0.00000000       0.00000000 </v>
     <v>       0.00000000       0.04152367       0.00000000 </v>
     <v>       0.00000000       0.00000000       0.04467998 </v>
    </varray>
   </crystal>
   <varray name="positions" >
    <v>       0.52141494       0.45139313       0.49754530 </v>
    <v>       0.42750629       0.50728115       0.49282654 </v>
    <v>       0.58771156       0.53399019       0.50355982 </v>
    <v>       0.48389207       0.58997416       0.52814207 </v>
    <v>       0.50773587       0.55339544       0.42924341 </v>
    <v>       0.52164361       0.51222337       0.58822444 </v>
    <v>       0.43920245       0.44292760       0.57638329 </v>
    <v>       0.47095349       0.46097134       0.40095109 </v>
    <v>       0.58154422       0.48176442       0.41031073 </v>
    <v>       0.41630626       0.54099104       0.59659048 </v>
    <v>       0.57092883       0.62710340       0.47294012 </v>
    <v>       0.57646872       0.60102648       0.58345969 </v>
    <v>       0.42198996       0.40697702       0.47763104 </v>
   </varray>
  </structure>
  <varray name="forces" >
   <v>      -0.01681204       0.01204163       0.04133751 </v>
   <v>       0.04707891       0.03052855      -0.00220165 </v>
   <v>      -0.03129540      -0.03204867      -0.00364311 </v>
   <v>       0.01288876      -0.04451360      -0.05657228 </v>
   <v>       0.00097794       0.03412700       0.05091776 </v>
   <v>       0.01366724       0.01443597      -0.02283005 </v>
   <v>       0.00695191       0.02293801       0.00241903 </v>
   <v>       0.02560311       0.00740419      -0.02729057 </v>
   <v>      -0.01501168       0.00753841      -0.00424339 </v>
   <v>      -0.00514586      -0.03216624       0.00279977 </v>
   <v>      -0.01146864       0.00883299       0.01589766 </v>
   <v>       0.00506781      -0.00000072       0.00215854 </v>
   <v>      -0.03250208      -0.02911752       0.00125076 </v>
  </varray>
  <energy>
   <i name="e_fr_energy">    -33.10515583 </i>
   <i name="e_wo_entrp">    -33.06304615 </i>
   <i name="e_0_energy">    -33.09111927 </i>
  </energy>
  <time name="totalsc">  183.74  187.74</time>
 </calculation>
 <calculation>
  <scstep>
   <time name="dav">   15.19   15.21</time>
   <time name="total">   21.11   21.14</time>
   <energy>
    <i name="alphaZ">     10.57885388 </i>
    <i name="ewald">  24443.05905051 </i>
    <i name="hartreedc"> -40859.40599749 </i>
    <i name="XCdc">    574.76234783 </i>
    <i name="pawpsdc">  16758.06694085 </i>
    <i name="pawaedc"> -18153.13130035 </i>
    <i name="eentropy">     -0.04126883 </i>
    <i name="bandstr">   -889.43827545 </i>
    <i name="atom">  18082.44932260 </i>
    <i name="e_fr_energy">    -33.10032645 </i>
    <i name="e_wo_entrp">    -33.05905762 </i>
    <i name="e_0_energy">    -33.08657018 </i>
   </energy>
  </scstep>
  <scstep>
   <time name="dav">   18.16   18.18</time>
   <time name="total">   23.70   23.73</time>
   <energy>
    <i name="e_fr_energy">    -33.10677117 </i>
    <i name="e_wo_entrp">    -33.06518359 </i>
    <i name="e_0_energy">    -33.09290865 </i>
   </energy>
  </scstep>
  <scstep>
   <time name="dav">   14.45   14.46</time>
   <time name="total">   20.10   20.14</time>
   <energy>
    <i name="e_fr_energy">    -33.10654340 </i>
    <i name="e_wo_entrp">    -33.06518410 </i>
    <i name="e_0_energy">    -33.09275697 </i>
   </energy>
  </scstep>
  <scstep>
   <time name="dav">   15.64   15.66</time>
   <time name="total">   21.51   21.54</time>
   <energy>
    <i name="e_fr_energy">    -33.10656331 </i>
    <i name="e_wo_entrp">    -33.06520712 </i>
    <i name="e_0_energy">    -33.09277791 </i>
   </energy>
  </scstep>
  <scstep>
   <time name="dav">   10.46   10.48</time>
   <time name="total">   14.59   14.61</time>
   <energy>
    <i name="alphaZ">     10.57885388 </i>
    <i name="ewald">  24443.05905051 </i>
    <i name="hartreedc"> -40858.99511384 </i>
    <i name="XCdc">    574.73981824 </i>
    <i name="pawpsdc">  16761.07079361 </i>
    <i name="pawaedc"> -18156.05128722 </i>
    <i name="eentropy">     -0.04130351 </i>
    <i name="bandstr">   -889.91665310 </i>
    <i name="atom">  18082.44932260 </i>
    <i name="e_fr_energy">    -33.10651884 </i>
    <i name="e_wo_entrp">    -33.06521534 </i>
    <i name="e_0_energy">    -33.09275101 </i>
   </energy>
  </scstep>
  <structure>
   <crystal>
    <varray name="basis" >
     <v>      21.67549413       0.00000000       0.00000000 </v>
     <v>       0.00000000      24.08264953       0.00000000 </v>
     <v>       0.00000000       0.00000000      22.38138909 </v>
    </varray>
    <i name="volume">  11683.15960331 </i>
    <varray name="rec_basis" >
     <v>       0.04613505       0.00000000       0.00000000 </v>
     <v>       0.00000000       0.04152367       0.00000000 </v>
     <v>       0.00000000       0.00000000       0.04467998 </v>
    </varray>
   </crystal>
   <varray name="positions" >
    <v>       0.52132920       0.45130368       0.49777385 </v>
    <v>       0.42781110       0.50737975       0.49283164 </v>
    <v>       0.58714319       0.53387435       0.50356046 </v>
    <v>       0.48411060       0.58955423       0.52778795 </v>
    <v>       0.50763162       0.55369260       0.42922193 </v>
    <v>       0.52178025       0.51213239       0.58826607 </v>
    <v>       0.43909402       0.44303027       0.57640823 </v>
    <v>       0.47122244       0.46096397       0.40081942 </v>
    <v>       0.58150237       0.48201948       0.41040674 </v>
    <v>       0.41653375       0.54093534       0.59665255 </v>
    <v>       0.57098349       0.62714258       0.47297573 </v>
    <v>       0.57641343       0.60108700       0.58351551 </v>
    <v>       0.42174281       0.40690310       0.47758795 </v>
   </varray>
  </structure>
  <varray name="forces" >
   <v>      -0.02648195      -0.02532378       0.01125671 </v>
   <v>       0.01137175      -0.01594925      -0.02271707 </v>
   <v>       0.02911840       0.00355032       0.00563846 </v>
   <v>       0.00101508       0.01347149       0.00672987 </v>
   <v>      -0.00448640       0.00728994      -0.02712638 </v>
   <v>       0.00751800       0.00449349       0.01925572 </v>
   <v>       0.00233634       0.00384617      -0.00331564 </v>
   <v>       0.00808774       0.00420714       0.00947460 </v>
   <v>      -0.01129048      -0.00146621      -0.01435990 </v>
   <v>      -0.01664749      -0.01438371       0.00725702 </v>
   <v>       0.00263431       0.01590186       0.01417606 </v>
   <v>      -0.00070255      -0.00750747      -0.00428360 </v>
   <v>      -0.00247274       0.01187003      -0.00198585 </v>
  </varray>
  <energy>
   <i name="e_fr_energy">    -33.10651884 </i>
   <i name="e_wo_entrp">    -33.06521534 </i>
   <i name="e_0_energy">    -33.09275101 </i>
  </energy>
  <time name="totalsc">  122.93  123.16</time>
 </calculation>
 <calculation>
  <scstep>
   <time name="dav">   19.06   19.09</time>
   <time name="total">   24.91   24.96</time>
   <energy>
    <i name="alphaZ">     10.57885388 </i>
    <i name="ewald">  24440.40935382 </i>
    <i name="hartreedc"> -40856.37554741 </i>
    <i name="XCdc">    574.73702361 </i>
    <i name="pawpsdc">  16762.16868562 </i>
    <i name="pawaedc"> -18157.21158286 </i>
    <i name="eentropy">     -0.04142122 </i>
    <i name="bandstr">   -889.82122050 </i>
    <i name="atom">  18082.44932260 </i>
    <i name="e_fr_energy">    -33.10653248 </i>
    <i name="e_wo_entrp">    -33.06511126 </i>
    <i name="e_0_energy">    -33.09272540 </i>
   </energy>
  </scstep>
  <scstep>
   <time name="dav">   15.27   15.29</time>
   <time name="total">   19.48   19.51</time>
   <energy>
    <i name="alphaZ">     10.57885388 </i>
    <i name="ewald">  24440.40935382 </i>
    <i name="hartreedc"> -40856.53524729 </i>
    <i name="XCdc">    574.74327781 </i>
    <i name="pawpsdc">  16762.25137053 </i>
    <i name="pawaedc"> -18157.32925662 </i>
    <i name="eentropy">     -0.04129835 </i>
    <i name="bandstr">   -889.63293901 </i>
    <i name="atom">  18082.44932260 </i>
    <i name="e_fr_energy">    -33.10656264 </i>
    <i name="e_wo_entrp">    -33.06526430 </i>
    <i name="e_0_energy">    -33.09279653 </i>
   </energy>
  </scstep>
  <structure>
   <crystal>
    <varray name="basis" >
     <v>      21.67549413       0.00000000       0.00000000 </v>
     <v>       0.00000000      24.08264953       0.00000000 </v>
     <v>       0.00000000       0.00000000      22.38138909 </v>
    </varray>
    <i name="volume">  11683.15960331 </i>
    <varray name="rec_basis" >
     <v>       0.04613505       0.00000000       0.00000000 </v>
     <v>       0.00000000       0.04152367       0.00000000 </v>
     <v>       0.00000000       0.00000000       0.04467998 </v>
    </varray>
   </crystal>
   <varray name="positions" >
    <v>       0.52133760       0.45131244       0.49775146 </v>
    <v>       0.42778124       0.50737009       0.49283114 </v>
    <v>       0.58719887       0.53388570       0.50356040 </v>
    <v>       0.48408920       0.58959537       0.52782264 </v>
    <v>       0.50764183       0.55366349       0.42922403 </v>
    <v>       0.52176686       0.51214130       0.58826199 </v>
    <v>       0.43910464       0.44302022       0.57640579 </v>
    <v>       0.47119610       0.46096469       0.40083232 </v>
    <v>       0.58150647       0.48199450       0.41039734 </v>
    <v>       0.41651147       0.54094080       0.59664647 </v>
    <v>       0.57097813       0.62713874       0.47297224 </v>
    <v>       0.57641884       0.60108107       0.58351004 </v>
    <v>       0.42176702       0.40691034       0.47759217 </v>
   </varray>
  </structure>
  <varray name="forces" >
   <v>      -0.02618312      -0.02042606       0.01644075 </v>
   <v>       0.01770175      -0.00990722      -0.01947111 </v>
   <v>       0.01726501      -0.00022730       0.00287367 </v>
   <v>       0.00498885       0.00285237      -0.00163212 </v>
   <v>      -0.00375618       0.01073899      -0.01640068 </v>
   <v>       0.00958283       0.00593135       0.01331229 </v>
   <v>       0.00129213       0.00748577      -0.00370540 </v>
   <v>       0.01190494       0.00387078       0.00526121 </v>
   <v>      -0.01265738       0.00241820      -0.01167392 </v>
   <v>      -0.01183451      -0.01712701       0.00672934 </v>
   <v>       0.00166098       0.01395477       0.01497549 </v>
   <v>      -0.00145299      -0.00600537      -0.00398127 </v>
   <v>      -0.00851232       0.00644072      -0.00272825 </v>
  </varray>
  <energy>
   <i name="e_fr_energy">    -33.10656264 </i>
   <i name="e_wo_entrp">    -33.06526430 </i>
   <i name="e_0_energy">    -33.09279653 </i>
  </energy>
  <time name="totalsc">   66.41   66.62</time>
 </calculation>
 <calculation>
  <scstep>
   <time name="dav">   15.13   15.15</time>
   <time name="total">   20.95   20.99</time>
   <energy>
    <i name="alphaZ">     10.57885388 </i>
[...]
       <r>    -1.3096     4.9519    80.2938 </r>
       <r>    -1.2599     6.3911    80.6110 </r>
       <r>    -1.2103     7.4582    80.9813 </r>
       <r>    -1.1606     7.4626    81.3518 </r>
       <r>    -1.1110     6.3322    81.6662 </r>
       <r>    -1.0613     4.6914    81.8991 </r>
       <r>    -1.0117     3.4031    82.0680 </r>
       <r>    -0.9621     2.9724    82.2156 </r>
       <r>    -0.9124     3.2974    82.3793 </r>
       <r>    -0.8628     3.9077    82.5733 </r>
       <r>    -0.8131     4.3977    82.7916 </r>
       <r>    -0.7635     4.6421    83.0221 </r>
       <r>    -0.7138     4.6727    83.2541 </r>
       <r>    -0.6642     4.4649    83.4758 </r>
       <r>    -0.6145     3.9364    83.6712 </r>
       <r>    -0.5649     3.1446    83.8273 </r>
       <r>    -0.5152     2.3980    83.9464 </r>
       <r>    -0.4656     2.0926    84.0502 </r>
       <r>    -0.4159     2.4198    84.1704 </r>
       <r>    -0.3663     3.2595    84.3322 </r>
       <r>    -0.3167     4.3636    84.5488 </r>
       <r>    -0.2670     5.6086    84.8273 </r>
       <r>    -0.2174     7.0155    85.1756 </r>
       <r>    -0.1677     8.5134    85.5982 </r>
       <r>    -0.1181     9.7459    86.0821 </r>
       <r>    -0.0684    10.2075    86.5889 </r>
       <r>    -0.0188     9.6552    87.0682 </r>
       <r>     0.0309     8.4385    87.4871 </r>
       <r>     0.0805     7.4230    87.8557 </r>
       <r>     0.1302     7.5028    88.2282 </r>
       <r>     0.1798     9.0068    88.6753 </r>
       <r>     0.2295    11.3944    89.2410 </r>
       <r>     0.2791    13.4691    89.9097 </r>
       <r>     0.3288    14.0181    90.6056 </r>
       <r>     0.3784    12.4990    91.2262 </r>
       <r>     0.4280     9.3303    91.6894 </r>
       <r>     0.4777     5.5987    91.9673 </r>
       <r>     0.5273     2.4159    92.0873 </r>
       <r>     0.5770     0.3854    92.1064 </r>
       <r>     0.6266    -0.5103    92.0811 </r>
       <r>     0.6763    -0.6599    92.0483 </r>
       <r>     0.7259    -0.4907    92.0240 </r>
       <r>     0.7756    -0.2784    92.0101 </r>
       <r>     0.8252    -0.1295    92.0037 </r>
       <r>     0.8749    -0.0509    92.0012 </r>
       <r>     0.9245    -0.0172    92.0003 </r>
       <r>     0.9742    -0.0050    92.0001 </r>
       <r>     1.0238    -0.0013    92.0000 </r>
       <r>     1.0734    -0.0003    92.0000 </r>
       <r>     1.1231    -0.0001    92.0000 </r>
       <r>     1.1727    -0.0000    92.0000 </r>
       <r>     1.2224    -0.0000    92.0000 </r>
       <r>     1.2720    -0.0000    92.0000 </r>
       <r>     1.3217    -0.0000    92.0000 </r>
       <r>     1.3713    -0.0000    92.0000 </r>
       <r>     1.4210    -0.0000    92.0000 </r>
       <r>     1.4706    -0.0000    92.0000 </r>
       <r>     1.5203    -0.0000    92.0000 </r>
       <r>     1.5699    -0.0000    92.0000 </r>
       <r>     1.6196    -0.0000    92.0000 </r>
       <r>     1.6692     0.0000    92.0000 </r>
       <r>     1.7188     0.0000    92.0000 </r>
       <r>     1.7685     0.0000    92.0000 </r>
       <r>     1.8181     0.0000    92.0000 </r>
       <r>     1.8678     0.0000    92.0000 </r>
       <r>     1.9174     0.0000    92.0000 </r>
       <r>     1.9671     0.0000    92.0000 </r>
       <r>     2.0167     0.0000    92.0000 </r>
       <r>     2.0664     0.0000    92.0000 </r>
       <r>     2.1160     0.0000    92.0000 </r>
       <r>     2.1657     0.0000    92.0000 </r>
       <r>     2.2153     0.0000    92.0000 </r>
       <r>     2.2650     0.0000    92.0000 </r>
       <r>     2.3146     0.0000    92.0000 </r>
       <r>     2.3642     0.0000    92.0000 </r>
      </set>
      <set comment="spin 2">
       <r>   -12.5297     0.0000     0.0000 </r>
       <r>   -12.4800     0.0000     0.0000 </r>
       <r>   -12.4304     0.0000     0.0000 </r>
       <r>   -12.3807     0.0000     0.0000 </r>
       <r>   -12.3311     0.0000     0.0000 </r>
       <r>   -12.2814     0.0000     0.0000 </r>
       <r>   -12.2318     0.0000     0.0000 </r>
       <r>   -12.1821     0.0000     0.0000 </r>
       <r>   -12.1325    -0.0000    -0.0000 </r>
       <r>   -12.0828    -0.0000    -0.0000 </r>
       <r>   -12.0332    -0.0000    -0.0000 </r>
       <r>   -11.9835    -0.0000    -0.0000 </r>
       <r>   -11.9339    -0.0000    -0.0000 </r>
       <r>   -11.8842    -0.0000    -0.0000 </r>
       <r>   -11.8346    -0.0000    -0.0000 </r>
       <r>   -11.7850    -0.0000    -0.0000 </r>
       <r>   -11.7353    -0.0000    -0.0000 </r>
       <r>   -11.6857    -0.0000    -0.0000 </r>
       <r>   -11.6360    -0.0000    -0.0000 </r>
       <r>   -11.5864    -0.0000    -0.0000 </r>
       <r>   -11.5367    -0.0000    -0.0000 </r>
       <r>   -11.4871    -0.0000    -0.0000 </r>
       <r>   -11.4374    -0.0000    -0.0000 </r>
       <r>   -11.3878    -0.0000    -0.0000 </r>
       <r>   -11.3381    -0.0000    -0.0000 </r>
       <r>   -11.2885    -0.0000    -0.0000 </r>
       <r>   -11.2388    -0.0001    -0.0000 </r>
       <r>   -11.1892    -0.0003    -0.0000 </r>
       <r>   -11.1396    -0.0011    -0.0001 </r>
       <r>   -11.0899    -0.0040    -0.0003 </r>
       <r>   -11.0403    -0.0128    -0.0009 </r>
       <r>   -10.9906    -0.0349    -0.0026 </r>
       <r>   -10.9410    -0.0801    -0.0066 </r>
       <r>   -10.8913    -0.1506    -0.0141 </r>
       <r>   -10.8417    -0.2174    -0.0249 </r>
       <r>   -10.7920    -0.1918    -0.0344 </r>
       <r>   -10.7424     0.0775    -0.0306 </r>
       <r>   -10.6927     0.7366     0.0060 </r>
       <r>   -10.6431     1.7935     0.0950 </r>
       <r>   -10.5934     3.0082     0.2444 </r>
       <r>   -10.5438     3.9391     0.4400 </r>
       <r>   -10.4942     4.1761     0.6473 </r>
       <r>   -10.4445     3.6072     0.8264 </r>
       <r>   -10.3949     2.4963     0.9503 </r>
       <r>   -10.3452     1.3031     1.0150 </r>
       <r>   -10.2956     0.4023     1.0350 </r>
       <r>   -10.2459    -0.0780     1.0311 </r>
       <r>   -10.1963    -0.2227     1.0200 </r>
       <r>   -10.1466    -0.1934     1.0104 </r>
       <r>   -10.0970    -0.1182     1.0046 </r>
       <r>   -10.0473    -0.0575     1.0017 </r>
       <r>    -9.9977    -0.0233     1.0006 </r>
       <r>    -9.9480    -0.0080     1.0002 </r>
       <r>    -9.8984    -0.0024     1.0000 </r>
       <r>    -9.8487    -0.0006     1.0000 </r>
       <r>    -9.7991    -0.0001     1.0000 </r>
       <r>    -9.7495    -0.0000     1.0000 </r>
       <r>    -9.6998    -0.0001     1.0000 </r>
       <r>    -9.6502    -0.0005     1.0000 </r>
       <r>    -9.6005    -0.0021     0.9999 </r>
       <r>    -9.5509    -0.0073     0.9995 </r>
       <r>    -9.5012    -0.0215     0.9984 </r>
       <r>    -9.4516    -0.0539     0.9958 </r>
       <r>    -9.4019    -0.1127     0.9902 </r>
       <r>    -9.3523    -0.1888     0.9808 </r>
       <r>    -9.3026    -0.2276     0.9695 </r>
       <r>    -9.2530    -0.1092     0.9641 </r>
       <r>    -9.2033     0.3222     0.9801 </r>
       <r>    -9.1537     1.1528     1.0373 </r>
       <r>    -9.1041     2.2689     1.1499 </r>
       <r>    -9.0544     3.3300     1.3153 </r>
       <r>    -9.0048     3.9447     1.5111 </r>
       <r>    -8.9551     3.9628     1.7078 </r>
       <r>    -8.9055     3.6244     1.8878 </r>
       <r>    -8.8558     3.3819     2.0557 </r>
       <r>    -8.8062     3.5118     2.2300 </r>
       <r>    -8.7565     3.8679     2.4220 </r>
       <r>    -8.7069     4.0124     2.6212 </r>
       <r>    -8.6572     3.5974     2.7998 </r>
       <r>    -8.6076     2.6421     2.9310 </r>
       <r>    -8.5579     1.4827     3.0046 </r>
       <r>    -8.5083     0.4949     3.0292 </r>
       <r>    -8.4587    -0.1368     3.0224 </r>
       <r>    -8.4090    -0.4412     3.0005 </r>
       <r>    -8.3594    -0.5169     2.9748 </r>
       <r>    -8.3097    -0.3779     2.9561 </r>
       <r>    -8.2601     0.0926     2.9607 </r>
       <r>    -8.2104     1.0527     3.0129 </r>
       <r>    -8.1608     2.5334     3.1387 </r>
       <r>    -8.1111     4.3059     3.3525 </r>
       <r>    -8.0615     5.8941     3.6451 </r>
       <r>    -8.0118     6.7600     3.9807 </r>
       <r>    -7.9622     6.5817     4.3075 </r>
       <r>    -7.9125     5.4769     4.5794 </r>
       <r>    -7.8629     4.0338     4.7796 </r>
       <r>    -7.8132     3.0771     4.9324 </r>
       <r>    -7.7636     3.2464     5.0936 </r>
       <r>    -7.7140     4.6411     5.3240 </r>
       <r>    -7.6643     6.8134     5.6623 </r>
       <r>    -7.6147     9.1398     6.1160 </r>
       <r>    -7.5650    11.2317     6.6736 </r>
       <r>    -7.5154    12.9955     7.3188 </r>
       <r>    -7.4657    14.3557     8.0315 </r>
       <r>    -7.4161    15.0714     8.7798 </r>
       <r>    -7.3664    14.9443     9.5217 </r>
       <r>    -7.3168    14.1714    10.2252 </r>
       <r>    -7.2671    13.3484    10.8879 </r>
       <r>    -7.2175    13.0232    11.5345 </r>
       <r>    -7.1678    13.2583    12.1927 </r>
       <r>    -7.1182    13.6703    12.8714 </r>
       <r>    -7.0686    13.8933    13.5612 </r>
       <r>    -7.0189    13.9773    14.2551 </r>
       <r>    -6.9693    14.3554    14.9678 </r>
       <r>    -6.9196    15.4568    15.7351 </r>
       <r>    -6.8700    17.3064    16.5943 </r>
       <r>    -6.8203    19.3899    17.5570 </r>
       <r>    -6.7707    20.8636    18.5928 </r>
       <r>    -6.7210    21.0072    19.6357 </r>
       <r>    -6.6714    19.6616    20.6118 </r>
       <r>    -6.6217    17.3537    21.4734 </r>
       <r>    -6.5721    15.0212    22.2191 </r>
       <r>    -6.5224    13.5718    22.8929 </r>
       <r>    -6.4728    13.5849    23.5674 </r>
       <r>    -6.4232    15.2140    24.3227 </r>
       <r>    -6.3735    18.1316    25.2228 </r>
       <r>    -6.3239    21.4992    26.2902 </r>
       <r>    -6.2742    24.1838    27.4908 </r>
       <r>    -6.2246    25.3242    28.7481 </r>
       <r>    -6.1749    24.9055    29.9846 </r>
       <r>    -6.1253    23.8267    31.1675 </r>
       <r>    -6.0756    23.3304    32.3257 </r>
       <r>    -6.0260    24.2248    33.5284 </r>
       <r>    -5.9763    26.4818    34.8431 </r>
       <r>    -5.9267    29.4473    36.3051 </r>
       <r>    -5.8770    32.3995    37.9136 </r>
       <r>    -5.8274    34.9518    39.6488 </r>
       <r>    -5.7777    37.0197    41.4867 </r>
       <r>    -5.7281    38.5375    43.4000 </r>
       <r>    -5.6785    39.3463    45.3534 </r>
       <r>    -5.6288    39.4160    47.3102 </r>
       <r>    -5.5792    39.1314    49.2529 </r>
       <r>    -5.5295    39.2527    51.2017 </r>
       <r>    -5.4799    40.4576    53.2103 </r>
       <r>    -5.4302    42.7550    55.3329 </r>
       <r>    -5.3806    45.2108    57.5775 </r>
       <r>    -5.3309    46.2631    59.8742 </r>
       <r>    -5.2813    44.5042    62.0837 </r>
       <r>    -5.2316    39.4608    64.0428 </r>
       <r>    -5.1820    31.8778    65.6254 </r>
       <r>    -5.1323    23.3676    66.7855 </r>
       <r>    -5.0827    15.6966    67.5648 </r>
       <r>    -5.0331    10.1228    68.0674 </r>
       <r>    -4.9834     7.0455    68.4172 </r>
       <r>    -4.9338     6.0209    68.7161 </r>
       <r>    -4.8841     6.0735    69.0176 </r>
       <r>    -4.8345     6.1648    69.3237 </r>
       <r>    -4.7848     5.6208    69.6027 </r>
       <r>    -4.7352     4.3307    69.8177 </r>
       <r>    -4.6855     2.6521    69.9494 </r>
       <r>    -4.6359     1.1326    70.0056 </r>
       <r>    -4.5862     0.2350    70.0173 </r>
       <r>    -4.5366     0.1859    70.0265 </r>
       <r>    -4.4869     0.9315    70.0728 </r>
       <r>    -4.4373     2.1459    70.1793 </r>
       <r>    -4.3877     3.3067    70.3435 </r>
       <r>    -4.3380     3.8988    70.5370 </r>
       <r>    -4.2884     3.7007    70.7207 </r>
       <r>    -4.2387     2.9550    70.8674 </r>
       <r>    -4.1891     2.2409    70.9787 </r>
       <r>    -4.1394     2.0908    71.0825 </r>
       <r>    -4.0898     2.6188    71.2125 </r>
       <r>    -4.0401     3.4432    71.3834 </r>
       <r>    -3.9905     3.9610    71.5801 </r>
       <r>    -3.9408     3.7634    71.7669 </r>
       <r>    -3.8912     2.8775    71.9098 </r>
       <r>    -3.8415     1.6785    71.9931 </r>
       <r>    -3.7919     0.5923    72.0225 </r>
       <r>    -3.7422    -0.1467    72.0152 </r>
       <r>    -3.6926    -0.5175    71.9896 </r>
       <r>    -3.6430    -0.5609    71.9617 </r>
       <r>    -3.5933    -0.2245    71.9506 </r>
       <r>    -3.5437     0.6495    71.9828 </r>
       <r>    -3.4940     2.1692    72.0905 </r>
       <r>    -3.4444     4.1795    72.2980 </r>
       <r>    -3.3947     6.1764    72.6046 </r>
       <r>    -3.3451     7.4734    72.9757 </r>
       <r>    -3.2954     7.5579    73.3509 </r>
       <r>    -3.2458     6.3964    73.6684 </r>
       <r>    -3.1961     4.4564    73.8897 </r>
       <r>    -3.1465     2.4288    74.0103 </r>
       <r>    -3.0968     0.8603    74.0530 </r>
       <r>    -3.0472    -0.0555    74.0502 </r>
       <r>    -2.9976    -0.4408    74.0283 </r>
       <r>    -2.9479    -0.5438    74.0013 </r>
       <r>    -2.8983    -0.5476    73.9742 </r>
       <r>    -2.8486    -0.4640    73.9511 </r>
       <r>    -2.7990    -0.1297    73.9447 </r>
       <r>    -2.7493     0.6948    73.9792 </r>
       <r>    -2.6997     2.1438    74.0856 </r>
       <r>    -2.6500     4.0651    74.2874 </r>
       <r>    -2.6004     5.9895    74.5848 </r>
       <r>    -2.5507     7.3389    74.9491 </r>
       <r>    -2.5011     7.7692    75.3348 </r>
       <r>    -2.4514     7.3747    75.7010 </r>
       <r>    -2.4018     6.5603    76.0267 </r>
       <r>    -2.3522     5.6871    76.3090 </r>
       <r>    -2.3025     4.8252    76.5486 </r>
       <r>    -2.2529     3.8359    76.7390 </r>
       <r>    -2.2032     2.6710    76.8716 </r>
       <r>    -2.1536     1.5691    76.9495 </r>
       <r>    -2.1039     0.9651    76.9974 </r>
       <r>    -2.0543     1.2082    77.0574 </r>
       <r>    -2.0046     2.3192    77.1725 </r>
       <r>    -1.9550     3.9457    77.3684 </r>
       <r>    -1.9053     5.5133    77.6421 </r>
       <r>    -1.8557     6.4750    77.9636 </r>
       <r>    -1.8060     6.5399    78.2883 </r>
       <r>    -1.7564     5.7981    78.5761 </r>
       <r>    -1.7067     4.6815    78.8086 </r>
       <r>    -1.6571     3.7414    78.9943 </r>
       <r>    -1.6075     3.3269    79.1595 </r>
       <r>    -1.5578     3.3779    79.3272 </r>
       <r>    -1.5082     3.5389    79.5029 </r>
       <r>    -1.4585     3.5418    79.6787 </r>
       <r>    -1.4089     3.5154    79.8532 </r>
       <r>    -1.3592     3.8901    80.0464 </r>
       <r>    -1.3096     4.9391    80.2916 </r>
       <r>    -1.2599     6.3807    80.6084 </r>
       <r>    -1.2103     7.4557    80.9785 </r>
       <r>    -1.1606     7.4692    81.3493 </r>
       <r>    -1.1110     6.3433    81.6642 </r>
       <r>    -1.0613     4.6990    81.8975 </r>
       <r>    -1.0117     3.4017    82.0664 </r>
       <r>    -0.9621     2.9627    82.2135 </r>
       <r>    -0.9124     3.2852    82.3766 </r>
       <r>    -0.8628     3.8988    82.5702 </r>
       <r>    -0.8131     4.3941    82.7883 </r>
       <r>    -0.7635     4.6429    83.0188 </r>
       <r>    -0.7138     4.6768    83.2510 </r>
       <r>    -0.6642     4.4725    83.4730 </r>
       <r>    -0.6145     3.9467    83.6690 </r>
       <r>    -0.5649     3.1528    83.8255 </r>
       <r>    -0.5152     2.3967    83.9445 </r>
       <r>    -0.4656     2.0771    84.0476 </r>
       <r>    -0.4159     2.3920    84.1664 </r>
       <r>    -0.3663     3.2229    84.3264 </r>
       <r>    -0.3167     4.3141    84.5406 </r>
       <r>    -0.2670     5.5317    84.8152 </r>
       <r>    -0.2174     6.8982    85.1577 </r>
       <r>    -0.1677     8.3664    85.5730 </r>
       <r>    -0.1181     9.6178    86.0505 </r>
       <r>    -0.0684    10.1710    86.5554 </r>
       <r>    -0.0188     9.7595    87.0400 </r>
       <r>     0.0309     8.6485    87.4693 </r>
       <r>     0.0805     7.5937    87.8463 </r>
       <r>     0.1302     7.4365    88.2155 </r>
       <r>     0.1798     8.5864    88.6418 </r>
       <r>     0.2295    10.7062    89.1733 </r>
       <r>     0.2791    12.7988    89.8087 </r>
       <r>     0.3288    13.6902    90.4884 </r>
       <r>     0.3784    12.6698    91.1174 </r>
       <r>     0.4280     9.8985    91.6088 </r>
       <r>     0.4777     6.2973    91.9215 </r>
       <r>     0.5273     2.9921    92.0700 </r>
       <r>     0.5770     0.7239    92.1060 </r>
       <r>     0.6266    -0.3849    92.0869 </r>
       <r>     0.6763    -0.6580    92.0542 </r>
       <r>     0.7259    -0.5308    92.0279 </r>
       <r>     0.7756    -0.3162    92.0122 </r>
       <r>     0.8252    -0.1527    92.0046 </r>
       <r>     0.8749    -0.0620    92.0015 </r>
       <r>     0.9245    -0.0215    92.0004 </r>
       <r>     0.9742    -0.0064    92.0001 </r>
       <r>     1.0238    -0.0017    92.0000 </r>
       <r>     1.0734    -0.0004    92.0000 </r>
       <r>     1.1231    -0.0001    92.0000 </r>
       <r>     1.1727    -0.0000    92.0000 </r>
       <r>     1.2224    -0.0000    92.0000 </r>
       <r>     1.2720    -0.0000    92.0000 </r>
       <r>     1.3217    -0.0000    92.0000 </r>
       <r>     1.3713    -0.0000    92.0000 </r>
       <r>     1.4210    -0.0000    92.0000 </r>
       <r>     1.4706    -0.0000    92.0000 </r>
       <r>     1.5203    -0.0000    92.0000 </r>
       <r>     1.5699    -0.0000    92.0000 </r>
       <r>     1.6196    -0.0000    92.0000 </r>
       <r>     1.6692     0.0000    92.0000 </r>
       <r>     1.7188     0.0000    92.0000 </r>
       <r>     1.7685     0.0000    92.0000 </r>
       <r>     1.8181     0.0000    92.0000 </r>
       <r>     1.8678     0.0000    92.0000 </r>
       <r>     1.9174     0.0000    92.0000 </r>
       <r>     1.9671     0.0000    92.0000 </r>
       <r>     2.0167     0.0000    92.0000 </r>
       <r>     2.0664     0.0000    92.0000 </r>
       <r>     2.1160     0.0000    92.0000 </r>
       <r>     2.1657     0.0000    92.0000 </r>
       <r>     2.2153     0.0000    92.0000 </r>
       <r>     2.2650     0.0000    92.0000 </r>
       <r>     2.3146     0.0000    92.0000 </r>
       <r>     2.3642     0.0000    92.0000 </r>
      </set>
     </set>
    </array>
   </total>
  </dos>
 </calculation>
 <structure name="finalpos" >
  <crystal>
   <varray name="basis" >
    <v>      21.67549413       0.00000000       0.00000000 </v>
    <v>       0.00000000      24.08264953       0.00000000 </v>
    <v>       0.00000000       0.00000000      22.38138909 </v>
   </varray>
   <i name="volume">  11683.15960331 </i>
   <varray name="rec_basis" >
    <v>       0.04613505       0.00000000       0.00000000 </v>
    <v>       0.00000000       0.04152367       0.00000000 </v>
    <v>       0.00000000       0.00000000       0.04467998 </v>
   </varray>
  </crystal>
  <varray name="positions" >
   <v>       0.52121445       0.45122330       0.49784244 </v>
   <v>       0.42788701       0.50733981       0.49274854 </v>
   <v>       0.58722307       0.53387423       0.50357271 </v>
   <v>       0.48413111       0.58956836       0.52778337 </v>
   <v>       0.50761577       0.55373317       0.42915211 </v>
   <v>       0.52182154       0.51215652       0.58832257 </v>
   <v>       0.43910044       0.44305926       0.57639226 </v>
   <v>       0.47127307       0.46097937       0.40084275 </v>
   <v>       0.58144690       0.48202735       0.41035630 </v>
   <v>       0.41648009       0.54086782       0.59668084 </v>
   <v>       0.57099043       0.62719763       0.47303937 </v>
   <v>       0.57640740       0.60106279       0.58349815 </v>
   <v>       0.42170698       0.40692913       0.47757661 </v>
  </varray>
 </structure>
</modeling>
