unknown system                          
            1
    21.675494    0.000000    0.000000
     0.000000   24.082650    0.000000
     0.000000    0.000000   22.381389
   Cu
    13
Direct configuration=     1
   0.52208783  0.45297755  0.49724501
   0.42580702  0.50775825  0.49267310
   0.59331218  0.53273661  0.50276553
   0.48059310  0.59277981  0.52908753
   0.50863399  0.55189562  0.43202471
   0.52089413  0.51391650  0.58661468
   0.44069414  0.44244272  0.57761947
   0.46928353  0.46110598  0.39952404
   0.58136647  0.47796798  0.40844571
   0.41207738  0.53963597  0.59600773
   0.57091877  0.62865957  0.47640085
   0.57915967  0.60217147  0.58145736
   0.42247005  0.40597072  0.47794230
Direct configuration=     2
   0.52162320  0.45304109  0.49706757
   0.42623873  0.50746901  0.49283801
   0.59250826  0.53300220  0.50260741
   0.48114562  0.59221259  0.52917873
   0.50914142  0.55196823  0.43237639
   0.52087507  0.51440058  0.58638600
   0.44059699  0.44259343  0.57711999
   0.46943283  0.46105359  0.39995739
   0.58108947  0.47838435  0.40877491
   0.41263377  0.53962334  0.59582981
   0.57066682  0.62816442  0.47605655
   0.57863905  0.60174826  0.58153934
   0.42270704  0.40635766  0.47807592
Direct configuration=     3
   0.52100935  0.45312504  0.49683315
   0.42680907  0.50708689  0.49305589
   0.59144619  0.53335307  0.50239850
   0.48187558  0.59146322  0.52929922
   0.50981181  0.55206416  0.43284101
   0.52084989  0.51504011  0.58608387
   0.44046863  0.44279254  0.57646010
   0.46963007  0.46098436  0.40052989
   0.58072351  0.47893444  0.40920983
   0.41336882  0.53960666  0.59559476
   0.57033396  0.62751027  0.47560169
   0.57795125  0.60118914  0.58164764
   0.42302013  0.40686885  0.47825246
Direct configuration=     4
   0.52109231  0.45306210  0.49694072
   0.42696509  0.50723897  0.49306334
   0.59109832  0.53331957  0.50248115
   0.48202375  0.59125624  0.52917592
   0.50966357  0.55211615  0.43261410
   0.52085950  0.51480477  0.58621418
   0.44041010  0.44288623  0.57640542
   0.46978046  0.46105307  0.40059604
   0.58072399  0.47926908  0.40936504
   0.41371927  0.53969703  0.59563363
   0.57030353  0.62745790  0.47511550
   0.57776862  0.60107422  0.58199258
   0.42288976  0.40678343  0.47821040
Direct configuration=     5
   0.52131456  0.45289347  0.49722891
   0.42738313  0.50764643  0.49308329
   0.59016627  0.53322981  0.50270260
   0.48242076  0.59070169  0.52884556
   0.50926642  0.55225543  0.43200614
   0.52088525  0.51417424  0.58656331
   0.44025329  0.44313724  0.57625889
   0.47018339  0.46123714  0.40077327
   0.58072527  0.48016569  0.40978089
   0.41465821  0.53993917  0.59573779
   0.57022197  0.62731759  0.47381286
   0.57727929  0.60076630  0.58291678
   0.42254047  0.40655456  0.47809772
Direct configuration=     6
   0.52133012  0.45257649  0.49738251
   0.42737150  0.50762630  0.49292952
   0.58995450  0.53344598  0.50303398
   0.48274730  0.59080081  0.52860952
   0.50883838  0.55249382  0.43148770
   0.52109254  0.51368983  0.58691017
   0.44012689  0.44308583  0.57628849
   0.47025393  0.46122489  0.40079951
   0.58098337  0.48038432  0.40974255
   0.41480249  0.54014632  0.59601054
   0.57025811  0.62723948  0.47355025
   0.57711339  0.60074391  0.58305823
   0.42242575  0.40656079  0.47800506
Direct configuration=     7
   0.52134967  0.45217811  0.49757556
   0.42735689  0.50760101  0.49273626
   0.58968834  0.53371767  0.50345046
   0.48315772  0.59092539  0.52831285
   0.50830041  0.55279343  0.43083609
   0.52135306  0.51308101  0.58734612
   0.43996803  0.44302120  0.57632569
   0.47034257  0.46120949  0.40083248
   0.58130775  0.48065910  0.40969435
   0.41498382  0.54040666  0.59635335
   0.57030353  0.62714131  0.47322018
   0.57690489  0.60071577  0.58323600
   0.42228158  0.40656861  0.47788861
Direct configuration=     8
   0.52136599  0.45198187  0.49756800
   0.42739424  0.50752104  0.49275883
   0.58919415  0.53378580  0.50347780
   0.48334131  0.59068758  0.52827016
   0.50815928  0.55294393  0.43043792
   0.52142570  0.51286660  0.58756570
   0.43977664  0.44299780  0.57634009
   0.47049530  0.46114995  0.40086213
   0.58136687  0.48093543  0.40984845
   0.41531443  0.54055276  0.59641263
   0.57045985  0.62713183  0.47315017
   0.57679584  0.60079345  0.58329192
   0.42220867  0.40667071  0.47782422
Direct configuration=     9
   0.52141494  0.45139313  0.49754530
   0.42750629  0.50728115  0.49282654
   0.58771156  0.53399019  0.50355982
   0.48389207  0.58997416  0.52814207
   0.50773587  0.55339544  0.42924341
   0.52164361  0.51222337  0.58822444
   0.43920245  0.44292760  0.57638329
   0.47095349  0.46097134  0.40095109
   0.58154422  0.48176442  0.41031073
   0.41630626  0.54099104  0.59659048
   0.57092883  0.62710340  0.47294012
   0.57646872  0.60102648  0.58345969
   0.42198996  0.40697702  0.47763104
Direct configuration=    10
   0.52132920  0.45130368  0.49777385
   0.42781110  0.50737975  0.49283164
   0.58714319  0.53387435  0.50356046
   0.48411060  0.58955423  0.52778795
   0.50763162  0.55369260  0.42922193
   0.52178025  0.51213239  0.58826607
   0.43909402  0.44303027  0.57640823
   0.47122244  0.46096397  0.40081942
   0.58150237  0.48201948  0.41040674
   0.41653375  0.54093534  0.59665255
   0.57098349  0.62714258  0.47297573
   0.57641343  0.60108700  0.58351551
   0.42174281  0.40690310  0.47758795
Direct configuration=    11
   0.52133760  0.45131244  0.49775146
   0.42778124  0.50737009  0.49283114
   0.58719887  0.53388570  0.50356040
   0.48408920  0.58959537  0.52782264
   0.50764183  0.55366349  0.42922403
   0.52176686  0.51214130  0.58826199
   0.43910464  0.44302022  0.57640579
   0.47119610  0.46096469  0.40083232
   0.58150647  0.48199450  0.41039734
   0.41651147  0.54094080  0.59664647
   0.57097813  0.62713874  0.47297224
   0.57641884  0.60108107  0.58351004
   0.42176702  0.40691034  0.47759217
Direct configuration=    12
   0.52117707  0.45119625  0.49787006
   0.42791912  0.50733062  0.49272347
   0.58723041  0.53387075  0.50357645
   0.48414383  0.58956017  0.52777145
   0.50760787  0.55375432  0.42913028
   0.52183813  0.51216113  0.58834096
   0.43909917  0.44307111  0.57638815
   0.47129643  0.46098382  0.40084591
   0.58142882  0.48203733  0.41034384
   0.41647057  0.54084567  0.59669127
   0.57099417  0.62721551  0.47305974
   0.57640392  0.60105724  0.58349454
   0.42168876  0.40693484  0.47757188
Direct configuration=    13
   0.52121445  0.45122330  0.49784244
   0.42788701  0.50733981  0.49274854
   0.58722307  0.53387423  0.50357271
   0.48413111  0.58956836  0.52778337
   0.50761577  0.55373317  0.42915211
   0.52182154  0.51215652  0.58832257
   0.43910044  0.44305926  0.57639226
   0.47127307  0.46097937  0.40084275
   0.58144690  0.48202735  0.41035630
   0.41648009  0.54086782  0.59668084
   0.57099043  0.62719763  0.47303937
   0.57640740  0.60106279  0.58349815
   0.42170698  0.40692913  0.47757661
