   5   5   0   0
  0.2025754E+04  0.2099224E-08  0.2042322E-08  0.2362512E-08  0.5000000E-15
   1.0000000000000000E-004
  CAR 
 unknown system                          
      1.65184380     -9.91047920  301     -3.92237271      1.00000000
     -9.910  0.0000E+00  0.0000E+00  0.0000E+00  0.0000E+00
     -9.872  0.0000E+00  0.0000E+00  0.0000E+00  0.0000E+00
     -9.833  0.0000E+00  0.0000E+00  0.0000E+00  0.0000E+00
     -9.795  0.0000E+00  0.0000E+00  0.0000E+00  0.0000E+00
     -9.756  0.0000E+00  0.0000E+00  0.0000E+00  0.0000E+00
     -9.718  0.0000E+00  0.0000E+00  0.0000E+00  0.0000E+00
     -9.679  0.0000E+00  0.0000E+00  0.0000E+00  0.0000E+00
     -9.641  0.0000E+00  0.0000E+00  0.0000E+00  0.0000E+00
     -9.602  0.0000E+00  0.0000E+00  0.0000E+00  0.0000E+00
     -9.564  0.0000E+00  0.0000E+00  0.0000E+00  0.0000E+00
     -9.525 -0.2934E-29  0.0000E+00 -0.1131E-30  0.0000E+00
     -9.487 -0.5903E-28  0.0000E+00 -0.2388E-29  0.0000E+00
     -9.448 -0.1152E-26  0.0000E+00 -0.4679E-28  0.0000E+00
     -9.409 -0.2086E-25 -0.2079E-29 -0.8507E-27 -0.8011E-31
     -9.371 -0.3502E-24 -0.4218E-28 -0.1435E-25 -0.1706E-29
     -9.332 -0.5454E-23 -0.8303E-27 -0.2246E-24 -0.3371E-28
     -9.294 -0.7876E-22 -0.1516E-25 -0.3260E-23 -0.6179E-27
     -9.255 -0.1055E-20 -0.2567E-24 -0.4391E-22 -0.1051E-25
     -9.217 -0.1310E-19 -0.4031E-23 -0.5487E-21 -0.1659E-24
     -9.178 -0.1508E-18 -0.5870E-22 -0.6359E-20 -0.2428E-23
     -9.140 -0.1609E-17 -0.7928E-21 -0.6836E-19 -0.3298E-22
     -9.101 -0.1591E-16 -0.9927E-20 -0.6816E-18 -0.4156E-21
     -9.063 -0.1416E-15 -0.1152E-18 -0.6137E-17 -0.4857E-20
     -9.024 -0.1199E-14 -0.1240E-17 -0.5234E-16 -0.5265E-19
     -8.985 -0.9417E-14 -0.1237E-16 -0.4153E-15 -0.5295E-18
     -8.947 -0.6848E-13 -0.1101E-15 -0.3054E-14 -0.4771E-17
     -8.908 -0.4610E-12 -0.9496E-15 -0.2082E-13 -0.4137E-16
     -8.870 -0.2872E-11 -0.7513E-14 -0.1315E-12 -0.3309E-15
     -8.831 -0.1656E-10 -0.5510E-13 -0.7698E-12 -0.2454E-14
     -8.793 -0.8832E-10 -0.3741E-12 -0.4174E-11 -0.1687E-13
     -8.754 -0.4354E-09 -0.2351E-11 -0.2096E-10 -0.1075E-12
     -8.716 -0.1984E-08 -0.1368E-10 -0.9742E-10 -0.6346E-12
     -8.677 -0.8347E-08 -0.7357E-10 -0.4191E-09 -0.3470E-11
     -8.639 -0.3241E-07 -0.3659E-09 -0.1668E-08 -0.1757E-10
     -8.600 -0.1160E-06 -0.1682E-08 -0.6138E-08 -0.8239E-10
     -8.562 -0.3823E-06 -0.7140E-08 -0.2087E-07 -0.3576E-09
     -8.523 -0.1159E-05 -0.2797E-07 -0.6553E-07 -0.1436E-08
     -8.484 -0.3223E-05 -0.1010E-06 -0.1897E-06 -0.5329E-08
     -8.446 -0.8206E-05 -0.3361E-06 -0.5060E-06 -0.1828E-07
     -8.407 -0.1906E-04 -0.1028E-05 -0.1241E-05 -0.5791E-07
     -8.369 -0.4018E-04 -0.2888E-05 -0.2789E-05 -0.1692E-06
     -8.330 -0.7628E-04 -0.7428E-05 -0.5729E-05 -0.4555E-06
     -8.292 -0.1287E-03 -0.1743E-04 -0.1069E-04 -0.1127E-05
     -8.253 -0.1885E-03 -0.3716E-04 -0.1796E-04 -0.2560E-05
     -8.215 -0.2271E-03 -0.7141E-04 -0.2671E-04 -0.5312E-05
     -8.176 -0.1900E-03 -0.1222E-03 -0.3403E-04 -0.1002E-04
     -8.138 -0.1329E-05 -0.1822E-03 -0.3408E-04 -0.1704E-04
     -8.099  0.4135E-03 -0.2253E-03 -0.1815E-04 -0.2573E-04
     -8.061  0.1088E-02 -0.2001E-03  0.2379E-04 -0.3344E-04
     -8.022  0.1974E-02 -0.3239E-04  0.9988E-04 -0.3469E-04
     -7.983  0.2924E-02  0.3544E-03  0.2126E-03 -0.2103E-04
     -7.945  0.3720E-02  0.1001E-02  0.3560E-03  0.1753E-04
     -7.906  0.4141E-02  0.1869E-02  0.5156E-03  0.8955E-04
     -7.868  0.4058E-02  0.2821E-02  0.6719E-03  0.1983E-03
     -7.829  0.3482E-02  0.3645E-02  0.8061E-03  0.3388E-03
     -7.791  0.2569E-02  0.4116E-02  0.9051E-03  0.4974E-03
     -7.752  0.1559E-02  0.4090E-02  0.9652E-03  0.6550E-03
     -7.714  0.7020E-03  0.3562E-02  0.9923E-03  0.7923E-03
     -7.675  0.1910E-03  0.2675E-02  0.9996E-03  0.8954E-03
     -7.637  0.1330E-03  0.1665E-02  0.1005E-02  0.9596E-03
     -7.598  0.5397E-03  0.7859E-03  0.1026E-02  0.9899E-03
     -7.559  0.1327E-02  0.2421E-03  0.1077E-02  0.9992E-03
     -7.521  0.2321E-02  0.1506E-03  0.1166E-02  0.1005E-02
     -7.482  0.3282E-02  0.5305E-03  0.1293E-02  0.1025E-02
     -7.444  0.3958E-02  0.1301E-02  0.1445E-02  0.1076E-02
     -7.405  0.4169E-02  0.2290E-02  0.1606E-02  0.1164E-02
     -7.367  0.3861E-02  0.3254E-02  0.1755E-02  0.1289E-02
     -7.328  0.3134E-02  0.3943E-02  0.1875E-02  0.1441E-02
     -7.290  0.2189E-02  0.4168E-02  0.1960E-02  0.1602E-02
     -7.251  0.1244E-02  0.3877E-02  0.2008E-02  0.1751E-02
     -7.213  0.4618E-03  0.3164E-02  0.2026E-02  0.1873E-02
     -7.174 -0.9765E-04  0.2232E-02  0.2022E-02  0.1959E-02
     -7.136 -0.4545E-03  0.1310E-02  0.2004E-02  0.2010E-02
     -7.097 -0.6608E-03  0.5686E-03  0.1979E-02  0.2032E-02
     -7.058 -0.7411E-03  0.8108E-04  0.1950E-02  0.2035E-02
     -7.020 -0.6545E-03 -0.1704E-03  0.1925E-02  0.2028E-02
     -6.981 -0.2956E-03 -0.2602E-03  0.1914E-02  0.2018E-02
     -6.943  0.4632E-03 -0.2782E-03  0.1931E-02  0.2007E-02
     -6.904  0.1706E-02 -0.3025E-03  0.1997E-02  0.1996E-02
     -6.866  0.3417E-02 -0.3859E-03  0.2129E-02  0.1981E-02
     -6.827  0.5478E-02 -0.5462E-03  0.2340E-02  0.1960E-02
     -6.789  0.7718E-02 -0.7490E-03  0.2637E-02  0.1931E-02
     -6.750  0.9994E-02 -0.8813E-03  0.3023E-02  0.1897E-02
     -6.712  0.1223E-01 -0.7323E-03  0.3494E-02  0.1869E-02
     -6.673  0.1440E-01 -0.1249E-04  0.4049E-02  0.1868E-02
     -6.634  0.1639E-01  0.1562E-02  0.4681E-02  0.1929E-02
     -6.596  0.1796E-01  0.4123E-02  0.5373E-02  0.2087E-02
     -6.557  0.1877E-01  0.7493E-02  0.6096E-02  0.2376E-02
     -6.519  0.1851E-01  0.1112E-01  0.6810E-02  0.2805E-02
     -6.480  0.1704E-01  0.1417E-01  0.7466E-02  0.3351E-02
     -6.442  0.1452E-01  0.1584E-01  0.8026E-02  0.3961E-02
     -6.403  0.1133E-01  0.1567E-01  0.8463E-02  0.4566E-02
     -6.365  0.8001E-02  0.1381E-01  0.8771E-02  0.5098E-02
     -6.326  0.4980E-02  0.1101E-01  0.8963E-02  0.5522E-02
     -6.288  0.2575E-02  0.8329E-02  0.9062E-02  0.5843E-02
     -6.249  0.8874E-03  0.6734E-02  0.9096E-02  0.6103E-02
     -6.211 -0.1418E-03  0.6683E-02  0.9091E-02  0.6360E-02
     -6.172 -0.6724E-03  0.7973E-02  0.9065E-02  0.6667E-02
     -6.133 -0.8871E-03  0.9856E-02  0.9031E-02  0.7047E-02
     -6.095 -0.9299E-03  0.1137E-01  0.8995E-02  0.7486E-02
     -6.056 -0.8639E-03  0.1177E-01  0.8962E-02  0.7939E-02
     -6.018 -0.6561E-03  0.1075E-01  0.8936E-02  0.8354E-02
     -5.979 -0.1910E-03  0.8568E-02  0.8929E-02  0.8684E-02
     -5.941  0.6841E-03  0.5800E-02  0.8955E-02  0.8907E-02
     -5.902  0.2087E-02  0.3109E-02  0.9036E-02  0.9027E-02
     -5.864  0.4019E-02  0.9865E-03  0.9191E-02  0.9065E-02
     -5.825  0.6306E-02 -0.3413E-03  0.9434E-02  0.9052E-02
     -5.787  0.8594E-02 -0.8670E-03  0.9765E-02  0.9019E-02
     -5.748  0.1042E-01 -0.6896E-03  0.1017E-01  0.8992E-02
     -5.710  0.1135E-01  0.8441E-04  0.1060E-01  0.8995E-02
     -5.671  0.1114E-01  0.1375E-02  0.1103E-01  0.9048E-02
     -5.632  0.9825E-02  0.3104E-02  0.1141E-01  0.9168E-02
     -5.594  0.7707E-02  0.5136E-02  0.1171E-01  0.9366E-02
     -5.555  0.5265E-02  0.7246E-02  0.1191E-01  0.9645E-02
     -5.517  0.2972E-02  0.9113E-02  0.1203E-01  0.9996E-02
     -5.478  0.1151E-02  0.1038E-01  0.1207E-01  0.1040E-01
     -5.440 -0.8592E-04  0.1077E-01  0.1207E-01  0.1081E-01
     -5.401 -0.8005E-03  0.1014E-01  0.1204E-01  0.1120E-01
     -5.363 -0.1134E-02  0.8606E-02  0.1199E-01  0.1153E-01
     -5.324 -0.1198E-02  0.6468E-02  0.1195E-01  0.1178E-01
     -5.286 -0.1010E-02  0.4146E-02  0.1191E-01  0.1194E-01
     -5.247 -0.4795E-03  0.2029E-02  0.1189E-01  0.1202E-01
     -5.208  0.5441E-03  0.3792E-03  0.1191E-01  0.1204E-01
     -5.170  0.2203E-02 -0.6946E-03  0.1200E-01  0.1201E-01
     -5.131  0.4566E-02 -0.1181E-02  0.1217E-01  0.1196E-01
     -5.093  0.7590E-02 -0.1086E-02  0.1246E-01  0.1192E-01
     -5.054  0.1111E-01 -0.3749E-03  0.1289E-01  0.1191E-01
     -5.016  0.1486E-01  0.1023E-02  0.1347E-01  0.1195E-01
     -4.977  0.1845E-01  0.3165E-02  0.1418E-01  0.1207E-01
     -4.939  0.2144E-01  0.6029E-02  0.1500E-01  0.1230E-01
     -4.900  0.2336E-01  0.9468E-02  0.1590E-01  0.1267E-01
     -4.862  0.2389E-01  0.1320E-01  0.1682E-01  0.1318E-01
     -4.823  0.2296E-01  0.1684E-01  0.1771E-01  0.1382E-01
     -4.785  0.2074E-01  0.1995E-01  0.1851E-01  0.1459E-01
     -4.746  0.1765E-01  0.2210E-01  0.1919E-01  0.1545E-01
     -4.707  0.1420E-01  0.2300E-01  0.1974E-01  0.1633E-01
     -4.669  0.1092E-01  0.2257E-01  0.2016E-01  0.1720E-01
     -4.630  0.8280E-02  0.2099E-01  0.2048E-01  0.1801E-01
     -4.592  0.6772E-02  0.1862E-01  0.2074E-01  0.1873E-01
     -4.553  0.6772E-02  0.1587E-01  0.2100E-01  0.1934E-01
     -4.515  0.8408E-02  0.1304E-01  0.2132E-01  0.1984E-01
     -4.476  0.1139E-01  0.1034E-01  0.2176E-01  0.2024E-01
     -4.438  0.1493E-01  0.7909E-02  0.2234E-01  0.2055E-01
     -4.399  0.1797E-01  0.5913E-02  0.2303E-01  0.2077E-01
     -4.361  0.1949E-01  0.4581E-02  0.2378E-01  0.2095E-01
     -4.322  0.1892E-01  0.4103E-02  0.2451E-01  0.2111E-01
     -4.283  0.1634E-01  0.4490E-02  0.2514E-01  0.2128E-01
     -4.245  0.1243E-01  0.5497E-02  0.2562E-01  0.2149E-01
     -4.206  0.8123E-02  0.6678E-02  0.2593E-01  0.2175E-01
     -4.168  0.4309E-02  0.7574E-02  0.2610E-01  0.2204E-01
     -4.129  0.1511E-02  0.7926E-02  0.2616E-01  0.2235E-01
     -4.091 -0.1535E-03  0.7788E-02  0.2615E-01  0.2265E-01
     -4.052 -0.8790E-03  0.7476E-02  0.2612E-01  0.2294E-01
     -4.014 -0.9956E-03  0.7384E-02  0.2608E-01  0.2322E-01
     -3.975 -0.8197E-03  0.7761E-02  0.2605E-01  0.2352E-01
     -3.937 -0.5732E-03  0.8582E-02  0.2602E-01  0.2385E-01
     -3.898 -0.3728E-03  0.9545E-02  0.2601E-01  0.2422E-01
     -3.860 -0.2576E-03  0.1020E-01  0.2600E-01  0.2461E-01
     -3.821 -0.2215E-03  0.1016E-01  0.2599E-01  0.2500E-01
     -3.782 -0.2333E-03  0.9238E-02  0.2598E-01  0.2536E-01
     -3.744 -0.2427E-03  0.7530E-02  0.2597E-01  0.2565E-01
     -3.705 -0.1788E-03  0.5373E-02  0.2597E-01  0.2586E-01
     -3.667  0.4295E-04  0.3208E-02  0.2597E-01  0.2598E-01
     -3.628  0.4974E-03  0.1434E-02  0.2599E-01  0.2604E-01
     -3.590  0.1210E-02  0.3090E-03  0.2603E-01  0.2605E-01
     -3.551  0.2119E-02 -0.7978E-04  0.2611E-01  0.2604E-01
     -3.513  0.3065E-02  0.2078E-03  0.2623E-01  0.2605E-01
     -3.474  0.3826E-02  0.1003E-02  0.2638E-01  0.2609E-01
     -3.436  0.4194E-02  0.2064E-02  0.2654E-01  0.2617E-01
     -3.397  0.4064E-02  0.3107E-02  0.2670E-01  0.2629E-01
     -3.358  0.3472E-02  0.3860E-02  0.2683E-01  0.2644E-01
     -3.320  0.2587E-02  0.4134E-02  0.2693E-01  0.2660E-01
     -3.281  0.1632E-02  0.3875E-02  0.2699E-01  0.2675E-01
     -3.243  0.8019E-03  0.3180E-02  0.2703E-01  0.2687E-01
     -3.204  0.2041E-03  0.2255E-02  0.2703E-01  0.2696E-01
     -3.166 -0.1556E-03  0.1329E-02  0.2703E-01  0.2701E-01
     -3.127 -0.3408E-03  0.5770E-03  0.2701E-01  0.2703E-01
     -3.089 -0.4367E-03  0.7216E-04  0.2700E-01  0.2703E-01
     -3.050 -0.5041E-03 -0.2053E-03  0.2698E-01  0.2703E-01
     -3.012 -0.5461E-03 -0.3320E-03  0.2696E-01  0.2701E-01
     -2.973 -0.4923E-03 -0.3944E-03  0.2694E-01  0.2700E-01
     -2.935 -0.2069E-03 -0.4514E-03  0.2693E-01  0.2698E-01
     -2.896  0.4712E-03 -0.5075E-03  0.2695E-01  0.2696E-01
     -2.857  0.1652E-02 -0.4997E-03  0.2701E-01  0.2694E-01
     -2.819  0.3309E-02 -0.3002E-03  0.2714E-01  0.2693E-01
     -2.780  0.5216E-02  0.2536E-03  0.2734E-01  0.2694E-01
     -2.742  0.6977E-02  0.1294E-02  0.2761E-01  0.2699E-01
     -2.703  0.8143E-02  0.2837E-02  0.2792E-01  0.2710E-01
     -2.665  0.8383E-02  0.4709E-02  0.2825E-01  0.2728E-01
     -2.626  0.7625E-02  0.6553E-02  0.2854E-01  0.2753E-01
     -2.588  0.6092E-02  0.7915E-02  0.2878E-01  0.2784E-01
     -2.549  0.4198E-02  0.8418E-02  0.2894E-01  0.2816E-01
     -2.511  0.2386E-02  0.7913E-02  0.2903E-01  0.2847E-01
     -2.472  0.9717E-03  0.6550E-02  0.2907E-01  0.2872E-01
     -2.434  0.7621E-04  0.4706E-02  0.2907E-01  0.2890E-01
     -2.395 -0.3518E-03  0.2835E-02  0.2906E-01  0.2901E-01
     -2.356 -0.4559E-03  0.1296E-02  0.2904E-01  0.2906E-01
     -2.318 -0.3911E-03  0.2627E-03  0.2902E-01  0.2907E-01
     -2.279 -0.2731E-03 -0.2768E-03  0.2901E-01  0.2906E-01
     -2.241 -0.1656E-03 -0.4506E-03  0.2901E-01  0.2904E-01
     -2.202 -0.9146E-04 -0.4171E-03  0.2900E-01  0.2903E-01
     -2.164 -0.5142E-04 -0.3049E-03  0.2900E-01  0.2901E-01
     -2.125 -0.3955E-04 -0.1911E-03  0.2900E-01  0.2901E-01
     -2.087 -0.5132E-04 -0.1074E-03  0.2900E-01  0.2900E-01
     -2.048 -0.8499E-04 -0.5868E-04  0.2899E-01  0.2900E-01
     -2.010 -0.1375E-03 -0.3960E-04  0.2899E-01  0.2900E-01
     -1.971 -0.1960E-03 -0.4480E-04  0.2898E-01  0.2900E-01
     -1.932 -0.2281E-03 -0.7202E-04  0.2897E-01  0.2899E-01
     -1.894 -0.1755E-03 -0.1195E-03  0.2897E-01  0.2899E-01
     -1.855  0.3931E-04 -0.1785E-03  0.2897E-01  0.2898E-01
     -1.817  0.4882E-03 -0.2239E-03  0.2899E-01  0.2897E-01
     -1.778  0.1196E-02 -0.2055E-03  0.2903E-01  0.2897E-01
     -1.740  0.2103E-02 -0.5009E-04  0.2911E-01  0.2897E-01
     -1.701  0.3050E-02  0.3198E-03  0.2923E-01  0.2898E-01
     -1.663  0.3815E-02  0.9488E-03  0.2938E-01  0.2901E-01
     -1.624  0.4192E-02  0.1806E-02  0.2954E-01  0.2908E-01
     -1.586  0.4070E-02  0.2762E-02  0.2970E-01  0.2919E-01
     -1.547  0.3486E-02  0.3609E-02  0.2983E-01  0.2933E-01
     -1.509  0.2604E-02  0.4126E-02  0.2993E-01  0.2949E-01
     -1.470  0.1652E-02  0.4163E-02  0.2999E-01  0.2965E-01
     -1.431  0.8260E-03  0.3710E-02  0.3003E-01  0.2979E-01
     -1.393  0.2406E-03  0.2898E-02  0.3004E-01  0.2990E-01
     -1.354 -0.8900E-04  0.1944E-02  0.3003E-01  0.2998E-01
     -1.316 -0.2159E-03  0.1061E-02  0.3002E-01  0.3002E-01
     -1.277 -0.2191E-03  0.3950E-03  0.3002E-01  0.3003E-01
     -1.239 -0.1687E-03 -0.1126E-04  0.3001E-01  0.3003E-01
     -1.200 -0.1103E-03 -0.1936E-03  0.3000E-01  0.3003E-01
     -1.162 -0.6562E-04 -0.2276E-03  0.3000E-01  0.3002E-01
     -1.123 -0.4089E-04 -0.1894E-03  0.3000E-01  0.3001E-01
     -1.085 -0.3619E-04 -0.1339E-03  0.3000E-01  0.3001E-01
     -1.046 -0.5141E-04 -0.9184E-04  0.3000E-01  0.3000E-01
     -1.007 -0.8758E-04 -0.7602E-04  0.2999E-01  0.3000E-01
     -0.969 -0.1436E-03 -0.9028E-04  0.2999E-01  0.3000E-01
     -0.930 -0.2092E-03 -0.1335E-03  0.2998E-01  0.2999E-01
     -0.892 -0.2561E-03 -0.1973E-03  0.2997E-01  0.2998E-01
     -0.853 -0.2330E-03 -0.2593E-03  0.2996E-01  0.2997E-01
     -0.815 -0.7195E-04 -0.2757E-03  0.2996E-01  0.2996E-01
     -0.776  0.2917E-03 -0.1819E-03  0.2997E-01  0.2995E-01
     -0.738  0.8891E-03  0.9520E-04  0.3000E-01  0.2996E-01
     -0.699  0.1697E-02  0.6121E-03  0.3007E-01  0.2998E-01
     -0.661  0.2642E-02  0.1385E-02  0.3017E-01  0.3004E-01
     -0.622  0.3641E-02  0.2384E-02  0.3031E-01  0.3013E-01
     -0.584  0.4647E-02  0.3544E-02  0.3049E-01  0.3026E-01
     -0.545  0.5662E-02  0.4800E-02  0.3071E-01  0.3045E-01
     -0.506  0.6702E-02  0.6093E-02  0.3097E-01  0.3068E-01
     -0.468  0.7717E-02  0.7350E-02  0.3126E-01  0.3097E-01
     -0.429  0.8540E-02  0.8443E-02  0.3159E-01  0.3129E-01
     -0.391  0.8917E-02  0.9169E-02  0.3194E-01  0.3165E-01
     -0.352  0.8618E-02  0.9302E-02  0.3227E-01  0.3200E-01
     -0.314  0.7575E-02  0.8692E-02  0.3256E-01  0.3234E-01
     -0.275  0.5943E-02  0.7365E-02  0.3279E-01  0.3262E-01
     -0.237  0.4055E-02  0.5553E-02  0.3295E-01  0.3284E-01
     -0.198  0.2284E-02  0.3613E-02  0.3303E-01  0.3298E-01
     -0.160  0.9106E-03  0.1899E-02  0.3307E-01  0.3305E-01
     -0.121  0.4150E-04  0.6392E-03  0.3307E-01  0.3307E-01
     -0.083 -0.3725E-03 -0.1092E-03  0.3306E-01  0.3307E-01
     -0.044 -0.4697E-03 -0.4292E-03  0.3304E-01  0.3305E-01
     -0.005 -0.4009E-03 -0.4703E-03  0.3302E-01  0.3304E-01
      0.033 -0.2796E-03 -0.3779E-03  0.3301E-01  0.3302E-01
      0.072 -0.1688E-03 -0.2535E-03  0.3301E-01  0.3301E-01
      0.110 -0.9043E-04 -0.1484E-03  0.3300E-01  0.3301E-01
      0.149 -0.4359E-04 -0.7749E-04  0.3300E-01  0.3300E-01
      0.187 -0.1906E-04 -0.3649E-04  0.3300E-01  0.3300E-01
      0.226 -0.7599E-05 -0.1561E-04  0.3300E-01  0.3300E-01
      0.264 -0.2772E-05 -0.6096E-05  0.3300E-01  0.3300E-01
      0.303 -0.9280E-06 -0.2180E-05  0.3300E-01  0.3300E-01
      0.341 -0.2856E-06 -0.7157E-06  0.3300E-01  0.3300E-01
      0.380 -0.8091E-07 -0.2161E-06  0.3300E-01  0.3300E-01
      0.419 -0.2113E-07 -0.6010E-07  0.3300E-01  0.3300E-01
      0.457 -0.5092E-08 -0.1541E-07  0.3300E-01  0.3300E-01
      0.496 -0.1133E-08 -0.3646E-08  0.3300E-01  0.3300E-01
      0.534 -0.2330E-09 -0.7969E-09  0.3300E-01  0.3300E-01
      0.573 -0.4428E-10 -0.1609E-09  0.3300E-01  0.3300E-01
      0.611 -0.7785E-11 -0.3005E-10  0.3300E-01  0.3300E-01
      0.650 -0.1266E-11 -0.5190E-11  0.3300E-01  0.3300E-01
      0.688 -0.1906E-12 -0.8296E-12  0.3300E-01  0.3300E-01
      0.727 -0.2658E-13 -0.1227E-12  0.3300E-01  0.3300E-01
      0.765 -0.3428E-14 -0.1681E-13  0.3300E-01  0.3300E-01
      0.804 -0.4090E-15 -0.2132E-14  0.3300E-01  0.3300E-01
      0.842 -0.4609E-16 -0.2477E-15  0.3300E-01  0.3300E-01
      0.881 -0.5761E-17 -0.2881E-16  0.3300E-01  0.3300E-01
      0.920  0.0000E+00  0.0000E+00  0.3300E-01  0.3300E-01
      0.958  0.0000E+00  0.0000E+00  0.3300E-01  0.3300E-01
      0.997  0.0000E+00  0.0000E+00  0.3300E-01  0.3300E-01
      1.035  0.0000E+00  0.0000E+00  0.3300E-01  0.3300E-01
      1.074  0.0000E+00  0.0000E+00  0.3300E-01  0.3300E-01
      1.112  0.0000E+00  0.0000E+00  0.3300E-01  0.3300E-01
      1.151  0.0000E+00  0.0000E+00  0.3300E-01  0.3300E-01
      1.189  0.0000E+00  0.0000E+00  0.3300E-01  0.3300E-01
      1.228  0.0000E+00  0.0000E+00  0.3300E-01  0.3300E-01
      1.266  0.0000E+00  0.0000E+00  0.3300E-01  0.3300E-01
      1.305  0.0000E+00  0.0000E+00  0.3300E-01  0.3300E-01
      1.344  0.0000E+00  0.0000E+00  0.3300E-01  0.3300E-01
      1.382  0.0000E+00  0.0000E+00  0.3300E-01  0.3300E-01
      1.421  0.0000E+00  0.0000E+00  0.3300E-01  0.3300E-01
      1.459  0.0000E+00  0.0000E+00  0.3300E-01  0.3300E-01
      1.498  0.0000E+00  0.0000E+00  0.3300E-01  0.3300E-01
      1.536  0.0000E+00  0.0000E+00  0.3300E-01  0.3300E-01
      1.575  0.0000E+00  0.0000E+00  0.3300E-01  0.3300E-01
      1.613  0.0000E+00  0.0000E+00  0.3300E-01  0.3300E-01
      1.652  0.0000E+00  0.0000E+00  0.3300E-01  0.3300E-01
