    5    5 1000    2
  0.2025754E+04  0.2099224E-08  0.2042322E-08  0.2362511E-08  0.5000000E-15
   1.0000000000000000E-004
  CAR 
 unknown system                          
     50      1     33
 
  0.1262379E-14  0.1262379E-14  0.1262379E-14  0.1000000E+01
    1       -7.910479     -7.790559   1.000000   1.000000
    2       -7.430310     -7.313688   1.000000   1.000000
    3       -6.763703     -6.463061   1.000000   1.000000
    4       -6.758155     -6.459109   1.000000   1.000000
    5       -6.590372     -6.425243   1.000000   1.000000
    6       -6.587165     -6.421838   1.000000   1.000000
    7       -6.536117     -6.098017   1.000000   1.000000
    8       -6.517595     -6.089388   1.000000   1.000000
    9       -6.414495     -6.077756   1.000000   1.000000
   10       -5.790205     -5.559926   1.000000   1.000000
   11       -5.688567     -5.430997   1.000000   1.000000
   12       -5.680770     -5.422741   1.000000   1.000000
   13       -5.046099     -4.869887   1.000000   1.000000
   14       -5.043895     -4.867305   1.000000   1.000000
   15       -4.927857     -4.759291   1.000000   1.000000
   16       -4.887258     -4.723728   1.000000   1.000000
   17       -4.861354     -4.713185   1.000000   1.000000
   18       -4.856897     -4.662140   1.000000   1.000001
   19       -4.853809     -4.656782   1.000000   1.000001
   20       -4.687561     -4.494667   1.000000   1.000198
   21       -4.685917     -4.492954   1.000000   1.000208
   22       -4.415785     -4.175383   1.001340   1.035221
   23       -4.388927     -4.174601   1.002365   1.035264
   24       -4.387467     -3.957552   1.002437   0.646332
   25       -4.334852     -3.824047   1.006501   0.134534
   26       -4.332941     -3.822756   1.006715   0.130957
   27       -3.445464     -3.342929  -0.001910  -0.000164
   28       -2.695585     -2.570350  -0.000000  -0.000000
   29       -2.692864     -2.566536  -0.000000  -0.000000
   30       -1.633384     -1.505716  -0.000000  -0.000000
   31       -0.593937     -0.543335  -0.000000  -0.000000
   32       -0.382637     -0.352761  -0.000000  -0.000000
   33       -0.377883     -0.348156  -0.000000  -0.000000
