       N       E                     dE             d eps       ncg     rms          rms(c)
DAV:   1     0.400071469634E+03    0.40007E+03   -0.66642E+03   132   0.637E+02
DAV:   2     0.267190182576E+03   -0.13288E+03   -0.12637E+03   254   0.588E+01
DAV:   3     0.732148062158E+02   -0.19398E+03   -0.18432E+03   264   0.612E+01
DAV:   4    -0.497890652460E+01   -0.78194E+02   -0.70122E+02   192   0.563E+01
DAV:   5    -0.151985235928E+02   -0.10220E+02   -0.85832E+01   182   0.224E+01    0.116E+01
DAV:   6    -0.123219403536E+02    0.28766E+01   -0.13219E+01   132   0.159E+01    0.975E+00
DAV:   7    -0.133141451289E+02   -0.99220E+00   -0.12766E+01   142   0.266E+01    0.120E+01
DAV:   8    -0.123743993475E+02    0.93975E+00   -0.42359E+00   149   0.171E+01    0.716E+00
DAV:   9    -0.121731888185E+02    0.20121E+00   -0.34813E+00   135   0.132E+01    0.543E+00
DAV:  10    -0.120032523602E+02    0.16994E+00   -0.55435E-01   143   0.717E+00    0.224E+00
DAV:  11    -0.121517522006E+02   -0.14850E+00   -0.17075E-01   136   0.467E+00    0.194E+00
DAV:  12    -0.124050184316E+02   -0.25327E+00   -0.78637E-02   144   0.261E+00    0.108E+00
DAV:  13    -0.127225519827E+02   -0.31753E+00   -0.68613E-02   136   0.177E+00    0.737E-01
DAV:  14    -0.130067831787E+02   -0.28423E+00   -0.57134E-02   152   0.176E+00    0.790E-01
DAV:  15    -0.132565486299E+02   -0.24977E+00   -0.32679E-02   144   0.119E+00    0.367E-01
DAV:  16    -0.134979494659E+02   -0.24140E+00   -0.27502E-02   150   0.717E-01    0.362E-01
DAV:  17    -0.137173940988E+02   -0.21944E+00   -0.15997E-02   134   0.561E-01    0.204E-01
DAV:  18    -0.138939843864E+02   -0.17659E+00   -0.10253E-02   150   0.313E-01    0.160E-01
DAV:  19    -0.140917588555E+02   -0.19777E+00   -0.11991E-02   134   0.354E-01    0.152E-01
DAV:  20    -0.141743739040E+02   -0.82615E-01   -0.25814E-03   160   0.194E-01    0.789E-02
DAV:  21    -0.142340531124E+02   -0.59679E-01   -0.12528E-03   128   0.133E-01    0.829E-02
DAV:  22    -0.143026013281E+02   -0.68548E-01   -0.18631E-03   132   0.137E-01    0.488E-02
DAV:  23    -0.143349203041E+02   -0.32319E-01   -0.65970E-04   144   0.817E-02    0.373E-02
DAV:  24    -0.143540403066E+02   -0.19120E-01   -0.29466E-04   112   0.540E-02    0.272E-02
DAV:  25    -0.143716021654E+02   -0.17562E-01   -0.41000E-04   144   0.588E-02    0.163E-02
DAV:  26    -0.143774429512E+02   -0.58408E-02   -0.10526E-04   104   0.336E-02    0.924E-03
DAV:  27    -0.143806490452E+02   -0.32061E-02   -0.90432E-05   104   0.247E-02    0.626E-03
DAV:  28    -0.143821349768E+02   -0.14859E-02   -0.31351E-05    88   0.156E-02    0.423E-03
DAV:  29    -0.143830732434E+02   -0.93827E-03   -0.23975E-05    96   0.123E-02    0.343E-03
DAV:  30    -0.143839982451E+02   -0.92500E-03   -0.25160E-05    88   0.132E-02    0.295E-03
DAV:  31    -0.143844509003E+02   -0.45266E-03   -0.17924E-05   104   0.107E-02    0.150E-03
DAV:  32    -0.143846949470E+02   -0.24405E-03   -0.11496E-05    88   0.872E-03    0.104E-03
DAV:  33    -0.143847724972E+02   -0.77550E-04   -0.57252E-06    96   0.617E-03
   1 F= -.14384772E+02 E0= -.14392720E+02  d E =-.143848E+02  mag=     2.6604
       N       E                     dE             d eps       ncg     rms          rms(c)
DAV:   1    -0.144370200071E+02   -0.52325E-01   -0.58827E+01   132   0.355E+01    0.211E+00
DAV:   2    -0.145208911610E+02   -0.83871E-01   -0.12294E+00   132   0.792E+00    0.482E+00
DAV:   3    -0.144752195225E+02    0.45672E-01   -0.64879E-01   140   0.620E+00    0.241E+00
DAV:   4    -0.144674615247E+02    0.77580E-02   -0.11916E-01   140   0.338E+00    0.125E+00
DAV:   5    -0.144578773650E+02    0.95842E-02   -0.50457E-02   135   0.228E+00    0.721E-01
DAV:   6    -0.144568382161E+02    0.10391E-02   -0.15998E-02   142   0.134E+00    0.747E-01
DAV:   7    -0.144550873559E+02    0.17509E-02   -0.10564E-02   149   0.140E+00    0.395E-01
DAV:   8    -0.144573920275E+02   -0.23047E-02   -0.18132E-03   135   0.468E-01    0.173E-01
DAV:   9    -0.144617790435E+02   -0.43870E-02   -0.11739E-03   136   0.330E-01    0.723E-02
DAV:  10    -0.144654150138E+02   -0.36360E-02   -0.25954E-04   110   0.163E-01    0.484E-02
DAV:  11    -0.144688811250E+02   -0.34661E-02   -0.79708E-05    87   0.730E-02    0.234E-02
DAV:  12    -0.144732428241E+02   -0.43617E-02   -0.12642E-04   100   0.344E-02    0.202E-02
DAV:  13    -0.144765697805E+02   -0.33270E-02   -0.40339E-05    93   0.300E-02    0.124E-02
DAV:  14    -0.144790650060E+02   -0.24952E-02   -0.40886E-05    85   0.193E-02    0.102E-02
DAV:  15    -0.144817455818E+02   -0.26806E-02   -0.42703E-05    93   0.205E-02    0.854E-03
DAV:  16    -0.144841215495E+02   -0.23760E-02   -0.71952E-05    85   0.213E-02    0.601E-03
DAV:  17    -0.144854518836E+02   -0.13303E-02   -0.40346E-05   102   0.183E-02    0.414E-03
DAV:  18    -0.144862649426E+02   -0.81306E-03   -0.34817E-05    94   0.154E-02    0.325E-03
DAV:  19    -0.144867801238E+02   -0.51518E-03   -0.24340E-05   102   0.132E-02    0.169E-03
DAV:  20    -0.144870474696E+02   -0.26735E-03   -0.17576E-05   102   0.107E-02    0.110E-03
DAV:  21    -0.144871814126E+02   -0.13394E-03   -0.10731E-05   103   0.833E-03    0.700E-04
DAV:  22    -0.144872683212E+02   -0.86909E-04   -0.65875E-06    93   0.632E-03
   2 F= -.14487268E+02 E0= -.14495596E+02  d E =-.102496E+00  mag=     2.4910
       N       E                     dE             d eps       ncg     rms          rms(c)
DAV:   1    -0.144874738603E+02   -0.29245E-03   -0.28219E-01   133   0.244E+00    0.144E-01
DAV:   2    -0.144878607519E+02   -0.38689E-03   -0.61748E-03   133   0.579E-01    0.326E-01
DAV:   3    -0.144875004691E+02    0.36028E-03   -0.19538E-03   141   0.474E-01    0.154E-01
DAV:   4    -0.144874844166E+02    0.16052E-04   -0.51197E-04   109   0.225E-01
   3 F= -.14487484E+02 E0= -.14495719E+02  d E =-.102712E+00  mag=     2.4882
       N       E                     dE             d eps       ncg     rms          rms(c)
DAV:   1    -0.144933380352E+02   -0.58376E-02   -0.45192E+00   132   0.969E+00    0.404E-01
DAV:   2    -0.144992112845E+02   -0.58732E-02   -0.73328E-02   140   0.163E+00    0.533E-01
DAV:   3    -0.144994471710E+02   -0.23589E-03   -0.12720E-02   140   0.105E+00    0.556E-01
DAV:   4    -0.144980605621E+02    0.13866E-02   -0.38837E-03   140   0.657E-01    0.190E-01
DAV:   5    -0.144979093644E+02    0.15120E-03   -0.15391E-03   134   0.459E-01    0.205E-01
DAV:   6    -0.144974289261E+02    0.48044E-03   -0.10685E-03   134   0.399E-01    0.156E-01
DAV:   7    -0.144971794905E+02    0.24944E-03   -0.51899E-04   119   0.288E-01    0.522E-02
DAV:   8    -0.144972652311E+02   -0.85741E-04   -0.94608E-05    88   0.117E-01
   4 F= -.14497265E+02 E0= -.14507549E+02  d E =-.978081E-02  mag=     2.4708
       N       E                     dE             d eps       ncg     rms          rms(c)
DAV:   1    -0.144859907774E+02    0.11189E-01   -0.14961E+01   132   0.177E+01    0.705E-01
DAV:   2    -0.145055064495E+02   -0.19516E-01   -0.23549E-01   134   0.291E+00    0.813E-01
DAV:   3    -0.145084418424E+02   -0.29354E-02   -0.39312E-02   142   0.183E+00    0.106E+00
DAV:   4    -0.145037831569E+02    0.46587E-02   -0.13587E-02   141   0.121E+00    0.285E-01
DAV:   5    -0.145037499901E+02    0.33167E-04   -0.29363E-03   135   0.609E-01    0.211E-01
DAV:   6    -0.145035377361E+02    0.21225E-03   -0.15306E-03   134   0.398E-01    0.141E-01
DAV:   7    -0.145036897009E+02   -0.15196E-03   -0.73823E-04   127   0.323E-01    0.115E-01
DAV:   8    -0.145039194135E+02   -0.22971E-03   -0.21460E-04    88   0.175E-01    0.472E-02
DAV:   9    -0.145042982196E+02   -0.37881E-03   -0.41419E-05    95   0.560E-02    0.252E-02
DAV:  10    -0.145045975200E+02   -0.29930E-03   -0.32483E-05    88   0.482E-02    0.154E-02
DAV:  11    -0.145049503647E+02   -0.35284E-03   -0.17724E-05    86   0.328E-02    0.137E-02
DAV:  12    -0.145053394191E+02   -0.38905E-03   -0.13454E-05    95   0.202E-02    0.589E-03
DAV:  13    -0.145057000044E+02   -0.36059E-03   -0.80727E-06    87   0.107E-02    0.506E-03
DAV:  14    -0.145061552073E+02   -0.45520E-03   -0.98316E-06    95   0.839E-03    0.415E-03
DAV:  15    -0.145068018707E+02   -0.64666E-03   -0.17361E-05    85   0.108E-02    0.303E-03
DAV:  16    -0.145073769155E+02   -0.57504E-03   -0.21559E-05    94   0.114E-02    0.203E-03
DAV:  17    -0.145076787645E+02   -0.30185E-03   -0.14512E-05   103   0.104E-02    0.132E-03
DAV:  18    -0.145078571603E+02   -0.17840E-03   -0.10430E-05    93   0.811E-03    0.927E-04
DAV:  19    -0.145079361495E+02   -0.78989E-04   -0.57301E-06   104   0.632E-03
   5 F= -.14507936E+02 E0= -.14520730E+02  d E =-.204517E-01  mag=     2.4169
       N       E                     dE             d eps       ncg     rms          rms(c)
DAV:   1    -0.145107012336E+02   -0.28441E-02   -0.50779E+00   132   0.103E+01    0.442E-01
DAV:   2    -0.145236868925E+02   -0.12986E-01   -0.10865E-01   142   0.236E+00    0.141E+00
DAV:   3    -0.145150361889E+02    0.86507E-02   -0.27422E-02   141   0.174E+00    0.273E-01
DAV:   4    -0.145149069543E+02    0.12923E-03   -0.27026E-03   134   0.546E-01    0.200E-01
DAV:   5    -0.145135713198E+02    0.13356E-02   -0.86040E-04   134   0.334E-01    0.127E-01
DAV:   6    -0.145112510299E+02    0.23203E-02   -0.84248E-04   135   0.281E-01    0.156E-01
DAV:   7    -0.145098781558E+02    0.13729E-02   -0.61754E-04   126   0.268E-01    0.770E-02
DAV:   8    -0.145098038345E+02    0.74321E-04   -0.14319E-04    86   0.143E-01
   6 F= -.14509804E+02 E0= -.14524081E+02  d E =-.186769E-02  mag=     2.3825
       N       E                     dE             d eps       ncg     rms          rms(c)
DAV:   1    -0.144632188931E+02    0.46659E-01   -0.46033E+01   132   0.312E+01    0.137E+00
DAV:   2    -0.145781949885E+02   -0.11498E+00   -0.10097E+00   142   0.723E+00    0.392E+00
DAV:   3    -0.145090263578E+02    0.69169E-01   -0.19801E-01   142   0.545E+00    0.806E-01
DAV:   4    -0.145061634237E+02    0.28629E-02   -0.28606E-02   136   0.173E+00    0.614E-01
DAV:   5    -0.144962605705E+02    0.99029E-02   -0.73665E-03   135   0.103E+00    0.344E-01
DAV:   6    -0.144829563409E+02    0.13304E-01   -0.67215E-03   136   0.797E-01    0.388E-01
DAV:   7    -0.144806441394E+02    0.23122E-02   -0.42094E-03   135   0.775E-01    0.243E-01
DAV:   8    -0.144839363633E+02   -0.32922E-02   -0.19897E-03   136   0.481E-01    0.137E-01
DAV:   9    -0.144910225137E+02   -0.70862E-02   -0.73758E-04   149   0.241E-01    0.631E-02
DAV:  10    -0.144988842473E+02   -0.78617E-02   -0.51496E-04   100   0.112E-01    0.606E-02
DAV:  11    -0.145031004472E+02   -0.42162E-02   -0.12794E-04   101   0.797E-02    0.280E-02
DAV:  12    -0.145088170349E+02   -0.57166E-02   -0.20977E-04   100   0.442E-02    0.220E-02
DAV:  13    -0.145130049602E+02   -0.41879E-02   -0.69381E-05    93   0.290E-02    0.177E-02
DAV:  14    -0.145185172070E+02   -0.55122E-02   -0.19143E-04   100   0.320E-02    0.140E-02
DAV:  15    -0.145237399366E+02   -0.52227E-02   -0.20354E-04   101   0.362E-02    0.103E-02
DAV:  16    -0.145270377795E+02   -0.32978E-02   -0.17602E-04   109   0.325E-02    0.597E-03
DAV:  17    -0.145282278757E+02   -0.11901E-02   -0.46068E-05    94   0.210E-02    0.325E-03
DAV:  18    -0.145287931514E+02   -0.56528E-03   -0.21121E-05   104   0.144E-02    0.230E-03
DAV:  19    -0.145291711547E+02   -0.37800E-03   -0.11837E-05    94   0.998E-03    0.231E-03
DAV:  20    -0.145297034799E+02   -0.53233E-03   -0.12260E-05    94   0.969E-03    0.109E-03
DAV:  21    -0.145299191325E+02   -0.21565E-03   -0.86519E-06   103   0.774E-03    0.855E-04
DAV:  22    -0.145300106370E+02   -0.91504E-04   -0.43561E-06    95   0.577E-03
   7 F= -.14530011E+02 E0= -.14546515E+02  d E =-.220745E-01  mag=     2.1530
       N       E                     dE             d eps       ncg     rms          rms(c)
DAV:   1    -0.145275686176E+02    0.23505E-02   -0.11613E+01   132   0.156E+01    0.440E-01
DAV:   2    -0.145441863127E+02   -0.16618E-01   -0.18429E-01   143   0.261E+00    0.648E-01
DAV:   3    -0.145446103164E+02   -0.42400E-03   -0.22392E-02   143   0.143E+00    0.566E-01
DAV:   4    -0.145429749242E+02    0.16354E-02   -0.52181E-03   143   0.669E-01    0.188E-01
DAV:   5    -0.145428444137E+02    0.13051E-03   -0.90289E-04   136   0.327E-01    0.159E-01
DAV:   6    -0.145419846416E+02    0.85977E-03   -0.13461E-03   134   0.324E-01    0.162E-01
DAV:   7    -0.145413812651E+02    0.60338E-03   -0.88261E-04   143   0.322E-01    0.741E-02
DAV:   8    -0.145412689919E+02    0.11227E-03   -0.14045E-04    86   0.124E-01    0.437E-02
DAV:   9    -0.145413726137E+02   -0.10362E-03   -0.55542E-05    94   0.627E-02    0.207E-02
DAV:  10    -0.145416919685E+02   -0.31935E-03   -0.37758E-05    95   0.330E-02    0.212E-02
DAV:  11    -0.145419842015E+02   -0.29223E-03   -0.20626E-05   104   0.280E-02    0.639E-03
DAV:  12    -0.145422746047E+02   -0.29040E-03   -0.11898E-05    92   0.153E-02    0.470E-03
DAV:  13    -0.145425768557E+02   -0.30225E-03   -0.10340E-05   103   0.986E-03    0.285E-03
DAV:  14    -0.145427927592E+02   -0.21590E-03   -0.64291E-06    94   0.710E-03    0.228E-03
DAV:  15    -0.145430971089E+02   -0.30435E-03   -0.86678E-06    95   0.743E-03    0.178E-03
DAV:  16    -0.145434582982E+02   -0.36119E-03   -0.13304E-05   102   0.858E-03    0.123E-03
DAV:  17    -0.145436348292E+02   -0.17653E-03   -0.80990E-06   103   0.769E-03    0.943E-04
DAV:  18    -0.145437712929E+02   -0.13646E-03   -0.72551E-06    86   0.661E-03    0.729E-04
DAV:  19    -0.145438440352E+02   -0.72742E-04   -0.43091E-06   104   0.557E-03
   8 F= -.14543844E+02 E0= -.14560560E+02  d E =-.138334E-01  mag=     2.1764
       N       E                     dE             d eps       ncg     rms          rms(c)
DAV:   1    -0.144444837206E+02    0.99288E-01   -0.10582E+02   132   0.475E+01    0.132E+00
DAV:   2    -0.145948570792E+02   -0.15037E+00   -0.16375E+00   142   0.776E+00    0.178E+00
DAV:   3    -0.145967096424E+02   -0.18526E-02   -0.17380E-01   142   0.412E+00    0.151E+00
DAV:   4    -0.145848742061E+02    0.11835E-01   -0.45593E-02   143   0.190E+00    0.507E-01
DAV:   5    -0.145841292110E+02    0.74500E-03   -0.78291E-03   143   0.882E-01    0.510E-01
DAV:   6    -0.145802583366E+02    0.38709E-02   -0.98179E-03   132   0.102E+00    0.388E-01
DAV:   7    -0.145788819458E+02    0.13764E-02   -0.64708E-03   142   0.813E-01    0.257E-01
DAV:   8    -0.145788113543E+02    0.70592E-04   -0.12758E-03   135   0.425E-01    0.149E-01
DAV:   9    -0.145792669231E+02   -0.45557E-03   -0.75975E-04   110   0.215E-01    0.697E-02
DAV:  10    -0.145808709187E+02   -0.16040E-02   -0.22330E-04    95   0.979E-02    0.254E-02
DAV:  11    -0.145822260985E+02   -0.13552E-02   -0.10296E-04   112   0.444E-02    0.165E-02
DAV:  12    -0.145832757957E+02   -0.10497E-02   -0.36126E-05    94   0.334E-02    0.112E-02
DAV:  13    -0.145842690266E+02   -0.99323E-03   -0.37525E-05    96   0.259E-02    0.816E-03
DAV:  14    -0.145852092241E+02   -0.94020E-03   -0.27591E-05    94   0.190E-02    0.559E-03
DAV:  15    -0.145860804348E+02   -0.87121E-03   -0.26467E-05   104   0.140E-02    0.409E-03
DAV:  16    -0.145869452210E+02   -0.86479E-03   -0.27392E-05    94   0.131E-02    0.302E-03
DAV:  17    -0.145876814222E+02   -0.73620E-03   -0.26705E-05   104   0.136E-02    0.314E-03
DAV:  18    -0.145883171671E+02   -0.63574E-03   -0.28523E-05    94   0.133E-02    0.158E-03
DAV:  19    -0.145886380874E+02   -0.32092E-03   -0.17315E-05   104   0.115E-02    0.136E-03
DAV:  20    -0.145888031395E+02   -0.16505E-03   -0.97928E-06    96   0.808E-03    0.703E-04
DAV:  21    -0.145889101263E+02   -0.10699E-03   -0.56449E-06   102   0.625E-03    0.483E-04
DAV:  22    -0.145889517045E+02   -0.41578E-04   -0.29031E-06    96   0.442E-03
   9 F= -.14588952E+02 E0= -.14607883E+02  d E =-.589411E-01  mag=     2.2291
       N       E                     dE             d eps       ncg     rms          rms(c)
DAV:   1    -0.141255662682E+02    0.46334E+00   -0.44050E+02   132   0.100E+02    0.269E+00
DAV:   2    -0.147020982470E+02   -0.57653E+00   -0.62029E+00   142   0.156E+01    0.356E+00
DAV:   3    -0.147028888924E+02   -0.79065E-03   -0.50248E-01   142   0.778E+00    0.238E+00
DAV:   4    -0.146791579594E+02    0.23731E-01   -0.14297E-01   143   0.340E+00    0.104E+00
DAV:   5    -0.146761540782E+02    0.30039E-02   -0.24694E-02   143   0.161E+00    0.901E-01
DAV:   6    -0.146697297844E+02    0.64243E-02   -0.33605E-02   134   0.185E+00    0.642E-01
DAV:   7    -0.146713701365E+02   -0.16404E-02   -0.10762E-02   133   0.967E-01    0.237E-01
DAV:   8    -0.146739601075E+02   -0.25900E-02   -0.17706E-03   134   0.422E-01    0.147E-01
DAV:   9    -0.146750928454E+02   -0.11327E-02   -0.78059E-04   152   0.314E-01    0.102E-01
DAV:  10    -0.146765444042E+02   -0.14516E-02   -0.40100E-04   112   0.210E-01    0.542E-02
DAV:  11    -0.146778131728E+02   -0.12688E-02   -0.19064E-04   104   0.943E-02    0.465E-02
DAV:  12    -0.146786025881E+02   -0.78942E-03   -0.98446E-05    96   0.646E-02    0.150E-02
DAV:  13    -0.146794389537E+02   -0.83637E-03   -0.44036E-05    96   0.317E-02    0.961E-03
DAV:  14    -0.146801826557E+02   -0.74370E-03   -0.36237E-05   104   0.177E-02    0.716E-03
DAV:  15    -0.146810746676E+02   -0.89201E-03   -0.37472E-05    88   0.179E-02    0.608E-03
DAV:  16    -0.146819334510E+02   -0.85878E-03   -0.44763E-05    96   0.187E-02    0.338E-03
DAV:  17    -0.146824435829E+02   -0.51013E-03   -0.28702E-05    96   0.146E-02    0.222E-03
DAV:  18    -0.146829059483E+02   -0.46237E-03   -0.25668E-05    96   0.136E-02    0.156E-03
DAV:  19    -0.146831895072E+02   -0.28356E-03   -0.16533E-05   104   0.108E-02    0.108E-03
DAV:  20    -0.146834048015E+02   -0.21529E-03   -0.11138E-05    95   0.872E-03    0.744E-04
DAV:  21    -0.146835405210E+02   -0.13572E-03   -0.76203E-06   102   0.701E-03    0.520E-04
DAV:  22    -0.146836234405E+02   -0.82919E-04   -0.46348E-06   103   0.551E-03
  10 F= -.14683623E+02 E0= -.14710130E+02  d E =-.153613E+00  mag=     2.2100
       N       E                     dE             d eps       ncg     rms          rms(c)
DAV:   1    -0.122020638841E+02    0.24815E+01   -0.19802E+03   132   0.232E+02    0.755E+00
DAV:   2    -0.151293613949E+02   -0.29273E+01   -0.29514E+01   142   0.357E+01    0.137E+01
DAV:   3    -0.153000365185E+02   -0.17068E+00   -0.14771E+01   141   0.164E+01    0.753E+00
DAV:   4    -0.148266098076E+02    0.47343E+00   -0.12149E+00   141   0.103E+01    0.437E+00
DAV:   5    -0.147900595911E+02    0.36550E-01   -0.32983E-01   136   0.570E+00    0.332E+00
DAV:   6    -0.147626253352E+02    0.27434E-01   -0.14542E-01   134   0.313E+00    0.237E+00
DAV:   7    -0.147442824614E+02    0.18343E-01   -0.13256E-01   133   0.282E+00    0.213E+00
DAV:   8    -0.147640760155E+02   -0.19794E-01   -0.26157E-02   142   0.175E+00    0.182E+00
DAV:   9    -0.147549038972E+02    0.91721E-02   -0.37384E-02   143   0.221E+00    0.126E+00
DAV:  10    -0.147408805451E+02    0.14023E-01   -0.23074E-02   136   0.126E+00    0.641E-01
DAV:  11    -0.147378652910E+02    0.30153E-02   -0.61962E-03   135   0.902E-01    0.596E-01
DAV:  12    -0.147517563053E+02   -0.13891E-01   -0.36030E-03   136   0.383E-01    0.487E-01
DAV:  13    -0.147580053026E+02   -0.62490E-02   -0.26819E-03   142   0.377E-01    0.245E-01
DAV:  14    -0.147619654385E+02   -0.39601E-02   -0.95860E-04   136   0.199E-01    0.152E-01
DAV:  15    -0.147646488692E+02   -0.26834E-02   -0.26662E-04   118   0.132E-01    0.107E-01
DAV:  16    -0.147678934706E+02   -0.32446E-02   -0.32127E-04   133   0.116E-01    0.574E-02
DAV:  17    -0.147702421612E+02   -0.23487E-02   -0.87289E-05    93   0.568E-02    0.420E-02
DAV:  18    -0.147723589387E+02   -0.21168E-02   -0.14705E-04    94   0.516E-02    0.156E-02
DAV:  19    -0.147736388610E+02   -0.12799E-02   -0.51164E-05   102   0.254E-02    0.816E-03
DAV:  20    -0.147744497992E+02   -0.81094E-03   -0.32951E-05   102   0.193E-02    0.774E-03
DAV:  21    -0.147755804289E+02   -0.11306E-02   -0.40560E-05    85   0.185E-02    0.835E-03
DAV:  22    -0.147765378541E+02   -0.95743E-03   -0.60342E-05   110   0.180E-02    0.659E-03
DAV:  23    -0.147772138069E+02   -0.67595E-03   -0.28389E-05    95   0.154E-02    0.368E-03
DAV:  24    -0.147776688011E+02   -0.45499E-03   -0.30596E-05   110   0.156E-02    0.147E-03
DAV:  25    -0.147778139401E+02   -0.14514E-03   -0.16047E-05    95   0.118E-02    0.125E-03
DAV:  26    -0.147778881824E+02   -0.74242E-04   -0.95001E-06   119   0.853E-03
  11 F= -.14777888E+02 E0= -.14811234E+02  d E =-.247878E+00  mag=     2.0933
       N       E                     dE             d eps       ncg     rms          rms(c)
DAV:   1    -0.147813217767E+02   -0.35078E-02   -0.20661E+00   132   0.655E+00    0.205E-01
DAV:   2    -0.147837474626E+02   -0.24257E-02   -0.32252E-02   134   0.109E+00    0.182E-01
DAV:   3    -0.147840887536E+02   -0.34129E-03   -0.20917E-03   134   0.526E-01    0.111E-01
DAV:   4    -0.147840495867E+02    0.39167E-04   -0.27030E-04   112   0.224E-01
  12 F= -.14784050E+02 E0= -.14817279E+02  d E =-.616140E-02  mag=     2.0927
       N       E                     dE             d eps       ncg     rms          rms(c)
DAV:   1    -0.147773053486E+02    0.67834E-02   -0.18652E+01   132   0.197E+01    0.614E-01
DAV:   2    -0.148007889875E+02   -0.23484E-01   -0.28652E-01   134   0.323E+00    0.547E-01
DAV:   3    -0.148024887006E+02   -0.16997E-02   -0.17507E-02   135   0.149E+00    0.365E-01
DAV:   4    -0.148019158046E+02    0.57290E-03   -0.31778E-03   134   0.678E-01    0.208E-01
DAV:   5    -0.148020394200E+02   -0.12362E-03   -0.13398E-03   135   0.365E-01    0.181E-01
DAV:   6    -0.148020325867E+02    0.68333E-05   -0.10465E-03   159   0.317E-01    0.443E-02
DAV:   7    -0.148022256136E+02   -0.19303E-03   -0.95348E-05    88   0.826E-02    0.308E-02
DAV:   8    -0.148023140382E+02   -0.88425E-04   -0.27118E-05    87   0.555E-02
  13 F= -.14802314E+02 E0= -.14835291E+02  d E =-.244259E-01  mag=     2.0896
       N       E                     dE             d eps       ncg     rms          rms(c)
DAV:   1    -0.147379954538E+02    0.64230E-01   -0.75056E+01   132   0.398E+01    0.124E+00
DAV:   2    -0.148334269550E+02   -0.95432E-01   -0.11468E+00   134   0.653E+00    0.117E+00
DAV:   3    -0.148388931568E+02   -0.54662E-02   -0.73536E-02   135   0.313E+00    0.752E-01
DAV:   4    -0.148364262637E+02    0.24669E-02   -0.16094E-02   134   0.135E+00    0.434E-01
DAV:   5    -0.148367536437E+02   -0.32738E-03   -0.46551E-03   134   0.698E-01    0.339E-01
DAV:   6    -0.148364727631E+02    0.28088E-03   -0.38408E-03   159   0.519E-01    0.996E-02
DAV:   7    -0.148370779174E+02   -0.60515E-03   -0.44592E-04   135   0.158E-01    0.638E-02
DAV:   8    -0.148373200492E+02   -0.24213E-03   -0.10420E-04    94   0.131E-01    0.415E-02
DAV:   9    -0.148374717571E+02   -0.15171E-03   -0.60490E-05    95   0.740E-02    0.222E-02
DAV:  10    -0.148376158933E+02   -0.14414E-03   -0.39930E-05   104   0.473E-02    0.155E-02
DAV:  11    -0.148377470951E+02   -0.13120E-03   -0.19063E-05    88   0.308E-02    0.543E-03
DAV:  12    -0.148378586211E+02   -0.11153E-03   -0.79191E-06   110   0.145E-02    0.391E-03
DAV:  13    -0.148379632669E+02   -0.10465E-03   -0.51211E-06    95   0.948E-03    0.254E-03
DAV:  14    -0.148380879641E+02   -0.12470E-03   -0.57781E-06   111   0.768E-03    0.178E-03
DAV:  15    -0.148382024512E+02   -0.11449E-03   -0.61947E-06    95   0.714E-03    0.121E-03
DAV:  16    -0.148382857468E+02   -0.83296E-04   -0.52904E-06   119   0.658E-03
  14 F= -.14838286E+02 E0= -.14870600E+02  d E =-.603976E-01  mag=     2.0854
       N       E                     dE             d eps       ncg     rms          rms(c)
DAV:   1    -0.145172945651E+02    0.32091E+00   -0.30850E+02   132   0.828E+01    0.257E+00
DAV:   2    -0.149070867077E+02   -0.38979E+00   -0.45291E+00   132   0.135E+01    0.306E+00
DAV:   3    -0.149017182922E+02    0.53684E-02   -0.38485E-01   132   0.728E+00    0.155E+00
DAV:   4    -0.148940231038E+02    0.76952E-02   -0.92714E-02   134   0.278E+00    0.106E+00
DAV:   5    -0.148953518084E+02   -0.13287E-02   -0.29960E-02   133   0.148E+00    0.770E-01
DAV:   6    -0.148940860028E+02    0.12658E-02   -0.15203E-02   151   0.108E+00    0.356E-01
DAV:   7    -0.148971457627E+02   -0.30598E-02   -0.33303E-03   143   0.413E-01    0.258E-01
DAV:   8    -0.148979200031E+02   -0.77424E-03   -0.11731E-03   141   0.421E-01    0.103E-01
DAV:   9    -0.148983028418E+02   -0.38284E-03   -0.36394E-04   119   0.197E-01    0.516E-02
DAV:  10    -0.148986451637E+02   -0.34232E-03   -0.10014E-04    96   0.993E-02    0.295E-02
DAV:  11    -0.148989825198E+02   -0.33736E-03   -0.63615E-05   112   0.592E-02    0.226E-02
DAV:  12    -0.148992749486E+02   -0.29243E-03   -0.26384E-05    88   0.427E-02    0.937E-03
DAV:  13    -0.148995954205E+02   -0.32047E-03   -0.16539E-05   109   0.255E-02    0.920E-03
DAV:  14    -0.148998964505E+02   -0.30103E-03   -0.13379E-05    95   0.188E-02    0.474E-03
DAV:  15    -0.149001435884E+02   -0.24714E-03   -0.83114E-06   109   0.111E-02    0.310E-03
DAV:  16    -0.149005034334E+02   -0.35984E-03   -0.13360E-05    95   0.106E-02    0.282E-03
DAV:  17    -0.149008035916E+02   -0.30016E-03   -0.13454E-05   101   0.111E-02    0.218E-03
DAV:  18    -0.149009873382E+02   -0.18375E-03   -0.10541E-05   111   0.970E-03    0.140E-03
DAV:  19    -0.149011039831E+02   -0.11664E-03   -0.81455E-06    95   0.824E-03    0.983E-04
DAV:  20    -0.149011576507E+02   -0.53668E-04   -0.48151E-06   117   0.632E-03
  15 F= -.14901158E+02 E0= -.14931192E+02  d E =-.123269E+00  mag=     2.1132
       N       E                     dE             d eps       ncg     rms          rms(c)
DAV:   1    -0.134967019408E+02    0.14044E+01   -0.13511E+03   132   0.187E+02    0.676E+00
DAV:   2    -0.157510050840E+02   -0.22543E+01   -0.20822E+01   132   0.345E+01    0.108E+01
DAV:   3    -0.150216421916E+02    0.72936E+00   -0.60561E+00   134   0.206E+01    0.538E+00
DAV:   4    -0.148653207187E+02    0.15632E+00   -0.14298E+00   140   0.100E+01    0.343E+00
DAV:   5    -0.148590328356E+02    0.62879E-02   -0.34791E-01   143   0.515E+00    0.253E+00
DAV:   6    -0.148855759597E+02   -0.26543E-01   -0.50984E-02   140   0.187E+00    0.207E+00
DAV:   7    -0.148939208788E+02   -0.83449E-02   -0.71008E-02   141   0.315E+00    0.136E+00
DAV:   8    -0.148936023068E+02    0.31857E-03   -0.39017E-02   142   0.224E+00    0.996E-01
DAV:   9    -0.148895790928E+02    0.40232E-02   -0.33511E-02   133   0.143E+00    0.771E-01
DAV:  10    -0.148916595965E+02   -0.20805E-02   -0.17236E-02   143   0.111E+00    0.303E-01
DAV:  11    -0.148956549184E+02   -0.39953E-02   -0.38748E-03   143   0.556E-01    0.345E-01
DAV:  12    -0.148980897863E+02   -0.24349E-02   -0.12471E-03   141   0.322E-01    0.151E-01
DAV:  13    -0.149019702989E+02   -0.38805E-02   -0.85986E-04   132   0.142E-01    0.895E-02
DAV:  14    -0.149044433860E+02   -0.24731E-02   -0.26819E-04   110   0.114E-01    0.868E-02
DAV:  15    -0.149059472447E+02   -0.15039E-02   -0.17907E-04    94   0.993E-02    0.170E-02
DAV:  16    -0.149072110281E+02   -0.12638E-02   -0.83372E-05    96   0.356E-02    0.172E-02
DAV:  17    -0.149078952704E+02   -0.68424E-03   -0.30061E-05   100   0.230E-02    0.860E-03
DAV:  18    -0.149086683153E+02   -0.77304E-03   -0.30178E-05    94   0.173E-02    0.502E-03
DAV:  19    -0.149092850408E+02   -0.61673E-03   -0.23526E-05   102   0.140E-02    0.348E-03
DAV:  20    -0.149097535434E+02   -0.46850E-03   -0.20054E-05    94   0.130E-02    0.249E-03
DAV:  21    -0.149101859644E+02   -0.43242E-03   -0.24664E-05   102   0.127E-02    0.222E-03
DAV:  22    -0.149103664051E+02   -0.18044E-03   -0.13874E-05   103   0.109E-02    0.147E-03
DAV:  23    -0.149104685496E+02   -0.10214E-03   -0.10648E-05   102   0.880E-03    0.804E-04
DAV:  24    -0.149105115510E+02   -0.43001E-04   -0.56811E-06   104   0.702E-03
  16 F= -.14910512E+02 E0= -.14927011E+02  d E =-.132623E+00  mag=     2.1211
       N       E                     dE             d eps       ncg     rms          rms(c)
DAV:   1    -0.144372456088E+02    0.47322E+00   -0.43276E+02   132   0.996E+01    0.359E+00
DAV:   2    -0.151595889236E+02   -0.72234E+00   -0.69793E+00   141   0.194E+01    0.816E+00
DAV:   3    -0.149830723263E+02    0.17652E+00   -0.30583E+00   140   0.106E+01    0.328E+00
DAV:   4    -0.149410086994E+02    0.42064E-01   -0.45850E-01   143   0.567E+00    0.198E+00
DAV:   5    -0.149248829091E+02    0.16126E-01   -0.61071E-02   135   0.317E+00    0.854E-01
DAV:   6    -0.149245317044E+02    0.35120E-03   -0.29443E-02   148   0.123E+00    0.741E-01
DAV:   7    -0.149286167335E+02   -0.40850E-02   -0.20110E-02   150   0.133E+00    0.883E-01
DAV:   8    -0.149260377991E+02    0.25789E-02   -0.74228E-03   151   0.107E+00    0.335E-01
DAV:   9    -0.149279025789E+02   -0.18648E-02   -0.99855E-03   143   0.583E-01    0.316E-01
DAV:  10    -0.149294541871E+02   -0.15516E-02   -0.13619E-03   134   0.386E-01    0.993E-02
DAV:  11    -0.149302480937E+02   -0.79391E-03   -0.65317E-04   134   0.203E-01    0.802E-02
DAV:  12    -0.149308025740E+02   -0.55448E-03   -0.12179E-04    86   0.130E-01    0.404E-02
DAV:  13    -0.149313559859E+02   -0.55341E-03   -0.59335E-05    93   0.432E-02    0.160E-02
DAV:  14    -0.149317554676E+02   -0.39948E-03   -0.29129E-05    87   0.234E-02    0.954E-03
DAV:  15    -0.149320866572E+02   -0.33119E-03   -0.15106E-05   102   0.180E-02    0.959E-03
DAV:  16    -0.149324302107E+02   -0.34355E-03   -0.15902E-05    87   0.139E-02    0.343E-03
DAV:  17    -0.149326403134E+02   -0.21010E-03   -0.93878E-06   103   0.932E-03    0.238E-03
DAV:  18    -0.149328963626E+02   -0.25605E-03   -0.11860E-05    86   0.938E-03    0.249E-03
DAV:  19    -0.149331575876E+02   -0.26123E-03   -0.16349E-05   102   0.105E-02    0.145E-03
DAV:  20    -0.149332589882E+02   -0.10140E-03   -0.87529E-06   103   0.849E-03    0.932E-04
DAV:  21    -0.149333458738E+02   -0.86886E-04   -0.95146E-06    93   0.778E-03
  17 F= -.14933346E+02 E0= -.14959409E+02  d E =-.155458E+00  mag=     2.1474
       N       E                     dE             d eps       ncg     rms          rms(c)
DAV:   1    -0.149409289358E+02   -0.76699E-02   -0.81315E+01   132   0.413E+01    0.154E+00
DAV:   2    -0.150567144033E+02   -0.11579E+00   -0.14296E+00   134   0.767E+00    0.237E+00
DAV:   3    -0.150385288671E+02    0.18186E-01   -0.18061E-01   133   0.506E+00    0.763E-01
DAV:   4    -0.150393651118E+02   -0.83624E-03   -0.18221E-02   135   0.146E+00    0.418E-01
DAV:   5    -0.150396922279E+02   -0.32712E-03   -0.35692E-03   143   0.711E-01    0.306E-01
DAV:   6    -0.150401648965E+02   -0.47267E-03   -0.43118E-03   142   0.576E-01    0.201E-01
DAV:   7    -0.150406911706E+02   -0.52627E-03   -0.15530E-03   136   0.411E-01    0.164E-01
DAV:   8    -0.150408778559E+02   -0.18669E-03   -0.83116E-04   104   0.282E-01    0.949E-02
DAV:   9    -0.150410802625E+02   -0.20241E-03   -0.35709E-04    85   0.153E-01    0.442E-02
DAV:  10    -0.150412469173E+02   -0.16665E-03   -0.53801E-05    95   0.798E-02    0.213E-02
DAV:  11    -0.150413683809E+02   -0.12146E-03   -0.19334E-05    94   0.409E-02    0.153E-02
DAV:  12    -0.150414814103E+02   -0.11303E-03   -0.12853E-05    86   0.273E-02    0.545E-03
DAV:  13    -0.150415845501E+02   -0.10314E-03   -0.64221E-06    94   0.125E-02    0.358E-03
DAV:  14    -0.150416847166E+02   -0.10017E-03   -0.40330E-06    93   0.751E-03    0.190E-03
DAV:  15    -0.150417538302E+02   -0.69114E-04   -0.26498E-06    95   0.520E-03
  18 F= -.15041754E+02 E0= -.15064968E+02  d E =-.108408E+00  mag=     2.1414
       N       E                     dE             d eps       ncg     rms          rms(c)
DAV:   1    -0.145687959357E+02    0.47289E+00   -0.53344E+02   132   0.111E+02    0.516E+00
DAV:   2    -0.156157341222E+02   -0.10469E+01   -0.10504E+01   132   0.255E+01    0.862E+00
DAV:   3    -0.151031702012E+02    0.51256E+00   -0.30889E+00   132   0.172E+01    0.283E+00
DAV:   4    -0.150663195600E+02    0.36851E-01   -0.57216E-01   141   0.795E+00    0.236E+00
DAV:   5    -0.150481440041E+02    0.18176E-01   -0.11649E-01   144   0.382E+00    0.147E+00
DAV:   6    -0.150572946711E+02   -0.91507E-02   -0.42709E-02   132   0.221E+00    0.110E+00
DAV:   7    -0.150685853741E+02   -0.11291E-01   -0.29690E-02   133   0.201E+00    0.703E-01
DAV:   8    -0.150763450198E+02   -0.77596E-02   -0.86405E-03   133   0.115E+00    0.313E-01
DAV:   9    -0.150856023074E+02   -0.92573E-02   -0.55168E-03   132   0.754E-01    0.239E-01
DAV:  10    -0.150908424207E+02   -0.52401E-02   -0.15847E-03   134   0.493E-01    0.103E-01
DAV:  11    -0.150970848120E+02   -0.62424E-02   -0.56128E-04   100   0.160E-01    0.757E-02
DAV:  12    -0.151045401065E+02   -0.74553E-02   -0.31397E-04   117   0.138E-01    0.285E-02
DAV:  13    -0.151099402227E+02   -0.54001E-02   -0.11877E-04    85   0.521E-02    0.256E-02
DAV:  14    -0.151155668324E+02   -0.56266E-02   -0.17145E-04    93   0.375E-02    0.174E-02
DAV:  15    -0.151216258556E+02   -0.60590E-02   -0.11915E-04    93   0.328E-02    0.119E-02
DAV:  16    -0.151282728554E+02   -0.66470E-02   -0.33400E-04   109   0.424E-02    0.941E-03
DAV:  17    -0.151323262662E+02   -0.40534E-02   -0.12577E-04    93   0.322E-02    0.519E-03
DAV:  18    -0.151343529369E+02   -0.20267E-02   -0.13322E-04   102   0.284E-02    0.447E-03
DAV:  19    -0.151352996357E+02   -0.94670E-03   -0.33971E-05   103   0.188E-02    0.235E-03
DAV:  20    -0.151358049794E+02   -0.50534E-03   -0.21878E-05    94   0.132E-02    0.180E-03
DAV:  21    -0.151360791409E+02   -0.27416E-03   -0.10488E-05   103   0.990E-03    0.139E-03
DAV:  22    -0.151362774803E+02   -0.19834E-03   -0.63815E-06    94   0.686E-03    0.109E-03
DAV:  23    -0.151364527841E+02   -0.17530E-03   -0.42004E-06   102   0.596E-03    0.608E-04
DAV:  24    -0.151365144036E+02   -0.61619E-04   -0.22003E-06   102   0.425E-03
  19 F= -.15136514E+02 E0= -.15147250E+02  d E =-.203169E+00  mag=     1.8646
       N       E                     dE             d eps       ncg     rms          rms(c)
DAV:   1    -0.150616924213E+02    0.74760E-01   -0.79374E+01   132   0.411E+01    0.195E+00
DAV:   2    -0.152185822761E+02   -0.15689E+00   -0.15389E+00   142   0.963E+00    0.511E+00
DAV:   3    -0.151347782604E+02    0.83804E-01   -0.71198E-01   134   0.670E+00    0.121E+00
DAV:   4    -0.151292904097E+02    0.54879E-02   -0.73512E-02   133   0.242E+00    0.993E-01
DAV:   5    -0.151205434378E+02    0.87470E-02   -0.19570E-02   142   0.175E+00    0.480E-01
DAV:   6    -0.151099304970E+02    0.10613E-01   -0.13577E-02   133   0.779E-01    0.492E-01
DAV:   7    -0.151111635517E+02   -0.12331E-02   -0.61342E-03   135   0.739E-01    0.263E-01
DAV:   8    -0.151137282295E+02   -0.25647E-02   -0.17334E-03   142   0.506E-01    0.119E-01
DAV:   9    -0.151179074200E+02   -0.41792E-02   -0.51501E-04   108   0.169E-01    0.622E-02
DAV:  10    -0.151229218245E+02   -0.50144E-02   -0.31695E-04   100   0.109E-01    0.352E-02
DAV:  11    -0.151287083208E+02   -0.57865E-02   -0.22257E-04   101   0.666E-02    0.216E-02
DAV:  12    -0.151327721983E+02   -0.40639E-02   -0.93814E-05    84   0.458E-02    0.153E-02
DAV:  13    -0.151359722603E+02   -0.32001E-02   -0.88992E-05    93   0.371E-02    0.127E-02
DAV:  14    -0.151396903445E+02   -0.37181E-02   -0.91184E-05    84   0.320E-02    0.892E-03
DAV:  15    -0.151428199682E+02   -0.31296E-02   -0.16147E-04   109   0.274E-02    0.642E-03
DAV:  16    -0.151452697326E+02   -0.24498E-02   -0.65973E-05    85   0.231E-02    0.430E-03
DAV:  17    -0.151466284252E+02   -0.13587E-02   -0.52267E-05    93   0.202E-02    0.294E-03
DAV:  18    -0.151473657803E+02   -0.73736E-03   -0.35398E-05    94   0.169E-02    0.185E-03
DAV:  19    -0.151476928168E+02   -0.32704E-03   -0.19646E-05   104   0.128E-02    0.132E-03
DAV:  20    -0.151479751746E+02   -0.28236E-03   -0.11278E-05   101   0.903E-03    0.875E-04
DAV:  21    -0.151481458950E+02   -0.17072E-03   -0.55751E-06    94   0.693E-03    0.600E-04
DAV:  22    -0.151482353757E+02   -0.89481E-04   -0.30621E-06   103   0.441E-03
  20 F= -.15148235E+02 E0= -.15165117E+02  d E =-.214890E+00  mag=     2.0413
       N       E                     dE             d eps       ncg     rms          rms(c)
DAV:   1    -0.151450158990E+02    0.31300E-02   -0.84332E+00   132   0.133E+01    0.665E-01
DAV:   2    -0.151615176353E+02   -0.16502E-01   -0.18257E-01   134   0.332E+00    0.145E+00
DAV:   3    -0.151517475637E+02    0.97701E-02   -0.38930E-02   133   0.256E+00    0.249E-01
DAV:   4    -0.151522588307E+02   -0.51127E-03   -0.59380E-03   142   0.667E-01    0.229E-01
DAV:   5    -0.151516105617E+02    0.64827E-03   -0.17428E-03   151   0.468E-01    0.155E-01
DAV:   6    -0.151511954954E+02    0.41507E-03   -0.92058E-04   149   0.314E-01    0.151E-01
DAV:   7    -0.151504841973E+02    0.71130E-03   -0.37076E-04   118   0.239E-01    0.464E-02
DAV:   8    -0.151507446316E+02   -0.26043E-03   -0.18392E-04    94   0.101E-01    0.400E-02
DAV:   9    -0.151511388945E+02   -0.39426E-03   -0.44074E-05    84   0.714E-02    0.175E-02
DAV:  10    -0.151515505522E+02   -0.41166E-03   -0.28725E-05    86   0.419E-02    0.134E-02
DAV:  11    -0.151520266429E+02   -0.47609E-03   -0.19515E-05    84   0.218E-02    0.916E-03
DAV:  12    -0.151524966937E+02   -0.47005E-03   -0.18896E-05    93   0.151E-02    0.462E-03
DAV:  13    -0.151529764383E+02   -0.47974E-03   -0.18916E-05    85   0.122E-02    0.304E-03
DAV:  14    -0.151533766620E+02   -0.40022E-03   -0.16178E-05    93   0.107E-02    0.238E-03
DAV:  15    -0.151538354674E+02   -0.45881E-03   -0.19721E-05    85   0.114E-02    0.194E-03
DAV:  16    -0.151541916992E+02   -0.35623E-03   -0.18309E-05   102   0.109E-02    0.123E-03
DAV:  17    -0.151544444881E+02   -0.25279E-03   -0.16431E-05    94   0.103E-02    0.694E-04
DAV:  18    -0.151545547608E+02   -0.11027E-03   -0.96072E-06   102   0.840E-03    0.587E-04
DAV:  19    -0.151546172757E+02   -0.62515E-04   -0.55711E-06    95   0.598E-03
  21 F= -.15154617E+02 E0= -.15169644E+02  d E =-.221271E+00  mag=     1.9978
       N       E                     dE             d eps       ncg     rms          rms(c)
DAV:   1    -0.152306356789E+02   -0.76081E-01   -0.12809E+01   132   0.163E+01    0.825E-01
DAV:   2    -0.152540145128E+02   -0.23379E-01   -0.26432E-01   142   0.385E+00    0.164E+00
DAV:   3    -0.152419887451E+02    0.12026E-01   -0.65203E-02   133   0.300E+00    0.398E-01
DAV:   4    -0.152425828779E+02   -0.59413E-03   -0.67674E-03   140   0.824E-01    0.242E-01
DAV:   5    -0.152422710280E+02    0.31185E-03   -0.20748E-03   150   0.554E-01    0.176E-01
DAV:   6    -0.152424575976E+02   -0.18657E-03   -0.19617E-03   142   0.401E-01    0.191E-01
DAV:   7    -0.152424062322E+02    0.51365E-04   -0.84236E-04   134   0.314E-01
  22 F= -.15242406E+02 E0= -.15258362E+02  d E =-.877890E-01  mag=     1.9844
       N       E                     dE             d eps       ncg     rms          rms(c)
DAV:   1    -0.152973535924E+02   -0.54896E-01   -0.11722E+02   132   0.499E+01    0.254E+00
DAV:   2    -0.154934245530E+02   -0.19607E+00   -0.22860E+00   141   0.111E+01    0.404E+00
DAV:   3    -0.154218421629E+02    0.71582E-01   -0.52260E-01   133   0.828E+00    0.128E+00
DAV:   4    -0.154140828127E+02    0.77594E-02   -0.65476E-02   143   0.295E+00    0.772E-01
DAV:   5    -0.154133163784E+02    0.76643E-03   -0.16338E-02   134   0.168E+00    0.435E-01
DAV:   6    -0.154175141981E+02   -0.41978E-02   -0.86204E-03   141   0.947E-01    0.360E-01
DAV:   7    -0.154190374967E+02   -0.15233E-02   -0.36586E-03   151   0.736E-01    0.123E-01
DAV:   8    -0.154213318395E+02   -0.22943E-02   -0.63136E-04   133   0.259E-01    0.915E-02
DAV:   9    -0.154231761623E+02   -0.18443E-02   -0.16839E-04    84   0.161E-01    0.435E-02
DAV:  10    -0.154244151584E+02   -0.12390E-02   -0.10884E-04    93   0.101E-01    0.188E-02
DAV:  11    -0.154255617838E+02   -0.11466E-02   -0.55051E-05    87   0.452E-02    0.136E-02
DAV:  12    -0.154264187306E+02   -0.85695E-03   -0.27408E-05    93   0.266E-02    0.574E-03
DAV:  13    -0.154271908940E+02   -0.77216E-03   -0.18204E-05    95   0.139E-02    0.482E-03
DAV:  14    -0.154278805767E+02   -0.68968E-03   -0.17092E-05    93   0.121E-02    0.314E-03
DAV:  15    -0.154284821092E+02   -0.60153E-03   -0.16012E-05   102   0.106E-02    0.228E-03
DAV:  16    -0.154291179864E+02   -0.63588E-03   -0.22718E-05    93   0.113E-02    0.157E-03
DAV:  17    -0.154294386607E+02   -0.32067E-03   -0.17365E-05   102   0.101E-02    0.119E-03
DAV:  18    -0.154296239517E+02   -0.18529E-03   -0.14153E-05   102   0.950E-03    0.732E-04
DAV:  19    -0.154296978288E+02   -0.73877E-04   -0.96172E-06   102   0.752E-03
  23 F= -.15429698E+02 E0= -.15448913E+02  d E =-.275081E+00  mag=     1.9169
       N       E                     dE             d eps       ncg     rms          rms(c)
DAV:   1    -0.145843011116E+02    0.84532E+00   -0.49397E+02   132   0.107E+02    0.608E+00
DAV:   2    -0.152464943640E+02   -0.66219E+00   -0.82973E+00   132   0.198E+01    0.567E+00
DAV:   3    -0.151729423478E+02    0.73552E-01   -0.13516E+00   140   0.145E+01    0.280E+00
DAV:   4    -0.151312368156E+02    0.41706E-01   -0.24416E-01   150   0.698E+00    0.165E+00
DAV:   5    -0.151293512008E+02    0.18856E-02   -0.72909E-02   132   0.361E+00    0.827E-01
DAV:   6    -0.151322368013E+02   -0.28856E-02   -0.17468E-02   143   0.158E+00    0.319E-01
DAV:   7    -0.151348456921E+02   -0.26089E-02   -0.32283E-03   141   0.648E-01    0.162E-01
DAV:   8    -0.151365796229E+02   -0.17339E-02   -0.71024E-04   141   0.301E-01    0.818E-02
DAV:   9    -0.151381866883E+02   -0.16071E-02   -0.35984E-04   142   0.147E-01    0.313E-02
DAV:  10    -0.151394234879E+02   -0.12368E-02   -0.70298E-05   102   0.661E-02    0.203E-02
DAV:  11    -0.151402527895E+02   -0.82930E-03   -0.49864E-05    94   0.437E-02    0.136E-02
DAV:  12    -0.151410549495E+02   -0.80216E-03   -0.38290E-05   102   0.295E-02    0.804E-03
DAV:  13    -0.151418013428E+02   -0.74639E-03   -0.39714E-05    94   0.213E-02    0.537E-03
DAV:  14    -0.151424782889E+02   -0.67695E-03   -0.31481E-05   103   0.177E-02    0.405E-03
DAV:  15    -0.151431479962E+02   -0.66971E-03   -0.39747E-05   102   0.181E-02    0.300E-03
DAV:  16    -0.151435837306E+02   -0.43573E-03   -0.37137E-05   102   0.155E-02    0.203E-03
DAV:  17    -0.151437848994E+02   -0.20117E-03   -0.20560E-05   104   0.126E-02    0.119E-03
DAV:  18    -0.151439150865E+02   -0.13019E-03   -0.14996E-05   102   0.886E-03    0.830E-04
DAV:  19    -0.151439693430E+02   -0.54256E-04   -0.69508E-06   103   0.711E-03
  24 F= -.15143969E+02 E0= -.15163132E+02  d E =0.106479E-01  mag=     1.8817
       N       E                     dE             d eps       ncg     rms          rms(c)
DAV:   1    -0.151242139244E+02    0.19701E-01   -0.32006E+02   132   0.849E+01    0.473E+00
DAV:   2    -0.155777092002E+02   -0.45350E+00   -0.51964E+00   132   0.167E+01    0.515E+00
DAV:   3    -0.154774924090E+02    0.10022E+00   -0.11661E+00   132   0.132E+01    0.275E+00
DAV:   4    -0.154490068621E+02    0.28486E-01   -0.19186E-01   142   0.513E+00    0.168E+00
DAV:   5    -0.154461349969E+02    0.28719E-02   -0.69551E-02   142   0.357E+00    0.990E-01
DAV:   6    -0.154459463271E+02    0.18867E-03   -0.18886E-02   140   0.167E+00    0.349E-01
DAV:   7    -0.154487931487E+02   -0.28468E-02   -0.45080E-03   142   0.626E-01    0.182E-01
DAV:   8    -0.154504806609E+02   -0.16875E-02   -0.14509E-03   134   0.454E-01    0.833E-02
DAV:   9    -0.154514741868E+02   -0.99353E-03   -0.36187E-04   126   0.207E-01    0.518E-02
DAV:  10    -0.154523126211E+02   -0.83843E-03   -0.10462E-04    93   0.116E-01    0.255E-02
DAV:  11    -0.154531630347E+02   -0.85041E-03   -0.65189E-05    94   0.516E-02    0.124E-02
DAV:  12    -0.154536837602E+02   -0.52073E-03   -0.23132E-05   101   0.301E-02    0.928E-03
DAV:  13    -0.154541690516E+02   -0.48529E-03   -0.14607E-05   103   0.183E-02    0.645E-03
DAV:  14    -0.154545615726E+02   -0.39252E-03   -0.10708E-05   103   0.147E-02    0.386E-03
DAV:  15    -0.154549845528E+02   -0.42298E-03   -0.12453E-05    95   0.121E-02    0.368E-03
DAV:  16    -0.154552376112E+02   -0.25306E-03   -0.87107E-06   103   0.113E-02    0.238E-03
DAV:  17    -0.154554409269E+02   -0.20332E-03   -0.84446E-06   103   0.102E-02    0.193E-03
DAV:  18    -0.154555768646E+02   -0.13594E-03   -0.68236E-06   103   0.878E-03    0.995E-04
DAV:  19    -0.154556468072E+02   -0.69943E-04   -0.43742E-06   102   0.604E-03
  25 F= -.15455647E+02 E0= -.15475693E+02  d E =-.301030E+00  mag=     1.8985
       N       E                     dE             d eps       ncg     rms          rms(c)
DAV:   1    -0.154974043821E+02   -0.41828E-01   -0.27179E+01   132   0.240E+01    0.981E-01
DAV:   2    -0.155311482905E+02   -0.33744E-01   -0.47292E-01   133   0.465E+00    0.113E+00
DAV:   3    -0.155306483995E+02    0.49989E-03   -0.55307E-02   135   0.277E+00    0.476E-01
DAV:   4    -0.155306813689E+02   -0.32969E-04   -0.76782E-03   134   0.107E+00    0.382E-01
DAV:   5    -0.155299990057E+02    0.68236E-03   -0.32224E-03   149   0.791E-01    0.266E-01
DAV:   6    -0.155292780950E+02    0.72091E-03   -0.17705E-03   141   0.425E-01    0.121E-01
DAV:   7    -0.155293185105E+02   -0.40415E-04   -0.58899E-04   151   0.304E-01
  26 F= -.15529319E+02 E0= -.15546474E+02  d E =-.736717E-01  mag=     1.9154
       N       E                     dE             d eps       ncg     rms          rms(c)
DAV:   1    -0.153632465970E+02    0.16603E+00   -0.21504E+02   132   0.689E+01    0.316E+00
DAV:   2    -0.157060523430E+02   -0.34281E+00   -0.41255E+00   142   0.153E+01    0.462E+00
DAV:   3    -0.156089003361E+02    0.97152E-01   -0.83175E-01   133   0.104E+01    0.157E+00
DAV:   4    -0.156131813365E+02   -0.42810E-02   -0.12734E-01   132   0.391E+00    0.130E+00
DAV:   5    -0.156101603240E+02    0.30210E-02   -0.33291E-02   140   0.243E+00    0.824E-01
DAV:   6    -0.156113267823E+02   -0.11665E-02   -0.15411E-02   134   0.139E+00    0.443E-01
DAV:   7    -0.156110946656E+02    0.23212E-03   -0.92304E-03   149   0.111E+00    0.246E-01
DAV:   8    -0.156098494661E+02    0.12452E-02   -0.31135E-03   149   0.535E-01    0.197E-01
DAV:   9    -0.156079788363E+02    0.18706E-02   -0.10343E-03   141   0.374E-01    0.748E-02
DAV:  10    -0.156073096995E+02    0.66914E-03   -0.35052E-04   110   0.178E-01    0.625E-02
DAV:  11    -0.156077954521E+02   -0.48575E-03   -0.11282E-04    85   0.112E-01    0.284E-02
DAV:  12    -0.156087170569E+02   -0.92160E-03   -0.12539E-04    92   0.542E-02    0.152E-02
DAV:  13    -0.156100762755E+02   -0.13592E-02   -0.61262E-05    85   0.373E-02    0.888E-03
DAV:  14    -0.156111849622E+02   -0.11087E-02   -0.48085E-05    92   0.231E-02    0.640E-03
DAV:  15    -0.156123597644E+02   -0.11748E-02   -0.37999E-05    85   0.190E-02    0.505E-03
DAV:  16    -0.156134770101E+02   -0.11172E-02   -0.49048E-05    93   0.176E-02    0.367E-03
DAV:  17    -0.156143872968E+02   -0.91029E-03   -0.44024E-05   101   0.177E-02    0.249E-03
DAV:  18    -0.156150331910E+02   -0.64589E-03   -0.36795E-05    94   0.161E-02    0.148E-03
DAV:  19    -0.156153632281E+02   -0.33004E-03   -0.23606E-05   102   0.124E-02    0.983E-04
DAV:  20    -0.156155670431E+02   -0.20381E-03   -0.13210E-05   102   0.970E-03    0.677E-04
DAV:  21    -0.156156792619E+02   -0.11222E-03   -0.76195E-06   102   0.697E-03    0.430E-04
DAV:  22    -0.156157381171E+02   -0.58855E-04   -0.41720E-06   102   0.532E-03
  27 F= -.15615738E+02 E0= -.15626782E+02  d E =-.160091E+00  mag=     1.9813
       N       E                     dE             d eps       ncg     rms          rms(c)
DAV:   1    -0.156173413642E+02   -0.16621E-02   -0.24644E+01   132   0.228E+01    0.112E+00
DAV:   2    -0.156489677100E+02   -0.31626E-01   -0.47068E-01   133   0.515E+00    0.149E+00
DAV:   3    -0.156421021323E+02    0.68656E-02   -0.77235E-02   132   0.346E+00    0.407E-01
DAV:   4    -0.156411330367E+02    0.96910E-03   -0.73743E-03   142   0.803E-01    0.344E-01
DAV:   5    -0.156405006074E+02    0.63243E-03   -0.34165E-03   150   0.738E-01    0.331E-01
DAV:   6    -0.156396847154E+02    0.81589E-03   -0.20207E-03   141   0.563E-01    0.137E-01
DAV:   7    -0.156401598870E+02   -0.47517E-03   -0.77197E-04   140   0.320E-01    0.828E-02
DAV:   8    -0.156404878592E+02   -0.32797E-03   -0.21163E-04    87   0.196E-01    0.505E-02
DAV:   9    -0.156409884233E+02   -0.50056E-03   -0.75462E-05    92   0.994E-02    0.194E-02
DAV:  10    -0.156415606957E+02   -0.57227E-03   -0.31196E-05    84   0.346E-02    0.140E-02
DAV:  11    -0.156422649635E+02   -0.70427E-03   -0.24852E-05    93   0.291E-02    0.879E-03
DAV:  12    -0.156429567360E+02   -0.69177E-03   -0.21160E-05    84   0.197E-02    0.627E-03
DAV:  13    -0.156437094858E+02   -0.75275E-03   -0.24053E-05    93   0.158E-02    0.424E-03
DAV:  14    -0.156442604625E+02   -0.55098E-03   -0.16710E-05    93   0.116E-02    0.314E-03
DAV:  15    -0.156448872495E+02   -0.62679E-03   -0.18792E-05    93   0.112E-02    0.226E-03
DAV:  16    -0.156455391046E+02   -0.65186E-03   -0.25055E-05    94   0.122E-02    0.158E-03
DAV:  17    -0.156459617688E+02   -0.42266E-03   -0.20318E-05   102   0.119E-02    0.859E-04
DAV:  18    -0.156461372213E+02   -0.17545E-03   -0.11387E-05    94   0.918E-03    0.638E-04
DAV:  19    -0.156462392164E+02   -0.10200E-03   -0.63915E-06   102   0.653E-03    0.446E-04
DAV:  20    -0.156463055670E+02   -0.66351E-04   -0.35479E-06   102   0.503E-03
  28 F= -.15646306E+02 E0= -.15657686E+02  d E =-.305674E-01  mag=     2.0422
       N       E                     dE             d eps       ncg     rms          rms(c)
DAV:   1    -0.156433231642E+02    0.29161E-02   -0.51630E+00   132   0.104E+01    0.512E-01
DAV:   2    -0.156495343117E+02   -0.62111E-02   -0.99002E-02   141   0.238E+00    0.687E-01
DAV:   3    -0.156484426417E+02    0.10917E-02   -0.16536E-02   140   0.160E+00    0.183E-01
DAV:   4    -0.156483361383E+02    0.10650E-03   -0.14202E-03   142   0.351E-01    0.144E-01
DAV:   5    -0.156482276541E+02    0.10848E-03   -0.65178E-04   150   0.311E-01    0.143E-01
DAV:   6    -0.156480740681E+02    0.15359E-03   -0.38385E-04   109   0.246E-01    0.653E-02
DAV:   7    -0.156481537287E+02   -0.79661E-04   -0.15633E-04    94   0.155E-01
  29 F= -.15648154E+02 E0= -.15660052E+02  d E =-.324156E-01  mag=     2.0536
       N       E                     dE             d eps       ncg     rms          rms(c)
DAV:   1    -0.156531095089E+02   -0.50354E-02   -0.91722E+00   132   0.139E+01    0.527E-01
DAV:   2    -0.156657768448E+02   -0.12667E-01   -0.15798E-01   132   0.274E+00    0.725E-01
DAV:   3    -0.156648152636E+02    0.96158E-03   -0.20021E-02   132   0.168E+00    0.265E-01
DAV:   4    -0.156651725863E+02   -0.35732E-03   -0.22858E-03   141   0.549E-01    0.178E-01
DAV:   5    -0.156652397752E+02   -0.67189E-04   -0.92940E-04   141   0.395E-01
  30 F= -.15665240E+02 E0= -.15676032E+02  d E =-.170860E-01  mag=     2.0568
       N       E                     dE             d eps       ncg     rms          rms(c)
DAV:   1    -0.156606565208E+02    0.45161E-02   -0.13089E+01   132   0.167E+01    0.625E-01
DAV:   2    -0.156783213640E+02   -0.17665E-01   -0.21905E-01   141   0.310E+00    0.760E-01
DAV:   3    -0.156776294072E+02    0.69196E-03   -0.24272E-02   140   0.185E+00    0.330E-01
DAV:   4    -0.156777101613E+02   -0.80754E-04   -0.29047E-03   141   0.642E-01    0.212E-01
DAV:   5    -0.156778481534E+02   -0.13799E-03   -0.14792E-03   142   0.486E-01    0.169E-01
DAV:   6    -0.156780048583E+02   -0.15670E-03   -0.96011E-04   142   0.330E-01    0.968E-02
DAV:   7    -0.156781245202E+02   -0.11966E-03   -0.31787E-04   109   0.219E-01    0.385E-02
DAV:   8    -0.156782065550E+02   -0.82035E-04   -0.62387E-05    94   0.908E-02
  31 F= -.15678207E+02 E0= -.15688345E+02  d E =-.300528E-01  mag=     2.0576
       N       E                     dE             d eps       ncg     rms          rms(c)
DAV:   1    -0.156082321635E+02    0.69892E-01   -0.52465E+01   132   0.335E+01    0.136E+00
DAV:   2    -0.156856109759E+02   -0.77379E-01   -0.92549E-01   132   0.683E+00    0.193E+00
DAV:   3    -0.156733161814E+02    0.12295E-01   -0.13559E-01   132   0.443E+00    0.616E-01
DAV:   4    -0.156736341900E+02   -0.31801E-03   -0.14747E-02   142   0.134E+00    0.441E-01
DAV:   5    -0.156734054430E+02    0.22875E-03   -0.57301E-03   142   0.971E-01    0.315E-01
DAV:   6    -0.156735810681E+02   -0.17563E-03   -0.36966E-03   142   0.647E-01    0.236E-01
DAV:   7    -0.156737049932E+02   -0.12393E-03   -0.14832E-03   134   0.492E-01    0.798E-02
DAV:   8    -0.156740348353E+02   -0.32984E-03   -0.23407E-04    93   0.181E-01    0.514E-02
DAV:   9    -0.156743545950E+02   -0.31976E-03   -0.79246E-05    85   0.875E-02    0.185E-02
DAV:  10    -0.156745542941E+02   -0.19970E-03   -0.36700E-05    95   0.363E-02    0.150E-02
DAV:  11    -0.156747016054E+02   -0.14731E-03   -0.16145E-05    94   0.287E-02    0.629E-03
DAV:  12    -0.156747862368E+02   -0.84631E-04   -0.84648E-06    94   0.164E-02
  32 F= -.15674786E+02 E0= -.15683075E+02  d E =-.266325E-01  mag=     2.0484
       N       E                     dE             d eps       ncg     rms          rms(c)
DAV:   1    -0.156938944834E+02   -0.19193E-01   -0.92079E+00   132   0.140E+01    0.575E-01
DAV:   2    -0.157040628915E+02   -0.10168E-01   -0.14427E-01   133   0.234E+00    0.462E-01
DAV:   3    -0.157051352265E+02   -0.10723E-02   -0.12438E-02   150   0.129E+00    0.344E-01
DAV:   4    -0.157042573261E+02    0.87790E-03   -0.25731E-03   150   0.695E-01    0.195E-01
DAV:   5    -0.157036315823E+02    0.62574E-03   -0.14675E-03   150   0.455E-01    0.163E-01
DAV:   6    -0.157030504757E+02    0.58111E-03   -0.80520E-04   151   0.369E-01    0.714E-02
DAV:   7    -0.157032384300E+02   -0.18795E-03   -0.18796E-04    93   0.172E-01    0.345E-02
DAV:   8    -0.157035571113E+02   -0.31868E-03   -0.43635E-05    85   0.759E-02    0.174E-02
DAV:   9    -0.157039975821E+02   -0.44047E-03   -0.29511E-05    93   0.324E-02    0.849E-03
DAV:  10    -0.157043477375E+02   -0.35016E-03   -0.14602E-05    94   0.199E-02    0.558E-03
DAV:  11    -0.157045950646E+02   -0.24733E-03   -0.85925E-06    93   0.136E-02    0.357E-03
DAV:  12    -0.157048674117E+02   -0.27235E-03   -0.82608E-06    93   0.102E-02    0.281E-03
DAV:  13    -0.157051399660E+02   -0.27255E-03   -0.73960E-06   101   0.842E-03    0.199E-03
DAV:  14    -0.157054302251E+02   -0.29026E-03   -0.86795E-06    94   0.793E-03    0.144E-03
DAV:  15    -0.157056878991E+02   -0.25767E-03   -0.92844E-06   102   0.784E-03    0.106E-03
DAV:  16    -0.157058899664E+02   -0.20207E-03   -0.83826E-06   102   0.764E-03    0.621E-04
DAV:  17    -0.157059982658E+02   -0.10830E-03   -0.58371E-06   102   0.650E-03    0.482E-04
DAV:  18    -0.157060713551E+02   -0.73089E-04   -0.40952E-06   102   0.532E-03
  33 F= -.15706071E+02 E0= -.15715478E+02  d E =-.312851E-01  mag=     2.0798
       N       E                     dE             d eps       ncg     rms          rms(c)
DAV:   1    -0.157015697337E+02    0.44285E-02   -0.16416E+01   132   0.186E+01    0.721E-01
DAV:   2    -0.157201565026E+02   -0.18587E-01   -0.25423E-01   134   0.305E+00    0.524E-01
DAV:   3    -0.157222976858E+02   -0.21412E-02   -0.17820E-02   150   0.146E+00    0.386E-01
DAV:   4    -0.157216314681E+02    0.66622E-03   -0.36013E-03   141   0.829E-01    0.242E-01
DAV:   5    -0.157213789258E+02    0.25254E-03   -0.20882E-03   141   0.536E-01    0.196E-01
DAV:   6    -0.157210912992E+02    0.28763E-03   -0.11766E-03   143   0.449E-01    0.777E-02
DAV:   7    -0.157213111929E+02   -0.21989E-03   -0.22410E-04    94   0.189E-01    0.416E-02
DAV:   8    -0.157214873220E+02   -0.17613E-03   -0.52485E-05    94   0.953E-02    0.190E-02
DAV:   9    -0.157217357806E+02   -0.24846E-03   -0.23763E-05    85   0.321E-02    0.950E-03
DAV:  10    -0.157219478554E+02   -0.21207E-03   -0.11952E-05   102   0.224E-02    0.534E-03
DAV:  11    -0.157220985916E+02   -0.15074E-03   -0.63408E-06    93   0.140E-02    0.363E-03
DAV:  12    -0.157222476653E+02   -0.14907E-03   -0.46952E-06   102   0.976E-03    0.248E-03
DAV:  13    -0.157224086891E+02   -0.16102E-03   -0.40616E-06    93   0.684E-03    0.172E-03
DAV:  14    -0.157225762790E+02   -0.16759E-03   -0.41533E-06   102   0.587E-03    0.130E-03
DAV:  15    -0.157227298336E+02   -0.15355E-03   -0.41016E-06   102   0.552E-03    0.105E-03
DAV:  16    -0.157228983598E+02   -0.16853E-03   -0.51711E-06   102   0.600E-03    0.711E-04
DAV:  17    -0.157229879631E+02   -0.89603E-04   -0.35723E-06   102   0.537E-03
  34 F= -.15722988E+02 E0= -.15733572E+02  d E =-.482017E-01  mag=     2.1044
       N       E                     dE             d eps       ncg     rms          rms(c)
DAV:   1    -0.157300270400E+02   -0.71287E-02   -0.54794E+00   132   0.107E+01    0.369E-01
DAV:   2    -0.157367439977E+02   -0.67170E-02   -0.87611E-02   150   0.179E+00    0.308E-01
DAV:   3    -0.157374763900E+02   -0.73239E-03   -0.57212E-03   133   0.852E-01    0.193E-01
DAV:   4    -0.157373302101E+02    0.14618E-03   -0.76342E-04   150   0.363E-01    0.103E-01
DAV:   5    -0.157374058076E+02   -0.75598E-04   -0.53101E-04   150   0.214E-01
  35 F= -.15737406E+02 E0= -.15747595E+02  d E =-.144178E-01  mag=     2.1033
       N       E                     dE             d eps       ncg     rms          rms(c)
DAV:   1    -0.157012068470E+02    0.36123E-01   -0.49596E+01   132   0.323E+01    0.114E+00
DAV:   2    -0.157654792756E+02   -0.64272E-01   -0.78910E-01   142   0.539E+00    0.897E-01
DAV:   3    -0.157694513726E+02   -0.39721E-02   -0.51981E-02   134   0.252E+00    0.557E-01
DAV:   4    -0.157680792585E+02    0.13721E-02   -0.60399E-03   142   0.106E+00    0.294E-01
DAV:   5    -0.157682203208E+02   -0.14106E-03   -0.45893E-03   133   0.433E-01    0.193E-01
DAV:   6    -0.157688728099E+02   -0.65249E-03   -0.17771E-03   150   0.545E-01    0.127E-01
DAV:   7    -0.157690332290E+02   -0.16042E-03   -0.44321E-04   110   0.282E-01    0.679E-02
DAV:   8    -0.157692428667E+02   -0.20964E-03   -0.10542E-04    92   0.126E-01    0.263E-02
DAV:   9    -0.157694784550E+02   -0.23559E-03   -0.63460E-05   102   0.488E-02    0.174E-02
DAV:  10    -0.157696195847E+02   -0.14113E-03   -0.24408E-05    93   0.415E-02    0.827E-03
DAV:  11    -0.157697456896E+02   -0.12610E-03   -0.10646E-05   102   0.212E-02    0.352E-03
DAV:  12    -0.157698842792E+02   -0.13859E-03   -0.65964E-06    93   0.108E-02    0.196E-03
DAV:  13    -0.157699734357E+02   -0.89157E-04   -0.40297E-06   102   0.638E-03
  36 F= -.15769973E+02 E0= -.15779574E+02  d E =-.469855E-01  mag=     2.0946
       N       E                     dE             d eps       ncg     rms          rms(c)
DAV:   1    -0.155054976587E+02    0.26439E+00   -0.20213E+02   132   0.663E+01    0.240E+00
DAV:   2    -0.157718437364E+02   -0.26635E+00   -0.31414E+00   135   0.110E+01    0.198E+00
DAV:   3    -0.157798434719E+02   -0.79997E-02   -0.24597E-01   134   0.564E+00    0.116E+00
DAV:   4    -0.157733220238E+02    0.65214E-02   -0.27934E-02   150   0.218E+00    0.573E-01
DAV:   5    -0.157731925302E+02    0.12949E-03   -0.18700E-02   142   0.795E-01    0.374E-01
DAV:   6    -0.157746009119E+02   -0.14084E-02   -0.63416E-03   151   0.985E-01    0.214E-01
DAV:   7    -0.157750996663E+02   -0.49875E-03   -0.16616E-03   134   0.501E-01    0.127E-01
DAV:   8    -0.157756845472E+02   -0.58488E-03   -0.45918E-04   140   0.243E-01    0.459E-02
DAV:   9    -0.157765190821E+02   -0.83453E-03   -0.17496E-04    94   0.777E-02    0.248E-02
DAV:  10    -0.157770276234E+02   -0.50854E-03   -0.70952E-05   101   0.627E-02    0.130E-02
DAV:  11    -0.157773920846E+02   -0.36446E-03   -0.31664E-05    94   0.382E-02    0.653E-03
DAV:  12    -0.157777924643E+02   -0.40038E-03   -0.20642E-05   101   0.193E-02    0.426E-03
DAV:  13    -0.157781148892E+02   -0.32242E-03   -0.14105E-05    94   0.127E-02    0.294E-03
DAV:  14    -0.157784349514E+02   -0.32006E-03   -0.14819E-05   101   0.107E-02    0.213E-03
DAV:  15    -0.157787559848E+02   -0.32103E-03   -0.16472E-05    94   0.109E-02    0.187E-03
DAV:  16    -0.157789383606E+02   -0.18238E-03   -0.11351E-05   102   0.988E-03    0.132E-03
DAV:  17    -0.157790804771E+02   -0.14212E-03   -0.10876E-05   102   0.799E-03    0.757E-04
DAV:  18    -0.157791510258E+02   -0.70549E-04   -0.64572E-06   102   0.705E-03
  37 F= -.15779151E+02 E0= -.15785004E+02  d E =-.561631E-01  mag=     2.0622
       N       E                     dE             d eps       ncg     rms          rms(c)
DAV:   1    -0.157406623783E+02    0.38418E-01   -0.32774E+01   132   0.262E+01    0.925E-01
DAV:   2    -0.157829350013E+02   -0.42273E-01   -0.51596E-01   141   0.447E+00    0.867E-01
DAV:   3    -0.157847857329E+02   -0.18507E-02   -0.40453E-02   133   0.231E+00    0.495E-01
DAV:   4    -0.157839220385E+02    0.86369E-03   -0.50415E-03   142   0.858E-01    0.260E-01
DAV:   5    -0.157839552258E+02   -0.33187E-04   -0.37796E-03   142   0.526E-01    0.214E-01
DAV:   6    -0.157840428179E+02   -0.87592E-04   -0.18332E-03   151   0.547E-01    0.999E-02
DAV:   7    -0.157842388293E+02   -0.19601E-03   -0.35377E-04   111   0.240E-01    0.512E-02
DAV:   8    -0.157844176267E+02   -0.17880E-03   -0.72206E-05    92   0.854E-02    0.253E-02
DAV:   9    -0.157846146362E+02   -0.19701E-03   -0.49832E-05   102   0.482E-02    0.131E-02
DAV:  10    -0.157847389187E+02   -0.12428E-03   -0.17956E-05    94   0.322E-02    0.654E-03
DAV:  11    -0.157848247009E+02   -0.85782E-04   -0.72831E-06   101   0.178E-02
  38 F= -.15784825E+02 E0= -.15792585E+02  d E =-.618367E-01  mag=     2.0728
       N       E                     dE             d eps       ncg     rms          rms(c)
DAV:   1    -0.157886047615E+02   -0.38658E-02   -0.56163E-01   132   0.341E+00    0.106E-01
DAV:   2    -0.157892920203E+02   -0.68726E-03   -0.89808E-03   142   0.597E-01    0.117E-01
DAV:   3    -0.157894389529E+02   -0.14693E-03   -0.72878E-04   132   0.303E-01    0.507E-02
DAV:   4    -0.157894925322E+02   -0.53579E-04   -0.60332E-05   103   0.886E-02
  39 F= -.15789493E+02 E0= -.15797096E+02  d E =-.466783E-02  mag=     2.0738
       N       E                     dE             d eps       ncg     rms          rms(c)
DAV:   1    -0.157961478154E+02   -0.67089E-02   -0.50681E+00   132   0.103E+01    0.312E-01
DAV:   2    -0.158026791590E+02   -0.65313E-02   -0.79703E-02   142   0.177E+00    0.337E-01
DAV:   3    -0.158031427938E+02   -0.46363E-03   -0.61752E-03   132   0.872E-01    0.154E-01
DAV:   4    -0.158031333911E+02    0.94027E-05   -0.56352E-04   150   0.264E-01
  40 F= -.15803133E+02 E0= -.15810201E+02  d E =-.183087E-01  mag=     2.0738
       N       E                     dE             d eps       ncg     rms          rms(c)
DAV:   1    -0.158032306768E+02   -0.87883E-04   -0.20320E+01   132   0.206E+01    0.618E-01
DAV:   2    -0.158304679318E+02   -0.27237E-01   -0.31724E-01   142   0.349E+00    0.634E-01
DAV:   3    -0.158313960888E+02   -0.92816E-03   -0.23640E-02   133   0.167E+00    0.304E-01
DAV:   4    -0.158310466209E+02    0.34947E-03   -0.21611E-03   150   0.528E-01    0.187E-01
DAV:   5    -0.158310165291E+02    0.30092E-04   -0.19974E-03   150   0.302E-01    0.136E-01
DAV:   6    -0.158311160772E+02   -0.99548E-04   -0.87179E-04   151   0.332E-01
  41 F= -.15831116E+02 E0= -.15837000E+02  d E =-.462914E-01  mag=     2.0703
       N       E                     dE             d eps       ncg     rms          rms(c)
DAV:   1    -0.157781342890E+02    0.52882E-01   -0.81793E+01   132   0.416E+01    0.129E+00
DAV:   2    -0.158888442819E+02   -0.11071E+00   -0.13036E+00   134   0.724E+00    0.140E+00
DAV:   3    -0.158905210037E+02   -0.16767E-02   -0.10700E-01   133   0.366E+00    0.583E-01
DAV:   4    -0.158893173717E+02    0.12036E-02   -0.88500E-03   150   0.101E+00    0.349E-01
DAV:   5    -0.158887566416E+02    0.56073E-03   -0.47677E-03   142   0.550E-01    0.260E-01
DAV:   6    -0.158885426799E+02    0.21396E-03   -0.38502E-03   150   0.559E-01    0.100E-01
DAV:   7    -0.158887697580E+02   -0.22708E-03   -0.49460E-04   152   0.253E-01    0.720E-02
DAV:   8    -0.158890090536E+02   -0.23930E-03   -0.10274E-04    92   0.128E-01    0.370E-02
DAV:   9    -0.158893108030E+02   -0.30175E-03   -0.78817E-05   102   0.708E-02    0.224E-02
DAV:  10    -0.158895703666E+02   -0.25956E-03   -0.40082E-05    85   0.487E-02    0.140E-02
DAV:  11    -0.158897751131E+02   -0.20475E-03   -0.21964E-05   102   0.337E-02    0.631E-03
DAV:  12    -0.158900070458E+02   -0.23193E-03   -0.13048E-05    85   0.185E-02    0.423E-03
DAV:  13    -0.158902384640E+02   -0.23142E-03   -0.99189E-06   102   0.108E-02    0.285E-03
DAV:  14    -0.158904336224E+02   -0.19516E-03   -0.80129E-06    94   0.833E-03    0.210E-03
DAV:  15    -0.158907010948E+02   -0.26747E-03   -0.12492E-05   102   0.923E-03    0.150E-03
DAV:  16    -0.158908993579E+02   -0.19826E-03   -0.11288E-05   102   0.913E-03    0.115E-03
DAV:  17    -0.158910001932E+02   -0.10084E-03   -0.74042E-06   102   0.778E-03    0.843E-04
DAV:  18    -0.158910610370E+02   -0.60844E-04   -0.50672E-06   102   0.593E-03
  42 F= -.15891061E+02 E0= -.15893954E+02  d E =-.106236E+00  mag=     2.0473
       N       E                     dE             d eps       ncg     rms          rms(c)
DAV:   1    -0.155659547539E+02    0.32505E+00   -0.33759E+02   132   0.866E+01    0.256E+00
DAV:   2    -0.160003039188E+02   -0.43435E+00   -0.49699E+00   134   0.141E+01    0.266E+00
DAV:   3    -0.160054870698E+02   -0.51832E-02   -0.37271E-01   133   0.674E+00    0.125E+00
DAV:   4    -0.160004449580E+02    0.50421E-02   -0.36666E-02   143   0.219E+00    0.706E-01
DAV:   5    -0.159989626549E+02    0.14823E-02   -0.13922E-02   141   0.111E+00    0.530E-01
DAV:   6    -0.159987301376E+02    0.23252E-03   -0.17849E-02   150   0.111E+00    0.205E-01
DAV:   7    -0.159992903207E+02   -0.56018E-03   -0.18736E-03   152   0.486E-01    0.131E-01
DAV:   8    -0.159996880333E+02   -0.39771E-03   -0.36955E-04   132   0.219E-01    0.612E-02
DAV:   9    -0.160001787462E+02   -0.49071E-03   -0.20101E-04   102   0.133E-01    0.427E-02
DAV:  10    -0.160004720832E+02   -0.29334E-03   -0.11010E-04   104   0.107E-01    0.242E-02
DAV:  11    -0.160007735630E+02   -0.30148E-03   -0.62449E-05    93   0.528E-02    0.874E-03
DAV:  12    -0.160010049478E+02   -0.23138E-03   -0.22704E-05   103   0.265E-02    0.722E-03
DAV:  13    -0.160012148676E+02   -0.20992E-03   -0.13446E-05    93   0.187E-02    0.415E-03
DAV:  14    -0.160014143994E+02   -0.19953E-03   -0.11870E-05   102   0.112E-02    0.297E-03
DAV:  15    -0.160016259988E+02   -0.21160E-03   -0.11756E-05    94   0.926E-03    0.210E-03
DAV:  16    -0.160018150699E+02   -0.18907E-03   -0.11723E-05   102   0.926E-03    0.145E-03
DAV:  17    -0.160019641851E+02   -0.14912E-03   -0.11579E-05   102   0.874E-03    0.140E-03
DAV:  18    -0.160020457861E+02   -0.81601E-04   -0.73352E-06   102   0.791E-03
  43 F= -.16002046E+02 E0= -.16002157E+02  d E =-.217221E+00  mag=     2.0312
       N       E                     dE             d eps       ncg     rms          rms(c)
DAV:   1    -0.140687429126E+02    0.19332E+01   -0.14930E+03   132   0.196E+02    0.668E+00
DAV:   2    -0.160051822373E+02   -0.19364E+01   -0.20684E+01   135   0.308E+01    0.714E+00
DAV:   3    -0.159836662397E+02    0.21516E-01   -0.30197E+00   134   0.167E+01    0.441E+00
DAV:   4    -0.158636896829E+02    0.11998E+00   -0.40272E-01   133   0.843E+00    0.182E+00
DAV:   5    -0.158628536417E+02    0.83604E-03   -0.63524E-02   151   0.223E+00    0.135E+00
DAV:   6    -0.158646361407E+02   -0.17825E-02   -0.54383E-02   143   0.269E+00    0.104E+00
DAV:   7    -0.158630290389E+02    0.16071E-02   -0.24330E-02   151   0.209E+00    0.298E-01
DAV:   8    -0.158660128587E+02   -0.29838E-02   -0.36668E-03   134   0.446E-01    0.143E-01
DAV:   9    -0.158678337899E+02   -0.18209E-02   -0.42891E-04   125   0.151E-01    0.951E-02
DAV:  10    -0.158694983397E+02   -0.16645E-02   -0.33900E-04   117   0.167E-01    0.446E-02
DAV:  11    -0.158705715868E+02   -0.10732E-02   -0.12983E-04   103   0.112E-01    0.333E-02
DAV:  12    -0.158712057435E+02   -0.63416E-03   -0.52589E-05    93   0.721E-02    0.147E-02
DAV:  13    -0.158717861199E+02   -0.58038E-03   -0.27801E-05   103   0.305E-02    0.818E-03
DAV:  14    -0.158723827302E+02   -0.59661E-03   -0.21972E-05    93   0.159E-02    0.574E-03
DAV:  15    -0.158728585083E+02   -0.47578E-03   -0.14895E-05   103   0.129E-02    0.375E-03
DAV:  16    -0.158733695363E+02   -0.51103E-03   -0.18004E-05    93   0.122E-02    0.281E-03
DAV:  17    -0.158738184276E+02   -0.44889E-03   -0.18201E-05   103   0.126E-02    0.328E-03
DAV:  18    -0.158741175131E+02   -0.29909E-03   -0.13656E-05   102   0.120E-02    0.153E-03
DAV:  19    -0.158743070312E+02   -0.18952E-03   -0.11174E-05   103   0.911E-03    0.115E-03
DAV:  20    -0.158744440095E+02   -0.13698E-03   -0.83335E-06   102   0.840E-03    0.689E-04
DAV:  21    -0.158745049153E+02   -0.60906E-04   -0.54224E-06   103   0.638E-03
  44 F= -.15874505E+02 E0= -.15891956E+02  d E =-.896802E-01  mag=     2.0875
       N       E                     dE             d eps       ncg     rms          rms(c)
DAV:   1    -0.149663295834E+02    0.90811E+00   -0.87406E+02   132   0.147E+02    0.437E+00
DAV:   2    -0.160153886787E+02   -0.10491E+01   -0.11771E+01   136   0.221E+01    0.395E+00
DAV:   3    -0.160420574207E+02   -0.26669E-01   -0.87901E-01   134   0.100E+01    0.221E+00
DAV:   4    -0.160276632413E+02    0.14394E-01   -0.12679E-01   143   0.443E+00    0.134E+00
DAV:   5    -0.160260076007E+02    0.16556E-02   -0.50474E-02   143   0.227E+00    0.103E+00
DAV:   6    -0.160244410843E+02    0.15665E-02   -0.29250E-02   151   0.191E+00    0.389E-01
DAV:   7    -0.160260711344E+02   -0.16301E-02   -0.60161E-03   149   0.840E-01    0.243E-01
DAV:   8    -0.160265238974E+02   -0.45276E-03   -0.16323E-03   142   0.539E-01    0.128E-01
DAV:   9    -0.160275311563E+02   -0.10073E-02   -0.64366E-04   149   0.248E-01    0.710E-02
DAV:  10    -0.160285350951E+02   -0.10039E-02   -0.29243E-04   111   0.196E-01    0.550E-02
DAV:  11    -0.160292696235E+02   -0.73453E-03   -0.11455E-04    84   0.129E-01    0.241E-02
DAV:  12    -0.160299283778E+02   -0.65875E-03   -0.50800E-05    93   0.541E-02    0.142E-02
DAV:  13    -0.160305903455E+02   -0.66197E-03   -0.28044E-05    85   0.323E-02    0.716E-03
DAV:  14    -0.160311977435E+02   -0.60740E-03   -0.21419E-05   102   0.157E-02    0.505E-03
DAV:  15    -0.160318756376E+02   -0.67789E-03   -0.21926E-05    93   0.136E-02    0.404E-03
DAV:  16    -0.160324931796E+02   -0.61754E-03   -0.24104E-05   102   0.134E-02    0.291E-03
DAV:  17    -0.160330901682E+02   -0.59699E-03   -0.27611E-05    94   0.139E-02    0.223E-03
DAV:  18    -0.160335215248E+02   -0.43136E-03   -0.24367E-05   102   0.132E-02    0.137E-03
DAV:  19    -0.160337022468E+02   -0.18072E-03   -0.14101E-05   103   0.992E-03    0.812E-04
DAV:  20    -0.160338553267E+02   -0.15308E-03   -0.99958E-06   102   0.813E-03    0.533E-04
DAV:  21    -0.160339281396E+02   -0.72813E-04   -0.57159E-06   102   0.632E-03
  45 F= -.16033928E+02 E0= -.16035163E+02  d E =-.249103E+00  mag=     2.0359
       N       E                     dE             d eps       ncg     rms          rms(c)
DAV:   1    -0.160557642703E+02   -0.21909E-01   -0.44700E+01   132   0.308E+01    0.122E+00
DAV:   2    -0.161136720064E+02   -0.57908E-01   -0.72023E-01   134   0.571E+00    0.135E+00
DAV:   3    -0.161136833659E+02   -0.11360E-04   -0.79064E-02   133   0.332E+00    0.602E-01
DAV:   4    -0.161128587458E+02    0.82462E-03   -0.91620E-03   143   0.126E+00    0.418E-01
DAV:   5    -0.161128400868E+02    0.18659E-04   -0.38581E-03   133   0.728E-01    0.282E-01
DAV:   6    -0.161131730994E+02   -0.33301E-03   -0.24371E-03   141   0.572E-01    0.118E-01
DAV:   7    -0.161133739140E+02   -0.20081E-03   -0.53545E-04   144   0.281E-01    0.588E-02
DAV:   8    -0.161135376740E+02   -0.16376E-03   -0.13127E-04    92   0.132E-01    0.398E-02
DAV:   9    -0.161136318720E+02   -0.94198E-04   -0.50126E-05    87   0.937E-02
  46 F= -.16113632E+02 E0= -.16117271E+02  d E =-.797037E-01  mag=     2.0412
       N       E                     dE             d eps       ncg     rms          rms(c)
DAV:   1    -0.160593318974E+02    0.54206E-01   -0.68458E+01   132   0.383E+01    0.151E+00
DAV:   2    -0.161488321080E+02   -0.89500E-01   -0.10961E+00   132   0.712E+00    0.173E+00
DAV:   3    -0.161475001217E+02    0.13320E-02   -0.12589E-01   132   0.426E+00    0.778E-01
DAV:   4    -0.161458292278E+02    0.16709E-02   -0.14617E-02   135   0.163E+00    0.491E-01
DAV:   5    -0.161458470192E+02   -0.17791E-04   -0.55164E-03   133   0.802E-01    0.341E-01
DAV:   6    -0.161465457615E+02   -0.69874E-03   -0.35593E-03   149   0.720E-01    0.160E-01
DAV:   7    -0.161469387144E+02   -0.39295E-03   -0.92330E-04   144   0.383E-01    0.686E-02
DAV:   8    -0.161473231624E+02   -0.38445E-03   -0.16980E-04    92   0.147E-01    0.518E-02
DAV:   9    -0.161475114359E+02   -0.18827E-03   -0.76162E-05   103   0.123E-01    0.285E-02
DAV:  10    -0.161477509308E+02   -0.23949E-03   -0.45307E-05    92   0.544E-02    0.156E-02
DAV:  11    -0.161478939111E+02   -0.14298E-03   -0.17360E-05   103   0.349E-02    0.958E-03
DAV:  12    -0.161480513489E+02   -0.15744E-03   -0.86668E-06    93   0.200E-02    0.343E-03
DAV:  13    -0.161481911381E+02   -0.13979E-03   -0.42633E-06   102   0.904E-03    0.240E-03
DAV:  14    -0.161483199379E+02   -0.12880E-03   -0.29754E-06   102   0.625E-03    0.167E-03
DAV:  15    -0.161484478180E+02   -0.12788E-03   -0.31133E-06   102   0.537E-03    0.136E-03
DAV:  16    -0.161485580266E+02   -0.11021E-03   -0.28384E-06   102   0.505E-03    0.102E-03
DAV:  17    -0.161486591658E+02   -0.10114E-03   -0.32801E-06   102   0.497E-03    0.636E-04
DAV:  18    -0.161487070880E+02   -0.47922E-04   -0.20552E-06   102   0.408E-03
  47 F= -.16148707E+02 E0= -.16157560E+02  d E =-.114779E+00  mag=     2.0561
       N       E                     dE             d eps       ncg     rms          rms(c)
DAV:   1    -0.161688811687E+02   -0.20222E-01   -0.84582E+00   132   0.132E+01    0.538E-01
DAV:   2    -0.161795435475E+02   -0.10662E-01   -0.14366E-01   142   0.258E+00    0.628E-01
DAV:   3    -0.161793264140E+02    0.21713E-03   -0.18006E-02   134   0.162E+00    0.245E-01
DAV:   4    -0.161790993736E+02    0.22704E-03   -0.21912E-03   134   0.571E-01    0.167E-01
DAV:   5    -0.161790947132E+02    0.46605E-05   -0.54757E-04   135   0.295E-01
  48 F= -.16179095E+02 E0= -.16186444E+02  d E =-.303876E-01  mag=     2.0547
       N       E                     dE             d eps       ncg     rms          rms(c)
DAV:   1    -0.161288831136E+02    0.50216E-01   -0.76801E+01   132   0.402E+01    0.175E+00
DAV:   2    -0.162308924319E+02   -0.10201E+00   -0.12881E+00   134   0.781E+00    0.198E+00
DAV:   3    -0.162254925982E+02    0.53998E-02   -0.17252E-01   134   0.499E+00    0.783E-01
DAV:   4    -0.162224640812E+02    0.30285E-02   -0.20064E-02   135   0.183E+00    0.523E-01
DAV:   5    -0.162223960174E+02    0.68064E-04   -0.64010E-03   134   0.934E-01    0.340E-01
DAV:   6    -0.162230652157E+02   -0.66920E-03   -0.29623E-03   150   0.605E-01    0.162E-01
DAV:   7    -0.162234979828E+02   -0.43277E-03   -0.11705E-03   141   0.405E-01    0.910E-02
DAV:   8    -0.162238269687E+02   -0.32899E-03   -0.20839E-04   102   0.192E-01    0.502E-02
DAV:   9    -0.162241387378E+02   -0.31177E-03   -0.80638E-05    93   0.104E-01    0.266E-02
DAV:  10    -0.162243411618E+02   -0.20242E-03   -0.37675E-05   102   0.605E-02    0.164E-02
DAV:  11    -0.162245339772E+02   -0.19282E-03   -0.17462E-05    95   0.336E-02    0.883E-03
DAV:  12    -0.162247010410E+02   -0.16706E-03   -0.91774E-06   102   0.183E-02    0.359E-03
DAV:  13    -0.162248746572E+02   -0.17362E-03   -0.58302E-06    94   0.973E-03    0.246E-03
DAV:  14    -0.162250382790E+02   -0.16362E-03   -0.51309E-06   102   0.670E-03    0.173E-03
DAV:  15    -0.162251797263E+02   -0.14145E-03   -0.44144E-06   102   0.618E-03    0.139E-03
DAV:  16    -0.162253178983E+02   -0.13817E-03   -0.50955E-06   102   0.597E-03    0.959E-04
DAV:  17    -0.162254281908E+02   -0.11029E-03   -0.50771E-06   102   0.585E-03    0.594E-04
DAV:  18    -0.162254863536E+02   -0.58163E-04   -0.35430E-06   102   0.493E-03
  49 F= -.16225486E+02 E0= -.16231146E+02  d E =-.767793E-01  mag=     2.0475
       N       E                     dE             d eps       ncg     rms          rms(c)
DAV:   1    -0.162334293980E+02   -0.80012E-02   -0.99630E+00   132   0.144E+01    0.556E-01
DAV:   2    -0.162453420794E+02   -0.11913E-01   -0.16378E-01   142   0.278E+00    0.606E-01
DAV:   3    -0.162459042378E+02   -0.56216E-03   -0.16798E-02   134   0.159E+00    0.222E-01
DAV:   4    -0.162458136739E+02    0.90564E-04   -0.13693E-03   151   0.416E-01    0.142E-01
DAV:   5    -0.162459350863E+02   -0.12141E-03   -0.75880E-04   134   0.215E-01    0.106E-01
DAV:   6    -0.162460371231E+02   -0.10204E-03   -0.35627E-04   133   0.248E-01    0.630E-02
DAV:   7    -0.162461129057E+02   -0.75783E-04   -0.87669E-05   102   0.144E-01
  50 F= -.16246113E+02 E0= -.16251858E+02  d E =-.206266E-01  mag=     2.0476
       N       E                     dE             d eps       ncg     rms          rms(c)
DAV:   1    -0.161604735893E+02    0.85564E-01   -0.90490E+01   132   0.439E+01    0.167E+00
DAV:   2    -0.162752077953E+02   -0.11473E+00   -0.14618E+00   133   0.849E+00    0.194E+00
DAV:   3    -0.162731020016E+02    0.21058E-02   -0.15876E-01   133   0.484E+00    0.686E-01
DAV:   4    -0.162720141656E+02    0.10878E-02   -0.13678E-02   152   0.134E+00    0.483E-01
DAV:   5    -0.162733946396E+02   -0.13805E-02   -0.75288E-03   134   0.105E+00    0.481E-01
DAV:   6    -0.162727997493E+02    0.59489E-03   -0.48818E-03   141   0.884E-01    0.182E-01
DAV:   7    -0.162737021481E+02   -0.90240E-03   -0.10467E-03   150   0.378E-01    0.818E-02
DAV:   8    -0.162741947334E+02   -0.49259E-03   -0.24683E-04   101   0.192E-01    0.581E-02
DAV:   9    -0.162744429933E+02   -0.24826E-03   -0.10678E-04    87   0.151E-01    0.312E-02
DAV:  10    -0.162746308874E+02   -0.18789E-03   -0.29084E-05    92   0.574E-02    0.159E-02
DAV:  11    -0.162748263059E+02   -0.19542E-03   -0.15802E-05    95   0.294E-02    0.693E-03
DAV:  12    -0.162750277177E+02   -0.20141E-03   -0.89581E-06   102   0.140E-02    0.409E-03
DAV:  13    -0.162751896768E+02   -0.16196E-03   -0.49118E-06   103   0.845E-03    0.230E-03
DAV:  14    -0.162753310213E+02   -0.14134E-03   -0.37528E-06    95   0.616E-03    0.181E-03
DAV:  15    -0.162754491558E+02   -0.11813E-03   -0.31724E-06   103   0.550E-03    0.150E-03
DAV:  16    -0.162755765071E+02   -0.12735E-03   -0.35529E-06    94   0.563E-03    0.113E-03
DAV:  17    -0.162756778693E+02   -0.10136E-03   -0.32222E-06   103   0.538E-03    0.772E-04
DAV:  18    -0.162757418245E+02   -0.63955E-04   -0.23983E-06   103   0.448E-03
  51 F= -.16275742E+02 E0= -.16281590E+02  d E =-.502555E-01  mag=     2.0483
       N       E                     dE             d eps       ncg     rms          rms(c)
DAV:   1    -0.162844695206E+02   -0.87917E-02   -0.62621E+00   132   0.113E+01    0.418E-01
DAV:   2    -0.162928921987E+02   -0.84227E-02   -0.10321E-01   143   0.220E+00    0.576E-01
DAV:   3    -0.162925053330E+02    0.38687E-03   -0.11535E-02   142   0.133E+00    0.200E-01
DAV:   4    -0.162926323082E+02   -0.12698E-03   -0.11438E-03   142   0.387E-01    0.136E-01
DAV:   5    -0.162926429343E+02   -0.10626E-04   -0.34180E-04   110   0.264E-01
  52 F= -.16292643E+02 E0= -.16298043E+02  d E =-.169011E-01  mag=     2.0480
       N       E                     dE             d eps       ncg     rms          rms(c)
DAV:   1    -0.162632281294E+02    0.29404E-01   -0.56794E+01   132   0.343E+01    0.126E+00
DAV:   2    -0.163437850037E+02   -0.80557E-01   -0.92215E-01   133   0.655E+00    0.167E+00
DAV:   3    -0.163378039974E+02    0.59810E-02   -0.10258E-01   133   0.388E+00    0.580E-01
DAV:   4    -0.163378582081E+02   -0.54211E-04   -0.10157E-02   136   0.114E+00    0.418E-01
DAV:   5    -0.163377414190E+02    0.11679E-03   -0.35127E-03   142   0.831E-01    0.308E-01
DAV:   6    -0.163379482072E+02   -0.20679E-03   -0.28457E-03   141   0.453E-01    0.154E-01
DAV:   7    -0.163381270872E+02   -0.17888E-03   -0.57269E-04   151   0.273E-01    0.625E-02
DAV:   8    -0.163382845809E+02   -0.15749E-03   -0.17522E-04    86   0.168E-01    0.441E-02
DAV:   9    -0.163383530264E+02   -0.68446E-04   -0.64956E-05    94   0.108E-01
  53 F= -.16338353E+02 E0= -.16343121E+02  d E =-.626112E-01  mag=     2.0475
       N       E                     dE             d eps       ncg     rms          rms(c)
DAV:   1    -0.160923810930E+02    0.24590E+00   -0.23225E+02   132   0.709E+01    0.263E+00
DAV:   2    -0.164213688000E+02   -0.32899E+00   -0.37040E+00   132   0.137E+01    0.348E+00
DAV:   3    -0.163870844006E+02    0.34284E-01   -0.43709E-01   132   0.783E+00    0.103E+00
DAV:   4    -0.163868820682E+02    0.20233E-03   -0.36886E-02   144   0.187E+00    0.638E-01
DAV:   5    -0.163881533276E+02   -0.12713E-02   -0.14407E-02   141   0.115E+00    0.585E-01
DAV:   6    -0.163882195136E+02   -0.66186E-04   -0.13512E-02   149   0.136E+00    0.328E-01
DAV:   7    -0.163884369183E+02   -0.21740E-03   -0.30097E-03   152   0.705E-01    0.121E-01
DAV:   8    -0.163888881154E+02   -0.45120E-03   -0.66979E-04   140   0.294E-01    0.756E-02
DAV:   9    -0.163891920842E+02   -0.30397E-03   -0.20074E-04    87   0.180E-01    0.479E-02
DAV:  10    -0.163893309993E+02   -0.13892E-03   -0.58937E-05   102   0.991E-02    0.328E-02
DAV:  11    -0.163894354182E+02   -0.10442E-03   -0.31111E-05    95   0.643E-02    0.171E-02
DAV:  12    -0.163896011243E+02   -0.16571E-03   -0.26792E-05    86   0.303E-02    0.805E-03
DAV:  13    -0.163897304488E+02   -0.12932E-03   -0.12407E-05   103   0.183E-02    0.504E-03
DAV:  14    -0.163898142379E+02   -0.83789E-04   -0.55303E-06    96   0.111E-02
  54 F= -.16389814E+02 E0= -.16396075E+02  d E =-.114072E+00  mag=     2.0519
       N       E                     dE             d eps       ncg     rms          rms(c)
DAV:   1    -0.163938636171E+02   -0.41332E-02   -0.17266E+01   132   0.191E+01    0.741E-01
DAV:   2    -0.164150951981E+02   -0.21232E-01   -0.29054E-01   133   0.352E+00    0.809E-01
DAV:   3    -0.164165489919E+02   -0.14538E-02   -0.31535E-02   133   0.205E+00    0.360E-01
DAV:   4    -0.164162647822E+02    0.28421E-03   -0.38693E-03   151   0.775E-01    0.240E-01
DAV:   5    -0.164164907271E+02   -0.22594E-03   -0.17424E-03   142   0.503E-01    0.187E-01
DAV:   6    -0.164166270230E+02   -0.13630E-03   -0.90597E-04   141   0.340E-01    0.868E-02
DAV:   7    -0.164168387198E+02   -0.21170E-03   -0.37828E-04   102   0.237E-01    0.640E-02
DAV:   8    -0.164169091049E+02   -0.70385E-04   -0.13554E-04   102   0.134E-01
  55 F= -.16416909E+02 E0= -.16421657E+02  d E =-.270949E-01  mag=     2.0536
       N       E                     dE             d eps       ncg     rms          rms(c)
DAV:   1    -0.163425647736E+02    0.74274E-01   -0.71345E+01   132   0.391E+01    0.163E+00
DAV:   2    -0.164346096836E+02   -0.92045E-01   -0.12203E+00   132   0.742E+00    0.183E+00
DAV:   3    -0.164344634052E+02    0.14628E-03   -0.15962E-01   132   0.449E+00    0.792E-01
DAV:   4    -0.164327652424E+02    0.16982E-02   -0.23129E-02   152   0.174E+00    0.524E-01
DAV:   5    -0.164333282594E+02   -0.56302E-03   -0.88680E-03   142   0.112E+00    0.387E-01
DAV:   6    -0.164337036283E+02   -0.37537E-03   -0.32750E-03   140   0.649E-01    0.175E-01
DAV:   7    -0.164345339574E+02   -0.83033E-03   -0.11707E-03   150   0.398E-01    0.149E-01
DAV:   8    -0.164347530753E+02   -0.21912E-03   -0.69654E-04   141   0.335E-01    0.914E-02
DAV:   9    -0.164350140387E+02   -0.26096E-03   -0.17720E-04    85   0.165E-01    0.299E-02
DAV:  10    -0.164351588735E+02   -0.14483E-03   -0.45906E-05   102   0.565E-02    0.214E-02
DAV:  11    -0.164352360920E+02   -0.77218E-04   -0.15772E-05    87   0.456E-02
  56 F= -.16435236E+02 E0= -.16436130E+02  d E =-.454219E-01  mag=     2.0600
       N       E                     dE             d eps       ncg     rms          rms(c)
DAV:   1    -0.164358075111E+02   -0.64864E-03   -0.13695E+01   132   0.168E+01    0.948E-01
DAV:   2    -0.164587035882E+02   -0.22896E-01   -0.28204E-01   142   0.440E+00    0.155E+00
DAV:   3    -0.164502692491E+02    0.84343E-02   -0.61044E-02   133   0.329E+00    0.412E-01
DAV:   4    -0.164510214200E+02   -0.75217E-03   -0.56220E-03   133   0.758E-01    0.241E-01
DAV:   5    -0.164514999594E+02   -0.47854E-03   -0.23683E-03   134   0.642E-01    0.259E-01
DAV:   6    -0.164514716314E+02    0.28328E-04   -0.10230E-03   149   0.441E-01    0.142E-01
DAV:   7    -0.164516279466E+02   -0.15632E-03   -0.50390E-04   134   0.263E-01    0.584E-02
DAV:   8    -0.164518179784E+02   -0.19003E-03   -0.14162E-04   102   0.130E-01    0.544E-02
DAV:   9    -0.164518897746E+02   -0.71796E-04   -0.68147E-05    95   0.103E-01
  57 F= -.16451890E+02 E0= -.16451532E+02  d E =-.166537E-01  mag=     2.0564
       N       E                     dE             d eps       ncg     rms          rms(c)
DAV:   1    -0.163989413848E+02    0.52877E-01   -0.53343E+01   132   0.334E+01    0.196E+00
DAV:   2    -0.164908270217E+02   -0.91886E-01   -0.11849E+00   133   0.890E+00    0.318E+00
DAV:   3    -0.164561974542E+02    0.34630E-01   -0.28698E-01   132   0.660E+00    0.854E-01
DAV:   4    -0.164567183768E+02   -0.52092E-03   -0.28116E-02   133   0.173E+00    0.530E-01
DAV:   5    -0.164575250625E+02   -0.80669E-03   -0.95441E-03   133   0.135E+00    0.488E-01
DAV:   6    -0.164574952652E+02    0.29797E-04   -0.39103E-03   141   0.810E-01    0.296E-01
DAV:   7    -0.164578062633E+02   -0.31100E-03   -0.23098E-03   158   0.523E-01    0.117E-01
DAV:   8    -0.164582983409E+02   -0.49208E-03   -0.63089E-04   150   0.256E-01    0.954E-02
DAV:   9    -0.164585725242E+02   -0.27418E-03   -0.25571E-04   110   0.194E-01    0.368E-02
DAV:  10    -0.164588238650E+02   -0.25134E-03   -0.50190E-05   102   0.882E-02    0.271E-02
DAV:  11    -0.164590444567E+02   -0.22059E-03   -0.15146E-05    85   0.441E-02    0.114E-02
DAV:  12    -0.164593195577E+02   -0.27510E-03   -0.13540E-05   102   0.154E-02    0.621E-03
DAV:  13    -0.164595667337E+02   -0.24718E-03   -0.75040E-06    94   0.106E-02    0.425E-03
DAV:  14    -0.164597800216E+02   -0.21329E-03   -0.53581E-06   102   0.828E-03    0.214E-03
DAV:  15    -0.164599445575E+02   -0.16454E-03   -0.44013E-06    94   0.594E-03    0.154E-03
DAV:  16    -0.164601203199E+02   -0.17576E-03   -0.43892E-06   102   0.542E-03    0.128E-03
DAV:  17    -0.164603254352E+02   -0.20512E-03   -0.62690E-06   102   0.620E-03    0.743E-04
DAV:  18    -0.164604391641E+02   -0.11373E-03   -0.42525E-06    94   0.546E-03    0.489E-04
DAV:  19    -0.164605050410E+02   -0.65877E-04   -0.31497E-06   102   0.450E-03
  58 F= -.16460505E+02 E0= -.16458166E+02  d E =-.252689E-01  mag=     2.0415
       N       E                     dE             d eps       ncg     rms          rms(c)
DAV:   1    -0.164563839146E+02    0.40552E-02   -0.50580E+00   132   0.103E+01    0.618E-01
DAV:   2    -0.164642638014E+02   -0.78799E-02   -0.10454E-01   142   0.282E+00    0.998E-01
DAV:   3    -0.164609568187E+02    0.33070E-02   -0.28117E-02   141   0.216E+00    0.259E-01
DAV:   4    -0.164613567971E+02   -0.39998E-03   -0.24478E-03   149   0.489E-01    0.154E-01
DAV:   5    -0.164615520927E+02   -0.19530E-03   -0.83889E-04   141   0.403E-01    0.177E-01
DAV:   6    -0.164615399267E+02    0.12166E-04   -0.39768E-04   125   0.270E-01
  59 F= -.16461540E+02 E0= -.16459475E+02  d E =-.263038E-01  mag=     2.0428
       N       E                     dE             d eps       ncg     rms          rms(c)
DAV:   1    -0.164576075220E+02    0.39446E-02   -0.11697E+01   132   0.157E+01    0.848E-01
DAV:   2    -0.164735922586E+02   -0.15985E-01   -0.22350E-01   141   0.375E+00    0.121E+00
DAV:   3    -0.164702149317E+02    0.33773E-02   -0.47220E-02   133   0.273E+00    0.394E-01
DAV:   4    -0.164702987433E+02   -0.83812E-04   -0.49290E-03   142   0.801E-01    0.243E-01
DAV:   5    -0.164704988497E+02   -0.20011E-03   -0.18016E-03   142   0.529E-01    0.190E-01
DAV:   6    -0.164706045434E+02   -0.10569E-03   -0.73957E-04   149   0.372E-01    0.134E-01
DAV:   7    -0.164706766055E+02   -0.72062E-04   -0.40186E-04   126   0.273E-01
  60 F= -.16470677E+02 E0= -.16467254E+02  d E =-.913668E-02  mag=     2.0410
       N       E                     dE             d eps       ncg     rms          rms(c)
DAV:   1    -0.164704183052E+02    0.18624E-03   -0.82715E-01   132   0.418E+00    0.269E-01
DAV:   2    -0.164714719772E+02   -0.10537E-02   -0.18120E-02   132   0.123E+00    0.417E-01
DAV:   3    -0.164710559561E+02    0.41602E-03   -0.48197E-03   132   0.930E-01    0.109E-01
DAV:   4    -0.164712238751E+02   -0.16792E-03   -0.51583E-04   133   0.238E-01    0.727E-02
DAV:   5    -0.164712726721E+02   -0.48797E-04   -0.14162E-04    86   0.155E-01
  61 F= -.16471273E+02 E0= -.16467546E+02  d E =-.973275E-02  mag=     2.0395
       N       E                     dE             d eps       ncg     rms          rms(c)
DAV:   1    -0.164665998473E+02    0.46240E-02   -0.49418E+00   132   0.102E+01    0.445E-01
DAV:   2    -0.164718353289E+02   -0.52355E-02   -0.79883E-02   133   0.168E+00    0.298E-01
DAV:   3    -0.164731559736E+02   -0.13206E-02   -0.61508E-03   134   0.842E-01    0.257E-01
DAV:   4    -0.164727866780E+02    0.36930E-03   -0.14659E-03   134   0.567E-01    0.145E-01
DAV:   5    -0.164729742646E+02   -0.18759E-03   -0.51764E-04   134   0.252E-01    0.919E-02
DAV:   6    -0.164730726720E+02   -0.98407E-04   -0.25169E-04   100   0.182E-01
  62 F= -.16473073E+02 E0= -.16468172E+02  d E =-.180000E-02  mag=     2.0358
       N       E                     dE             d eps       ncg     rms          rms(c)
DAV:   1    -0.164730507844E+02   -0.76520E-04   -0.21976E-01   132   0.215E+00    0.860E-02
DAV:   2    -0.164733459881E+02   -0.29520E-03   -0.34569E-03   141   0.350E-01    0.574E-02
DAV:   3    -0.164734881283E+02   -0.14214E-03   -0.22444E-04    86   0.176E-01    0.541E-02
DAV:   4    -0.164735144158E+02   -0.26288E-04   -0.54470E-05    86   0.107E-01
  63 F= -.16473514E+02 E0= -.16468887E+02  d E =-.224174E-02  mag=     2.0348
       N       E                     dE             d eps       ncg     rms          rms(c)
DAV:   1    -0.164727774706E+02    0.71066E-03   -0.14551E+00   132   0.553E+00    0.238E-01
DAV:   2    -0.164744588452E+02   -0.16814E-02   -0.25006E-02   150   0.114E+00    0.340E-01
DAV:   3    -0.164744716617E+02   -0.12816E-04   -0.34731E-03   142   0.770E-01    0.115E-01
DAV:   4    -0.164745859397E+02   -0.11428E-03   -0.35845E-04   126   0.223E-01    0.638E-02
DAV:   5    -0.164746682632E+02   -0.82323E-04   -0.12923E-04    86   0.122E-01
  64 F= -.16474668E+02 E0= -.16470233E+02  d E =-.115385E-02  mag=     2.0348
       N       E                     dE             d eps       ncg     rms          rms(c)
DAV:   1    -0.164746814918E+02   -0.95552E-04   -0.73942E-02   132   0.125E+00    0.541E-02
DAV:   2    -0.164747936950E+02   -0.11220E-03   -0.11969E-03   150   0.241E-01    0.624E-02
DAV:   3    -0.164748046823E+02   -0.10987E-04   -0.12582E-04   102   0.153E-01
  65 F= -.16474805E+02 E0= -.16470636E+02  d E =-.129027E-02  mag=     2.0348
