 vasp.6.1.2 22Jul20 (build Feb  1 2022 14:42:14) gamma-only                      
 executed on             LinuxPGI date 2022.02.06  00:44:52
 running on    8 total cores
 distrk:  each k-point on    8 cores,    1 groups
 distr:  one band on NCORE=   8 cores,    1 groups


--------------------------------------------------------------------------------------------------------


 INCAR:
 POTCAR:    PAW_PBE Pd 04Jan2005                  
 -----------------------------------------------------------------------------
|                                                                             |
|           W    W    AA    RRRRR   N    N  II  N    N   GGGG   !!!           |
|           W    W   A  A   R    R  NN   N  II  NN   N  G    G  !!!           |
|           W    W  A    A  R    R  N N  N  II  N N  N  G       !!!           |
|           W WW W  AAAAAA  RRRRR   N  N N  II  N  N N  G  GGG   !            |
|           WW  WW  A    A  R   R   N   NN  II  N   NN  G    G                |
|           W    W  A    A  R    R  N    N  II  N    N   GGGG   !!!           |
|                                                                             |
|     You use a magnetic or noncollinear calculation, but did not specify     |
|     the initial magnetic moment with the MAGMOM tag. Note that a            |
|     default of 1 will be used for all atoms. This ferromagnetic setup       |
|     may break the symmetry of the crystal, in particular it may rule        |
|     out finding an antiferromagnetic solution. Thence, we recommend         |
|     setting the initial magnetic moment manually or verifying carefully     |
|     that this magnetic setup is desired.                                    |
|                                                                             |
 -----------------------------------------------------------------------------

 -----------------------------------------------------------------------------
|                                                                             |
|           W    W    AA    RRRRR   N    N  II  N    N   GGGG   !!!           |
|           W    W   A  A   R    R  NN   N  II  NN   N  G    G  !!!           |
|           W    W  A    A  R    R  N N  N  II  N N  N  G       !!!           |
|           W WW W  AAAAAA  RRRRR   N  N N  II  N  N N  G  GGG   !            |
|           WW  WW  A    A  R   R   N   NN  II  N   NN  G    G                |
|           W    W  A    A  R    R  N    N  II  N    N   GGGG   !!!           |
|                                                                             |
|     For optimal performance we recommend to set                             |
|       NCORE = 4 - approx SQRT(number of cores).                             |
|     NCORE specifies how many cores store one orbital (NPAR=cpu/NCORE).      |
|     This setting can greatly improve the performance of VASP for DFT.       |
|     The default, NCORE=1 might be grossly inefficient on modern             |
|     multi-core architectures or massively parallel machines. Do your        |
|     own testing!!!!                                                         |
|     Unfortunately you need to use the default for GW and RPA                |
|     calculations (for HF NCORE is supported but not extensively tested      |
|     yet).                                                                   |
|                                                                             |
 -----------------------------------------------------------------------------

 POTCAR:    PAW_PBE Pd 04Jan2005                  
   SHA256 =  dd6f6f02930356371984e2b707ff5e456046761dc76b07c1eba30abd15eb3c39 Pd/POTCAR             
   COPYR  = (c) Copyright 04Jan2005 Georg Kresse                                                    
   COPYR  = This file is part of the software VASP. Any use, copying, and all other rights are regul
   COPYR  = If you do not have a valid VASP license, you may not use, copy or distribute this file. 
   VRHFIN =Pd : s1 d9                                                                               
   LEXCH  = PE                                                                                      
   EATOM  =   809.7530 eV,   59.5152 Ry                                                             
                                                                                                    
   TITEL  = PAW_PBE Pd 04Jan2005                                                                    
   LULTRA =        F    use ultrasoft PP ?                                                          
   IUNSCR =        1    unscreen: 0-lin 1-nonlin 2-no                                               
   RPACOR =    2.000    partial core radius                                                         
   POMASS =  106.420; ZVAL   =   10.000    mass and valenz                                          
   RCORE  =    2.600    outmost cutoff radius                                                       
   RWIGS  =    2.710; RWIGS  =    1.434    wigner-seitz radius (au A)                               
   ENMAX  =  250.925; ENMIN  =  188.194 eV                                                          
   ICORE  =        3    local potential                                                             
   LCOR   =        T    correct aug charges                                                         
   LPAW   =        T    paw PP                                                                      
   EAUG   =  416.230                                                                                
   DEXC   =    0.000                                                                                
   RMAX   =    2.653    core radius for proj-oper                                                   
   RAUG   =    1.300    factor for augmentation sphere                                              
   RDEP   =    2.734    radius for radial grids                                                     
   RDEPT  =    2.103    core radius for aug-charge                                                  
                                                                                                    
   Atomic configuration                                                                             
   12 entries                                                                                       
     n  l   j            E        occ.                                                              
     1  0  0.50    -24164.6631   2.0000                                                             
     2  0  0.50     -3530.9218   2.0000                                                             
     2  1  1.50     -3165.6822   6.0000                                                             
     3  0  0.50      -639.4577   2.0000                                                             
     3  1  1.50      -519.4532   6.0000                                                             
     3  2  2.50      -328.9757  10.0000                                                             
     4  0  0.50       -88.7014   2.0000                                                             
     4  1  1.50       -54.4540   6.0000                                                             
     4  2  2.50        -6.6878   9.0000                                                             
     5  0  0.50        -4.3543   1.0000                                                             
     5  1  0.50        -1.3606   0.0000                                                             
     4  3  2.50        -1.3606   0.0000                                                             
   Description                                                                                      
     l       E           TYP  RCUT    TYP  RCUT                                                     
     2     -6.6878251     23  2.400                                                                 
     2     -8.0484077     23  2.400                                                                 
     0     -4.3542939     23  2.400                                                                 
     0      4.3406793     23  2.400                                                                 
     1     -4.0817478     23  2.600                                                                 
     1     15.8380318     23  2.600                                                                 
     3     -4.0817478     23  2.400                                                                 
  local pseudopotential read in
  partial core-charges read in
  partial kinetic energy density read in
  atomic valenz-charges read in
  non local Contribution for L=            2  read in
    real space projection operators read in
  non local Contribution for L=            2  read in
    real space projection operators read in
  non local Contribution for L=            0  read in
    real space projection operators read in
  non local Contribution for L=            0  read in
    real space projection operators read in
  non local Contribution for L=            1  read in
    real space projection operators read in
  non local Contribution for L=            1  read in
    real space projection operators read in
    PAW grid and wavefunctions read in
 
   number of l-projection  operators is LMAX  =            6
   number of lm-projection operators is LMMAX =           18
 
  PAW_PBE Pd 04Jan2005                  :
 energy of atom  1       EATOM= -809.7530
 kinetic energy error for atom=    0.0091 (will be added to EATOM!!)
 
 
 POSCAR: Pd
  positions in cartesian coordinates
  No initial velocities read in
 exchange correlation table for  LEXCH =        8
   RHO(1)=    0.500       N(1)  =     2000
   RHO(2)=  100.500       N(2)  =     4000
 


--------------------------------------------------------------------------------------------------------


 ion  position               nearest neighbor table
   1  0.450  0.516  0.446-   3 2.46   2 2.53   4 2.56
   2  0.552  0.452  0.464-   3 2.45   1 2.53   4 2.55
   3  0.517  0.476  0.367-   2 2.45   1 2.46
   4  0.485  0.491  0.547-   5 2.36   2 2.55   1 2.56
   5  0.456  0.565  0.620-   4 2.36
 

IMPORTANT INFORMATION: All symmetrisations will be switched off!
NOSYMM: (Re-)initialisation of all symmetry stuff for point group C_1.


----------------------------------------------------------------------------------------

                                     Primitive cell                                     

  volume of cell :   10128.7722

  direct lattice vectors                    reciprocal lattice vectors
    20.992237849  0.000000000  0.000000000     0.047636655  0.000000000  0.000000000
     0.000000000 20.423216349  0.000000000     0.000000000  0.048963884  0.000000000
     0.000000000  0.000000000 23.625114727     0.000000000  0.000000000  0.042327837

  length of vectors
    20.992237849 20.423216349 23.625114727     0.047636655  0.048963884  0.042327837

  position of ions in fractional coordinates (direct lattice)
     0.450463224  0.515828496  0.445671650
     0.551855388  0.451875899  0.463806651
     0.517265357  0.476424849  0.366951034
     0.485067898  0.490764805  0.547393754
     0.456325237  0.564631826  0.619554598

  ion indices of the primitive-cell ions
   primitive index   ion index
                 1           1
                 2           2
                 3           3
                 4           4
                 5           5

----------------------------------------------------------------------------------------

 
 
 KPOINTS: KPOINTS created by Atomic Simulation Env

Automatic generation of k-mesh.
Space group operators:
 irot       det(A)        alpha          n_x          n_y          n_z        tau_x        tau_y        tau_z
    1     1.000000     0.000000     1.000000     0.000000     0.000000     0.000000     0.000000     0.000000
 
 Subroutine IBZKPT returns following result:
 ===========================================
 
 Found      1 irreducible k-points:
 
 Following reciprocal coordinates:
            Coordinates               Weight
  0.000000  0.000000  0.000000      1.000000
 
 Following cartesian coordinates:
            Coordinates               Weight
  0.000000  0.000000  0.000000      1.000000
 


--------------------------------------------------------------------------------------------------------




 Dimension of arrays:
   k-points           NKPTS =      1   k-points in BZ     NKDIM =      1   number of bands    NBANDS=     33
   number of dos      NEDOS =    301   number of ions     NIONS =      5
   non local maximal  LDIM  =      6   non local SUM 2l+1 LMDIM =     18
   total plane-waves  NPLWV = ******
   max r-space proj   IRMAX =      1   max aug-charges    IRDMAX=   6406
   dimension x,y,z NGX =   108 NGY =  100 NGZ =  120
   dimension x,y,z NGXF=   216 NGYF=  200 NGZF=  240
   support grid    NGXF=   216 NGYF=  200 NGZF=  240
   ions per type =               5
   NGX,Y,Z   is equivalent  to a cutoff of   8.55,  8.14,  8.44 a.u.
   NGXF,Y,Z  is equivalent  to a cutoff of  17.11, 16.28, 16.89 a.u.

 SYSTEM =  unknown system                          
 POSCAR =  Pd                                      

 Startparameter for this run:
   NWRITE =      2    write-flag & timer
   PREC   = normal    normal or accurate (medium, high low for compatibility)
   ISTART =      0    job   : 0-new  1-cont  2-samecut
   ICHARG =      2    charge: 1-file 2-atom 10-const
   ISPIN  =      2    spin polarized calculation?
   LNONCOLLINEAR =      F non collinear calculations
   LSORBIT =      F    spin-orbit coupling
   INIWAV =      1    electr: 0-lowe 1-rand  2-diag
   LASPH  =      F    aspherical Exc in radial PAW
   METAGGA=      F    non-selfconsistent MetaGGA calc.

 Electronic Relaxation 1
   ENCUT  =  400.0 eV  29.40 Ry    5.42 a.u.  34.23 33.31 38.53*2*pi/ulx,y,z
   ENINI  =  400.0     initial cutoff
   ENAUG  =  416.2 eV  augmentation charge cutoff
   NELM   =     60;   NELMIN=  2; NELMDL=  0     # of ELM steps 
   EDIFF  = 0.1E-03   stopping-criterion for ELM
   LREAL  =      F    real-space projection
   NLSPLINE    = F    spline interpolate recip. space projectors
   LCOMPAT=      F    compatible to vasp.4.4
   GGA_COMPAT  = T    GGA compatible to vasp.4.4-vasp.4.6
   LMAXPAW     = -100 max onsite density
   LMAXMIX     =    2 max onsite mixed and CHGCAR
   VOSKOWN=      0    Vosko Wilk Nusair interpolation
   ROPT   =    0.00000
 Ionic relaxation
   EDIFFG = 0.1E-02   stopping-criterion for IOM
   NSW    =   1000    number of steps for IOM
   NBLOCK =      1;   KBLOCK =   1000    inner block; outer block 
   IBRION =      2    ionic relax: 0-MD 1-quasi-New 2-CG
   NFREE  =      1    steps in history (QN), initial steepest desc. (CG)
   ISIF   =      0    stress and relaxation
   IWAVPR =     11    prediction:  0-non 1-charg 2-wave 3-comb
   ISYM   =      0    0-nonsym 1-usesym 2-fastsym
   LCORR  =      T    Harris-Foulkes like correction to forces

   POTIM  = 0.5000    time-step for ionic-motion
   TEIN   =    0.0    initial temperature
   TEBEG  =    0.0;   TEEND  =   0.0 temperature during run
   SMASS  =  -3.00    Nose mass-parameter (am)
   estimated Nose-frequenzy (Omega)   =  0.10E-29 period in steps = 0.13E+47 mass=  -0.101E-25a.u.
   SCALEE = 1.0000    scale energy and forces
   NPACO  =    256;   APACO  = 16.0  distance and # of slots for P.C.
   PSTRESS=    0.0 pullay stress

  Mass of Ions in am
   POMASS = 106.42
  Ionic Valenz
   ZVAL   =  10.00
  Atomic Wigner-Seitz radii
   RWIGS  =  -1.00
  virtual crystal weights 
   VCA    =   1.00
   NELECT =      50.0000    total number of electrons
   NUPDOWN=      -1.0000    fix difference up-down

 DOS related values:
   EMIN   =  10.00;   EMAX   =-10.00  energy-range for DOS
   EFERMI =   0.00
   ISMEAR =     1;   SIGMA  =   0.20  broadening in eV -4-tet -1-fermi 0-gaus

 Electronic relaxation 2 (details)
   IALGO  =     38    algorithm
   LDIAG  =      T    sub-space diagonalisation (order eigenvalues)
   LSUBROT=      F    optimize rotation matrix (better conditioning)
   TURBO    =      0    0=normal 1=particle mesh
   IRESTART =      0    0=no restart 2=restart with 2 vectors
   NREBOOT  =      0    no. of reboots
   NMIN     =      0    reboot dimension
   EREF     =   0.00    reference energy to select bands
   IMIX   =      4    mixing-type and parameters
     AMIX     =   0.40;   BMIX     =  1.00
     AMIX_MAG =   1.60;   BMIX_MAG =  1.00
     AMIN     =   0.10
     WC   =   100.;   INIMIX=   1;  MIXPRE=   1;  MAXMIX= -45

 Intra band minimization:
   WEIMIN = 0.0010     energy-eigenvalue tresh-hold
   EBREAK =  0.76E-06  absolut break condition
   DEPER  =   0.30     relativ break condition  

   TIME   =   0.40     timestep for ELM

  volume/ion in A,a.u.               =    2025.75     13670.47
  Fermi-wavevector in a.u.,A,eV,Ry     =   0.278749  0.526758  1.057183  0.077701
  Thomas-Fermi vector in A             =   1.125797
 
 Write flags
   LWAVE        =      F    write WAVECAR
   LDOWNSAMPLE  =      F    k-point downsampling of WAVECAR
   LCHARG       =      F    write CHGCAR
   LVTOT        =      F    write LOCPOT, total local potential
   LVHAR        =      F    write LOCPOT, Hartree potential only
   LELF         =      F    write electronic localiz. function (ELF)
   LORBIT       =      0    0 simple, 1 ext, 2 COOP (PROOUT), +10 PAW based schemes


 Dipole corrections
   LMONO  =      F    monopole corrections only (constant potential shift)
   LDIPOL =      F    correct potential (dipole corrections)
   IDIPOL =      0    1-x, 2-y, 3-z, 4-all directions 
   EPSILON=  1.0000000 bulk dielectric constant

 Exchange correlation treatment:
   GGA     =    PE    GGA type
   LEXCH   =     8    internal setting for exchange type
   VOSKOWN=      0    Vosko Wilk Nusair interpolation
   LHFCALC =     F    Hartree Fock is set to
   LHFONE  =     F    Hartree Fock one center treatment
   AEXX    =    0.0000 exact exchange contribution

 Linear response parameters
   LEPSILON=     F    determine dielectric tensor
   LRPA    =     F    only Hartree local field effects (RPA)
   LNABLA  =     F    use nabla operator in PAW spheres
   LVEL    =     F    velocity operator in full k-point grid
   LINTERFAST=   F  fast interpolation
   KINTER  =     0    interpolate to denser k-point grid
   CSHIFT  =0.1000    complex shift for real part using Kramers Kronig
   OMEGAMAX=  -1.0    maximum frequency
   DEG_THRESHOLD= 0.2000000E-02 threshold for treating states as degnerate
   RTIME   =   -0.100 relaxation time in fs
  (WPLASMAI=    0.000 imaginary part of plasma frequency in eV, 0.658/RTIME)
   DFIELD  = 0.0000000 0.0000000 0.0000000 field for delta impulse in time
 
 Orbital magnetization related:
   ORBITALMAG=     F  switch on orbital magnetization
   LCHIMAG   =     F  perturbation theory with respect to B field
   DQ        =  0.001000  dq finite difference perturbation B field
   LLRAUG    =     F  two centre corrections for induced B field



--------------------------------------------------------------------------------------------------------


 conjugate gradient relaxation of ions
 charge density and potential will be updated during run
 spin polarized calculation
 Variant of blocked Davidson
 Davidson routine will perform the subspace rotation
 perform sub-space diagonalisation
    after iterative eigenvector-optimisation
 modified Broyden-mixing scheme, WC =      100.0
 initial mixing is a Kerker type mixing with AMIX =  0.4000 and BMIX =      1.0000
 Hartree-type preconditioning will be used
 using additional bands             8
 reciprocal scheme for non local part
 use partial core corrections
 calculate Harris-corrections to forces 
   (improved forces if not selfconsistent)
 use gradient corrections 
 use of overlap-Matrix (Vanderbilt PP)
 Methfessel and Paxton  Order N= 1 SIGMA  =   0.20


--------------------------------------------------------------------------------------------------------


  energy-cutoff  :      400.00
  volume of cell :    10128.77
      direct lattice vectors                 reciprocal lattice vectors
    20.992237849  0.000000000  0.000000000     0.047636655  0.000000000  0.000000000
     0.000000000 20.423216349  0.000000000     0.000000000  0.048963884  0.000000000
     0.000000000  0.000000000 23.625114727     0.000000000  0.000000000  0.042327837

  length of vectors
    20.992237849 20.423216349 23.625114727     0.047636655  0.048963884  0.042327837


 
 k-points in units of 2pi/SCALE and weight: KPOINTS created by Atomic Simulation Env
   0.00000000  0.00000000  0.00000000       1.000
 
 k-points in reciprocal lattice and weights: KPOINTS created by Atomic Simulation Env
   0.00000000  0.00000000  0.00000000       1.000
 
 position of ions in fractional coordinates (direct lattice) 
   0.45046322  0.51582850  0.44567165
   0.55185539  0.45187590  0.46380665
   0.51726536  0.47642485  0.36695103
   0.48506790  0.49076481  0.54739375
   0.45632524  0.56463183  0.61955460
 
 position of ions in cartesian coordinates  (Angst):
   9.45623114 10.53487697 10.52904385
  11.58467957  9.22875924 10.95748534
  10.85855741  9.73012776  8.66926027
  10.18266068 10.02299580 12.93224023
   9.57928792 11.53159794 14.63704845
 


--------------------------------------------------------------------------------------------------------


 use parallel FFT for orbitals z direction half grid
 k-point   1 :   0.0000 0.0000 0.0000  plane waves:   92022

 maximum and minimum number of plane-waves per node :     11508    11493

 maximum number of plane-waves:     92022
 maximum index in each direction: 
   IXMAX=   34   IYMAX=   33   IZMAX=   38
   IXMIN=  -34   IYMIN=  -33   IZMIN=    0


 parallel 3D FFT for wavefunctions:
    minimum data exchange during FFTs selected (reduces bandwidth)
 parallel 3D FFT for charge:
    minimum data exchange during FFTs selected (reduces bandwidth)


 total amount of memory used by VASP MPI-rank0   199621. kBytes
=======================================================================

   base      :      30000. kBytes
   nonl-proj :       2574. kBytes
   fftplans  :      47477. kBytes
   grid      :     107409. kBytes
   one-center:         15. kBytes
   wavefun   :      12146. kBytes
 
     INWAV:  cpu time    0.0001: real time    0.0001
 Broyden mixing: mesh for mixing (old mesh)
   NGX = 69   NGY = 67   NGZ = 77
  (NGX  =216   NGY  =200   NGZ  =240)
  gives a total of 355971 points

 initial charge density was supplied:
 charge density of overlapping atoms calculated
 number of electron      50.0000000 magnetization       5.0000000
 keeping initial charge density in first step


--------------------------------------------------------------------------------------------------------


 Maximum index for augmentation-charges           798 (set IRDMAX)


--------------------------------------------------------------------------------------------------------


 First call to EWALD:  gamma=   0.082
 Maximum number of real-space cells 3x 3x 3
 Maximum number of reciprocal cells 3x 3x 3

    FEWALD:  cpu time    0.1640: real time    0.1641


--------------------------------------- Iteration      1(   1)  ---------------------------------------


    POTLOK:  cpu time   33.2599: real time   44.9216
    SETDIJ:  cpu time    0.5125: real time    0.5128
     EDDAV:  cpu time   86.7066: real time   94.1277
       DOS:  cpu time    0.6671: real time    0.6675
    --------------------------------------------
      LOOP:  cpu time  121.1463: real time  140.2297

 eigenvalue-minimisations  :   132
 total energy-change (2. order) : 0.4000715E+03  (-0.6664160E+03)
 number of electron      50.0000000 magnetization       5.0000000
 augmentation part       50.0000000 magnetization       5.0000000

 Free energy of the ion-electron system (eV)
  ---------------------------------------------------
  alpha Z        PSCENC =         1.60866549
  Ewald energy   TEWEN  =      2364.43455168
  -Hartree energ DENC   =     -6219.16443154
  -exchange      EXHF   =         0.00000000
  -V(xc)+E(xc)   XCENC  =      -152.92181959
  PAW double counting   =      4033.23964144    -3722.16140761
  entropy T*S    EENTRO =        -0.01358258
  eigenvalues    EBANDS =        46.33038946
  atomic energy  EATOM  =      4048.71946290
  Solvation  Ediel_sol  =         0.00000000
  ---------------------------------------------------
  free energy    TOTEN  =       400.07146963 eV

  energy without entropy =      400.08505221  energy(sigma->0) =      400.07599716


--------------------------------------------------------------------------------------------------------




--------------------------------------- Iteration      1(   2)  ---------------------------------------


     EDDAV:  cpu time  119.8074: real time  158.8512
       DOS:  cpu time    0.3919: real time    0.4794
    --------------------------------------------
      LOOP:  cpu time  120.1994: real time  159.3306

 eigenvalue-minimisations  :   254
 total energy-change (2. order) :-0.1328813E+03  (-0.1263675E+03)
 number of electron      50.0000000 magnetization       5.0000000
 augmentation part       50.0000000 magnetization       5.0000000

 Free energy of the ion-electron system (eV)
  ---------------------------------------------------
  alpha Z        PSCENC =         1.60866549
  Ewald energy   TEWEN  =      2364.43455168
  -Hartree energ DENC   =     -6219.16443154
  -exchange      EXHF   =         0.00000000
  -V(xc)+E(xc)   XCENC  =      -152.92181959
  PAW double counting   =      4033.23964144    -3722.16140761
  entropy T*S    EENTRO =        -0.05836478
  eigenvalues    EBANDS =       -86.50611540
  atomic energy  EATOM  =      4048.71946290
  Solvation  Ediel_sol  =         0.00000000
  ---------------------------------------------------
  free energy    TOTEN  =       267.19018258 eV

  energy without entropy =      267.24854735  energy(sigma->0) =      267.20963750


--------------------------------------------------------------------------------------------------------




--------------------------------------- Iteration      1(   3)  ---------------------------------------


     EDDAV:  cpu time   98.2261: real time  170.7930
       DOS:  cpu time    0.2450: real time    0.4932
    --------------------------------------------
      LOOP:  cpu time   98.4711: real time  171.2861

 eigenvalue-minimisations  :   264
 total energy-change (2. order) :-0.1939754E+03  (-0.1843210E+03)
 number of electron      50.0000000 magnetization       5.0000000
 augmentation part       50.0000000 magnetization       5.0000000

 Free energy of the ion-electron system (eV)
  ---------------------------------------------------
  alpha Z        PSCENC =         1.60866549
  Ewald energy   TEWEN  =      2364.43455168
  -Hartree energ DENC   =     -6219.16443154
  -exchange      EXHF   =         0.00000000
  -V(xc)+E(xc)   XCENC  =      -152.92181959
  PAW double counting   =      4033.23964144    -3722.16140761
  entropy T*S    EENTRO =         0.00148808
  eigenvalues    EBANDS =      -280.54134462
  atomic energy  EATOM  =      4048.71946290
  Solvation  Ediel_sol  =         0.00000000
  ---------------------------------------------------
  free energy    TOTEN  =        73.21480622 eV

  energy without entropy =       73.21331814  energy(sigma->0) =       73.21431019


--------------------------------------------------------------------------------------------------------




--------------------------------------- Iteration      1(   4)  ---------------------------------------


     EDDAV:  cpu time   92.4845: real time  140.5779
       DOS:  cpu time    0.3773: real time    0.4063
    --------------------------------------------
      LOOP:  cpu time   92.8619: real time  140.9842

 eigenvalue-minimisations  :   192
 total energy-change (2. order) :-0.7819371E+02  (-0.7012245E+02)
 number of electron      50.0000000 magnetization       5.0000000
 augmentation part       50.0000000 magnetization       5.0000000

 Free energy of the ion-electron system (eV)
  ---------------------------------------------------
  alpha Z        PSCENC =         1.60866549
  Ewald energy   TEWEN  =      2364.43455168
  -Hartree energ DENC   =     -6219.16443154
  -exchange      EXHF   =         0.00000000
  -V(xc)+E(xc)   XCENC  =      -152.92181959
  PAW double counting   =      4033.23964144    -3722.16140761
  entropy T*S    EENTRO =         0.01409573
  eigenvalues    EBANDS =      -358.74766501
  atomic energy  EATOM  =      4048.71946290
  Solvation  Ediel_sol  =         0.00000000
  ---------------------------------------------------
  free energy    TOTEN  =        -4.97890652 eV

  energy without entropy =       -4.99300226  energy(sigma->0) =       -4.98360510


--------------------------------------------------------------------------------------------------------




--------------------------------------- Iteration      1(   5)  ---------------------------------------


     EDDAV:  cpu time   80.7085: real time  128.5426
       DOS:  cpu time    0.2625: real time    0.6093
    CHARGE:  cpu time   15.3378: real time   17.3451
    MIXING:  cpu time    0.8023: real time    1.2067
    --------------------------------------------
      LOOP:  cpu time   97.1112: real time  147.7039

 eigenvalue-minimisations  :   182
 total energy-change (2. order) :-0.1021962E+02  (-0.8583163E+01)
 number of electron      50.0000005 magnetization       4.6986202
 augmentation part       21.8295482 magnetization       3.7096414

 Broyden mixing:
  rms(total) = 0.11649E+01    rms(broyden)= 0.11647E+01
  rms(prec ) = 0.12001E+01
  weight for this iteration     100.00

 Free energy of the ion-electron system (eV)
  ---------------------------------------------------
  alpha Z        PSCENC =         1.60866549
  Ewald energy   TEWEN  =      2364.43455168
  -Hartree energ DENC   =     -6219.16443154
  -exchange      EXHF   =         0.00000000
  -V(xc)+E(xc)   XCENC  =      -152.92181959
  PAW double counting   =      4033.23964144    -3722.16140761
  entropy T*S    EENTRO =        -0.01927565
  eigenvalues    EBANDS =      -368.93391070
  atomic energy  EATOM  =      4048.71946290
  Solvation  Ediel_sol  =         0.00000000
  ---------------------------------------------------
  free energy    TOTEN  =       -15.19852359 eV

  energy without entropy =      -15.17924794  energy(sigma->0) =      -15.19209838


--------------------------------------------------------------------------------------------------------




--------------------------------------- Iteration      1(   6)  ---------------------------------------


    POTLOK:  cpu time   42.4248: real time   57.7983
    SETDIJ:  cpu time    0.6573: real time    0.6577
     EDDAV:  cpu time   58.4431: real time  107.1906
       DOS:  cpu time    0.7371: real time    0.8414
    CHARGE:  cpu time   12.2228: real time   15.8443
    MIXING:  cpu time    0.4427: real time    0.8877
    --------------------------------------------
      LOOP:  cpu time  114.9276: real time  183.2200

 eigenvalue-minimisations  :   132
 total energy-change (2. order) : 0.2876583E+01  (-0.1321903E+01)
 number of electron      50.0000004 magnetization       4.6028307
 augmentation part       21.4169449 magnetization       2.5017158

 Broyden mixing:
  rms(total) = 0.97523E+00    rms(broyden)= 0.97516E+00
  rms(prec ) = 0.10598E+01
  weight for this iteration     100.00

 eigenvalues of (default mixing * dielectric matrix)
  average eigenvalue GAMMA=   0.5221
  0.5221

 Free energy of the ion-electron system (eV)
  ---------------------------------------------------
  alpha Z        PSCENC =         1.60866549
  Ewald energy   TEWEN  =      2364.43455168
  -Hartree energ DENC   =     -6252.42188409
  -exchange      EXHF   =         0.00000000
  -V(xc)+E(xc)   XCENC  =      -150.58366091
  PAW double counting   =      4293.96938142    -3983.62757466
  entropy T*S    EENTRO =        -0.05525285
  eigenvalues    EBANDS =      -334.36562933
  atomic energy  EATOM  =      4048.71946290
  Solvation  Ediel_sol  =         0.00000000
  ---------------------------------------------------
  free energy    TOTEN  =       -12.32194035 eV

  energy without entropy =      -12.26668750  energy(sigma->0) =      -12.30352274


--------------------------------------------------------------------------------------------------------




--------------------------------------- Iteration      1(   7)  ---------------------------------------


    POTLOK:  cpu time   50.7937: real time   63.8345
    SETDIJ:  cpu time    0.5651: real time    0.6215
     EDDAV:  cpu time   70.9957: real time  118.5324
       DOS:  cpu time    0.2851: real time    0.7277
    CHARGE:  cpu time   10.0254: real time   16.1232
    MIXING:  cpu time    0.4724: real time    0.9527
    --------------------------------------------
      LOOP:  cpu time  133.1374: real time  200.7920

 eigenvalue-minimisations  :   142
 total energy-change (2. order) :-0.9922048E+00  (-0.1276603E+01)
 number of electron      50.0000009 magnetization       4.4949986
 augmentation part       21.4572912 magnetization       2.2762294

 Broyden mixing:
  rms(total) = 0.12002E+01    rms(broyden)= 0.12000E+01
  rms(prec ) = 0.13219E+01
  weight for this iteration     100.00

 eigenvalues of (default mixing * dielectric matrix)
  average eigenvalue GAMMA=   0.5331
  0.7993  0.2669

 Free energy of the ion-electron system (eV)
  ---------------------------------------------------
  alpha Z        PSCENC =         1.60866549
  Ewald energy   TEWEN  =      2364.43455168
  -Hartree energ DENC   =     -6256.81789083
  -exchange      EXHF   =         0.00000000
  -V(xc)+E(xc)   XCENC  =      -150.39751775
  PAW double counting   =      4358.97962026    -4049.29223212
  entropy T*S    EENTRO =        -0.00962655
  eigenvalues    EBANDS =      -330.53917821
  atomic energy  EATOM  =      4048.71946290
  Solvation  Ediel_sol  =         0.00000000
  ---------------------------------------------------
  free energy    TOTEN  =       -13.31414513 eV

  energy without entropy =      -13.30451858  energy(sigma->0) =      -13.31093628


--------------------------------------------------------------------------------------------------------




--------------------------------------- Iteration      1(   8)  ---------------------------------------


    POTLOK:  cpu time   39.5360: real time   58.7584
    SETDIJ:  cpu time    0.7693: real time    0.7696
     EDDAV:  cpu time   62.5883: real time  114.1716
       DOS:  cpu time    0.5761: real time    0.5764
    CHARGE:  cpu time    9.7765: real time   16.3988
    MIXING:  cpu time    0.8838: real time    0.9124
    --------------------------------------------
      LOOP:  cpu time  114.1300: real time  191.5873

 eigenvalue-minimisations  :   149
 total energy-change (2. order) : 0.9397458E+00  (-0.4235883E+00)
 number of electron      50.0000006 magnetization       4.3944421
 augmentation part       21.4091989 magnetization       2.6366209

 Broyden mixing:
  rms(total) = 0.71647E+00    rms(broyden)= 0.71624E+00
  rms(prec ) = 0.77409E+00
  weight for this iteration     100.00

 eigenvalues of (default mixing * dielectric matrix)
  average eigenvalue GAMMA=   0.5441
  1.0113  0.3824  0.2387

 Free energy of the ion-electron system (eV)
  ---------------------------------------------------
  alpha Z        PSCENC =         1.60866549
  Ewald energy   TEWEN  =      2364.43455168
  -Hartree energ DENC   =     -6262.60680548
  -exchange      EXHF   =         0.00000000
  -V(xc)+E(xc)   XCENC  =      -150.38880488
  PAW double counting   =      4423.89856603    -4114.86014417
  entropy T*S    EENTRO =        -0.03231277
  eigenvalues    EBANDS =      -323.14757815
  atomic energy  EATOM  =      4048.71946290
  Solvation  Ediel_sol  =         0.00000000
  ---------------------------------------------------
  free energy    TOTEN  =       -12.37439935 eV

  energy without entropy =      -12.34208658  energy(sigma->0) =      -12.36362843


--------------------------------------------------------------------------------------------------------




--------------------------------------- Iteration      1(   9)  ---------------------------------------


    POTLOK:  cpu time   37.0001: real time   56.1894
    SETDIJ:  cpu time    0.1272: real time    0.2634
     EDDAV:  cpu time   62.1531: real time   98.5840
       DOS:  cpu time    0.3598: real time    0.6520
    CHARGE:  cpu time    8.2680: real time   14.7073
    MIXING:  cpu time    0.5960: real time    1.2367
    --------------------------------------------
      LOOP:  cpu time  108.5043: real time  171.6327

 eigenvalue-minimisations  :   135
 total energy-change (2. order) : 0.2012105E+00  (-0.3481332E+00)
 number of electron      50.0000005 magnetization       4.2360135
 augmentation part       21.5925166 magnetization       2.5215353

 Broyden mixing:
  rms(total) = 0.54287E+00    rms(broyden)= 0.54276E+00
  rms(prec ) = 0.59804E+00
  weight for this iteration     100.00

 eigenvalues of (default mixing * dielectric matrix)
  average eigenvalue GAMMA=   0.6501
  1.4618  0.4745  0.4745  0.1895

 Free energy of the ion-electron system (eV)
  ---------------------------------------------------
  alpha Z        PSCENC =         1.60866549
  Ewald energy   TEWEN  =      2364.43455168
  -Hartree energ DENC   =     -6264.54487599
  -exchange      EXHF   =         0.00000000
  -V(xc)+E(xc)   XCENC  =      -150.33394452
  PAW double counting   =      4458.66160697    -4150.01219002
  entropy T*S    EENTRO =        -0.00751644
  eigenvalues    EBANDS =      -320.69894888
  atomic energy  EATOM  =      4048.71946290
  Solvation  Ediel_sol  =         0.00000000
  ---------------------------------------------------
  free energy    TOTEN  =       -12.17318882 eV

  energy without entropy =      -12.16567237  energy(sigma->0) =      -12.17068334


--------------------------------------------------------------------------------------------------------




--------------------------------------- Iteration      1(  10)  ---------------------------------------


    POTLOK:  cpu time   29.2796: real time   45.4760
    SETDIJ:  cpu time    0.1238: real time    0.3680
     EDDAV:  cpu time   56.0476: real time  100.0842
       DOS:  cpu time    0.4435: real time    0.4438
    CHARGE:  cpu time    8.8658: real time   14.0629
    MIXING:  cpu time    0.4765: real time    0.9610
    --------------------------------------------
      LOOP:  cpu time   95.2368: real time  161.3959

 eigenvalue-minimisations  :   143
 total energy-change (2. order) : 0.1699365E+00  (-0.5543464E-01)
 number of electron      50.0000005 magnetization       4.1482354
 augmentation part       21.5102245 magnetization       2.4337748

 Broyden mixing:
  rms(total) = 0.22359E+00    rms(broyden)= 0.22344E+00
  rms(prec ) = 0.23677E+00
  weight for this iteration     100.00

 eigenvalues of (default mixing * dielectric matrix)
  average eigenvalue GAMMA=   0.6394
  1.6034  0.5073  0.5073  0.3859  0.1931

 Free energy of the ion-electron system (eV)
  ---------------------------------------------------
  alpha Z        PSCENC =         1.60866549
  Ewald energy   TEWEN  =      2364.43455168
  -Hartree energ DENC   =     -6272.40567756
  -exchange      EXHF   =         0.00000000
  -V(xc)+E(xc)   XCENC  =      -150.09183260
  PAW double counting   =      4503.21891756    -4194.64313039
  entropy T*S    EENTRO =        -0.00635431
  eigenvalues    EBANDS =      -312.83785513
  atomic energy  EATOM  =      4048.71946290
  Solvation  Ediel_sol  =         0.00000000
  ---------------------------------------------------
  free energy    TOTEN  =       -12.00325236 eV

  energy without entropy =      -11.99689805  energy(sigma->0) =      -12.00113426


--------------------------------------------------------------------------------------------------------




--------------------------------------- Iteration      1(  11)  ---------------------------------------


    POTLOK:  cpu time   34.4465: real time   47.6830
    SETDIJ:  cpu time    0.2965: real time    0.5290
     EDDAV:  cpu time   74.9596: real time  109.0163
       DOS:  cpu time    0.1201: real time    0.2058
    CHARGE:  cpu time   12.9919: real time   16.3314
    MIXING:  cpu time    1.1247: real time    1.1533
    --------------------------------------------
      LOOP:  cpu time  123.9394: real time  174.9188

 eigenvalue-minimisations  :   136
 total energy-change (2. order) :-0.1484998E+00  (-0.1707514E-01)
 number of electron      50.0000004 magnetization       4.0464802
 augmentation part       21.4828921 magnetization       2.3399462

 Broyden mixing:
  rms(total) = 0.19424E+00    rms(broyden)= 0.19417E+00
  rms(prec ) = 0.20579E+00
  weight for this iteration     100.00

 eigenvalues of (default mixing * dielectric matrix)
  average eigenvalue GAMMA=   0.6326
  1.6609  0.6174  0.6174  0.4575  0.1927  0.2494

 Free energy of the ion-electron system (eV)
  ---------------------------------------------------
  alpha Z        PSCENC =         1.60866549
  Ewald energy   TEWEN  =      2364.43455168
  -Hartree energ DENC   =     -6275.04686440
  -exchange      EXHF   =         0.00000000
  -V(xc)+E(xc)   XCENC  =      -150.15693535
  PAW double counting   =      4516.25964946    -4207.71751551
  entropy T*S    EENTRO =        -0.00194064
  eigenvalues    EBANDS =      -310.25082582
  atomic energy  EATOM  =      4048.71946290
  Solvation  Ediel_sol  =         0.00000000
  ---------------------------------------------------
  free energy    TOTEN  =       -12.15175220 eV

  energy without entropy =      -12.14981156  energy(sigma->0) =      -12.15110532


--------------------------------------------------------------------------------------------------------




--------------------------------------- Iteration      1(  12)  ---------------------------------------


    POTLOK:  cpu time   39.9346: real time   45.4511
    SETDIJ:  cpu time    0.5697: real time    0.5701
     EDDAV:  cpu time  106.8838: real time  107.5634
       DOS:  cpu time    0.5124: real time    0.5127
    CHARGE:  cpu time   11.7283: real time   11.9866
    MIXING:  cpu time    1.4646: real time    1.6173
    --------------------------------------------
      LOOP:  cpu time  161.0934: real time  167.7012

 eigenvalue-minimisations  :   144
 total energy-change (2. order) :-0.2532662E+00  (-0.7863719E-02)
 number of electron      50.0000005 magnetization       3.8811491
 augmentation part       21.4854505 magnetization       2.2252729

 Broyden mixing:
  rms(total) = 0.10779E+00    rms(broyden)= 0.10776E+00
  rms(prec ) = 0.11258E+00
  weight for this iteration     100.00

 eigenvalues of (default mixing * dielectric matrix)
  average eigenvalue GAMMA=   0.7180
  1.8368  0.8910  0.8910  0.4801  0.4801  0.1915  0.2552

 Free energy of the ion-electron system (eV)
  ---------------------------------------------------
  alpha Z        PSCENC =         1.60866549
  Ewald energy   TEWEN  =      2364.43455168
  -Hartree energ DENC   =     -6276.81261127
  -exchange      EXHF   =         0.00000000
  -V(xc)+E(xc)   XCENC  =      -150.32639749
  PAW double counting   =      4524.91418884    -4216.41322852
  entropy T*S    EENTRO =         0.00915543
  eigenvalues    EBANDS =      -308.53880548
  atomic energy  EATOM  =      4048.71946290
  Solvation  Ediel_sol  =         0.00000000
  ---------------------------------------------------
  free energy    TOTEN  =       -12.40501843 eV

  energy without entropy =      -12.41417386  energy(sigma->0) =      -12.40807024


--------------------------------------------------------------------------------------------------------




--------------------------------------- Iteration      1(  13)  ---------------------------------------


    POTLOK:  cpu time   45.7485: real time   48.6869
    SETDIJ:  cpu time    0.3648: real time    0.5011
     EDDAV:  cpu time   65.1324: real time  102.6879
       DOS:  cpu time    0.2240: real time    0.4561
    CHARGE:  cpu time    7.8471: real time   13.8955
    MIXING:  cpu time    0.7765: real time    1.2045
    --------------------------------------------
      LOOP:  cpu time  120.0933: real time  167.4320

 eigenvalue-minimisations  :   136
 total energy-change (2. order) :-0.3175336E+00  (-0.6861284E-02)
 number of electron      50.0000005 magnetization       3.7241198
 augmentation part       21.4829522 magnetization       2.0993368

 Broyden mixing:
  rms(total) = 0.73694E-01    rms(broyden)= 0.73679E-01
  rms(prec ) = 0.78635E-01
  weight for this iteration     100.00

 eigenvalues of (default mixing * dielectric matrix)
  average eigenvalue GAMMA=   0.7574
  1.9512  1.3211  0.6768  0.6768  0.4914  0.4914  0.1917  0.2588

 Free energy of the ion-electron system (eV)
  ---------------------------------------------------
  alpha Z        PSCENC =         1.60866549
  Ewald energy   TEWEN  =      2364.43455168
  -Hartree energ DENC   =     -6279.69495994
  -exchange      EXHF   =         0.00000000
  -V(xc)+E(xc)   XCENC  =      -150.53146774
  PAW double counting   =      4533.32230300    -4224.83729132
  entropy T*S    EENTRO =         0.01701104
  eigenvalues    EBANDS =      -305.76082710
  atomic energy  EATOM  =      4048.71946290
  Solvation  Ediel_sol  =         0.00000000
  ---------------------------------------------------
  free energy    TOTEN  =       -12.72255198 eV

  energy without entropy =      -12.73956302  energy(sigma->0) =      -12.72822233


--------------------------------------------------------------------------------------------------------




--------------------------------------- Iteration      1(  14)  ---------------------------------------


    POTLOK:  cpu time   32.5574: real time   48.7743
    SETDIJ:  cpu time    0.4813: real time    0.4817
     EDDAV:  cpu time   74.8286: real time  108.0602
       DOS:  cpu time    0.5157: real time    0.5159
    CHARGE:  cpu time    9.8241: real time   11.7737
    MIXING:  cpu time    1.5362: real time    1.7770
    --------------------------------------------
      LOOP:  cpu time  119.7434: real time  171.3828

 eigenvalue-minimisations  :   152
 total energy-change (2. order) :-0.2842312E+00  (-0.5713396E-02)
 number of electron      50.0000005 magnetization       3.6035367
 augmentation part       21.4772958 magnetization       2.0035979

 Broyden mixing:
  rms(total) = 0.78972E-01    rms(broyden)= 0.78959E-01
  rms(prec ) = 0.86097E-01
  weight for this iteration     100.00

 eigenvalues of (default mixing * dielectric matrix)
  average eigenvalue GAMMA=   0.8055
  1.8342  1.8342  0.8770  0.8770  0.5002  0.5002  0.3771  0.1916  0.2577

 Free energy of the ion-electron system (eV)
  ---------------------------------------------------
  alpha Z        PSCENC =         1.60866549
  Ewald energy   TEWEN  =      2364.43455168
  -Hartree energ DENC   =     -6282.03497799
  -exchange      EXHF   =         0.00000000
  -V(xc)+E(xc)   XCENC  =      -150.71507277
  PAW double counting   =      4536.67939501    -4228.16798725
  entropy T*S    EENTRO =         0.01778753
  eigenvalues    EBANDS =      -303.54860777
  atomic energy  EATOM  =      4048.71946290
  Solvation  Ediel_sol  =         0.00000000
  ---------------------------------------------------
  free energy    TOTEN  =       -13.00678318 eV

  energy without entropy =      -13.02457070  energy(sigma->0) =      -13.01271235


--------------------------------------------------------------------------------------------------------




--------------------------------------- Iteration      1(  15)  ---------------------------------------


    POTLOK:  cpu time   33.3823: real time   44.7005
    SETDIJ:  cpu time    0.8161: real time    0.8167
     EDDAV:  cpu time   61.1401: real time   99.7160
       DOS:  cpu time    0.3718: real time    0.6681
    CHARGE:  cpu time   12.4374: real time   15.6116
    MIXING:  cpu time    1.3576: real time    1.3585
    --------------------------------------------
      LOOP:  cpu time  109.5053: real time  162.8714

 eigenvalue-minimisations  :   144
 total energy-change (2. order) :-0.2497655E+00  (-0.3267892E-02)
 number of electron      50.0000005 magnetization       3.4777247
 augmentation part       21.4724266 magnetization       1.8990510

 Broyden mixing:
  rms(total) = 0.36724E-01    rms(broyden)= 0.36713E-01
  rms(prec ) = 0.40280E-01
  weight for this iteration     100.00

 eigenvalues of (default mixing * dielectric matrix)
  average eigenvalue GAMMA=   0.8658
  2.1264  2.1264  0.9649  0.9649  0.6244  0.5083  0.5083  0.3860  0.1916  0.2566

 Free energy of the ion-electron system (eV)
  ---------------------------------------------------
  alpha Z        PSCENC =         1.60866549
  Ewald energy   TEWEN  =      2364.43455168
  -Hartree energ DENC   =     -6283.44974181
  -exchange      EXHF   =         0.00000000
  -V(xc)+E(xc)   XCENC  =      -150.90922514
  PAW double counting   =      4536.64406869    -4228.12189402
  entropy T*S    EENTRO =         0.01706111
  eigenvalues    EBANDS =      -302.19949751
  atomic energy  EATOM  =      4048.71946290
  Solvation  Ediel_sol  =         0.00000000
  ---------------------------------------------------
  free energy    TOTEN  =       -13.25654863 eV

  energy without entropy =      -13.27360974  energy(sigma->0) =      -13.26223566


--------------------------------------------------------------------------------------------------------




--------------------------------------- Iteration      1(  16)  ---------------------------------------


    POTLOK:  cpu time   32.0062: real time   45.0903
    SETDIJ:  cpu time    0.3873: real time    0.3875
     EDDAV:  cpu time   68.6794: real time  112.2873
       DOS:  cpu time    0.4525: real time    0.4527
    CHARGE:  cpu time   14.3063: real time   18.0537
    MIXING:  cpu time    0.7155: real time    1.2824
    --------------------------------------------
      LOOP:  cpu time  116.5471: real time  177.5539

 eigenvalue-minimisations  :   150
 total energy-change (2. order) :-0.2414008E+00  (-0.2750177E-02)
 number of electron      50.0000005 magnetization       3.3458344
 augmentation part       21.4790035 magnetization       1.8041501

 Broyden mixing:
  rms(total) = 0.36229E-01    rms(broyden)= 0.36216E-01
  rms(prec ) = 0.40007E-01
  weight for this iteration     100.00

 eigenvalues of (default mixing * dielectric matrix)
  average eigenvalue GAMMA=   0.9121
  2.3539  2.3539  1.0996  1.0996  0.5291  0.5291  0.6136  0.6136  0.3930  0.1916
  0.2565

 Free energy of the ion-electron system (eV)
  ---------------------------------------------------
  alpha Z        PSCENC =         1.60866549
  Ewald energy   TEWEN  =      2364.43455168
  -Hartree energ DENC   =     -6284.34549058
  -exchange      EXHF   =         0.00000000
  -V(xc)+E(xc)   XCENC  =      -151.10997447
  PAW double counting   =      4534.20402125    -4225.67724243
  entropy T*S    EENTRO =         0.02013015
  eigenvalues    EBANDS =      -301.35207345
  atomic energy  EATOM  =      4048.71946290
  Solvation  Ediel_sol  =         0.00000000
  ---------------------------------------------------
  free energy    TOTEN  =       -13.49794947 eV

  energy without entropy =      -13.51807962  energy(sigma->0) =      -13.50465952


--------------------------------------------------------------------------------------------------------




--------------------------------------- Iteration      1(  17)  ---------------------------------------


    POTLOK:  cpu time   32.3260: real time   47.5600
    SETDIJ:  cpu time    0.1944: real time    0.3039
     EDDAV:  cpu time   67.2720: real time   92.0709
       DOS:  cpu time    0.6607: real time    0.6611
    CHARGE:  cpu time   11.1942: real time   15.6726
    MIXING:  cpu time    0.8131: real time    1.2434
    --------------------------------------------
      LOOP:  cpu time  112.4604: real time  157.5120

 eigenvalue-minimisations  :   134
 total energy-change (2. order) :-0.2194446E+00  (-0.1599658E-02)
 number of electron      50.0000005 magnetization       3.2458655
 augmentation part       21.4798776 magnetization       1.7186607

 Broyden mixing:
  rms(total) = 0.20359E-01    rms(broyden)= 0.20345E-01
  rms(prec ) = 0.21988E-01
  weight for this iteration     100.00

 eigenvalues of (default mixing * dielectric matrix)
  average eigenvalue GAMMA=   0.9429
  2.5599  2.5599  1.1807  1.1807  0.7098  0.7098  0.5191  0.5191  0.5298  0.1916
  0.2566  0.3975

 Free energy of the ion-electron system (eV)
  ---------------------------------------------------
  alpha Z        PSCENC =         1.60866549
  Ewald energy   TEWEN  =      2364.43455168
  -Hartree energ DENC   =     -6285.29591616
  -exchange      EXHF   =         0.00000000
  -V(xc)+E(xc)   XCENC  =      -151.30013937
  PAW double counting   =      4531.86771756    -4223.31853700
  entropy T*S    EENTRO =         0.02002912
  eigenvalues    EBANDS =      -300.45322832
  atomic energy  EATOM  =      4048.71946290
  Solvation  Ediel_sol  =         0.00000000
  ---------------------------------------------------
  free energy    TOTEN  =       -13.71739410 eV

  energy without entropy =      -13.73742322  energy(sigma->0) =      -13.72407047


--------------------------------------------------------------------------------------------------------




--------------------------------------- Iteration      1(  18)  ---------------------------------------


    POTLOK:  cpu time   28.0670: real time   41.4533
    SETDIJ:  cpu time    0.2344: real time    0.5465
     EDDAV:  cpu time   69.9740: real time  105.3236
       DOS:  cpu time    0.6002: real time    0.6005
    CHARGE:  cpu time   12.5968: real time   15.6493
    MIXING:  cpu time    0.9619: real time    1.5946
    --------------------------------------------
      LOOP:  cpu time  112.4343: real time  165.1678

 eigenvalue-minimisations  :   150
 total energy-change (2. order) :-0.1765903E+00  (-0.1025252E-02)
 number of electron      50.0000005 magnetization       3.1141806
 augmentation part       21.4762876 magnetization       1.6049891

 Broyden mixing:
  rms(total) = 0.16028E-01    rms(broyden)= 0.16018E-01
  rms(prec ) = 0.17412E-01
  weight for this iteration     100.00

 eigenvalues of (default mixing * dielectric matrix)
  average eigenvalue GAMMA=   1.0196
  2.9802  2.9802  1.3023  1.0176  1.0176  0.7313  0.7313  0.5325  0.5325  0.5864
  0.1916  0.2565  0.3949

 Free energy of the ion-electron system (eV)
  ---------------------------------------------------
  alpha Z        PSCENC =         1.60866549
  Ewald energy   TEWEN  =      2364.43455168
  -Hartree energ DENC   =     -6285.86763934
  -exchange      EXHF   =         0.00000000
  -V(xc)+E(xc)   XCENC  =      -151.46198764
  PAW double counting   =      4529.89461552    -4221.33788250
  entropy T*S    EENTRO =         0.01936462
  eigenvalues    EBANDS =      -299.90313511
  atomic energy  EATOM  =      4048.71946290
  Solvation  Ediel_sol  =         0.00000000
  ---------------------------------------------------
  free energy    TOTEN  =       -13.89398439 eV

  energy without entropy =      -13.91334900  energy(sigma->0) =      -13.90043926


--------------------------------------------------------------------------------------------------------




--------------------------------------- Iteration      1(  19)  ---------------------------------------


    POTLOK:  cpu time   27.0042: real time   46.4264
    SETDIJ:  cpu time    0.2535: real time    0.4816
     EDDAV:  cpu time   65.4192: real time  102.8533
       DOS:  cpu time    0.4987: real time    0.4990
    CHARGE:  cpu time    8.6229: real time   14.8535
    MIXING:  cpu time    1.3728: real time    1.6193
    --------------------------------------------
      LOOP:  cpu time  103.1713: real time  166.7330

 eigenvalue-minimisations  :   134
 total energy-change (2. order) :-0.1977745E+00  (-0.1199107E-02)
 number of electron      50.0000005 magnetization       3.0369897
 augmentation part       21.4848991 magnetization       1.5664176

 Broyden mixing:
  rms(total) = 0.15184E-01    rms(broyden)= 0.15174E-01
  rms(prec ) = 0.16641E-01
  weight for this iteration     100.00

 eigenvalues of (default mixing * dielectric matrix)
  average eigenvalue GAMMA=   1.0507
  3.0655  3.0655  1.9439  1.0856  1.0856  0.7313  0.7313  0.5401  0.5401  0.5393
  0.5393  0.1916  0.2565  0.3946

 Free energy of the ion-electron system (eV)
  ---------------------------------------------------
  alpha Z        PSCENC =         1.60866549
  Ewald energy   TEWEN  =      2364.43455168
  -Hartree energ DENC   =     -6286.23253763
  -exchange      EXHF   =         0.00000000
  -V(xc)+E(xc)   XCENC  =      -151.65566761
  PAW double counting   =      4527.13401123    -4218.57389379
  entropy T*S    EENTRO =         0.01947854
  eigenvalues    EBANDS =      -299.54582966
  atomic energy  EATOM  =      4048.71946290
  Solvation  Ediel_sol  =         0.00000000
  ---------------------------------------------------
  free energy    TOTEN  =       -14.09175886 eV

  energy without entropy =      -14.11123739  energy(sigma->0) =      -14.09825170


--------------------------------------------------------------------------------------------------------




--------------------------------------- Iteration      1(  20)  ---------------------------------------


    POTLOK:  cpu time   34.1847: real time   41.7151
    SETDIJ:  cpu time    0.1919: real time    0.2693
     EDDAV:  cpu time   73.2890: real time  111.9293
       DOS:  cpu time    0.4452: real time    0.4454
    CHARGE:  cpu time   11.7995: real time   13.5475
    MIXING:  cpu time    0.9279: real time    1.5245
    --------------------------------------------
      LOOP:  cpu time  120.8382: real time  169.4310

 eigenvalue-minimisations  :   160
 total energy-change (2. order) :-0.8261505E-01  (-0.2581383E-03)
 number of electron      50.0000005 magnetization       2.9658805
 augmentation part       21.4779507 magnetization       1.5014814

 Broyden mixing:
  rms(total) = 0.78922E-02    rms(broyden)= 0.78864E-02
  rms(prec ) = 0.84904E-02
  weight for this iteration     100.00

 eigenvalues of (default mixing * dielectric matrix)
  average eigenvalue GAMMA=   1.0682
  3.6962  2.5344  2.2350  1.1132  1.1132  0.8301  0.8301  0.1916  0.2565  0.5403
  0.5403  0.6589  0.5443  0.5443  0.3947

 Free energy of the ion-electron system (eV)
  ---------------------------------------------------
  alpha Z        PSCENC =         1.60866549
  Ewald energy   TEWEN  =      2364.43455168
  -Hartree energ DENC   =     -6286.75106898
  -exchange      EXHF   =         0.00000000
  -V(xc)+E(xc)   XCENC  =      -151.73378791
  PAW double counting   =      4526.89773219    -4218.32692572
  entropy T*S    EENTRO =         0.01978088
  eigenvalues    EBANDS =      -299.04278444
  atomic energy  EATOM  =      4048.71946290
  Solvation  Ediel_sol  =         0.00000000
  ---------------------------------------------------
  free energy    TOTEN  =       -14.17437390 eV

  energy without entropy =      -14.19415479  energy(sigma->0) =      -14.18096753


--------------------------------------------------------------------------------------------------------




--------------------------------------- Iteration      1(  21)  ---------------------------------------


    POTLOK:  cpu time   38.5142: real time   50.3696
    SETDIJ:  cpu time    0.2822: real time    0.5225
     EDDAV:  cpu time   61.0435: real time   99.5828
       DOS:  cpu time    0.2254: real time    0.4532
    CHARGE:  cpu time    7.3878: real time   15.3490
    MIXING:  cpu time    0.7315: real time    1.6240
    --------------------------------------------
      LOOP:  cpu time  108.1846: real time  167.9011

 eigenvalue-minimisations  :   128
 total energy-change (2. order) :-0.5967921E-01  (-0.1252752E-03)
 number of electron      50.0000005 magnetization       2.8749841
 augmentation part       21.4810000 magnetization       1.4211847

 Broyden mixing:
  rms(total) = 0.82852E-02    rms(broyden)= 0.82816E-02
  rms(prec ) = 0.89336E-02
  weight for this iteration     100.00

 eigenvalues of (default mixing * dielectric matrix)
  average eigenvalue GAMMA=   1.1295
  4.6137  2.4547  2.4547  1.1842  1.1842  0.8894  0.8894  0.1916  0.2565  0.6916
  0.6916  0.5421  0.5421  0.3948  0.5456  0.5456

 Free energy of the ion-electron system (eV)
  ---------------------------------------------------
  alpha Z        PSCENC =         1.60866549
  Ewald energy   TEWEN  =      2364.43455168
  -Hartree energ DENC   =     -6286.99229026
  -exchange      EXHF   =         0.00000000
  -V(xc)+E(xc)   XCENC  =      -151.79218176
  PAW double counting   =      4526.66008831    -4218.08261212
  entropy T*S    EENTRO =         0.02046607
  eigenvalues    EBANDS =      -298.81020343
  atomic energy  EATOM  =      4048.71946290
  Solvation  Ediel_sol  =         0.00000000
  ---------------------------------------------------
  free energy    TOTEN  =       -14.23405311 eV

  energy without entropy =      -14.25451918  energy(sigma->0) =      -14.24087514


--------------------------------------------------------------------------------------------------------




--------------------------------------- Iteration      1(  22)  ---------------------------------------


    POTLOK:  cpu time   30.9036: real time   48.1784
    SETDIJ:  cpu time    0.5921: real time    0.6925
     EDDAV:  cpu time   64.1611: real time   99.4154
       DOS:  cpu time    0.6757: real time    0.6761
    CHARGE:  cpu time    9.5927: real time   14.5595
    MIXING:  cpu time    1.1204: real time    1.8650
    --------------------------------------------
      LOOP:  cpu time  107.0457: real time  165.3869

 eigenvalue-minimisations  :   132
 total energy-change (2. order) :-0.6854822E-01  (-0.1863065E-03)
 number of electron      50.0000005 magnetization       2.8172553
 augmentation part       21.4797275 magnetization       1.3782682

 Broyden mixing:
  rms(total) = 0.48840E-02    rms(broyden)= 0.48788E-02
  rms(prec ) = 0.51939E-02
  weight for this iteration     100.00

 eigenvalues of (default mixing * dielectric matrix)
  average eigenvalue GAMMA=   1.1937
  5.4820  2.4787  2.4787  1.5123  1.1599  1.1599  0.8669  0.8669  0.1916  0.2565
  0.5421  0.5421  0.6381  0.6381  0.3948  0.5424  0.5424

 Free energy of the ion-electron system (eV)
  ---------------------------------------------------
  alpha Z        PSCENC =         1.60866549
  Ewald energy   TEWEN  =      2364.43455168
  -Hartree energ DENC   =     -6287.37383149
  -exchange      EXHF   =         0.00000000
  -V(xc)+E(xc)   XCENC  =      -151.85941144
  PAW double counting   =      4526.62175750    -4218.03171694
  entropy T*S    EENTRO =         0.02150433
  eigenvalues    EBANDS =      -298.44358335
  atomic energy  EATOM  =      4048.71946290
  Solvation  Ediel_sol  =         0.00000000
  ---------------------------------------------------
  free energy    TOTEN  =       -14.30260133 eV

  energy without entropy =      -14.32410566  energy(sigma->0) =      -14.30976944


--------------------------------------------------------------------------------------------------------




--------------------------------------- Iteration      1(  23)  ---------------------------------------


    POTLOK:  cpu time   34.3230: real time   46.4386
    SETDIJ:  cpu time    0.9651: real time    1.0535
     EDDAV:  cpu time   84.6048: real time   95.4491
       DOS:  cpu time    0.4787: real time    0.6750
    CHARGE:  cpu time    7.2074: real time   14.9449
    MIXING:  cpu time    1.5899: real time    2.2470
    --------------------------------------------
      LOOP:  cpu time  129.1691: real time  160.8081

 eigenvalue-minimisations  :   144
 total energy-change (2. order) :-0.3231898E-01  (-0.6596957E-04)
 number of electron      50.0000005 magnetization       2.7751798
 augmentation part       21.4802877 magnetization       1.3459477

 Broyden mixing:
  rms(total) = 0.37276E-02    rms(broyden)= 0.37254E-02
  rms(prec ) = 0.39247E-02
  weight for this iteration     100.00

 eigenvalues of (default mixing * dielectric matrix)
  average eigenvalue GAMMA=   1.2471
  6.2633  2.5626  2.5626  1.8523  1.1835  1.1835  0.8766  0.8766  0.1916  0.2565
  0.7092  0.7092  0.5394  0.5394  0.6769  0.3948  0.5344  0.5344

 Free energy of the ion-electron system (eV)
  ---------------------------------------------------
  alpha Z        PSCENC =         1.60866549
  Ewald energy   TEWEN  =      2364.43455168
  -Hartree energ DENC   =     -6287.55762915
  -exchange      EXHF   =         0.00000000
  -V(xc)+E(xc)   XCENC  =      -151.89111344
  PAW double counting   =      4526.82473023    -4218.22570995
  entropy T*S    EENTRO =         0.02234267
  eigenvalues    EBANDS =      -298.27022073
  atomic energy  EATOM  =      4048.71946290
  Solvation  Ediel_sol  =         0.00000000
  ---------------------------------------------------
  free energy    TOTEN  =       -14.33492030 eV

  energy without entropy =      -14.35726297  energy(sigma->0) =      -14.34236786


--------------------------------------------------------------------------------------------------------




--------------------------------------- Iteration      1(  24)  ---------------------------------------


    POTLOK:  cpu time   32.4170: real time   51.2968
    SETDIJ:  cpu time    0.2229: real time    0.6792
     EDDAV:  cpu time   55.7382: real time   93.5118
       DOS:  cpu time    0.4679: real time    0.6843
    CHARGE:  cpu time    8.9541: real time   17.2494
    MIXING:  cpu time    1.9254: real time    2.9638
    --------------------------------------------
      LOOP:  cpu time   99.7256: real time  166.3852

 eigenvalue-minimisations  :   112
 total energy-change (2. order) :-0.1912000E-01  (-0.2946564E-04)
 number of electron      50.0000005 magnetization       2.7275972
 augmentation part       21.4802669 magnetization       1.3045228

 Broyden mixing:
  rms(total) = 0.27208E-02    rms(broyden)= 0.27193E-02
  rms(prec ) = 0.28829E-02
  weight for this iteration     100.00

 eigenvalues of (default mixing * dielectric matrix)
  average eigenvalue GAMMA=   1.3309
  7.2896  2.8461  2.8461  2.0499  1.1846  1.1846  0.9996  0.9996  0.7515  0.7515
  0.1916  0.2565  0.5397  0.5397  0.3948  0.6940  0.6940  0.5368  0.5368

 Free energy of the ion-electron system (eV)
  ---------------------------------------------------
  alpha Z        PSCENC =         1.60866549
  Ewald energy   TEWEN  =      2364.43455168
  -Hartree energ DENC   =     -6287.66608226
  -exchange      EXHF   =         0.00000000
  -V(xc)+E(xc)   XCENC  =      -151.90996308
  PAW double counting   =      4527.02292169    -4218.41710849
  entropy T*S    EENTRO =         0.02287586
  eigenvalues    EBANDS =      -298.16936410
  atomic energy  EATOM  =      4048.71946290
  Solvation  Ediel_sol  =         0.00000000
  ---------------------------------------------------
  free energy    TOTEN  =       -14.35404031 eV

  energy without entropy =      -14.37691617  energy(sigma->0) =      -14.36166559


--------------------------------------------------------------------------------------------------------




--------------------------------------- Iteration      1(  25)  ---------------------------------------


    POTLOK:  cpu time   41.4051: real time   58.5849
    SETDIJ:  cpu time    0.2537: real time    0.5658
     EDDAV:  cpu time   97.3592: real time  114.5516
       DOS:  cpu time    0.4843: real time    0.4845
    CHARGE:  cpu time   18.6781: real time   18.6876
    MIXING:  cpu time    2.9986: real time    3.0003
    --------------------------------------------
      LOOP:  cpu time  161.1790: real time  195.8747

 eigenvalue-minimisations  :   144
 total energy-change (2. order) :-0.1756186E-01  (-0.4100045E-04)
 number of electron      50.0000005 magnetization       2.7039072
 augmentation part       21.4803710 magnetization       1.2874721

 Broyden mixing:
  rms(total) = 0.16325E-02    rms(broyden)= 0.16293E-02
  rms(prec ) = 0.17678E-02
  weight for this iteration     100.00

 eigenvalues of (default mixing * dielectric matrix)
  average eigenvalue GAMMA=   1.4049
  8.6253  2.9158  2.9158  2.2943  1.2747  1.2747  1.0905  1.0905  0.1916  0.8080
  0.8080  0.2565  0.5398  0.5398  0.6902  0.6902  0.3948  0.5368  0.5368  0.6229

 Free energy of the ion-electron system (eV)
  ---------------------------------------------------
  alpha Z        PSCENC =         1.60866549
  Ewald energy   TEWEN  =      2364.43455168
  -Hartree energ DENC   =     -6287.74047621
  -exchange      EXHF   =         0.00000000
  -V(xc)+E(xc)   XCENC  =      -151.92777746
  PAW double counting   =      4527.28511120    -4218.67246706
  entropy T*S    EENTRO =         0.02340063
  eigenvalues    EBANDS =      -298.10207333
  atomic energy  EATOM  =      4048.71946290
  Solvation  Ediel_sol  =         0.00000000
  ---------------------------------------------------
  free energy    TOTEN  =       -14.37160217 eV

  energy without entropy =      -14.39500280  energy(sigma->0) =      -14.37940238


--------------------------------------------------------------------------------------------------------




--------------------------------------- Iteration      1(  26)  ---------------------------------------


    POTLOK:  cpu time   48.3718: real time   48.3964
    SETDIJ:  cpu time    0.5513: real time    0.5516
     EDDAV:  cpu time   88.4581: real time   88.5078
       DOS:  cpu time    0.5081: real time    0.5084
    CHARGE:  cpu time   14.4571: real time   16.0050
    MIXING:  cpu time    2.0379: real time    2.7909
    --------------------------------------------
      LOOP:  cpu time  154.3844: real time  156.7600

 eigenvalue-minimisations  :   104
 total energy-change (2. order) :-0.5840786E-02  (-0.1052615E-04)
 number of electron      50.0000005 magnetization       2.6879399
 augmentation part       21.4808825 magnetization       1.2753146

 Broyden mixing:
  rms(total) = 0.92393E-03    rms(broyden)= 0.92229E-03
  rms(prec ) = 0.10496E-02
  weight for this iteration     100.00

 eigenvalues of (default mixing * dielectric matrix)
  average eigenvalue GAMMA=   1.4508
  9.5569  3.3145  2.5979  2.5979  1.4647  1.1539  1.1539  0.9962  0.9962  0.8138
  0.8138  0.1916  0.2565  0.5397  0.5397  0.3948  0.6992  0.6992  0.5354  0.5354
  0.6145

 Free energy of the ion-electron system (eV)
  ---------------------------------------------------
  alpha Z        PSCENC =         1.60866549
  Ewald energy   TEWEN  =      2364.43455168
  -Hartree energ DENC   =     -6287.74177719
  -exchange      EXHF   =         0.00000000
  -V(xc)+E(xc)   XCENC  =      -151.93425595
  PAW double counting   =      4527.27359340    -4218.65816660
  entropy T*S    EENTRO =         0.02354734
  eigenvalues    EBANDS =      -298.10306400
  atomic energy  EATOM  =      4048.71946290
  Solvation  Ediel_sol  =         0.00000000
  ---------------------------------------------------
  free energy    TOTEN  =       -14.37744295 eV

  energy without entropy =      -14.40099029  energy(sigma->0) =      -14.38529206


--------------------------------------------------------------------------------------------------------




--------------------------------------- Iteration      1(  27)  ---------------------------------------


    POTLOK:  cpu time   48.2224: real time   48.2466
    SETDIJ:  cpu time    0.5131: real time    0.5134
     EDDAV:  cpu time   86.5500: real time   86.5954
       DOS:  cpu time    0.4645: real time    0.4647
    CHARGE:  cpu time   12.1272: real time   12.1333
    MIXING:  cpu time    2.1546: real time    2.1559
    --------------------------------------------
      LOOP:  cpu time  150.0318: real time  150.1094

 eigenvalue-minimisations  :   104
 total energy-change (2. order) :-0.3206094E-02  (-0.9043185E-05)
 number of electron      50.0000005 magnetization       2.6796748
 augmentation part       21.4807461 magnetization       1.2693472

 Broyden mixing:
  rms(total) = 0.62562E-03    rms(broyden)= 0.62438E-03
  rms(prec ) = 0.75093E-03
  weight for this iteration     100.00

 eigenvalues of (default mixing * dielectric matrix)
  average eigenvalue GAMMA=   1.4725
  9.9968  3.6128  2.5108  2.5108  1.8674  1.1251  1.1251  1.1069  1.1069  0.8279
  0.8279  0.1916  0.2565  0.3948  0.5398  0.5398  0.7912  0.6905  0.6905  0.5353
  0.5353  0.6117

 Free energy of the ion-electron system (eV)
  ---------------------------------------------------
  alpha Z        PSCENC =         1.60866549
  Ewald energy   TEWEN  =      2364.43455168
  -Hartree energ DENC   =     -6287.71694238
  -exchange      EXHF   =         0.00000000
  -V(xc)+E(xc)   XCENC  =      -151.93803838
  PAW double counting   =      4527.22951533    -4218.61181998
  entropy T*S    EENTRO =         0.02363734
  eigenvalues    EBANDS =      -298.12968104
  atomic energy  EATOM  =      4048.71946290
  Solvation  Ediel_sol  =         0.00000000
  ---------------------------------------------------
  free energy    TOTEN  =       -14.38064905 eV

  energy without entropy =      -14.40428638  energy(sigma->0) =      -14.38852816


--------------------------------------------------------------------------------------------------------




--------------------------------------- Iteration      1(  28)  ---------------------------------------


    POTLOK:  cpu time   45.5102: real time   45.6399
    SETDIJ:  cpu time    0.2340: real time    0.7028
     EDDAV:  cpu time   77.7623: real time   77.8034
       DOS:  cpu time    0.5884: real time    0.5886
    CHARGE:  cpu time   16.2461: real time   16.2541
    MIXING:  cpu time    2.2964: real time    2.2978
    --------------------------------------------
      LOOP:  cpu time  142.6374: real time  143.2867

 eigenvalue-minimisations  :    88
 total energy-change (2. order) :-0.1485932E-02  (-0.3135097E-05)
 number of electron      50.0000005 magnetization       2.6743284
 augmentation part       21.4808861 magnetization       1.2652795

 Broyden mixing:
  rms(total) = 0.42321E-03    rms(broyden)= 0.42261E-03
  rms(prec ) = 0.52798E-03
  weight for this iteration     100.00

 eigenvalues of (default mixing * dielectric matrix)
  average eigenvalue GAMMA=   1.4767
 10.2619  3.6648  2.4220  2.4220  2.3683  1.1790  1.1790  1.1250  1.1250  0.1916
  0.8251  0.8251  0.8755  0.2565  0.5398  0.5398  0.3948  0.6920  0.6920  0.7112
  0.5351  0.5351  0.6036

 Free energy of the ion-electron system (eV)
  ---------------------------------------------------
  alpha Z        PSCENC =         1.60866549
  Ewald energy   TEWEN  =      2364.43455168
  -Hartree energ DENC   =     -6287.68421202
  -exchange      EXHF   =         0.00000000
  -V(xc)+E(xc)   XCENC  =      -151.93989687
  PAW double counting   =      4527.22467806    -4218.60611781
  entropy T*S    EENTRO =         0.02370591
  eigenvalues    EBANDS =      -298.16297232
  atomic energy  EATOM  =      4048.71946290
  Solvation  Ediel_sol  =         0.00000000
  ---------------------------------------------------
  free energy    TOTEN  =       -14.38213498 eV

  energy without entropy =      -14.40584089  energy(sigma->0) =      -14.39003695


--------------------------------------------------------------------------------------------------------




--------------------------------------- Iteration      1(  29)  ---------------------------------------


    POTLOK:  cpu time   46.3210: real time   46.3488
    SETDIJ:  cpu time    0.5829: real time    0.5832
     EDDAV:  cpu time   84.4579: real time   89.0320
       DOS:  cpu time    0.5997: real time    0.6000
    CHARGE:  cpu time   10.8954: real time   13.5274
    MIXING:  cpu time    2.9783: real time    2.9806
    --------------------------------------------
      LOOP:  cpu time  145.8352: real time  153.0720

 eigenvalue-minimisations  :    96
 total energy-change (2. order) :-0.9382666E-03  (-0.2397545E-05)
 number of electron      50.0000005 magnetization       2.6682124
 augmentation part       21.4809355 magnetization       1.2601032

 Broyden mixing:
  rms(total) = 0.34344E-03    rms(broyden)= 0.34309E-03
  rms(prec ) = 0.42972E-03
  weight for this iteration     100.00

 eigenvalues of (default mixing * dielectric matrix)
  average eigenvalue GAMMA=   1.4902
 10.4375  3.9806  2.5251  2.5251  2.4035  1.2311  1.2311  1.1117  1.1117  0.1916
  1.0381  0.2565  0.8481  0.8481  0.3948  0.5398  0.5398  0.6891  0.6891  0.7520
  0.7520  0.5352  0.5352  0.5977

 Free energy of the ion-electron system (eV)
  ---------------------------------------------------
  alpha Z        PSCENC =         1.60866549
  Ewald energy   TEWEN  =      2364.43455168
  -Hartree energ DENC   =     -6287.65347742
  -exchange      EXHF   =         0.00000000
  -V(xc)+E(xc)   XCENC  =      -151.94113642
  PAW double counting   =      4527.19978731    -4218.58057542
  entropy T*S    EENTRO =         0.02373860
  eigenvalues    EBANDS =      -298.19408996
  atomic energy  EATOM  =      4048.71946290
  Solvation  Ediel_sol  =         0.00000000
  ---------------------------------------------------
  free energy    TOTEN  =       -14.38307324 eV

  energy without entropy =      -14.40681184  energy(sigma->0) =      -14.39098611


--------------------------------------------------------------------------------------------------------




--------------------------------------- Iteration      1(  30)  ---------------------------------------


    POTLOK:  cpu time   30.1670: real time   43.6374
    SETDIJ:  cpu time    0.7514: real time    0.7519
     EDDAV:  cpu time   60.2703: real time   77.2262
       DOS:  cpu time    0.7523: real time    0.7526
    CHARGE:  cpu time   17.0076: real time   17.0162
    MIXING:  cpu time    2.6381: real time    2.6397
    --------------------------------------------
      LOOP:  cpu time  111.5866: real time  142.0240

 eigenvalue-minimisations  :    88
 total energy-change (2. order) :-0.9250017E-03  (-0.2516037E-05)
 number of electron      50.0000005 magnetization       2.6647978
 augmentation part       21.4810151 magnetization       1.2576923

 Broyden mixing:
  rms(total) = 0.29523E-03    rms(broyden)= 0.29489E-03
  rms(prec ) = 0.34809E-03
  weight for this iteration     100.00

 eigenvalues of (default mixing * dielectric matrix)
  average eigenvalue GAMMA=   1.5085
 10.5602  4.3050  2.6660  2.5653  2.5653  1.2753  1.2753  1.1402  1.1402  1.0492
  1.0492  0.8646  0.8646  0.1916  0.2565  0.3948  0.5398  0.5398  0.7156  0.7156
  0.5352  0.5352  0.6891  0.6891  0.5909

 Free energy of the ion-electron system (eV)
  ---------------------------------------------------
  alpha Z        PSCENC =         1.60866549
  Ewald energy   TEWEN  =      2364.43455168
  -Hartree energ DENC   =     -6287.60529809
  -exchange      EXHF   =         0.00000000
  -V(xc)+E(xc)   XCENC  =      -151.94262173
  PAW double counting   =      4527.17566005    -4218.55535350
  entropy T*S    EENTRO =         0.02377080
  eigenvalues    EBANDS =      -298.24283583
  atomic energy  EATOM  =      4048.71946290
  Solvation  Ediel_sol  =         0.00000000
  ---------------------------------------------------
  free energy    TOTEN  =       -14.38399825 eV

  energy without entropy =      -14.40776904  energy(sigma->0) =      -14.39192184


--------------------------------------------------------------------------------------------------------




--------------------------------------- Iteration      1(  31)  ---------------------------------------


    POTLOK:  cpu time   42.6902: real time   42.9426
    SETDIJ:  cpu time    0.4932: real time    0.4934
[...]
 augmentation part       21.5773505 magnetization       1.1609918

 Broyden mixing:
  rms(total) = 0.54071E-02    rms(broyden)= 0.53987E-02
  rms(prec ) = 0.55842E-02
  weight for this iteration     100.00

 Free energy of the ion-electron system (eV)
  ---------------------------------------------------
  alpha Z        PSCENC =         1.60866549
  Ewald energy   TEWEN  =      2938.16450335
  -Hartree energ DENC   =     -6889.43009979
  -exchange      EXHF   =         0.00000000
  -V(xc)+E(xc)   XCENC  =      -151.34083577
  PAW double counting   =      4467.54766473    -4157.27076619
  entropy T*S    EENTRO =        -0.01242983
  eigenvalues    EBANDS =      -274.46084637
  atomic energy  EATOM  =      4048.71946290
  Solvation  Ediel_sol  =         0.00000000
  ---------------------------------------------------
  free energy    TOTEN  =       -16.47468149 eV

  energy without entropy =      -16.46225166  energy(sigma->0) =      -16.47053821


--------------------------------------------------------------------------------------------------------




--------------------------------------- Iteration     65(   2)  ---------------------------------------


    POTLOK:  cpu time   34.9418: real time   49.8965
    SETDIJ:  cpu time    0.4716: real time    0.5638
     EDDAV:  cpu time   75.4996: real time  108.6833
       DOS:  cpu time    0.2210: real time    0.4607
    CHARGE:  cpu time   11.9755: real time   15.8634
    MIXING:  cpu time    0.5619: real time    0.8904
    --------------------------------------------
      LOOP:  cpu time  123.6714: real time  176.3581

 eigenvalue-minimisations  :   150
 total energy-change (2. order) :-0.1122031E-03  (-0.1196853E-03)
 number of electron      49.9999988 magnetization       2.0348469
 augmentation part       21.5774437 magnetization       1.1612650

 Broyden mixing:
  rms(total) = 0.62403E-02    rms(broyden)= 0.62381E-02
  rms(prec ) = 0.65988E-02
  weight for this iteration     100.00

 eigenvalues of (default mixing * dielectric matrix)
  average eigenvalue GAMMA=   0.4543
  0.4543

 Free energy of the ion-electron system (eV)
  ---------------------------------------------------
  alpha Z        PSCENC =         1.60866549
  Ewald energy   TEWEN  =      2938.16450335
  -Hartree energ DENC   =     -6889.42484677
  -exchange      EXHF   =         0.00000000
  -V(xc)+E(xc)   XCENC  =      -151.34070152
  PAW double counting   =      4467.32606432    -4157.04725526
  entropy T*S    EENTRO =        -0.01259072
  eigenvalues    EBANDS =      -274.46809548
  atomic energy  EATOM  =      4048.71946290
  Solvation  Ediel_sol  =         0.00000000
  ---------------------------------------------------
  free energy    TOTEN  =       -16.47479369 eV

  energy without entropy =      -16.46220297  energy(sigma->0) =      -16.47059679


--------------------------------------------------------------------------------------------------------




--------------------------------------- Iteration     65(   3)  ---------------------------------------


    POTLOK:  cpu time   32.3618: real time   46.2175
    SETDIJ:  cpu time    0.2923: real time    0.5926
     EDDAV:  cpu time   59.8183: real time   81.5663
       DOS:  cpu time    0.2576: real time    0.4937
    --------------------------------------------
      LOOP:  cpu time   92.7300: real time  128.8701

 eigenvalue-minimisations  :   102
 total energy-change (2. order) :-0.1098732E-04  (-0.1258208E-04)
 number of electron      49.9999988 magnetization       2.0348469
 augmentation part       21.5774437 magnetization       1.1612650

 Free energy of the ion-electron system (eV)
  ---------------------------------------------------
  alpha Z        PSCENC =         1.60866549
  Ewald energy   TEWEN  =      2938.16450335
  -Hartree energ DENC   =     -6889.42652072
  -exchange      EXHF   =         0.00000000
  -V(xc)+E(xc)   XCENC  =      -151.34071572
  PAW double counting   =      4467.27084973    -4156.99152585
  entropy T*S    EENTRO =        -0.01250581
  eigenvalues    EBANDS =      -274.46701806
  atomic energy  EATOM  =      4048.71946290
  Solvation  Ediel_sol  =         0.00000000
  ---------------------------------------------------
  free energy    TOTEN  =       -16.47480468 eV

  energy without entropy =      -16.46229887  energy(sigma->0) =      -16.47063608


--------------------------------------------------------------------------------------------------------




 average (electrostatic) potential at core
  the test charge radii are     1.1199
  (the norm of the test charge is              1.0000)
       1 -83.3367       2 -83.3428       3 -83.0502       4 -83.3351       5 -83.0563
 
 
 
 E-fermi :  -3.9224     XC(G=0):  -0.2463     alpha+bet : -0.1216


 spin component 1

 k-point     1 :       0.0000    0.0000    0.0000
  band No.  band energies     occupation 
      1      -7.9105      1.00000
      2      -7.4303      1.00000
      3      -6.7637      1.00000
      4      -6.7582      1.00000
      5      -6.5904      1.00000
      6      -6.5872      1.00000
      7      -6.5361      1.00000
      8      -6.5176      1.00000
      9      -6.4145      1.00000
     10      -5.7902      1.00000
     11      -5.6886      1.00000
     12      -5.6808      1.00000
     13      -5.0461      1.00000
     14      -5.0439      1.00000
     15      -4.9279      1.00000
     16      -4.8873      1.00000
     17      -4.8614      1.00000
     18      -4.8569      1.00000
     19      -4.8538      1.00000
     20      -4.6876      1.00000
     21      -4.6859      1.00000
     22      -4.4158      1.00134
     23      -4.3889      1.00237
     24      -4.3875      1.00244
     25      -4.3349      1.00650
     26      -4.3329      1.00671
     27      -3.4455     -0.00191
     28      -2.6956     -0.00000
     29      -2.6929     -0.00000
     30      -1.6334     -0.00000
     31      -0.5939     -0.00000
     32      -0.3826     -0.00000
     33      -0.3779     -0.00000

 spin component 2

 k-point     1 :       0.0000    0.0000    0.0000
  band No.  band energies     occupation 
      1      -7.7906      1.00000
      2      -7.3137      1.00000
      3      -6.4631      1.00000
      4      -6.4591      1.00000
      5      -6.4252      1.00000
      6      -6.4218      1.00000
      7      -6.0980      1.00000
      8      -6.0894      1.00000
      9      -6.0778      1.00000
     10      -5.5599      1.00000
     11      -5.4310      1.00000
     12      -5.4227      1.00000
     13      -4.8699      1.00000
     14      -4.8673      1.00000
     15      -4.7593      1.00000
     16      -4.7237      1.00000
     17      -4.7132      1.00000
     18      -4.6621      1.00000
     19      -4.6568      1.00000
     20      -4.4947      1.00020
     21      -4.4930      1.00021
     22      -4.1754      1.03522
     23      -4.1746      1.03526
     24      -3.9576      0.64633
     25      -3.8240      0.13453
     26      -3.8228      0.13096
     27      -3.3429     -0.00016
     28      -2.5704     -0.00000
     29      -2.5665     -0.00000
     30      -1.5057     -0.00000
     31      -0.5433     -0.00000
     32      -0.3528     -0.00000
     33      -0.3482     -0.00000


--------------------------------------------------------------------------------------------------------


 soft charge-density along one line, spin component            1
         0         1         2         3         4         5         6         7         8         9
 total charge-density along one line
 
 soft charge-density along one line, spin component            2
         0         1         2         3         4         5         6         7         8         9
 total charge-density along one line
 
 pseudopotential strength for first ion, spin component:            1
 -8.385   0.007  -0.029  -0.010   0.019  -8.361   0.007  -0.028
  0.007  -8.520  -0.077   0.023   0.004   0.007  -8.490  -0.073
 -0.029  -0.077  -8.503  -0.009   0.020  -0.028  -0.073  -8.474
 -0.010   0.023  -0.009  -8.401  -0.028  -0.010   0.022  -0.008
  0.019   0.004   0.020  -0.028  -8.458   0.018   0.004   0.020
 -8.361   0.007  -0.028  -0.010   0.018  -8.315   0.007  -0.027
  0.007  -8.490  -0.073   0.022   0.004   0.007  -8.438  -0.070
 -0.028  -0.073  -8.474  -0.008   0.020  -0.027  -0.070  -8.423
 -0.010   0.022  -0.008  -8.377  -0.027  -0.009   0.021  -0.008
  0.018   0.004   0.020  -0.027  -8.431   0.017   0.004   0.019
 -0.013   0.013   0.015   0.006  -0.008  -0.013   0.012   0.015
 -0.022   0.021   0.026   0.010  -0.014  -0.022   0.020   0.025
 -0.022  -0.014  -0.016  -0.000  -0.028  -0.021  -0.014  -0.015
 -0.000   0.027  -0.018  -0.023  -0.000  -0.000   0.026  -0.017
  0.027  -0.000   0.013  -0.015  -0.023   0.026  -0.000   0.013
 -0.025  -0.016  -0.017  -0.001  -0.031  -0.024  -0.015  -0.017
 -0.001   0.031  -0.020  -0.026  -0.000  -0.001   0.029  -0.019
  0.030  -0.001   0.015  -0.016  -0.026   0.029  -0.001   0.014
 pseudopotential strength for first ion, spin component:            2
 -8.268  -0.010  -0.031  -0.017  -0.005  -8.249  -0.010  -0.029
 -0.010  -8.297   0.012   0.029   0.016  -0.010  -8.277   0.012
 -0.031   0.012  -8.301  -0.014  -0.023  -0.029   0.012  -8.281
 -0.017   0.029  -0.014  -8.292  -0.013  -0.016   0.027  -0.013
 -0.005   0.016  -0.023  -0.013  -8.259  -0.004   0.016  -0.022
 -8.249  -0.010  -0.029  -0.016  -0.004  -8.207  -0.009  -0.028
 -0.010  -8.277   0.012   0.027   0.016  -0.009  -8.234   0.011
 -0.029   0.012  -8.281  -0.013  -0.022  -0.028   0.011  -8.238
 -0.016   0.027  -0.013  -8.272  -0.012  -0.016   0.026  -0.013
 -0.004   0.016  -0.022  -0.012  -8.240  -0.004   0.015  -0.021
 -0.015   0.003   0.006   0.007  -0.006  -0.015   0.003   0.006
 -0.026   0.005   0.011   0.013  -0.010  -0.025   0.005   0.010
 -0.022  -0.016  -0.016  -0.000  -0.029  -0.021  -0.016  -0.016
 -0.000   0.028  -0.017  -0.023   0.001  -0.000   0.027  -0.016
  0.028  -0.000   0.014  -0.015  -0.026   0.027  -0.000   0.014
 -0.025  -0.019  -0.019  -0.001  -0.033  -0.024  -0.018  -0.018
 -0.001   0.032  -0.019  -0.026   0.001  -0.001   0.031  -0.018
  0.032  -0.001   0.017  -0.017  -0.030   0.030  -0.001   0.016
 total augmentation occupancy for first ion, spin component:            1
  2.314   0.128   0.208  -0.037   0.079  -0.762  -0.073  -0.307   0.045  -0.017   0.734  -0.164  -0.145   0.004   0.147  -0.018
  0.128   1.955  -0.377  -0.199   0.035  -0.063  -0.764   0.170   0.280  -0.068   0.028   0.005  -0.043   0.140  -0.002  -0.011
  0.208  -0.377   1.978   0.094   0.207  -0.297   0.173  -0.733  -0.163  -0.120  -0.147   0.044  -0.073  -0.114   0.044  -0.013
 -0.037  -0.199   0.094   2.267   0.054   0.044   0.285  -0.158  -0.707  -0.171  -0.373   0.083   0.004  -0.138  -0.077  -0.003
  0.079   0.035   0.207   0.054   2.068  -0.019  -0.071  -0.122  -0.169  -0.795   0.252  -0.060  -0.137  -0.012  -0.079  -0.027
 -0.762  -0.063  -0.297   0.044  -0.019   1.140   0.043   0.376  -0.054  -0.010  -0.527   0.080   0.194   0.012  -0.214  -0.021
 -0.073  -0.764   0.173   0.285  -0.071   0.043   1.327  -0.079  -0.351   0.093  -0.053   0.025   0.077  -0.225   0.012  -0.012
 -0.307   0.170  -0.733  -0.158  -0.122   0.376  -0.079   1.266   0.210   0.087   0.075   0.005   0.121   0.177  -0.082  -0.013
  0.045   0.280  -0.163  -0.707  -0.169  -0.054  -0.351   0.210   1.073   0.244   0.270  -0.042   0.012   0.208   0.113   0.001
 -0.017  -0.068  -0.120  -0.171  -0.795  -0.010   0.093   0.087   0.244   1.317  -0.172   0.022   0.220   0.018   0.156  -0.022
  0.734   0.028  -0.147  -0.373   0.252  -0.527  -0.053   0.075   0.270  -0.172   1.606  -0.232  -0.255   0.138   0.212   0.020
 -0.164   0.005   0.044   0.083  -0.060   0.080   0.025   0.005  -0.042   0.022  -0.232   0.038   0.037  -0.020  -0.031  -0.002
 -0.145  -0.043  -0.073   0.004  -0.137   0.194   0.077   0.121   0.012   0.220  -0.255   0.037   0.104   0.002  -0.025  -0.011
  0.004   0.140  -0.114  -0.138  -0.012   0.012  -0.225   0.177   0.208   0.018   0.138  -0.020   0.002   0.109   0.012   0.001
  0.147  -0.002   0.044  -0.077  -0.079  -0.214   0.012  -0.082   0.113   0.156   0.212  -0.031  -0.025   0.012   0.085   0.003
 -0.018  -0.011  -0.013  -0.003  -0.027  -0.021  -0.012  -0.013   0.001  -0.022   0.020  -0.002  -0.011   0.001   0.003   0.003
 -0.003   0.025  -0.019  -0.022  -0.000   0.001   0.023  -0.014  -0.020  -0.000  -0.011   0.001   0.001  -0.009  -0.001  -0.000
  0.024  -0.003   0.011  -0.013  -0.024   0.024   0.001   0.010  -0.013  -0.017  -0.016   0.002   0.003  -0.001  -0.009  -0.000
 total augmentation occupancy for first ion, spin component:            2
  0.080  -0.067  -0.008  -0.014  -0.106  -0.021   0.029   0.010   0.006   0.040  -0.007   0.004   0.008   0.001   0.003   0.001
 -0.067   0.640   0.472   0.026   0.019   0.016  -0.265  -0.211  -0.008  -0.003  -0.098   0.034  -0.017   0.001   0.000  -0.009
 -0.008   0.472   0.543  -0.038  -0.206  -0.002  -0.214  -0.224   0.024   0.086  -0.092   0.032  -0.003   0.011   0.011  -0.005
 -0.014   0.026  -0.038   0.066   0.062   0.006  -0.015   0.018  -0.016  -0.021   0.008  -0.004   0.001   0.008  -0.002  -0.001
 -0.106   0.019  -0.206   0.062   0.437   0.044   0.001   0.089  -0.022  -0.159   0.023  -0.008  -0.005   0.007  -0.019  -0.005
 -0.021   0.016  -0.002   0.006   0.044  -0.022  -0.004  -0.004  -0.005  -0.013   0.000   0.000  -0.004  -0.002   0.002  -0.000
  0.029  -0.265  -0.214  -0.015   0.001  -0.004   0.061   0.083   0.006  -0.002   0.023  -0.005   0.005   0.004  -0.001   0.004
  0.010  -0.211  -0.224   0.018   0.089  -0.004   0.083   0.046  -0.012  -0.033   0.021  -0.004  -0.001  -0.008  -0.002   0.003
  0.006  -0.008   0.024  -0.016  -0.022  -0.005   0.006  -0.012  -0.029   0.003  -0.001   0.000  -0.002  -0.006  -0.001   0.000
  0.040  -0.003   0.086  -0.021  -0.159  -0.013  -0.002  -0.033   0.003   0.017  -0.005   0.001  -0.003  -0.003   0.002   0.002
 -0.007  -0.098  -0.092   0.008   0.023   0.000   0.023   0.021  -0.001  -0.005  -0.027   0.006   0.005  -0.003  -0.004   0.002
  0.004   0.034   0.032  -0.004  -0.008   0.000  -0.005  -0.004   0.000   0.001   0.006   0.000  -0.001   0.001   0.001  -0.001
  0.008  -0.017  -0.003   0.001  -0.005  -0.004   0.005  -0.001  -0.002  -0.003   0.005  -0.001  -0.002  -0.002   0.000   0.000
  0.001   0.001   0.011   0.008   0.007  -0.002   0.004  -0.008  -0.006  -0.003  -0.003   0.001  -0.002  -0.004  -0.000  -0.000
  0.003   0.000   0.011  -0.002  -0.019   0.002  -0.001  -0.002  -0.001   0.002  -0.004   0.001   0.000  -0.000  -0.001   0.000
  0.001  -0.009  -0.005  -0.001  -0.005  -0.000   0.004   0.003   0.000   0.002   0.002  -0.001   0.000  -0.000   0.000   0.000
 -0.001   0.006   0.001  -0.001   0.002   0.000  -0.003  -0.001   0.000  -0.001  -0.001   0.000  -0.000   0.000  -0.000  -0.000
  0.004   0.001   0.007  -0.002  -0.010  -0.002  -0.001  -0.003   0.001   0.004  -0.001   0.001   0.000  -0.000   0.001   0.000


------------------------ aborting loop because EDIFF is reached ----------------------------------------


    CHARGE:  cpu time   11.5239: real time   14.2137
    FORLOC:  cpu time    0.6827: real time    0.7423
    FORNL :  cpu time   10.1840: real time   15.8720
    FORCOR:  cpu time   38.6779: real time   44.4360
    FORHAR:  cpu time    2.3238: real time    4.1680
    MIXING:  cpu time    0.3557: real time    0.7199
    OFIELD:  cpu time    0.0000: real time    0.0000

 VOLUME and BASIS-vectors are now :
 -----------------------------------------------------------------------------
  energy-cutoff  :      400.00
  volume of cell :    10128.77
      direct lattice vectors                 reciprocal lattice vectors
    20.992237849  0.000000000  0.000000000     0.047636655  0.000000000  0.000000000
     0.000000000 20.423216349  0.000000000     0.000000000  0.048963884  0.000000000
     0.000000000  0.000000000 23.625114727     0.000000000  0.000000000  0.042327837

  length of vectors
    20.992237849 20.423216349 23.625114727     0.047636655  0.048963884  0.042327837


 FORCES acting on ions
    electron-ion (+dipol)            ewald-force                    non-local-force                 convergence-correction
 -----------------------------------------------------------------------------------------------
   0.356E+03 -.428E+03 0.233E+03   -.352E+03 0.422E+03 -.230E+03   -.446E+01 0.536E+01 -.292E+01   -.278E-01 0.111E-01 0.586E-02
   -.600E+03 -.610E+02 0.193E+02   0.593E+03 0.602E+02 -.190E+02   0.752E+01 0.781E+00 -.216E+00   -.992E-02 0.160E-02 -.366E-01
   -.109E+02 0.271E+03 0.525E+03   0.108E+02 -.267E+03 -.517E+03   0.139E+00 -.381E+01 -.730E+01   -.184E-01 -.342E-01 0.116E-01
   0.244E+03 0.491E+03 -.253E+03   -.241E+03 -.485E+03 0.249E+03   -.306E+01 -.619E+01 0.313E+01   -.446E-01 0.669E-02 0.236E-01
   0.110E+02 -.274E+03 -.524E+03   -.108E+02 0.270E+03 0.517E+03   -.133E+00 0.385E+01 0.732E+01   -.552E-01 -.522E-01 0.511E-02
 -----------------------------------------------------------------------------------------------
   0.158E+00 0.689E-01 -.940E-02   -.782E-13 0.568E-13 0.114E-12   -.160E-03 -.224E-02 0.309E-02   -.156E+00 -.670E-01 0.951E-02
 
 
 POSITION                                       TOTAL-FORCE (eV/Angst)
 -----------------------------------------------------------------------------------
      9.43696     11.28530     10.96404        -0.005465     -0.000996     -0.014806
     11.83924     10.36086     11.49622         0.007770      0.008153      0.011541
     10.37419      9.21786      9.63562        -0.011068     -0.000674      0.019201
      9.72025      8.97416     12.18064        -0.000208     -0.007261     -0.023099
     10.29077     11.21017     13.44855         0.008971      0.000778      0.007164
 -----------------------------------------------------------------------------------
    total drift:                                0.001592     -0.000380      0.003195


--------------------------------------------------------------------------------------------------------



  FREE ENERGIE OF THE ION-ELECTRON SYSTEM (eV)
  ---------------------------------------------------
  free  energy   TOTEN  =       -16.47480468 eV

  energy  without entropy=      -16.46229887  energy(sigma->0) =      -16.47063608
 
 d Force = 0.1347263E-04[-0.469E-04, 0.739E-04]  d Energy = 0.1364191E-03-0.123E-03
 d Force = 0.3630202E+00[ 0.363E+00, 0.363E+00]  d Ewald  = 0.3630210E+00-0.751E-06


--------------------------------------------------------------------------------------------------------


    POTLOK:  cpu time   33.8772: real time   45.1080


--------------------------------------------------------------------------------------------------------




--------------------------------------------------------------------------------------------------------


  
 reached required accuracy - stopping structural energy minimisation
     LOOP+:  cpu time  418.8879: real time  590.1437
    4ORBIT:  cpu time    0.0000: real time    0.0000

 total amount of memory used by VASP MPI-rank0   199621. kBytes
=======================================================================

   base      :      30000. kBytes
   nonl-proj :       2574. kBytes
   fftplans  :      47477. kBytes
   grid      :     107409. kBytes
   one-center:         15. kBytes
   wavefun   :      12146. kBytes
 
  
  
 General timing and accounting informations for this job:
 ========================================================
  
                  Total CPU time used (sec):   109313.109
                            User time (sec):   108927.817
                          System time (sec):      385.295
                         Elapsed time (sec):   154964.643
  
                   Maximum memory used (kb):      418476.
                   Average memory used (kb):           0.
  
                          Minor page faults:    505198645
                          Major page faults:       626411
                 Voluntary context switches:        20617
