<?xml version="1.0" encoding="ISO-8859-1"?>
<modeling>
 <generator>
  <i name="program" type="string">vasp </i>
  <i name="version" type="string">6.1.2  </i>
  <i name="subversion" type="string">22Jul20 (build Feb  1 2022 14:42:14) gamma-only                       parallel </i>
  <i name="platform" type="string">LinuxPGI </i>
  <i name="date" type="string">2022 02 06 </i>
  <i name="time" type="string">00:44:52 </i>
 </generator>
 <incar>
  <i type="int" name="ISPIN">     2</i>
  <i type="int" name="IBRION">     2</i>
  <i type="int" name="NSW">  1000</i>
  <i type="int" name="ISIF">     0</i>
  <i type="int" name="ISYM">     0</i>
  <i name="ENCUT">    400.00000000</i>
  <i type="logical" name="LREAL"> F  </i>
  <i type="int" name="ISMEAR">     1</i>
  <i name="SIGMA">      0.20000000</i>
  <i type="logical" name="LWAVE"> F  </i>
  <i type="logical" name="LCHARG"> F  </i>
  <i type="int" name="KPAR">     1</i>
  <i type="int" name="NCORE">     8</i>
  <i type="string" name="GGA"> PE</i>
  <i type="int" name="ISPIN">     2</i>
 </incar>
 <structure name="primitive_cell" >
  <crystal>
   <varray name="basis" >
    <v>      20.99223785       0.00000000       0.00000000 </v>
    <v>       0.00000000      20.42321635       0.00000000 </v>
    <v>       0.00000000       0.00000000      23.62511473 </v>
   </varray>
   <i name="volume">  10128.77217189 </i>
   <varray name="rec_basis" >
    <v>       0.04763666       0.00000000       0.00000000 </v>
    <v>       0.00000000       0.04896388       0.00000000 </v>
    <v>       0.00000000       0.00000000       0.04232784 </v>
   </varray>
  </crystal>
  <varray name="positions" >
   <v>       0.45046322       0.51582850       0.44567165 </v>
   <v>       0.55185539       0.45187590       0.46380665 </v>
   <v>       0.51726536       0.47642485       0.36695103 </v>
   <v>       0.48506790       0.49076481       0.54739375 </v>
   <v>       0.45632524       0.56463183       0.61955460 </v>
  </varray>
 </structure>
 <varray name="primitive_index" >
  <v type="int" >        1 </v>
  <v type="int" >        2 </v>
  <v type="int" >        3 </v>
  <v type="int" >        4 </v>
  <v type="int" >        5 </v>
 </varray>
 <kpoints>
  <generation param="Gamma">
   <v type="int" name="divisions">       1        1        1 </v>
   <v name="usershift">      0.00000000       0.00000000       0.00000000 </v>
   <v name="genvec1">      1.00000000       0.00000000       0.00000000 </v>
   <v name="genvec2">      0.00000000       1.00000000       0.00000000 </v>
   <v name="genvec3">      0.00000000       0.00000000       1.00000000 </v>
   <v name="shift">      0.00000000       0.00000000       0.00000000 </v>
  </generation>
  <varray name="kpointlist" >
   <v>       0.00000000       0.00000000       0.00000000 </v>
  </varray>
  <varray name="weights" >
   <v>       1.00000000 </v>
  </varray>
 </kpoints>
 <parameters>
  <separator name="general" >
   <i type="string" name="SYSTEM">unknown system</i>
   <i type="logical" name="LCOMPAT"> F  </i>
  </separator>
  <separator name="electronic" >
   <i type="string" name="PREC">normal</i>
   <i name="ENMAX">    400.00000000</i>
   <i name="ENAUG">    416.23000000</i>
   <i name="EDIFF">      0.00010000</i>
   <i type="int" name="IALGO">    38</i>
   <i type="int" name="IWAVPR">    11</i>
   <i type="int" name="NBANDS">    33</i>
   <i type="int" name="NBANDSLOW">    -1</i>
   <i type="int" name="NBANDSHIGH">    -1</i>
   <i name="NELECT">     50.00000000</i>
   <i type="int" name="TURBO">     0</i>
   <i type="int" name="IRESTART">     0</i>
   <i type="int" name="NREBOOT">     0</i>
   <i type="int" name="NMIN">     0</i>
   <i name="EREF">      0.00000000</i>
   <separator name="electronic smearing" >
    <i type="int" name="ISMEAR">     1</i>
    <i name="SIGMA">      0.20000000</i>
    <i name="KSPACING">      0.50000000</i>
    <i type="logical" name="KGAMMA"> T  </i>
    <i type="logical" name="KBLOWUP"> T  </i>
   </separator>
   <separator name="electronic projectors" >
    <i type="logical" name="LREAL"> F  </i>
    <v name="ROPT">      0.00000000</v>
    <i type="int" name="LMAXPAW">  -100</i>
    <i type="int" name="LMAXMIX">     2</i>
    <i type="logical" name="NLSPLINE"> F  </i>
   </separator>
   <separator name="electronic startup" >
    <i type="int" name="ISTART">     0</i>
    <i type="int" name="ICHARG">     2</i>
    <i type="int" name="INIWAV">     1</i>
   </separator>
   <separator name="electronic spin" >
    <i type="int" name="ISPIN">     2</i>
    <i type="logical" name="LNONCOLLINEAR"> F  </i>
    <v name="MAGMOM">      1.00000000      1.00000000      1.00000000      1.00000000      1.00000000</v>
    <i name="NUPDOWN">     -1.00000000</i>
    <i type="logical" name="LSORBIT"> F  </i>
    <v name="SAXIS">      0.00000000      0.00000000      1.00000000</v>
    <i type="logical" name="LSPIRAL"> F  </i>
    <v name="QSPIRAL">      0.00000000      0.00000000      0.00000000</v>
    <i type="logical" name="LZEROZ"> F  </i>
   </separator>
   <separator name="electronic exchange-correlation" >
    <i type="logical" name="LASPH"> F  </i>
    <i type="logical" name="LMETAGGA"> F  </i>
   </separator>
   <separator name="electronic convergence" >
    <i type="int" name="NELM">    60</i>
    <i type="int" name="NELMDL">     0</i>
    <i type="int" name="NELMIN">     2</i>
    <i name="ENINI">    400.00000000</i>
    <separator name="electronic convergence detail" >
     <i type="logical" name="LDIAG"> T  </i>
     <i type="logical" name="LSUBROT"> F  </i>
     <i name="WEIMIN">      0.00100000</i>
     <i name="EBREAK">      0.00000076</i>
     <i name="DEPER">      0.30000000</i>
     <i type="int" name="NRMM">     4</i>
     <i name="TIME">      0.40000000</i>
    </separator>
   </separator>
   <separator name="electronic mixer" >
    <i name="AMIX">      0.40000000</i>
    <i name="BMIX">      1.00000000</i>
    <i name="AMIN">      0.10000000</i>
    <i name="AMIX_MAG">      1.60000000</i>
    <i name="BMIX_MAG">      1.00000000</i>
    <separator name="electronic mixer details" >
     <i type="int" name="IMIX">     4</i>
     <i type="logical" name="MIXFIRST"> F  </i>
     <i type="int" name="MAXMIX">   -45</i>
     <i name="WC">    100.00000000</i>
     <i type="int" name="INIMIX">     1</i>
     <i type="int" name="MIXPRE">     1</i>
     <i type="int" name="MREMOVE">     5</i>
    </separator>
   </separator>
   <separator name="electronic dipolcorrection" >
    <i type="logical" name="LDIPOL"> F  </i>
    <i type="logical" name="LMONO"> F  </i>
    <i type="int" name="IDIPOL">     0</i>
    <i name="EPSILON">      1.00000000</i>
    <v name="DIPOL">   -100.00000000   -100.00000000   -100.00000000</v>
    <i name="EFIELD">      0.00000000</i>
   </separator>
  </separator>
  <separator name="grids" >
   <i type="int" name="NGX">   108</i>
   <i type="int" name="NGY">   100</i>
   <i type="int" name="NGZ">   120</i>
   <i type="int" name="NGXF">   216</i>
   <i type="int" name="NGYF">   200</i>
   <i type="int" name="NGZF">   240</i>
   <i type="logical" name="ADDGRID"> F  </i>
  </separator>
  <separator name="ionic" >
   <i type="int" name="NSW">  1000</i>
   <i type="int" name="IBRION">     2</i>
   <i type="int" name="MDALGO">     0</i>
   <i type="int" name="ISIF">     0</i>
   <i name="PSTRESS">      0.00000000</i>
   <i name="EDIFFG">      0.00100000</i>
   <i type="int" name="NFREE">     1</i>
   <i name="POTIM">      0.50000000</i>
   <i name="SMASS">     -3.00000000</i>
   <i name="SCALEE">      1.00000000</i>
  </separator>
  <separator name="ionic md" >
   <i name="TEBEG">      0.00010000</i>
   <i name="TEEND">      0.00010000</i>
   <i type="int" name="NBLOCK">     1</i>
   <i type="int" name="KBLOCK">  1000</i>
   <i type="int" name="NPACO">   256</i>
   <i name="APACO">     16.00000000</i>
  </separator>
  <separator name="symmetry" >
   <i type="int" name="ISYM">     0</i>
   <i name="SYMPREC">      0.00001000</i>
  </separator>
  <separator name="dos" >
   <i type="int" name="LORBIT">     0</i>
   <v name="RWIGS">     -1.00000000</v>
   <i type="int" name="NEDOS">   301</i>
   <i name="EMIN">     10.00000000</i>
   <i name="EMAX">    -10.00000000</i>
   <i name="EFERMI">      0.00000000</i>
  </separator>
  <separator name="writing" >
   <i type="int" name="NWRITE">     2</i>
   <i type="logical" name="LWAVE"> F  </i>
   <i type="logical" name="LDOWNSAMPLE"> F  </i>
   <i type="logical" name="LCHARG"> F  </i>
   <i type="logical" name="LPARD"> F  </i>
   <i type="logical" name="LVTOT"> F  </i>
   <i type="logical" name="LVHAR"> F  </i>
   <i type="logical" name="LELF"> F  </i>
   <i type="logical" name="LOPTICS"> F  </i>
   <v name="STM">      0.00000000      0.00000000      0.00000000      0.00000000      0.00000000      0.00000000      0.00000000</v>
  </separator>
  <separator name="performance" >
   <i type="int" name="NPAR">     1</i>
   <i type="int" name="NSIM">     4</i>
   <i type="int" name="NBLK">    -1</i>
   <i type="logical" name="LPLANE"> T  </i>
   <i type="logical" name="LSCALAPACK"> T  </i>
   <i type="logical" name="LSCAAWARE"> F  </i>
   <i type="logical" name="LSCALU"> F  </i>
   <i type="logical" name="LASYNC"> F  </i>
   <i type="logical" name="LORBITALREAL"> F  </i>
  </separator>
  <separator name="miscellaneous" >
   <i type="int" name="IDIOT">     3</i>
   <i type="int" name="PHON_NSTRUCT">    -1</i>
   <i type="logical" name="LMUSIC"> F  </i>
   <v name="POMASS">    106.42000000</v>
   <v name="DARWINR">      0.00000000</v>
   <v name="DARWINV">      1.00000000</v>
   <i type="logical" name="LCORR"> T  </i>
  </separator>
  <i type="logical" name="GGA_COMPAT"> T  </i>
  <i type="logical" name="LBERRY"> F  </i>
  <i type="int" name="ICORELEVEL">     0</i>
  <i type="logical" name="LDAU"> F  </i>
  <i type="int" name="I_CONSTRAINED_M">     0</i>
  <separator name="electronic exchange-correlation" >
   <i type="string" name="GGA">PE</i>
   <i type="int" name="VOSKOWN">     0</i>
   <i type="logical" name="LHFCALC"> F  </i>
   <i type="string" name="PRECFOCK"></i>
   <i type="logical" name="LSYMGRAD"> F  </i>
   <i type="logical" name="LHFONE"> F  </i>
   <i type="logical" name="LRHFCALC"> F  </i>
   <i type="logical" name="LTHOMAS"> F  </i>
   <i type="logical" name="LMODELHF"> F  </i>
   <i type="logical" name="LFOCKACE"> F  </i>
   <i name="ENCUT4O">     -1.00000000</i>
   <i type="int" name="EXXOEP">     0</i>
   <i type="int" name="FOURORBIT">     0</i>
   <i name="AEXX">      0.00000000</i>
   <i name="HFALPHA">      0.00000000</i>
   <i name="MCALPHA">      0.00000000</i>
   <i name="ALDAX">      1.00000000</i>
   <i name="AGGAX">      1.00000000</i>
   <i name="ALDAC">      1.00000000</i>
   <i name="AGGAC">      1.00000000</i>
   <i type="int" name="NKREDX">     1</i>
   <i type="int" name="NKREDY">     1</i>
   <i type="int" name="NKREDZ">     1</i>
   <i type="logical" name="SHIFTRED"> F  </i>
   <i type="logical" name="ODDONLY"> F  </i>
   <i type="logical" name="EVENONLY"> F  </i>
   <i type="int" name="LMAXFOCK">     0</i>
   <i type="int" name="NMAXFOCKAE">     0</i>
   <i type="logical" name="LFOCKAEDFT"> F  </i>
   <i name="HFSCREEN">      0.00000000</i>
   <i name="HFSCREENC">      0.00000000</i>
   <i type="int" name="NBANDSGWLOW">     0</i>
  </separator>
  <separator name="vdW DFT" >
   <i type="logical" name="LUSE_VDW"> F  </i>
   <i name="Zab_VDW">     -0.84910000</i>
   <i name="PARAM1">      0.12340000</i>
   <i name="PARAM2">      1.00000000</i>
   <i name="PARAM3">      0.00000000</i>
  </separator>
  <separator name="model GW" >
   <i type="int" name="MODEL_GW">     0</i>
   <i name="MODEL_EPS0">   1215.45266063</i>
   <i name="MODEL_ALPHA">      1.00000000</i>
  </separator>
  <separator name="linear response parameters" >
   <i type="logical" name="LEPSILON"> F  </i>
   <i type="logical" name="LRPA"> F  </i>
   <i type="logical" name="LNABLA"> F  </i>
   <i type="logical" name="LVEL"> F  </i>
   <i type="int" name="KINTER">     0</i>
   <i name="CSHIFT">      0.10000000</i>
   <i name="OMEGAMAX">     -1.00000000</i>
   <i name="DEG_THRESHOLD">      0.00200000</i>
   <i name="RTIME">     -0.10000000</i>
   <i name="WPLASMAI">      0.00000000</i>
   <v name="DFIELD">      0.00000000      0.00000000      0.00000000</v>
   <v name="WPLASMA">      0.00000000      0.00000000      0.00000000      0.00000000      0.00000000      0.00000000      0.00000000      0.00000000      0.00000000</v>
  </separator>
  <separator name="orbital magnetization" >
   <i type="logical" name="NUCIND"> F  </i>
   <v name="MAGPOS">      0.00000000      0.00000000      0.00000000</v>
   <i type="logical" name="LNICSALL"> T  </i>
   <i type="logical" name="ORBITALMAG"> F  </i>
   <i type="logical" name="LMAGBLOCH"> F  </i>
   <i type="logical" name="LCHIMAG"> F  </i>
   <i type="logical" name="LGAUGE"> T  </i>
   <i type="int" name="MAGATOM">     0</i>
   <v name="MAGDIPOL">      0.00000000      0.00000000      0.00000000</v>
   <v name="AVECCONST">      0.00000000      0.00000000      0.00000000</v>
  </separator>
  <separator name="response functions" >
   <i type="logical" name="LFINITE_TEMPERATURE"> F  </i>
   <i type="logical" name="LADDER"> F  </i>
   <i type="logical" name="LRPAFORCE"> F  </i>
   <i type="logical" name="LFXC"> F  </i>
   <i type="logical" name="LHARTREE"> T  </i>
   <i type="int" name="IBSE">     0</i>
   <v type="int" name="KPOINT">    -1     0     0     0</v>
   <i type="logical" name="LTCTC"> F  </i>
   <i type="logical" name="LTCTE"> F  </i>
   <i type="logical" name="LTETE"> F  </i>
   <i type="logical" name="LTRIPLET"> F  </i>
   <i type="logical" name="LFXCEPS"> F  </i>
   <i type="logical" name="LFXHEG"> F  </i>
   <i type="int" name="NATURALO">     2</i>
   <i type="logical" name="LHOLEGF"> F  </i>
   <i type="logical" name="L2ORDER"> F  </i>
   <i type="logical" name="LDMP1"> F  </i>
   <i type="logical" name="LMP2LT"> F  </i>
   <i type="logical" name="LSMP2LT"> F  </i>
   <i type="logical" name="LGWLF"> F  </i>
   <i name="ENCUTGW">     -2.00000000</i>
   <i name="ENCUTGWSOFT">     -2.00000000</i>
   <i name="ENCUTLF">     -1.00000000</i>
   <i type="logical" name="LESF_SPLINES"> F  </i>
   <i type="int" name="LMAXMP2">    -1</i>
   <i name="SCISSOR">      0.00000000</i>
   <i type="int" name="NOMEGA">     0</i>
   <i type="int" name="NOMEGAR">     0</i>
   <i type="int" name="NBANDSGW">    -1</i>
   <i type="int" name="NBANDSO">    -1</i>
   <i type="int" name="NBANDSV">    -1</i>
   <i type="int" name="NELM">     1</i>
   <i type="int" name="NELMHF">     1</i>
   <i type="int" name="DIM">     3</i>
   <i type="int" name="IESPILON">     4</i>
   <i type="int" name="ANTIRES">     0</i>
   <i name="OMEGAMAX">    -30.00000000</i>
   <i name="OMEGAMIN">    -30.00000000</i>
   <i name="OMEGATL">   -200.00000000</i>
   <i type="int" name="OMEGAGRID">     0</i>
   <i name="CSHIFT">     -0.10000000</i>
   <i type="logical" name="LSELFENERGY"> F  </i>
   <i type="logical" name="LSPECTRAL"> F  </i>
   <i type="logical" name="LSPECTRALGW"> F  </i>
   <i type="logical" name="LSINGLES"> F  </i>
   <i type="logical" name="LFERMIGW"> F  </i>
   <i type="logical" name="ODDONLYGW"> F  </i>
   <i type="logical" name="EVENONLYGW"> F  </i>
   <i type="int" name="NKREDLFX">     1</i>
   <i type="int" name="NKREDLFY">     1</i>
   <i type="int" name="NKREDLFZ">     1</i>
   <i type="int" name="MAXMEM">  2800</i>
   <i type="int" name="TELESCOPE">     0</i>
   <i type="int" name="NTAUPAR">    -1</i>
   <i type="int" name="NOMEGAPAR">    -1</i>
   <i name="LAMBDA">      1.00000000</i>
  </separator>
  <separator name="External order field" >
   <i name="OFIELD_KAPPA">      0.00000000</i>
   <v name="OFIELD_K">      0.00000000      0.00000000      0.00000000</v>
   <i name="OFIELD_Q6_NEAR">      0.00000000</i>
   <i name="OFIELD_Q6_FAR">      0.00000000</i>
   <i name="OFIELD_A">      0.00000000</i>
  </separator>
 </parameters>
 <atominfo>
  <atoms>       5 </atoms>
  <types>       1 </types>
  <array name="atoms" >
   <dimension dim="1">ion</dimension>
   <field type="string">element</field>
   <field type="int">atomtype</field>
   <set>
    <rc><c>Pd</c><c>   1</c></rc>
    <rc><c>Pd</c><c>   1</c></rc>
    <rc><c>Pd</c><c>   1</c></rc>
    <rc><c>Pd</c><c>   1</c></rc>
    <rc><c>Pd</c><c>   1</c></rc>
   </set>
  </array>
  <array name="atomtypes" >
   <dimension dim="1">type</dimension>
   <field type="int">atomspertype</field>
   <field type="string">element</field>
   <field>mass</field>
   <field>valence</field>
   <field type="string">pseudopotential</field>
   <set>
    <rc><c>   5</c><c>Pd</c><c>    106.42000000</c><c>     10.00000000</c><c>  PAW_PBE Pd 04Jan2005                  </c></rc>
   </set>
  </array>
 </atominfo>
 <structure name="initialpos" >
  <crystal>
   <varray name="basis" >
    <v>      20.99223785       0.00000000       0.00000000 </v>
    <v>       0.00000000      20.42321635       0.00000000 </v>
    <v>       0.00000000       0.00000000      23.62511473 </v>
   </varray>
   <i name="volume">  10128.77217189 </i>
   <varray name="rec_basis" >
    <v>       0.04763666       0.00000000       0.00000000 </v>
    <v>       0.00000000       0.04896388       0.00000000 </v>
    <v>       0.00000000       0.00000000       0.04232784 </v>
   </varray>
  </crystal>
  <varray name="positions" >
   <v>       0.45046322       0.51582850       0.44567165 </v>
   <v>       0.55185539       0.45187590       0.46380665 </v>
   <v>       0.51726536       0.47642485       0.36695103 </v>
   <v>       0.48506790       0.49076481       0.54739375 </v>
   <v>       0.45632524       0.56463183       0.61955460 </v>
  </varray>
 </structure>
 <calculation>
  <scstep>
   <time name="dav">   86.71   94.13</time>
   <time name="total">  121.15  140.23</time>
   <energy>
    <i name="alphaZ">      1.60866549 </i>
    <i name="ewald">   2364.43455168 </i>
    <i name="hartreedc">  -6219.16443154 </i>
    <i name="XCdc">   -152.92181959 </i>
    <i name="pawpsdc">   4033.23964144 </i>
    <i name="pawaedc">  -3722.16140761 </i>
    <i name="eentropy">     -0.01358258 </i>
    <i name="bandstr">     46.33038946 </i>
    <i name="atom">   4048.71946290 </i>
    <i name="e_fr_energy">    400.07146963 </i>
    <i name="e_wo_entrp">    400.08505221 </i>
    <i name="e_0_energy">    400.07599716 </i>
   </energy>
  </scstep>
  <scstep>
   <time name="dav">  119.81  158.85</time>
   <time name="total">  120.20  159.33</time>
   <energy>
    <i name="e_fr_energy">    267.19018258 </i>
    <i name="e_wo_entrp">    267.24854735 </i>
    <i name="e_0_energy">    267.20963750 </i>
   </energy>
  </scstep>
  <scstep>
   <time name="dav">   98.23  170.79</time>
   <time name="total">   98.47  171.29</time>
   <energy>
    <i name="e_fr_energy">     73.21480622 </i>
    <i name="e_wo_entrp">     73.21331814 </i>
    <i name="e_0_energy">     73.21431019 </i>
   </energy>
  </scstep>
  <scstep>
   <time name="dav">   92.48  140.58</time>
   <time name="total">   92.86  140.98</time>
   <energy>
    <i name="e_fr_energy">     -4.97890652 </i>
    <i name="e_wo_entrp">     -4.99300226 </i>
    <i name="e_0_energy">     -4.98360510 </i>
   </energy>
  </scstep>
  <scstep>
   <time name="dav">   80.71  128.54</time>
   <time name="total">   97.11  147.70</time>
   <energy>
    <i name="e_fr_energy">    -15.19852359 </i>
    <i name="e_wo_entrp">    -15.17924794 </i>
    <i name="e_0_energy">    -15.19209838 </i>
   </energy>
  </scstep>
  <scstep>
   <time name="dav">   58.44  107.19</time>
   <time name="total">  114.93  183.22</time>
   <energy>
    <i name="e_fr_energy">    -12.32194035 </i>
    <i name="e_wo_entrp">    -12.26668750 </i>
    <i name="e_0_energy">    -12.30352274 </i>
   </energy>
  </scstep>
  <scstep>
   <time name="dav">   71.00  118.53</time>
   <time name="total">  133.14  200.79</time>
   <energy>
    <i name="e_fr_energy">    -13.31414513 </i>
    <i name="e_wo_entrp">    -13.30451858 </i>
    <i name="e_0_energy">    -13.31093628 </i>
   </energy>
  </scstep>
  <scstep>
   <time name="dav">   62.59  114.17</time>
   <time name="total">  114.13  191.59</time>
   <energy>
    <i name="e_fr_energy">    -12.37439935 </i>
    <i name="e_wo_entrp">    -12.34208658 </i>
    <i name="e_0_energy">    -12.36362843 </i>
   </energy>
  </scstep>
  <scstep>
   <time name="dav">   62.15   98.58</time>
   <time name="total">  108.50  171.63</time>
   <energy>
    <i name="e_fr_energy">    -12.17318882 </i>
    <i name="e_wo_entrp">    -12.16567237 </i>
    <i name="e_0_energy">    -12.17068334 </i>
   </energy>
  </scstep>
  <scstep>
   <time name="dav">   56.05  100.08</time>
   <time name="total">   95.24  161.40</time>
   <energy>
    <i name="e_fr_energy">    -12.00325236 </i>
    <i name="e_wo_entrp">    -11.99689805 </i>
    <i name="e_0_energy">    -12.00113426 </i>
   </energy>
  </scstep>
  <scstep>
   <time name="dav">   74.96  109.02</time>
   <time name="total">  123.94  174.92</time>
   <energy>
    <i name="e_fr_energy">    -12.15175220 </i>
    <i name="e_wo_entrp">    -12.14981156 </i>
    <i name="e_0_energy">    -12.15110532 </i>
   </energy>
  </scstep>
  <scstep>
   <time name="dav">  106.88  107.56</time>
   <time name="total">  161.09  167.70</time>
   <energy>
    <i name="e_fr_energy">    -12.40501843 </i>
    <i name="e_wo_entrp">    -12.41417386 </i>
    <i name="e_0_energy">    -12.40807024 </i>
   </energy>
  </scstep>
  <scstep>
   <time name="dav">   65.13  102.69</time>
   <time name="total">  120.09  167.43</time>
   <energy>
    <i name="e_fr_energy">    -12.72255198 </i>
    <i name="e_wo_entrp">    -12.73956302 </i>
    <i name="e_0_energy">    -12.72822233 </i>
   </energy>
  </scstep>
  <scstep>
   <time name="dav">   74.83  108.06</time>
   <time name="total">  119.74  171.38</time>
   <energy>
    <i name="e_fr_energy">    -13.00678318 </i>
    <i name="e_wo_entrp">    -13.02457070 </i>
    <i name="e_0_energy">    -13.01271235 </i>
   </energy>
  </scstep>
  <scstep>
   <time name="dav">   61.14   99.72</time>
   <time name="total">  109.51  162.87</time>
   <energy>
    <i name="e_fr_energy">    -13.25654863 </i>
    <i name="e_wo_entrp">    -13.27360974 </i>
    <i name="e_0_energy">    -13.26223566 </i>
   </energy>
  </scstep>
  <scstep>
   <time name="dav">   68.68  112.29</time>
   <time name="total">  116.55  177.55</time>
   <energy>
    <i name="e_fr_energy">    -13.49794947 </i>
    <i name="e_wo_entrp">    -13.51807962 </i>
    <i name="e_0_energy">    -13.50465952 </i>
   </energy>
  </scstep>
  <scstep>
   <time name="dav">   67.27   92.07</time>
   <time name="total">  112.46  157.51</time>
   <energy>
    <i name="e_fr_energy">    -13.71739410 </i>
    <i name="e_wo_entrp">    -13.73742322 </i>
    <i name="e_0_energy">    -13.72407047 </i>
   </energy>
  </scstep>
  <scstep>
   <time name="dav">   69.97  105.32</time>
   <time name="total">  112.43  165.17</time>
   <energy>
    <i name="e_fr_energy">    -13.89398439 </i>
    <i name="e_wo_entrp">    -13.91334900 </i>
    <i name="e_0_energy">    -13.90043926 </i>
   </energy>
  </scstep>
  <scstep>
   <time name="dav">   65.42  102.85</time>
   <time name="total">  103.17  166.73</time>
   <energy>
    <i name="e_fr_energy">    -14.09175886 </i>
    <i name="e_wo_entrp">    -14.11123739 </i>
    <i name="e_0_energy">    -14.09825170 </i>
   </energy>
  </scstep>
  <scstep>
   <time name="dav">   73.29  111.93</time>
   <time name="total">  120.84  169.43</time>
   <energy>
    <i name="e_fr_energy">    -14.17437390 </i>
    <i name="e_wo_entrp">    -14.19415479 </i>
    <i name="e_0_energy">    -14.18096753 </i>
   </energy>
  </scstep>
  <scstep>
   <time name="dav">   61.04   99.58</time>
   <time name="total">  108.18  167.90</time>
   <energy>
    <i name="e_fr_energy">    -14.23405311 </i>
    <i name="e_wo_entrp">    -14.25451918 </i>
    <i name="e_0_energy">    -14.24087514 </i>
   </energy>
  </scstep>
  <scstep>
   <time name="dav">   64.16   99.42</time>
   <time name="total">  107.05  165.39</time>
   <energy>
    <i name="e_fr_energy">    -14.30260133 </i>
    <i name="e_wo_entrp">    -14.32410566 </i>
    <i name="e_0_energy">    -14.30976944 </i>
   </energy>
  </scstep>
  <scstep>
   <time name="dav">   84.60   95.45</time>
   <time name="total">  129.17  160.81</time>
   <energy>
    <i name="e_fr_energy">    -14.33492030 </i>
    <i name="e_wo_entrp">    -14.35726297 </i>
    <i name="e_0_energy">    -14.34236786 </i>
   </energy>
  </scstep>
  <scstep>
   <time name="dav">   55.74   93.51</time>
   <time name="total">   99.73  166.39</time>
   <energy>
    <i name="e_fr_energy">    -14.35404031 </i>
    <i name="e_wo_entrp">    -14.37691617 </i>
    <i name="e_0_energy">    -14.36166559 </i>
   </energy>
  </scstep>
  <scstep>
   <time name="dav">   97.36  114.55</time>
   <time name="total">  161.18  195.87</time>
   <energy>
    <i name="e_fr_energy">    -14.37160217 </i>
    <i name="e_wo_entrp">    -14.39500280 </i>
    <i name="e_0_energy">    -14.37940238 </i>
   </energy>
  </scstep>
  <scstep>
   <time name="dav">   88.46   88.51</time>
   <time name="total">  154.38  156.76</time>
   <energy>
    <i name="e_fr_energy">    -14.37744295 </i>
    <i name="e_wo_entrp">    -14.40099029 </i>
    <i name="e_0_energy">    -14.38529206 </i>
   </energy>
  </scstep>
  <scstep>
   <time name="dav">   86.55   86.60</time>
   <time name="total">  150.03  150.11</time>
   <energy>
    <i name="e_fr_energy">    -14.38064905 </i>
    <i name="e_wo_entrp">    -14.40428638 </i>
    <i name="e_0_energy">    -14.38852816 </i>
   </energy>
  </scstep>
  <scstep>
   <time name="dav">   77.76   77.80</time>
   <time name="total">  142.64  143.29</time>
   <energy>
    <i name="e_fr_energy">    -14.38213498 </i>
    <i name="e_wo_entrp">    -14.40584089 </i>
    <i name="e_0_energy">    -14.39003695 </i>
   </energy>
  </scstep>
  <scstep>
   <time name="dav">   84.46   89.03</time>
   <time name="total">  145.84  153.07</time>
   <energy>
    <i name="e_fr_energy">    -14.38307324 </i>
    <i name="e_wo_entrp">    -14.40681184 </i>
    <i name="e_0_energy">    -14.39098611 </i>
   </energy>
  </scstep>
  <scstep>
   <time name="dav">   60.27   77.23</time>
   <time name="total">  111.59  142.02</time>
   <energy>
    <i name="e_fr_energy">    -14.38399825 </i>
    <i name="e_wo_entrp">    -14.40776904 </i>
    <i name="e_0_energy">    -14.39192184 </i>
   </energy>
  </scstep>
  <scstep>
   <time name="dav">   85.47   85.52</time>
   <time name="total">  145.43  145.74</time>
   <energy>
    <i name="e_fr_energy">    -14.38445090 </i>
    <i name="e_wo_entrp">    -14.40826409 </i>
    <i name="e_0_energy">    -14.39238863 </i>
   </energy>
  </scstep>
  <scstep>
   <time name="dav">   53.95   79.66</time>
   <time name="total">  103.38  139.79</time>
   <energy>
    <i name="e_fr_energy">    -14.38469495 </i>
    <i name="e_wo_entrp">    -14.40852735 </i>
    <i name="e_0_energy">    -14.39263908 </i>
   </energy>
  </scstep>
  <scstep>
   <time name="dav">   50.34   82.27</time>
   <time name="total">   86.11  133.12</time>
   <energy>
    <i name="alphaZ">      1.60866549 </i>
    <i name="ewald">   2364.43455168 </i>
    <i name="hartreedc">  -6287.53461142 </i>
    <i name="XCdc">   -151.94414372 </i>
    <i name="pawpsdc">   4527.21936941 </i>
    <i name="pawaedc">  -4218.59754162 </i>
    <i name="eentropy">      0.02384108 </i>
    <i name="bandstr">   -298.31436629 </i>
    <i name="atom">   4048.71946290 </i>
    <i name="e_fr_energy">    -14.38477250 </i>
    <i name="e_wo_entrp">    -14.40861358 </i>
    <i name="e_0_energy">    -14.39271952 </i>
   </energy>
  </scstep>
  <structure>
   <crystal>
    <varray name="basis" >
     <v>      20.99223785       0.00000000       0.00000000 </v>
     <v>       0.00000000      20.42321635       0.00000000 </v>
     <v>       0.00000000       0.00000000      23.62511473 </v>
    </varray>
    <i name="volume">  10128.77217189 </i>
    <varray name="rec_basis" >
     <v>       0.04763666       0.00000000       0.00000000 </v>
     <v>       0.00000000       0.04896388       0.00000000 </v>
     <v>       0.00000000       0.00000000       0.04232784 </v>
    </varray>
   </crystal>
   <varray name="positions" >
    <v>       0.45046322       0.51582850       0.44567165 </v>
    <v>       0.55185539       0.45187590       0.46380665 </v>
    <v>       0.51726536       0.47642485       0.36695103 </v>
    <v>       0.48506790       0.49076481       0.54739375 </v>
    <v>       0.45632524       0.56463183       0.61955460 </v>
   </varray>
  </structure>
  <varray name="forces" >
   <v>      -0.29993691       0.24973834       0.57349620 </v>
   <v>       0.14070806      -0.00289190       0.64214409 </v>
   <v>       0.14713645      -0.09664241      -1.04548108 </v>
   <v>       0.24505057      -0.82535063      -0.76097469 </v>
   <v>      -0.23295817       0.67514660       0.59081548 </v>
  </varray>
  <energy>
   <i name="e_fr_energy">    -14.38477250 </i>
   <i name="e_wo_entrp">    -14.40861358 </i>
   <i name="e_0_energy">    -14.39271952 </i>
  </energy>
  <time name="totalsc"> 4052.64 5504.45</time>
 </calculation>
 <calculation>
  <scstep>
   <time name="dav">   69.55   99.85</time>
   <time name="total">  113.26  160.46</time>
   <energy>
    <i name="alphaZ">      1.60866549 </i>
    <i name="ewald">   2318.45616786 </i>
    <i name="hartreedc">  -6242.64876656 </i>
    <i name="XCdc">   -152.18559929 </i>
    <i name="pawpsdc">   4527.22889031 </i>
    <i name="pawaedc">  -4218.60692215 </i>
    <i name="eentropy">      0.02619571 </i>
    <i name="bandstr">   -297.03511427 </i>
    <i name="atom">   4048.71946290 </i>
    <i name="e_fr_energy">    -14.43702001 </i>
    <i name="e_wo_entrp">    -14.46321572 </i>
    <i name="e_0_energy">    -14.44575191 </i>
   </energy>
  </scstep>
  <scstep>
   <time name="dav">   59.09   90.85</time>
   <time name="total">  107.94  152.73</time>
   <energy>
    <i name="e_fr_energy">    -14.52089116 </i>
    <i name="e_wo_entrp">    -14.52001099 </i>
    <i name="e_0_energy">    -14.52059777 </i>
   </energy>
  </scstep>
  <scstep>
   <time name="dav">   58.78  101.08</time>
   <time name="total">   99.88  163.93</time>
   <energy>
    <i name="e_fr_energy">    -14.47521952 </i>
    <i name="e_wo_entrp">    -14.51203925 </i>
    <i name="e_0_energy">    -14.48749277 </i>
   </energy>
  </scstep>
  <scstep>
   <time name="dav">   75.62   98.49</time>
   <time name="total">  116.67  158.02</time>
   <energy>
    <i name="e_fr_energy">    -14.46746152 </i>
    <i name="e_wo_entrp">    -14.48445016 </i>
    <i name="e_0_energy">    -14.47312440 </i>
   </energy>
  </scstep>
  <scstep>
   <time name="dav">   62.00   99.12</time>
   <time name="total">  103.71  162.51</time>
   <energy>
    <i name="e_fr_energy">    -14.45787737 </i>
    <i name="e_wo_entrp">    -14.48223935 </i>
    <i name="e_0_energy">    -14.46599803 </i>
   </energy>
  </scstep>
  <scstep>
   <time name="dav">   64.10  105.08</time>
   <time name="total">  114.07  168.03</time>
   <energy>
    <i name="e_fr_energy">    -14.45683822 </i>
    <i name="e_wo_entrp">    -14.47811764 </i>
    <i name="e_0_energy">    -14.46393136 </i>
   </energy>
  </scstep>
  <scstep>
   <time name="dav">   67.41  103.48</time>
   <time name="total">  111.11  162.49</time>
   <energy>
    <i name="e_fr_energy">    -14.45508736 </i>
    <i name="e_wo_entrp">    -14.47957046 </i>
    <i name="e_0_energy">    -14.46324839 </i>
   </energy>
  </scstep>
  <scstep>
   <time name="dav">   57.20   99.30</time>
   <time name="total">  113.90  168.59</time>
   <energy>
    <i name="e_fr_energy">    -14.45739203 </i>
    <i name="e_wo_entrp">    -14.48106275 </i>
    <i name="e_0_energy">    -14.46528227 </i>
   </energy>
  </scstep>
  <scstep>
   <time name="dav">   71.40  105.47</time>
   <time name="total">  117.65  172.04</time>
   <energy>
    <i name="e_fr_energy">    -14.46177904 </i>
    <i name="e_wo_entrp">    -14.48607082 </i>
    <i name="e_0_energy">    -14.46987630 </i>
   </energy>
  </scstep>
  <scstep>
   <time name="dav">   62.50   92.30</time>
   <time name="total">  109.35  155.81</time>
   <energy>
    <i name="e_fr_energy">    -14.46541501 </i>
    <i name="e_wo_entrp">    -14.48962524 </i>
    <i name="e_0_energy">    -14.47348509 </i>
   </energy>
  </scstep>
  <scstep>
   <time name="dav">   48.91   77.24</time>
   <time name="total">   92.11  136.79</time>
   <energy>
    <i name="e_fr_energy">    -14.46888112 </i>
    <i name="e_wo_entrp">    -14.49296755 </i>
    <i name="e_0_energy">    -14.47690993 </i>
   </energy>
  </scstep>
  <scstep>
   <time name="dav">   45.30   89.56</time>
   <time name="total">   86.68  155.68</time>
   <energy>
    <i name="e_fr_energy">    -14.47324282 </i>
    <i name="e_wo_entrp">    -14.49751361 </i>
    <i name="e_0_energy">    -14.48133308 </i>
   </energy>
  </scstep>
  <scstep>
   <time name="dav">   53.45   78.66</time>
   <time name="total">   94.00  141.97</time>
   <energy>
    <i name="e_fr_energy">    -14.47656978 </i>
    <i name="e_wo_entrp">    -14.50090501 </i>
    <i name="e_0_energy">    -14.48468152 </i>
   </energy>
  </scstep>
  <scstep>
   <time name="dav">   52.71   75.45</time>
   <time name="total">   89.39  133.93</time>
   <energy>
    <i name="e_fr_energy">    -14.47906501 </i>
    <i name="e_wo_entrp">    -14.50347374 </i>
    <i name="e_0_energy">    -14.48720125 </i>
   </energy>
  </scstep>
  <scstep>
   <time name="dav">   52.77   80.50</time>
   <time name="total">   95.18  147.78</time>
   <energy>
    <i name="e_fr_energy">    -14.48174558 </i>
    <i name="e_wo_entrp">    -14.50626362 </i>
    <i name="e_0_energy">    -14.48991826 </i>
   </energy>
  </scstep>
  <scstep>
   <time name="dav">   40.18   76.12</time>
   <time name="total">   87.31  148.00</time>
   <energy>
    <i name="e_fr_energy">    -14.48412155 </i>
    <i name="e_wo_entrp">    -14.50882460 </i>
    <i name="e_0_energy">    -14.49235590 </i>
   </energy>
  </scstep>
  <scstep>
   <time name="dav">   61.07   88.85</time>
   <time name="total">  102.12  152.32</time>
   <energy>
    <i name="e_fr_energy">    -14.48545188 </i>
    <i name="e_wo_entrp">    -14.51024549 </i>
    <i name="e_0_energy">    -14.49371642 </i>
   </energy>
  </scstep>
  <scstep>
   <time name="dav">   48.60   77.44</time>
   <time name="total">   96.91  145.09</time>
   <energy>
    <i name="e_fr_energy">    -14.48626494 </i>
    <i name="e_wo_entrp">    -14.51113354 </i>
    <i name="e_0_energy">    -14.49455448 </i>
   </energy>
  </scstep>
  <scstep>
   <time name="dav">   49.52   75.81</time>
   <time name="total">   86.99  138.39</time>
   <energy>
    <i name="e_fr_energy">    -14.48678012 </i>
    <i name="e_wo_entrp">    -14.51169885 </i>
    <i name="e_0_energy">    -14.49508637 </i>
   </energy>
  </scstep>
  <scstep>
   <time name="dav">   70.34   80.14</time>
   <time name="total">  117.11  146.39</time>
   <energy>
    <i name="e_fr_energy">    -14.48704747 </i>
    <i name="e_wo_entrp">    -14.51199837 </i>
    <i name="e_0_energy">    -14.49536444 </i>
   </energy>
  </scstep>
  <scstep>
   <time name="dav">   51.75   88.21</time>
   <time name="total">   95.65  160.88</time>
   <energy>
    <i name="e_fr_energy">    -14.48718141 </i>
    <i name="e_wo_entrp">    -14.51215394 </i>
    <i name="e_0_energy">    -14.49550559 </i>
   </energy>
  </scstep>
  <scstep>
   <time name="dav">   49.63   84.36</time>
   <time name="total">   84.94  133.82</time>
   <energy>
    <i name="alphaZ">      1.60866549 </i>
    <i name="ewald">   2318.45616786 </i>
    <i name="hartreedc">  -6248.76987632 </i>
    <i name="XCdc">   -152.05046573 </i>
    <i name="pawpsdc">   4479.06485899 </i>
    <i name="pawaedc">  -4169.40486749 </i>
    <i name="eentropy">      0.02498235 </i>
    <i name="bandstr">   -292.13619636 </i>
    <i name="atom">   4048.71946290 </i>
    <i name="e_fr_energy">    -14.48726832 </i>
    <i name="e_wo_entrp">    -14.51225067 </i>
    <i name="e_0_energy">    -14.49559577 </i>
   </energy>
  </scstep>
  <structure>
   <crystal>
    <varray name="basis" >
     <v>      20.99223785       0.00000000       0.00000000 </v>
     <v>       0.00000000      20.42321635       0.00000000 </v>
     <v>       0.00000000       0.00000000      23.62511473 </v>
    </varray>
    <i name="volume">  10128.77217189 </i>
    <varray name="rec_basis" >
     <v>       0.04763666       0.00000000       0.00000000 </v>
     <v>       0.00000000       0.04896388       0.00000000 </v>
     <v>       0.00000000       0.00000000       0.04232784 </v>
    </varray>
   </crystal>
   <varray name="positions" >
    <v>       0.44977393       0.51641841       0.44684273 </v>
    <v>       0.55217875       0.45186907       0.46511791 </v>
    <v>       0.51760349       0.47619656       0.36481615 </v>
    <v>       0.48563105       0.48881521       0.54583984 </v>
    <v>       0.45578987       0.56622662       0.62076105 </v>
   </varray>
  </structure>
  <varray name="forces" >
   <v>      -0.00393164       0.09304268       0.06057611 </v>
   <v>       0.09390980       0.06103583      -0.11349450 </v>
   <v>       0.03346814      -0.05136658      -0.22212428 </v>
   <v>      -0.11264603      -0.23098395       0.31371044 </v>
   <v>      -0.01080027       0.12827202      -0.03866776 </v>
  </varray>
  <energy>
   <i name="e_fr_energy">    -14.48726832 </i>
   <i name="e_wo_entrp">    -14.51225067 </i>
   <i name="e_0_energy">    -14.49559577 </i>
  </energy>
  <time name="totalsc"> 2336.40 3502.78</time>
 </calculation>
 <calculation>
  <scstep>
   <time name="dav">   57.04   94.93</time>
   <time name="total">  106.41  153.54</time>
   <energy>
    <i name="alphaZ">      1.60866549 </i>
    <i name="ewald">   2315.43565086 </i>
    <i name="hartreedc">  -6245.80230408 </i>
    <i name="XCdc">   -152.06537592 </i>
    <i name="pawpsdc">   4479.06378888 </i>
    <i name="pawaedc">  -4169.40360921 </i>
    <i name="eentropy">      0.02548888 </i>
    <i name="bandstr">   -292.06924166 </i>
    <i name="atom">   4048.71946290 </i>
    <i name="e_fr_energy">    -14.48747386 </i>
    <i name="e_wo_entrp">    -14.51296274 </i>
    <i name="e_0_energy">    -14.49597015 </i>
   </energy>
  </scstep>
  <scstep>
   <time name="dav">   63.07   99.39</time>
   <time name="total">  118.30  172.07</time>
   <energy>
    <i name="e_fr_energy">    -14.48786075 </i>
    <i name="e_wo_entrp">    -14.51122249 </i>
    <i name="e_0_energy">    -14.49564800 </i>
   </energy>
  </scstep>
  <scstep>
   <time name="dav">   61.70  106.05</time>
   <time name="total">  107.90  171.28</time>
   <energy>
    <i name="e_fr_energy">    -14.48750047 </i>
    <i name="e_wo_entrp">    -14.51329502 </i>
    <i name="e_0_energy">    -14.49609865 </i>
   </energy>
  </scstep>
  <scstep>
   <time name="dav">   52.21   87.62</time>
   <time name="total">   83.29  133.71</time>
   <energy>
    <i name="alphaZ">      1.60866549 </i>
    <i name="ewald">   2315.43565086 </i>
    <i name="hartreedc">  -6246.10217268 </i>
    <i name="XCdc">   -152.05790665 </i>
    <i name="pawpsdc">   4477.98827932 </i>
    <i name="pawaedc">  -4168.28291040 </i>
    <i name="eentropy">      0.02470328 </i>
    <i name="bandstr">   -291.82125654 </i>
    <i name="atom">   4048.71946290 </i>
    <i name="e_fr_energy">    -14.48748442 </i>
    <i name="e_wo_entrp">    -14.51218770 </i>
    <i name="e_0_energy">    -14.49571884 </i>
   </energy>
  </scstep>
  <structure>
   <crystal>
    <varray name="basis" >
     <v>      20.99223785       0.00000000       0.00000000 </v>
     <v>       0.00000000      20.42321635       0.00000000 </v>
     <v>       0.00000000       0.00000000      23.62511473 </v>
    </varray>
    <i name="volume">  10128.77217189 </i>
    <varray name="rec_basis" >
     <v>       0.04763666       0.00000000       0.00000000 </v>
     <v>       0.00000000       0.04896388       0.00000000 </v>
     <v>       0.00000000       0.00000000       0.04232784 </v>
    </varray>
   </crystal>
   <varray name="positions" >
    <v>       0.44972611       0.51645934       0.44692398 </v>
    <v>       0.55220119       0.45186859       0.46520889 </v>
    <v>       0.51762695       0.47618073       0.36466804 </v>
    <v>       0.48567012       0.48867994       0.54573203 </v>
    <v>       0.45575273       0.56633727       0.62084475 </v>
   </varray>
  </structure>
  <varray name="forces" >
   <v>       0.02007872       0.07970288       0.02625031 </v>
   <v>       0.09375685       0.06350400      -0.16837697 </v>
   <v>       0.02486718      -0.04751629      -0.16856013 </v>
   <v>      -0.13861893      -0.19568908       0.38023571 </v>
   <v>      -0.00008382       0.09999849      -0.06954891 </v>
  </varray>
  <energy>
   <i name="e_fr_energy">    -14.48748442 </i>
   <i name="e_wo_entrp">    -14.51218770 </i>
   <i name="e_0_energy">    -14.49571884 </i>
  </energy>
  <time name="totalsc">  526.97  774.97</time>
 </calculation>
 <calculation>
  <scstep>
   <time name="dav">   72.23   92.33</time>
   <time name="total">  118.48  157.08</time>
   <energy>
    <i name="alphaZ">      1.60866549 </i>
    <i name="ewald">   2300.16887508 </i>
    <i name="hartreedc">  -6231.07745531 </i>
    <i name="XCdc">   -152.12490275 </i>
    <i name="pawpsdc">   4477.52150117 </i>
    <i name="pawaedc">  -4167.81448076 </i>
    <i name="eentropy">      0.03047174 </i>
    <i name="bandstr">   -291.52547559 </i>
    <i name="atom">   4048.71946290 </i>
    <i name="e_fr_energy">    -14.49333804 </i>
    <i name="e_wo_entrp">    -14.52380977 </i>
    <i name="e_0_energy">    -14.50349528 </i>
   </energy>
  </scstep>
  <scstep>
   <time name="dav">   65.58  102.94</time>
   <time name="total">  111.62  175.10</time>
   <energy>
    <i name="e_fr_energy">    -14.49921128 </i>
    <i name="e_wo_entrp">    -14.52639415 </i>
    <i name="e_0_energy">    -14.50827224 </i>
   </energy>
  </scstep>
  <scstep>
   <time name="dav">   61.21  101.63</time>
   <time name="total">  111.98  173.99</time>
   <energy>
    <i name="e_fr_energy">    -14.49944717 </i>
    <i name="e_wo_entrp">    -14.53286817 </i>
    <i name="e_0_energy">    -14.51058750 </i>
   </energy>
  </scstep>
  <scstep>
   <time name="dav">   59.24  104.86</time>
   <time name="total">  101.45  172.92</time>
   <energy>
    <i name="e_fr_energy">    -14.49806056 </i>
    <i name="e_wo_entrp">    -14.52806801 </i>
    <i name="e_0_energy">    -14.50806305 </i>
   </energy>
  </scstep>
  <scstep>
   <time name="dav">   57.35   94.92</time>
   <time name="total">  102.76  158.85</time>
   <energy>
    <i name="e_fr_energy">    -14.49790936 </i>
    <i name="e_wo_entrp">    -14.52788476 </i>
    <i name="e_0_energy">    -14.50790116 </i>
   </energy>
  </scstep>
  <scstep>
   <time name="dav">   65.60   97.00</time>
   <time name="total">  114.45  169.72</time>
   <energy>
    <i name="e_fr_energy">    -14.49742893 </i>
    <i name="e_wo_entrp">    -14.52780735 </i>
    <i name="e_0_energy">    -14.50755507 </i>
   </energy>
  </scstep>
  <scstep>
   <time name="dav">   63.59   92.48</time>
   <time name="total">  107.43  160.74</time>
   <energy>
    <i name="e_fr_energy">    -14.49717949 </i>
    <i name="e_wo_entrp">    -14.52780976 </i>
    <i name="e_0_energy">    -14.50738958 </i>
   </energy>
  </scstep>
  <scstep>
   <time name="dav">   58.79   79.68</time>
   <time name="total">   99.97  132.36</time>
   <energy>
    <i name="alphaZ">      1.60866549 </i>
    <i name="ewald">   2300.16887508 </i>
    <i name="hartreedc">  -6232.07837309 </i>
    <i name="XCdc">   -152.09911832 </i>
    <i name="pawpsdc">   4465.57254775 </i>
    <i name="pawaedc">  -4155.63408837 </i>
    <i name="eentropy">      0.03085269 </i>
    <i name="bandstr">   -290.78608935 </i>
    <i name="atom">   4048.71946290 </i>
    <i name="e_fr_energy">    -14.49726523 </i>
    <i name="e_wo_entrp">    -14.52811792 </i>
    <i name="e_0_energy">    -14.50754946 </i>
   </energy>
  </scstep>
  <structure>
   <crystal>
    <varray name="basis" >
     <v>      20.99223785       0.00000000       0.00000000 </v>
     <v>       0.00000000      20.42321635       0.00000000 </v>
     <v>       0.00000000       0.00000000      23.62511473 </v>
    </varray>
    <i name="volume">  10128.77217189 </i>
    <varray name="rec_basis" >
     <v>       0.04763666       0.00000000       0.00000000 </v>
     <v>       0.00000000       0.04896388       0.00000000 </v>
     <v>       0.00000000       0.00000000       0.04232784 </v>
    </varray>
   </crystal>
   <varray name="positions" >
    <v>       0.44972087       0.51669475       0.44706671 </v>
    <v>       0.55244405       0.45202017       0.46495925 </v>
    <v>       0.51771041       0.47604970       0.36415794 </v>
    <v>       0.48538964       0.48806414       0.54640197 </v>
    <v>       0.45571213       0.56669712       0.62079181 </v>
   </varray>
  </structure>
  <varray name="forces" >
   <v>       0.09131040       0.04081498       0.05319517 </v>
   <v>       0.01237073       0.11980940      -0.11348239 </v>
   <v>      -0.01066855      -0.03431254      -0.04970312 </v>
   <v>      -0.09422413      -0.23255413       0.17933973 </v>
   <v>       0.00121156       0.10624228      -0.06934938 </v>
  </varray>
  <energy>
   <i name="e_fr_energy">    -14.49726523 </i>
   <i name="e_wo_entrp">    -14.52811792 </i>
   <i name="e_0_energy">    -14.50754946 </i>
  </energy>
  <time name="totalsc">  960.95 1434.62</time>
 </calculation>
 <calculation>
  <scstep>
   <time name="dav">   63.83   96.84</time>
   <time name="total">  106.41  160.49</time>
   <energy>
    <i name="alphaZ">      1.60866549 </i>
    <i name="ewald">   2272.45999265 </i>
    <i name="hartreedc">  -6204.87853958 </i>
    <i name="XCdc">   -152.21815070 </i>
    <i name="pawpsdc">   4465.44779620 </i>
    <i name="pawaedc">  -4155.50766932 </i>
    <i name="eentropy">      0.03816278 </i>
    <i name="bandstr">   -290.15571120 </i>
    <i name="atom">   4048.71946290 </i>
    <i name="e_fr_energy">    -14.48599078 </i>
    <i name="e_wo_entrp">    -14.52415356 </i>
    <i name="e_0_energy">    -14.49871170 </i>
   </energy>
  </scstep>
  <scstep>
   <time name="dav">   64.08   98.29</time>
   <time name="total">  107.05  165.15</time>
   <energy>
    <i name="e_fr_energy">    -14.50550645 </i>
    <i name="e_wo_entrp">    -14.53844144 </i>
    <i name="e_0_energy">    -14.51648478 </i>
   </energy>
  </scstep>
  <scstep>
   <time name="dav">   70.19  107.87</time>
   <time name="total">  114.00  175.97</time>
   <energy>
    <i name="e_fr_energy">    -14.50844184 </i>
    <i name="e_wo_entrp">    -14.55197333 </i>
    <i name="e_0_energy">    -14.52295234 </i>
   </energy>
  </scstep>
  <scstep>
   <time name="dav">   66.51  105.44</time>
   <time name="total">  115.39  167.61</time>
   <energy>
    <i name="e_fr_energy">    -14.50378316 </i>
    <i name="e_wo_entrp">    -14.54023004 </i>
    <i name="e_0_energy">    -14.51593212 </i>
   </energy>
  </scstep>
  <scstep>
   <time name="dav">  108.41  108.46</time>
   <time name="total">  176.79  189.64</time>
   <energy>
    <i name="e_fr_energy">    -14.50374999 </i>
    <i name="e_wo_entrp">    -14.54092637 </i>
    <i name="e_0_energy">    -14.51614212 </i>
   </energy>
  </scstep>
  <scstep>
   <time name="dav">   63.78  101.78</time>
   <time name="total">  105.82  167.88</time>
   <energy>
    <i name="e_fr_energy">    -14.50353774 </i>
    <i name="e_wo_entrp">    -14.54162873 </i>
    <i name="e_0_energy">    -14.51623473 </i>
   </energy>
  </scstep>
  <scstep>
   <time name="dav">   63.32   95.13</time>
   <time name="total">  108.38  172.24</time>
   <energy>
    <i name="e_fr_energy">    -14.50368970 </i>
    <i name="e_wo_entrp">    -14.54138667 </i>
    <i name="e_0_energy">    -14.51625536 </i>
   </energy>
  </scstep>
  <scstep>
   <time name="dav">   57.24   83.80</time>
   <time name="total">  100.28  147.42</time>
   <energy>
    <i name="e_fr_energy">    -14.50391941 </i>
    <i name="e_wo_entrp">    -14.54205673 </i>
    <i name="e_0_energy">    -14.51663185 </i>
   </energy>
  </scstep>
  <scstep>
   <time name="dav">   53.19   78.65</time>
   <time name="total">   99.72  143.98</time>
   <energy>
    <i name="e_fr_energy">    -14.50429822 </i>
    <i name="e_wo_entrp">    -14.54238264 </i>
    <i name="e_0_energy">    -14.51699303 </i>
   </energy>
  </scstep>
  <scstep>
   <time name="dav">   59.76   79.91</time>
   <time name="total">  121.43  151.41</time>
   <energy>
    <i name="e_fr_energy">    -14.50459752 </i>
    <i name="e_wo_entrp">    -14.54252411 </i>
    <i name="e_0_energy">    -14.51723972 </i>
   </energy>
  </scstep>
  <scstep>
   <time name="dav">   41.98   79.31</time>
   <time name="total">   88.76  142.54</time>
   <energy>
    <i name="e_fr_energy">    -14.50495036 </i>
    <i name="e_wo_entrp">    -14.54290388 </i>
    <i name="e_0_energy">    -14.51760154 </i>
   </energy>
  </scstep>
  <scstep>
   <time name="dav">   54.23   81.93</time>
   <time name="total">  106.71  156.43</time>
   <energy>
    <i name="e_fr_energy">    -14.50533942 </i>
    <i name="e_wo_entrp">    -14.54341135 </i>
    <i name="e_0_energy">    -14.51803006 </i>
   </energy>
  </scstep>
  <scstep>
   <time name="dav">   52.02   76.04</time>
   <time name="total">   94.29  140.10</time>
   <energy>
    <i name="e_fr_energy">    -14.50570000 </i>
    <i name="e_wo_entrp">    -14.54381388 </i>
    <i name="e_0_energy">    -14.51840463 </i>
   </energy>
  </scstep>
  <scstep>
   <time name="dav">   47.00   75.18</time>
   <time name="total">   84.51  139.66</time>
   <energy>
    <i name="e_fr_energy">    -14.50615521 </i>
    <i name="e_wo_entrp">    -14.54430352 </i>
    <i name="e_0_energy">    -14.51887131 </i>
   </energy>
  </scstep>
  <scstep>
   <time name="dav">   39.48   75.31</time>
   <time name="total">   79.58  139.90</time>
   <energy>
    <i name="e_fr_energy">    -14.50680187 </i>
    <i name="e_wo_entrp">    -14.54502828 </i>
    <i name="e_0_energy">    -14.51954401 </i>
   </energy>
  </scstep>
  <scstep>
   <time name="dav">   47.49   81.54</time>
   <time name="total">   95.77  158.02</time>
   <energy>
    <i name="e_fr_energy">    -14.50737692 </i>
    <i name="e_wo_entrp">    -14.54567556 </i>
    <i name="e_0_energy">    -14.52014313 </i>
   </energy>
  </scstep>
  <scstep>
   <time name="dav">   47.87   84.65</time>
   <time name="total">   91.30  152.83</time>
   <energy>
    <i name="e_fr_energy">    -14.50767876 </i>
    <i name="e_wo_entrp">    -14.54601714 </i>
    <i name="e_0_energy">    -14.52045822 </i>
   </energy>
  </scstep>
  <scstep>
   <time name="dav">   41.85   82.25</time>
   <time name="total">   81.08  143.64</time>
   <energy>
    <i name="e_fr_energy">    -14.50785716 </i>
    <i name="e_wo_entrp">    -14.54622375 </i>
    <i name="e_0_energy">    -14.52064602 </i>
   </energy>
  </scstep>
  <scstep>
   <time name="dav">   55.42   85.55</time>
   <time name="total">   97.35  138.91</time>
   <energy>
    <i name="alphaZ">      1.60866549 </i>
    <i name="ewald">   2272.45999265 </i>
    <i name="hartreedc">  -6206.68442694 </i>
    <i name="XCdc">   -152.17499186 </i>
    <i name="pawpsdc">   4445.77265126 </i>
    <i name="pawaedc">  -4135.43820595 </i>
    <i name="eentropy">      0.03838208 </i>
    <i name="bandstr">   -288.80946577 </i>
    <i name="atom">   4048.71946290 </i>
    <i name="e_fr_energy">    -14.50793615 </i>
    <i name="e_wo_entrp">    -14.54631823 </i>
    <i name="e_0_energy">    -14.52073018 </i>
   </energy>
  </scstep>
  <structure>
   <crystal>
    <varray name="basis" >
     <v>      20.99223785       0.00000000       0.00000000 </v>
     <v>       0.00000000      20.42321635       0.00000000 </v>
     <v>       0.00000000       0.00000000      23.62511473 </v>
    </varray>
    <i name="volume">  10128.77217189 </i>
    <varray name="rec_basis" >
     <v>       0.04763666       0.00000000       0.00000000 </v>
     <v>       0.00000000       0.04896388       0.00000000 </v>
     <v>       0.00000000       0.00000000       0.04232784 </v>
    </varray>
   </crystal>
   <varray name="positions" >
    <v>       0.44971135       0.51712257       0.44732611 </v>
    <v>       0.55288542       0.45229563       0.46450556 </v>
    <v>       0.51786210       0.47581157       0.36323088 </v>
    <v>       0.48487989       0.48694499       0.54761953 </v>
    <v>       0.45563834       0.56735111       0.62069560 </v>
   </varray>
  </structure>
  <varray name="forces" >
   <v>       0.21585981      -0.03764004       0.09209717 </v>
   <v>      -0.11979028       0.19902510      -0.03798244 </v>
   <v>      -0.07046094      -0.00711402       0.16811093 </v>
   <v>      -0.02534980      -0.27188325      -0.15807286 </v>
   <v>      -0.00025880       0.11761222      -0.06415280 </v>
  </varray>
  <energy>
   <i name="e_fr_energy">    -14.50793615 </i>
   <i name="e_wo_entrp">    -14.54631823 </i>
   <i name="e_0_energy">    -14.52073018 </i>
  </energy>
  <time name="totalsc"> 2118.92 3098.27</time>
 </calculation>
 <calculation>
  <scstep>
   <time name="dav">   65.67  109.03</time>
   <time name="total">  134.88  188.92</time>
   <energy>
    <i name="alphaZ">      1.60866549 </i>
    <i name="ewald">   2272.38408321 </i>
    <i name="hartreedc">  -6206.64150322 </i>
    <i name="XCdc">   -152.17789808 </i>
    <i name="pawpsdc">   4445.77584725 </i>
    <i name="pawaedc">  -4135.44127893 </i>
    <i name="eentropy">      0.03679433 </i>
    <i name="bandstr">   -288.77487416 </i>
    <i name="atom">   4048.71946290 </i>
    <i name="e_fr_energy">    -14.51070123 </i>
    <i name="e_wo_entrp">    -14.54749556 </i>
    <i name="e_0_energy">    -14.52296601 </i>
   </energy>
  </scstep>
  <scstep>
   <time name="dav">   65.44   96.71</time>
   <time name="total">  112.99  163.92</time>
   <energy>
    <i name="e_fr_energy">    -14.52368689 </i>
    <i name="e_wo_entrp">    -14.57170531 </i>
    <i name="e_0_energy">    -14.53969303 </i>
   </energy>
  </scstep>
  <scstep>
   <time name="dav">   66.51  103.01</time>
   <time name="total">  133.49  181.35</time>
   <energy>
    <i name="e_fr_energy">    -14.51503619 </i>
    <i name="e_wo_entrp">    -14.55496433 </i>
    <i name="e_0_energy">    -14.52834557 </i>
   </energy>
  </scstep>
  <scstep>
   <time name="dav">   94.86   94.91</time>
   <time name="total">  146.81  157.86</time>
   <energy>
    <i name="e_fr_energy">    -14.51490695 </i>
    <i name="e_wo_entrp">    -14.55644766 </i>
    <i name="e_0_energy">    -14.52875386 </i>
   </energy>
  </scstep>
  <scstep>
   <time name="dav">   75.16  105.55</time>
   <time name="total">  133.18  168.75</time>
   <energy>
    <i name="e_fr_energy">    -14.51357132 </i>
    <i name="e_wo_entrp">    -14.55556738 </i>
    <i name="e_0_energy">    -14.52757001 </i>
   </energy>
  </scstep>
  <scstep>
   <time name="dav">   58.19   99.52</time>
   <time name="total">  109.39  166.35</time>
   <energy>
    <i name="e_fr_energy">    -14.51125103 </i>
    <i name="e_wo_entrp">    -14.55452032 </i>
    <i name="e_0_energy">    -14.52567413 </i>
   </energy>
  </scstep>
  <scstep>
   <time name="dav">   97.44  101.08</time>
   <time name="total">  154.45  165.18</time>
   <energy>
    <i name="e_fr_energy">    -14.50987816 </i>
    <i name="e_wo_entrp">    -14.55264898 </i>
    <i name="e_0_energy">    -14.52413510 </i>
   </energy>
  </scstep>
  <scstep>
   <time name="dav">   46.26   82.83</time>
   <time name="total">   83.71  136.39</time>
   <energy>
    <i name="alphaZ">      1.60866549 </i>
    <i name="ewald">   2272.38408321 </i>
    <i name="hartreedc">  -6207.20389281 </i>
    <i name="XCdc">   -152.16581554 </i>
    <i name="pawpsdc">   4445.91884002 </i>
    <i name="pawaedc">  -4135.52486552 </i>
    <i name="eentropy">      0.04283055 </i>
    <i name="bandstr">   -288.28911213 </i>
    <i name="atom">   4048.71946290 </i>
    <i name="e_fr_energy">    -14.50980383 </i>
    <i name="e_wo_entrp">    -14.55263438 </i>
    <i name="e_0_energy">    -14.52408068 </i>
   </energy>
  </scstep>
  <structure>
   <crystal>
    <varray name="basis" >
     <v>      20.99223785       0.00000000       0.00000000 </v>
     <v>       0.00000000      20.42321635       0.00000000 </v>
     <v>       0.00000000       0.00000000      23.62511473 </v>
    </varray>
    <i name="volume">  10128.77217189 </i>
    <varray name="rec_basis" >
     <v>       0.04763666       0.00000000       0.00000000 </v>
     <v>       0.00000000       0.04896388       0.00000000 </v>
     <v>       0.00000000       0.00000000       0.04232784 </v>
    </varray>
   </crystal>
   <varray name="positions" >
    <v>       0.45011876       0.51722268       0.44758741 </v>
    <v>       0.55283651       0.45279732       0.46425693 </v>
    <v>       0.51778947       0.47570089       0.36313884 </v>
    <v>       0.48462449       0.48595785       0.54784659 </v>
    <v>       0.45560787       0.56784714       0.62054790 </v>
   </varray>
  </structure>
  <varray name="forces" >
   <v>       0.16693560      -0.00519456       0.08883425 </v>
   <v>      -0.05828208       0.16425982      -0.00737381 </v>
   <v>      -0.08241084      -0.00278639       0.16626778 </v>
   <v>      -0.04665931      -0.21849688      -0.12317227 </v>
   <v>       0.02041664       0.06221802      -0.12455594 </v>
  </varray>
  <energy>
   <i name="e_fr_energy">    -14.50980383 </i>
   <i name="e_wo_entrp">    -14.55263438 </i>
   <i name="e_0_energy">    -14.52408068 </i>
  </energy>
  <time name="totalsc"> 1106.74 1459.18</time>
 </calculation>
 <calculation>
  <scstep>
   <time name="dav">   71.56  101.51</time>
   <time name="total">  122.19  160.68</time>
   <energy>
    <i name="alphaZ">      1.60866549 </i>
    <i name="ewald">   2270.99214771 </i>
    <i name="hartreedc">  -6205.92250547 </i>
    <i name="XCdc">   -152.17711012 </i>
    <i name="pawpsdc">   4445.90040135 </i>
    <i name="pawaedc">  -4135.50567427 </i>
    <i name="eentropy">      0.03156274 </i>
    <i name="bandstr">   -288.11016922 </i>
    <i name="atom">   4048.71946290 </i>
    <i name="e_fr_energy">    -14.46321889 </i>
    <i name="e_wo_entrp">    -14.49478164 </i>
    <i name="e_0_energy">    -14.47373981 </i>
   </energy>
  </scstep>
  <scstep>
   <time name="dav">   65.15  100.57</time>
   <time name="total">  119.77  166.69</time>
   <energy>
    <i name="e_fr_energy">    -14.57819499 </i>
    <i name="e_wo_entrp">    -14.62695805 </i>
    <i name="e_0_energy">    -14.59444934 </i>
   </energy>
  </scstep>
  <scstep>
   <time name="dav">   72.58  117.71</time>
   <time name="total">  111.37  183.02</time>
   <energy>
    <i name="e_fr_energy">    -14.50902636 </i>
    <i name="e_wo_entrp">    -14.54968173 </i>
    <i name="e_0_energy">    -14.52257815 </i>
   </energy>
  </scstep>
  <scstep>
   <time name="dav">   54.84   99.60</time>
   <time name="total">  105.98  166.41</time>
   <energy>
    <i name="e_fr_energy">    -14.50616342 </i>
    <i name="e_wo_entrp">    -14.55035369 </i>
    <i name="e_0_energy">    -14.52089351 </i>
   </energy>
  </scstep>
  <scstep>
   <time name="dav">   60.26   95.51</time>
   <time name="total">  104.53  164.39</time>
   <energy>
    <i name="e_fr_energy">    -14.49626057 </i>
    <i name="e_wo_entrp">    -14.54315213 </i>
    <i name="e_0_energy">    -14.51189109 </i>
   </energy>
  </scstep>
  <scstep>
   <time name="dav">   64.61  107.95</time>
   <time name="total">  111.93  182.08</time>
   <energy>
    <i name="e_fr_energy">    -14.48295634 </i>
    <i name="e_wo_entrp">    -14.53025054 </i>
    <i name="e_0_energy">    -14.49872107 </i>
   </energy>
  </scstep>
  <scstep>
   <time name="dav">   57.70  103.10</time>
   <time name="total">  106.85  170.72</time>
   <energy>
    <i name="e_fr_energy">    -14.48064414 </i>
    <i name="e_wo_entrp">    -14.52981926 </i>
    <i name="e_0_energy">    -14.49703584 </i>
   </energy>
  </scstep>
  <scstep>
   <time name="dav">   60.59   98.68</time>
   <time name="total">  109.93  168.76</time>
   <energy>
    <i name="e_fr_energy">    -14.48393636 </i>
    <i name="e_wo_entrp">    -14.53188894 </i>
    <i name="e_0_energy">    -14.49992056 </i>
   </energy>
  </scstep>
  <scstep>
   <time name="dav">   71.71  112.22</time>
   <time name="total">  121.93  180.15</time>
   <energy>
    <i name="e_fr_energy">    -14.49102251 </i>
    <i name="e_wo_entrp">    -14.53867786 </i>
    <i name="e_0_energy">    -14.50690763 </i>
   </energy>
  </scstep>
  <scstep>
   <time name="dav">   49.89   82.94</time>
   <time name="total">   84.99  145.94</time>
   <energy>
    <i name="e_fr_energy">    -14.49888425 </i>
    <i name="e_wo_entrp">    -14.54740349 </i>
    <i name="e_0_energy">    -14.51505733 </i>
   </energy>
  </scstep>
  <scstep>
   <time name="dav">   51.14   90.16</time>
   <time name="total">  101.45  161.93</time>
   <energy>
    <i name="e_fr_energy">    -14.50310045 </i>
    <i name="e_wo_entrp">    -14.55162437 </i>
    <i name="e_0_energy">    -14.51927509 </i>
   </energy>
  </scstep>
  <scstep>
   <time name="dav">   50.33   86.64</time>
   <time name="total">   97.39  155.80</time>
   <energy>
    <i name="e_fr_energy">    -14.50881703 </i>
    <i name="e_wo_entrp">    -14.55725701 </i>
    <i name="e_0_energy">    -14.52496369 </i>
   </energy>
  </scstep>
  <scstep>
   <time name="dav">   51.31   83.20</time>
   <time name="total">  103.04  163.77</time>
   <energy>
    <i name="e_fr_energy">    -14.51300496 </i>
    <i name="e_wo_entrp">    -14.56166429 </i>
    <i name="e_0_energy">    -14.52922474 </i>
   </energy>
  </scstep>
  <scstep>
   <time name="dav">   53.53   84.60</time>
   <time name="total">  102.96  152.03</time>
   <energy>
    <i name="e_fr_energy">    -14.51851721 </i>
    <i name="e_wo_entrp">    -14.56740902 </i>
    <i name="e_0_energy">    -14.53481448 </i>
   </energy>
  </scstep>
  <scstep>
   <time name="dav">   60.37   87.32</time>
   <time name="total">  108.90  159.42</time>
   <energy>
    <i name="e_fr_energy">    -14.52373994 </i>
    <i name="e_wo_entrp">    -14.57290038 </i>
    <i name="e_0_energy">    -14.54012675 </i>
   </energy>
  </scstep>
  <scstep>
   <time name="dav">   50.76   94.95</time>
   <time name="total">   99.22  168.90</time>
   <energy>
    <i name="e_fr_energy">    -14.52703778 </i>
    <i name="e_wo_entrp">    -14.57642635 </i>
    <i name="e_0_energy">    -14.54350063 </i>
   </energy>
  </scstep>
  <scstep>
   <time name="dav">   42.48   79.96</time>
   <time name="total">   89.29  146.35</time>
   <energy>
    <i name="e_fr_energy">    -14.52822788 </i>
    <i name="e_wo_entrp">    -14.57771033 </i>
    <i name="e_0_energy">    -14.54472203 </i>
   </energy>
  </scstep>
  <scstep>
   <time name="dav">   49.69   83.89</time>
   <time name="total">   89.15  149.18</time>
   <energy>
    <i name="e_fr_energy">    -14.52879315 </i>
    <i name="e_wo_entrp">    -14.57829385 </i>
    <i name="e_0_energy">    -14.54529338 </i>
   </energy>
  </scstep>
  <scstep>
   <time name="dav">   49.51   86.49</time>
   <time name="total">   97.21  158.12</time>
   <energy>
    <i name="e_fr_energy">    -14.52917115 </i>
    <i name="e_wo_entrp">    -14.57868518 </i>
    <i name="e_0_energy">    -14.54567583 </i>
   </energy>
  </scstep>
  <scstep>
   <time name="dav">   52.50   76.59</time>
   <time name="total">  101.93  146.19</time>
   <energy>
    <i name="e_fr_energy">    -14.52970348 </i>
    <i name="e_wo_entrp">    -14.57921173 </i>
    <i name="e_0_energy">    -14.54620623 </i>
   </energy>
  </scstep>
  <scstep>
   <time name="dav">   46.37   92.74</time>
   <time name="total">   88.25  162.14</time>
   <energy>
    <i name="e_fr_energy">    -14.52991913 </i>
    <i name="e_wo_entrp">    -14.57943070 </i>
    <i name="e_0_energy">    -14.54642299 </i>
   </energy>
  </scstep>
  <scstep>
   <time name="dav">   56.87   82.53</time>
   <time name="total">   89.66  134.89</time>
   <energy>
    <i name="alphaZ">      1.60866549 </i>
    <i name="ewald">   2270.99214771 </i>
    <i name="hartreedc">  -6207.78432499 </i>
    <i name="XCdc">   -152.15627317 </i>
    <i name="pawpsdc">   4446.87193340 </i>
    <i name="pawaedc">  -4136.25879465 </i>
    <i name="eentropy">      0.04951305 </i>
    <i name="bandstr">   -286.57234037 </i>
    <i name="atom">   4048.71946290 </i>
    <i name="e_fr_energy">    -14.53001064 </i>
    <i name="e_wo_entrp">    -14.57952369 </i>
    <i name="e_0_energy">    -14.54651499 </i>
   </energy>
  </scstep>
  <structure>
   <crystal>
    <varray name="basis" >
     <v>      20.99223785       0.00000000       0.00000000 </v>
     <v>       0.00000000      20.42321635       0.00000000 </v>
     <v>       0.00000000       0.00000000      23.62511473 </v>
    </varray>
    <i name="volume">  10128.77217189 </i>
    <varray name="rec_basis" >
     <v>       0.04763666       0.00000000       0.00000000 </v>
     <v>       0.00000000       0.04896388       0.00000000 </v>
     <v>       0.00000000       0.00000000       0.04232784 </v>
    </varray>
   </crystal>
   <varray name="positions" >
    <v>       0.45134098       0.51752299       0.44837133 </v>
    <v>       0.55268976       0.45430236       0.46351105 </v>
    <v>       0.51757160       0.47536886       0.36286272 </v>
    <v>       0.48385829       0.48299643       0.54852777 </v>
    <v>       0.45551646       0.56933524       0.62010481 </v>
   </varray>
  </structure>
  <varray name="forces" >
   <v>      -0.06110922       0.11565978       0.07651677 </v>
   <v>       0.17682003       0.00314496       0.12644635 </v>
   <v>      -0.11240790       0.02018949       0.15272752 </v>
   <v>      -0.07804505      -0.03500946      -0.07638295 </v>
   <v>       0.07474213      -0.10398477      -0.27930769 </v>
  </varray>
  <energy>
   <i name="e_fr_energy">    -14.53001064 </i>
   <i name="e_wo_entrp">    -14.57952369 </i>
   <i name="e_0_energy">    -14.54651499 </i>
  </energy>
  <time name="totalsc"> 2365.91 3699.78</time>
 </calculation>
 <calculation>
  <scstep>
   <time name="dav">   59.17  106.49</time>
   <time name="total">   97.85  172.25</time>
   <energy>
    <i name="alphaZ">      1.60866549 </i>
    <i name="ewald">   2276.17627189 </i>
    <i name="hartreedc">  -6213.02966654 </i>
    <i name="XCdc">   -152.15256918 </i>
    <i name="pawpsdc">   4446.86614279 </i>
    <i name="pawaedc">  -4136.25299534 </i>
    <i name="eentropy">      0.04953588 </i>
    <i name="bandstr">   -286.51241651 </i>
    <i name="atom">   4048.71946290 </i>
    <i name="e_fr_energy">    -14.52756862 </i>
    <i name="e_wo_entrp">    -14.57710450 </i>
    <i name="e_0_energy">    -14.54408058 </i>
   </energy>
  </scstep>
  <scstep>
   <time name="dav">   65.14  108.81</time>
   <time name="total">  120.42  180.38</time>
   <energy>
    <i name="e_fr_energy">    -14.54418631 </i>
    <i name="e_wo_entrp">    -14.59793256 </i>
    <i name="e_0_energy">    -14.56210173 </i>
   </energy>
  </scstep>
  <scstep>
   <time name="dav">   63.34  106.84</time>
   <time name="total">  105.91  172.92</time>
   <energy>
    <i name="e_fr_energy">    -14.54461032 </i>
    <i name="e_wo_entrp">    -14.59275906 </i>
    <i name="e_0_energy">    -14.56065990 </i>
   </energy>
  </scstep>
  <scstep>
   <time name="dav">   60.06  102.86</time>
   <time name="total">  102.74  165.53</time>
   <energy>
    <i name="e_fr_energy">    -14.54297492 </i>
    <i name="e_wo_entrp">    -14.59430548 </i>
    <i name="e_0_energy">    -14.56008511 </i>
   </energy>
  </scstep>
  <scstep>
   <time name="dav">   76.92   99.85</time>
   <time name="total">  113.04  159.70</time>
   <energy>
    <i name="e_fr_energy">    -14.54284441 </i>
    <i name="e_wo_entrp">    -14.59356324 </i>
    <i name="e_0_energy">    -14.55975069 </i>
   </energy>
  </scstep>
  <scstep>
   <time name="dav">   74.73   98.55</time>
   <time name="total">  119.25  163.52</time>
   <energy>
    <i name="e_fr_energy">    -14.54198464 </i>
    <i name="e_wo_entrp">    -14.59276740 </i>
    <i name="e_0_energy">    -14.55891223 </i>
   </energy>
  </scstep>
  <scstep>
   <time name="dav">   64.05  105.75</time>
   <time name="total">  113.50  175.18</time>
   <energy>
    <i name="e_fr_energy">    -14.54138127 </i>
    <i name="e_wo_entrp">    -14.59221670 </i>
    <i name="e_0_energy">    -14.55832641 </i>
   </energy>
  </scstep>
  <scstep>
   <time name="dav">   44.93   73.46</time>
   <time name="total">   92.31  144.66</time>
   <energy>
    <i name="e_fr_energy">    -14.54126899 </i>
    <i name="e_wo_entrp">    -14.59140795 </i>
    <i name="e_0_energy">    -14.55798198 </i>
   </energy>
  </scstep>
  <scstep>
   <time name="dav">   49.88   88.24</time>
   <time name="total">   92.46  154.08</time>
   <energy>
    <i name="e_fr_energy">    -14.54137261 </i>
    <i name="e_wo_entrp">    -14.59172338 </i>
    <i name="e_0_energy">    -14.55815620 </i>
   </energy>
  </scstep>
  <scstep>
   <time name="dav">   52.81   82.25</time>
   <time name="total">   97.87  150.60</time>
   <energy>
    <i name="e_fr_energy">    -14.54169197 </i>
    <i name="e_wo_entrp">    -14.59213757 </i>
    <i name="e_0_energy">    -14.55850717 </i>
   </energy>
  </scstep>
  <scstep>
   <time name="dav">   64.68   86.38</time>
   <time name="total">  108.53  153.94</time>
   <energy>
    <i name="e_fr_energy">    -14.54198420 </i>
    <i name="e_wo_entrp">    -14.59230181 </i>
    <i name="e_0_energy">    -14.55875674 </i>
   </energy>
  </scstep>
  <scstep>
   <time name="dav">   51.06   81.14</time>
   <time name="total">  100.48  150.08</time>
   <energy>
    <i name="e_fr_energy">    -14.54227460 </i>
    <i name="e_wo_entrp">    -14.59255988 </i>
    <i name="e_0_energy">    -14.55903636 </i>
   </energy>
  </scstep>
  <scstep>
   <time name="dav">   68.44   87.71</time>
   <time name="total">  119.92  162.44</time>
   <energy>
    <i name="e_fr_energy">    -14.54257686 </i>
    <i name="e_wo_entrp">    -14.59285382 </i>
    <i name="e_0_energy">    -14.55933584 </i>
   </energy>
  </scstep>
  <scstep>
   <time name="dav">   79.10   79.14</time>
   <time name="total">  147.67  147.76</time>
   <energy>
    <i name="e_fr_energy">    -14.54279276 </i>
    <i name="e_wo_entrp">    -14.59304045 </i>
    <i name="e_0_energy">    -14.55954199 </i>
   </energy>
  </scstep>
  <scstep>
   <time name="dav">   83.87   84.31</time>
   <time name="total">  148.47  150.13</time>
   <energy>
    <i name="e_fr_energy">    -14.54309711 </i>
    <i name="e_wo_entrp">    -14.59332165 </i>
    <i name="e_0_energy">    -14.55983862 </i>
   </energy>
  </scstep>
  <scstep>
   <time name="dav">   46.76   86.64</time>
   <time name="total">   93.11  148.46</time>
   <energy>
    <i name="e_fr_energy">    -14.54345830 </i>
    <i name="e_wo_entrp">    -14.59364717 </i>
    <i name="e_0_energy">    -14.56018792 </i>
   </energy>
  </scstep>
  <scstep>
   <time name="dav">   51.71   95.22</time>
   <time name="total">  107.47  175.44</time>
   <energy>
    <i name="e_fr_energy">    -14.54363483 </i>
    <i name="e_wo_entrp">    -14.59380657 </i>
    <i name="e_0_energy">    -14.56035874 </i>
   </energy>
  </scstep>
  <scstep>
   <time name="dav">   48.85   74.30</time>
   <time name="total">  104.60  150.19</time>
   <energy>
    <i name="e_fr_energy">    -14.54377129 </i>
    <i name="e_wo_entrp">    -14.59392616 </i>
    <i name="e_0_energy">    -14.56048958 </i>
   </energy>
  </scstep>
  <scstep>
   <time name="dav">   49.52   86.58</time>
   <time name="total">   81.80  137.10</time>
   <energy>
    <i name="alphaZ">      1.60866549 </i>
    <i name="ewald">   2276.17627189 </i>
    <i name="hartreedc">  -6213.42880951 </i>
    <i name="XCdc">   -152.14046861 </i>
    <i name="pawpsdc">   4447.15365379 </i>
    <i name="pawaedc">  -4136.50194666 </i>
    <i name="eentropy">      0.05014731 </i>
    <i name="bandstr">   -286.18082063 </i>
    <i name="atom">   4048.71946290 </i>
    <i name="e_fr_energy">    -14.54384404 </i>
    <i name="e_wo_entrp">    -14.59399135 </i>
    <i name="e_0_energy">    -14.56055981 </i>
   </energy>
  </scstep>
  <structure>
   <crystal>
    <varray name="basis" >
     <v>      20.99223785       0.00000000       0.00000000 </v>
     <v>       0.00000000      20.42321635       0.00000000 </v>
     <v>       0.00000000       0.00000000      23.62511473 </v>
    </varray>
    <i name="volume">  10128.77217189 </i>
    <varray name="rec_basis" >
     <v>       0.04763666       0.00000000       0.00000000 </v>
     <v>       0.00000000       0.04896388       0.00000000 </v>
     <v>       0.00000000       0.00000000       0.04232784 </v>
    </varray>
   </crystal>
   <varray name="positions" >
    <v>       0.45161957       0.51799962       0.44887675 </v>
    <v>       0.55317298       0.45488466       0.46356986 </v>
    <v>       0.51714607       0.47530583       0.36317140 </v>
    <v>       0.48332895       0.48176036       0.54857996 </v>
    <v>       0.45570954       0.56957541       0.61917972 </v>
   </varray>
  </structure>
  <varray name="forces" >
   <v>      -0.10225036       0.15311939       0.04682236 </v>
   <v>       0.21996476      -0.00843784       0.15298202 </v>
   <v>      -0.12570441       0.01367893       0.16098817 </v>
   <v>      -0.07049225      -0.04716139      -0.07093663 </v>
   <v>       0.07848226      -0.11119909      -0.28985592 </v>
  </varray>
  <energy>
   <i name="e_fr_energy">    -14.54384404 </i>
   <i name="e_wo_entrp">    -14.59399135 </i>
   <i name="e_0_energy">    -14.56055981 </i>
  </energy>
  <time name="totalsc"> 2155.81 3148.49</time>
 </calculation>
 <calculation>
  <scstep>
   <time name="dav">   65.25  100.15</time>
   <time name="total">  104.92  165.39</time>
   <energy>
    <i name="alphaZ">      1.60866549 </i>
    <i name="ewald">   2288.88873189 </i>
    <i name="hartreedc">  -6226.45636132 </i>
    <i name="XCdc">   -152.14097263 </i>
    <i name="pawpsdc">   4447.15539014 </i>
    <i name="pawaedc">  -4136.50374172 </i>
    <i name="eentropy">      0.05060576 </i>
    <i name="bandstr">   -285.76626422 </i>
    <i name="atom">   4048.71946290 </i>
    <i name="e_fr_energy">    -14.44448372 </i>
    <i name="e_wo_entrp">    -14.49508948 </i>
    <i name="e_0_energy">    -14.46135231 </i>
   </energy>
  </scstep>
  <scstep>
   <time name="dav">   61.91  100.97</time>
   <time name="total">   97.47  161.62</time>
   <energy>
    <i name="e_fr_energy">    -14.59485708 </i>
    <i name="e_wo_entrp">    -14.65647676 </i>
    <i name="e_0_energy">    -14.61539697 </i>
   </energy>
  </scstep>
  <scstep>
   <time name="dav">   58.18  103.11</time>
   <time name="total">  103.41  166.18</time>
   <energy>
    <i name="e_fr_energy">    -14.59670964 </i>
    <i name="e_wo_entrp">    -14.64737262 </i>
    <i name="e_0_energy">    -14.61359730 </i>
   </energy>
  </scstep>
  <scstep>
   <time name="dav">   77.55  100.39</time>
   <time name="total">  125.12  164.91</time>
   <energy>
    <i name="e_fr_energy">    -14.58487421 </i>
    <i name="e_wo_entrp">    -14.64309127 </i>
    <i name="e_0_energy">    -14.60427990 </i>
   </energy>
  </scstep>
  <scstep>
   <time name="dav">   61.40  102.58</time>
   <time name="total">  108.59  167.19</time>
   <energy>
    <i name="e_fr_energy">    -14.58412921 </i>
    <i name="e_wo_entrp">    -14.64144393 </i>
    <i name="e_0_energy">    -14.60323412 </i>
   </energy>
  </scstep>
  <scstep>
   <time name="dav">   54.86  100.33</time>
   <time name="total">  100.18  175.03</time>
   <energy>
    <i name="e_fr_energy">    -14.58025834 </i>
    <i name="e_wo_entrp">    -14.63908201 </i>
    <i name="e_0_energy">    -14.59986623 </i>
   </energy>
  </scstep>
  <scstep>
   <time name="dav">   56.60  104.91</time>
   <time name="total">  111.59  179.02</time>
   <energy>
    <i name="e_fr_energy">    -14.57888195 </i>
    <i name="e_wo_entrp">    -14.63675452 </i>
    <i name="e_0_energy">    -14.59817280 </i>
   </energy>
  </scstep>
  <scstep>
   <time name="dav">   67.44  107.50</time>
   <time name="total">  111.18  175.48</time>
   <energy>
    <i name="e_fr_energy">    -14.57881135 </i>
    <i name="e_wo_entrp">    -14.63546895 </i>
    <i name="e_0_energy">    -14.59769722 </i>
   </energy>
  </scstep>
  <scstep>
   <time name="dav">   51.20   86.73</time>
   <time name="total">   90.03  151.31</time>
   <energy>
    <i name="e_fr_energy">    -14.57926692 </i>
    <i name="e_wo_entrp">    -14.63676894 </i>
    <i name="e_0_energy">    -14.59843426 </i>
   </energy>
  </scstep>
  <scstep>
   <time name="dav">   57.14   89.49</time>
   <time name="total">   99.05  153.51</time>
   <energy>
    <i name="e_fr_energy">    -14.58087092 </i>
    <i name="e_wo_entrp">    -14.63801361 </i>
    <i name="e_0_energy">    -14.59991848 </i>
   </energy>
  </scstep>
  <scstep>
   <time name="dav">   67.18   97.99</time>
   <time name="total">  115.41  168.75</time>
   <energy>
    <i name="e_fr_energy">    -14.58222610 </i>
    <i name="e_wo_entrp">    -14.63937245 </i>
    <i name="e_0_energy">    -14.60127488 </i>
   </energy>
  </scstep>
  <scstep>
   <time name="dav">   43.15   77.80</time>
   <time name="total">   90.10  148.10</time>
   <energy>
    <i name="e_fr_energy">    -14.58327580 </i>
    <i name="e_wo_entrp">    -14.64039373 </i>
    <i name="e_0_energy">    -14.60231511 </i>
   </energy>
  </scstep>
  <scstep>
   <time name="dav">   56.49   79.13</time>
   <time name="total">   96.19  143.04</time>
   <energy>
    <i name="e_fr_energy">    -14.58426903 </i>
    <i name="e_wo_entrp">    -14.64140877 </i>
    <i name="e_0_energy">    -14.60331561 </i>
   </energy>
  </scstep>
  <scstep>
   <time name="dav">   49.52   89.92</time>
   <time name="total">   93.46  158.90</time>
   <energy>
    <i name="e_fr_energy">    -14.58520922 </i>
    <i name="e_wo_entrp">    -14.64223775 </i>
    <i name="e_0_energy">    -14.60421873 </i>
   </energy>
  </scstep>
  <scstep>
   <time name="dav">   63.98   95.34</time>
   <time name="total">  110.07  170.55</time>
   <energy>
    <i name="e_fr_energy">    -14.58608043 </i>
    <i name="e_wo_entrp">    -14.64308397 </i>
    <i name="e_0_energy">    -14.60508161 </i>
   </energy>
  </scstep>
  <scstep>
   <time name="dav">   57.65   81.92</time>
   <time name="total">  101.22  155.32</time>
   <energy>
    <i name="e_fr_energy">    -14.58694522 </i>
    <i name="e_wo_entrp">    -14.64390000 </i>
    <i name="e_0_energy">    -14.60593015 </i>
   </energy>
  </scstep>
  <scstep>
   <time name="dav">   52.22   86.94</time>
   <time name="total">   94.60  153.56</time>
   <energy>
    <i name="e_fr_energy">    -14.58768142 </i>
    <i name="e_wo_entrp">    -14.64459487 </i>
    <i name="e_0_energy">    -14.60665257 </i>
   </energy>
  </scstep>
  <scstep>
   <time name="dav">   52.60   80.75</time>
   <time name="total">   93.82  145.21</time>
   <energy>
    <i name="e_fr_energy">    -14.58831717 </i>
    <i name="e_wo_entrp">    -14.64516300 </i>
    <i name="e_0_energy">    -14.60726578 </i>
   </energy>
  </scstep>
  <scstep>
   <time name="dav">   53.19   85.67</time>
   <time name="total">   99.49  154.20</time>
   <energy>
    <i name="e_fr_energy">    -14.58863809 </i>
    <i name="e_wo_entrp">    -14.64546597 </i>
    <i name="e_0_energy">    -14.60758072 </i>
   </energy>
  </scstep>
  <scstep>
   <time name="dav">   53.59   80.66</time>
   <time name="total">  101.32  151.46</time>
   <energy>
    <i name="e_fr_energy">    -14.58880314 </i>
    <i name="e_wo_entrp">    -14.64561041 </i>
[...]
       <r>    -1.5856     4.0702    29.6959 </r>
       <r>    -1.5471     3.4856    29.8302 </r>
       <r>    -1.5085     2.6043    29.9306 </r>
       <r>    -1.4700     1.6515    29.9943 </r>
       <r>    -1.4314     0.8260    30.0261 </r>
       <r>    -1.3929     0.2406    30.0354 </r>
       <r>    -1.3544    -0.0890    30.0319 </r>
       <r>    -1.3158    -0.2159    30.0236 </r>
       <r>    -1.2773    -0.2191    30.0152 </r>
       <r>    -1.2387    -0.1687    30.0087 </r>
       <r>    -1.2002    -0.1103    30.0044 </r>
       <r>    -1.1617    -0.0656    30.0019 </r>
       <r>    -1.1231    -0.0409    30.0003 </r>
       <r>    -1.0846    -0.0362    29.9989 </r>
       <r>    -1.0460    -0.0514    29.9970 </r>
       <r>    -1.0075    -0.0876    29.9936 </r>
       <r>    -0.9689    -0.1436    29.9880 </r>
       <r>    -0.9304    -0.2092    29.9800 </r>
       <r>    -0.8919    -0.2561    29.9701 </r>
       <r>    -0.8533    -0.2330    29.9611 </r>
       <r>    -0.8148    -0.0720    29.9584 </r>
       <r>    -0.7762     0.2917    29.9696 </r>
       <r>    -0.7377     0.8891    30.0039 </r>
       <r>    -0.6992     1.6967    30.0693 </r>
       <r>    -0.6606     2.6420    30.1711 </r>
       <r>    -0.6221     3.6415    30.3114 </r>
       <r>    -0.5835     4.6471    30.4905 </r>
       <r>    -0.5450     5.6624    30.7088 </r>
       <r>    -0.5065     6.7025    30.9671 </r>
       <r>    -0.4679     7.7174    31.2645 </r>
       <r>    -0.4294     8.5404    31.5937 </r>
       <r>    -0.3908     8.9169    31.9373 </r>
       <r>    -0.3523     8.6182    32.2695 </r>
       <r>    -0.3138     7.5752    32.5615 </r>
       <r>    -0.2752     5.9434    32.7905 </r>
       <r>    -0.2367     4.0549    32.9468 </r>
       <r>    -0.1981     2.2845    33.0348 </r>
       <r>    -0.1596     0.9106    33.0699 </r>
       <r>    -0.1210     0.0415    33.0715 </r>
       <r>    -0.0825    -0.3725    33.0572 </r>
       <r>    -0.0440    -0.4697    33.0391 </r>
       <r>    -0.0054    -0.4009    33.0236 </r>
       <r>     0.0331    -0.2796    33.0129 </r>
       <r>     0.0717    -0.1688    33.0064 </r>
       <r>     0.1102    -0.0904    33.0029 </r>
       <r>     0.1487    -0.0436    33.0012 </r>
       <r>     0.1873    -0.0191    33.0005 </r>
       <r>     0.2258    -0.0076    33.0002 </r>
       <r>     0.2644    -0.0028    33.0001 </r>
       <r>     0.3029    -0.0009    33.0000 </r>
       <r>     0.3414    -0.0003    33.0000 </r>
       <r>     0.3800    -0.0001    33.0000 </r>
       <r>     0.4185    -0.0000    33.0000 </r>
       <r>     0.4571    -0.0000    33.0000 </r>
       <r>     0.4956    -0.0000    33.0000 </r>
       <r>     0.5342    -0.0000    33.0000 </r>
       <r>     0.5727    -0.0000    33.0000 </r>
       <r>     0.6112    -0.0000    33.0000 </r>
       <r>     0.6498    -0.0000    33.0000 </r>
       <r>     0.6883    -0.0000    33.0000 </r>
       <r>     0.7269    -0.0000    33.0000 </r>
       <r>     0.7654    -0.0000    33.0000 </r>
       <r>     0.8039    -0.0000    33.0000 </r>
       <r>     0.8425    -0.0000    33.0000 </r>
       <r>     0.8810    -0.0000    33.0000 </r>
       <r>     0.9196     0.0000    33.0000 </r>
       <r>     0.9581     0.0000    33.0000 </r>
       <r>     0.9966     0.0000    33.0000 </r>
       <r>     1.0352     0.0000    33.0000 </r>
       <r>     1.0737     0.0000    33.0000 </r>
       <r>     1.1123     0.0000    33.0000 </r>
       <r>     1.1508     0.0000    33.0000 </r>
       <r>     1.1894     0.0000    33.0000 </r>
       <r>     1.2279     0.0000    33.0000 </r>
       <r>     1.2664     0.0000    33.0000 </r>
       <r>     1.3050     0.0000    33.0000 </r>
       <r>     1.3435     0.0000    33.0000 </r>
       <r>     1.3821     0.0000    33.0000 </r>
       <r>     1.4206     0.0000    33.0000 </r>
       <r>     1.4591     0.0000    33.0000 </r>
       <r>     1.4977     0.0000    33.0000 </r>
       <r>     1.5362     0.0000    33.0000 </r>
       <r>     1.5748     0.0000    33.0000 </r>
       <r>     1.6133     0.0000    33.0000 </r>
       <r>     1.6518     0.0000    33.0000 </r>
      </set>
      <set comment="spin 2">
       <r>    -9.9105     0.0000     0.0000 </r>
       <r>    -9.8719     0.0000     0.0000 </r>
       <r>    -9.8334     0.0000     0.0000 </r>
       <r>    -9.7949     0.0000     0.0000 </r>
       <r>    -9.7563     0.0000     0.0000 </r>
       <r>    -9.7178     0.0000     0.0000 </r>
       <r>    -9.6792     0.0000     0.0000 </r>
       <r>    -9.6407     0.0000     0.0000 </r>
       <r>    -9.6022     0.0000     0.0000 </r>
       <r>    -9.5636     0.0000     0.0000 </r>
       <r>    -9.5251     0.0000     0.0000 </r>
       <r>    -9.4865     0.0000     0.0000 </r>
       <r>    -9.4480     0.0000     0.0000 </r>
       <r>    -9.4094    -0.0000    -0.0000 </r>
       <r>    -9.3709    -0.0000    -0.0000 </r>
       <r>    -9.3324    -0.0000    -0.0000 </r>
       <r>    -9.2938    -0.0000    -0.0000 </r>
       <r>    -9.2553    -0.0000    -0.0000 </r>
       <r>    -9.2167    -0.0000    -0.0000 </r>
       <r>    -9.1782    -0.0000    -0.0000 </r>
       <r>    -9.1397    -0.0000    -0.0000 </r>
       <r>    -9.1011    -0.0000    -0.0000 </r>
       <r>    -9.0626    -0.0000    -0.0000 </r>
       <r>    -9.0240    -0.0000    -0.0000 </r>
       <r>    -8.9855    -0.0000    -0.0000 </r>
       <r>    -8.9470    -0.0000    -0.0000 </r>
       <r>    -8.9084    -0.0000    -0.0000 </r>
       <r>    -8.8699    -0.0000    -0.0000 </r>
       <r>    -8.8313    -0.0000    -0.0000 </r>
       <r>    -8.7928    -0.0000    -0.0000 </r>
       <r>    -8.7542    -0.0000    -0.0000 </r>
       <r>    -8.7157    -0.0000    -0.0000 </r>
       <r>    -8.6772    -0.0000    -0.0000 </r>
       <r>    -8.6386    -0.0000    -0.0000 </r>
       <r>    -8.6001    -0.0000    -0.0000 </r>
       <r>    -8.5615    -0.0000    -0.0000 </r>
       <r>    -8.5230    -0.0000    -0.0000 </r>
       <r>    -8.4845    -0.0001    -0.0000 </r>
       <r>    -8.4459    -0.0003    -0.0000 </r>
       <r>    -8.4074    -0.0010    -0.0001 </r>
       <r>    -8.3688    -0.0029    -0.0002 </r>
       <r>    -8.3303    -0.0074    -0.0005 </r>
       <r>    -8.2918    -0.0174    -0.0011 </r>
       <r>    -8.2532    -0.0372    -0.0026 </r>
       <r>    -8.2147    -0.0714    -0.0053 </r>
       <r>    -8.1761    -0.1222    -0.0100 </r>
       <r>    -8.1376    -0.1822    -0.0170 </r>
       <r>    -8.0990    -0.2253    -0.0257 </r>
       <r>    -8.0605    -0.2001    -0.0334 </r>
       <r>    -8.0220    -0.0324    -0.0347 </r>
       <r>    -7.9834     0.3544    -0.0210 </r>
       <r>    -7.9449     1.0006     0.0175 </r>
       <r>    -7.9063     1.8687     0.0896 </r>
       <r>    -7.8678     2.8215     0.1983 </r>
       <r>    -7.8293     3.6449     0.3388 </r>
       <r>    -7.7907     4.1161     0.4974 </r>
       <r>    -7.7522     4.0898     0.6550 </r>
       <r>    -7.7136     3.5620     0.7923 </r>
       <r>    -7.6751     2.6747     0.8954 </r>
       <r>    -7.6366     1.6647     0.9596 </r>
       <r>    -7.5980     0.7859     0.9899 </r>
       <r>    -7.5595     0.2421     0.9992 </r>
       <r>    -7.5209     0.1506     1.0050 </r>
       <r>    -7.4824     0.5305     1.0254 </r>
       <r>    -7.4439     1.3013     1.0756 </r>
       <r>    -7.4053     2.2897     1.1638 </r>
       <r>    -7.3668     3.2544     1.2893 </r>
       <r>    -7.3282     3.9429     1.4412 </r>
       <r>    -7.2897     4.1684     1.6019 </r>
       <r>    -7.2511     3.8766     1.7513 </r>
       <r>    -7.2126     3.1636     1.8732 </r>
       <r>    -7.1741     2.2324     1.9593 </r>
       <r>    -7.1355     1.3103     2.0098 </r>
       <r>    -7.0970     0.5686     2.0317 </r>
       <r>    -7.0584     0.0811     2.0348 </r>
       <r>    -7.0199    -0.1704     2.0282 </r>
       <r>    -6.9814    -0.2602     2.0182 </r>
       <r>    -6.9428    -0.2782     2.0075 </r>
       <r>    -6.9043    -0.3025     1.9958 </r>
       <r>    -6.8657    -0.3859     1.9810 </r>
       <r>    -6.8272    -0.5462     1.9599 </r>
       <r>    -6.7887    -0.7490     1.9310 </r>
       <r>    -6.7501    -0.8813     1.8971 </r>
       <r>    -6.7116    -0.7323     1.8689 </r>
       <r>    -6.6730    -0.0125     1.8684 </r>
       <r>    -6.6345     1.5624     1.9286 </r>
       <r>    -6.5959     4.1232     2.0875 </r>
       <r>    -6.5574     7.4926     2.3763 </r>
       <r>    -6.5189    11.1171     2.8047 </r>
       <r>    -6.4803    14.1719     3.3509 </r>
       <r>    -6.4418    15.8418     3.9615 </r>
       <r>    -6.4032    15.6718     4.5655 </r>
       <r>    -6.3647    13.8111     5.0978 </r>
       <r>    -6.3262    11.0074     5.5220 </r>
       <r>    -6.2876     8.3290     5.8430 </r>
       <r>    -6.2491     6.7335     6.1026 </r>
       <r>    -6.2105     6.6826     6.3601 </r>
       <r>    -6.1720     7.9731     6.6674 </r>
       <r>    -6.1335     9.8557     7.0473 </r>
       <r>    -6.0949    11.3747     7.4857 </r>
       <r>    -6.0564    11.7691     7.9392 </r>
       <r>    -6.0178    10.7536     8.3537 </r>
       <r>    -5.9793     8.5675     8.6839 </r>
       <r>    -5.9407     5.7999     8.9074 </r>
       <r>    -5.9022     3.1092     9.0273 </r>
       <r>    -5.8637     0.9865     9.0653 </r>
       <r>    -5.8251    -0.3413     9.0521 </r>
       <r>    -5.7866    -0.8670     9.0187 </r>
       <r>    -5.7480    -0.6896     8.9921 </r>
       <r>    -5.7095     0.0844     8.9954 </r>
       <r>    -5.6710     1.3754     9.0484 </r>
       <r>    -5.6324     3.1038     9.1680 </r>
       <r>    -5.5939     5.1363     9.3660 </r>
       <r>    -5.5553     7.2456     9.6452 </r>
       <r>    -5.5168     9.1129     9.9965 </r>
       <r>    -5.4783    10.3845    10.3967 </r>
       <r>    -5.4397    10.7693    10.8118 </r>
       <r>    -5.4012    10.1424    11.2027 </r>
       <r>    -5.3626     8.6057    11.5343 </r>
       <r>    -5.3241     6.4683    11.7836 </r>
       <r>    -5.2856     4.1463    11.9434 </r>
       <r>    -5.2470     2.0294    12.0216 </r>
       <r>    -5.2085     0.3792    12.0363 </r>
       <r>    -5.1699    -0.6946    12.0095 </r>
       <r>    -5.1314    -1.1809    11.9640 </r>
       <r>    -5.0928    -1.0857    11.9221 </r>
       <r>    -5.0543    -0.3749    11.9077 </r>
       <r>    -5.0158     1.0229    11.9471 </r>
       <r>    -4.9772     3.1652    12.0691 </r>
       <r>    -4.9387     6.0294    12.3015 </r>
       <r>    -4.9001     9.4683    12.6664 </r>
       <r>    -4.8616    13.2024    13.1752 </r>
       <r>    -4.8231    16.8444    13.8244 </r>
       <r>    -4.7845    19.9508    14.5933 </r>
       <r>    -4.7460    22.1007    15.4451 </r>
       <r>    -4.7074    22.9989    16.3315 </r>
       <r>    -4.6689    22.5704    17.2014 </r>
       <r>    -4.6304    20.9915    18.0105 </r>
       <r>    -4.5918    18.6224    18.7282 </r>
       <r>    -4.5533    15.8664    19.3397 </r>
       <r>    -4.5147    13.0412    19.8423 </r>
       <r>    -4.4762    10.3424    20.2409 </r>
       <r>    -4.4376     7.9087    20.5457 </r>
       <r>    -4.3991     5.9130    20.7736 </r>
       <r>    -4.3606     4.5812    20.9502 </r>
       <r>    -4.3220     4.1028    21.1083 </r>
       <r>    -4.2835     4.4900    21.2814 </r>
       <r>    -4.2449     5.4968    21.4932 </r>
       <r>    -4.2064     6.6775    21.7506 </r>
       <r>    -4.1679     7.5737    22.0425 </r>
       <r>    -4.1293     7.9260    22.3480 </r>
       <r>    -4.0908     7.7881    22.6481 </r>
       <r>    -4.0522     7.4764    22.9363 </r>
       <r>    -4.0137     7.3836    23.2208 </r>
       <r>    -3.9752     7.7611    23.5200 </r>
       <r>    -3.9366     8.5821    23.8507 </r>
       <r>    -3.8981     9.5447    24.2186 </r>
       <r>    -3.8595    10.2036    24.6118 </r>
       <r>    -3.8210    10.1625    25.0035 </r>
       <r>    -3.7824     9.2381    25.3596 </r>
       <r>    -3.7439     7.5298    25.6498 </r>
       <r>    -3.7054     5.3729    25.8568 </r>
       <r>    -3.6668     3.2080    25.9805 </r>
       <r>    -3.6283     1.4341    26.0358 </r>
       <r>    -3.5897     0.3090    26.0477 </r>
       <r>    -3.5512    -0.0798    26.0446 </r>
       <r>    -3.5127     0.2078    26.0526 </r>
       <r>    -3.4741     1.0035    26.0913 </r>
       <r>    -3.4356     2.0640    26.1708 </r>
       <r>    -3.3970     3.1066    26.2906 </r>
       <r>    -3.3585     3.8604    26.4393 </r>
       <r>    -3.3200     4.1343    26.5987 </r>
       <r>    -3.2814     3.8746    26.7480 </r>
       <r>    -3.2429     3.1796    26.8706 </r>
       <r>    -3.2043     2.2545    26.9574 </r>
       <r>    -3.1658     1.3292    27.0087 </r>
       <r>    -3.1272     0.5770    27.0309 </r>
       <r>    -3.0887     0.0722    27.0337 </r>
       <r>    -3.0502    -0.2053    27.0258 </r>
       <r>    -3.0116    -0.3320    27.0130 </r>
       <r>    -2.9731    -0.3944    26.9978 </r>
       <r>    -2.9345    -0.4514    26.9804 </r>
       <r>    -2.8960    -0.5075    26.9608 </r>
       <r>    -2.8575    -0.4997    26.9416 </r>
       <r>    -2.8189    -0.3002    26.9300 </r>
       <r>    -2.7804     0.2536    26.9398 </r>
       <r>    -2.7418     1.2941    26.9897 </r>
       <r>    -2.7033     2.8366    27.0990 </r>
       <r>    -2.6648     4.7093    27.2805 </r>
       <r>    -2.6262     6.5529    27.5330 </r>
       <r>    -2.5877     7.9153    27.8381 </r>
       <r>    -2.5491     8.4181    28.1625 </r>
       <r>    -2.5106     7.9134    28.4675 </r>
       <r>    -2.4721     6.5496    28.7200 </r>
       <r>    -2.4335     4.7060    28.9013 </r>
       <r>    -2.3950     2.8347    29.0106 </r>
       <r>    -2.3564     1.2958    29.0605 </r>
       <r>    -2.3179     0.2627    29.0707 </r>
       <r>    -2.2793    -0.2768    29.0600 </r>
       <r>    -2.2408    -0.4506    29.0426 </r>
       <r>    -2.2023    -0.4171    29.0265 </r>
       <r>    -2.1637    -0.3049    29.0148 </r>
       <r>    -2.1252    -0.1911    29.0074 </r>
       <r>    -2.0866    -0.1074    29.0033 </r>
       <r>    -2.0481    -0.0587    29.0010 </r>
       <r>    -2.0096    -0.0396    28.9995 </r>
       <r>    -1.9710    -0.0448    28.9978 </r>
       <r>    -1.9325    -0.0720    28.9950 </r>
       <r>    -1.8939    -0.1195    28.9904 </r>
       <r>    -1.8554    -0.1785    28.9835 </r>
       <r>    -1.8169    -0.2239    28.9749 </r>
       <r>    -1.7783    -0.2055    28.9670 </r>
       <r>    -1.7398    -0.0501    28.9650 </r>
       <r>    -1.7012     0.3198    28.9774 </r>
       <r>    -1.6627     0.9488    29.0139 </r>
       <r>    -1.6241     1.8061    29.0835 </r>
       <r>    -1.5856     2.7624    29.1900 </r>
       <r>    -1.5471     3.6094    29.3291 </r>
       <r>    -1.5085     4.1256    29.4881 </r>
       <r>    -1.4700     4.1627    29.6486 </r>
       <r>    -1.4314     3.7100    29.7915 </r>
       <r>    -1.3929     2.8982    29.9032 </r>
       <r>    -1.3544     1.9436    29.9781 </r>
       <r>    -1.3158     1.0615    30.0191 </r>
       <r>    -1.2773     0.3950    30.0343 </r>
       <r>    -1.2387    -0.0113    30.0339 </r>
       <r>    -1.2002    -0.1936    30.0264 </r>
       <r>    -1.1617    -0.2276    30.0176 </r>
       <r>    -1.1231    -0.1894    30.0103 </r>
       <r>    -1.0846    -0.1339    30.0052 </r>
       <r>    -1.0460    -0.0918    30.0016 </r>
       <r>    -1.0075    -0.0760    29.9987 </r>
       <r>    -0.9689    -0.0903    29.9952 </r>
       <r>    -0.9304    -0.1335    29.9901 </r>
       <r>    -0.8919    -0.1973    29.9825 </r>
       <r>    -0.8533    -0.2593    29.9725 </r>
       <r>    -0.8148    -0.2757    29.9618 </r>
       <r>    -0.7762    -0.1819    29.9548 </r>
       <r>    -0.7377     0.0952    29.9585 </r>
       <r>    -0.6992     0.6121    29.9821 </r>
       <r>    -0.6606     1.3854    30.0355 </r>
       <r>    -0.6221     2.3837    30.1274 </r>
       <r>    -0.5835     3.5440    30.2639 </r>
       <r>    -0.5450     4.7999    30.4489 </r>
       <r>    -0.5065     6.0928    30.6838 </r>
       <r>    -0.4679     7.3501    30.9670 </r>
       <r>    -0.4294     8.4427    31.2924 </r>
       <r>    -0.3908     9.1690    31.6458 </r>
       <r>    -0.3523     9.3019    32.0043 </r>
       <r>    -0.3138     8.6916    32.3393 </r>
       <r>    -0.2752     7.3654    32.6232 </r>
       <r>    -0.2367     5.5532    32.8372 </r>
       <r>    -0.1981     3.6133    32.9765 </r>
       <r>    -0.1596     1.8991    33.0496 </r>
       <r>    -0.1210     0.6392    33.0743 </r>
       <r>    -0.0825    -0.1092    33.0701 </r>
       <r>    -0.0440    -0.4292    33.0535 </r>
       <r>    -0.0054    -0.4703    33.0354 </r>
       <r>     0.0331    -0.3779    33.0208 </r>
       <r>     0.0717    -0.2535    33.0111 </r>
       <r>     0.1102    -0.1484    33.0054 </r>
       <r>     0.1487    -0.0775    33.0024 </r>
       <r>     0.1873    -0.0365    33.0010 </r>
       <r>     0.2258    -0.0156    33.0004 </r>
       <r>     0.2644    -0.0061    33.0001 </r>
       <r>     0.3029    -0.0022    33.0000 </r>
       <r>     0.3414    -0.0007    33.0000 </r>
       <r>     0.3800    -0.0002    33.0000 </r>
       <r>     0.4185    -0.0001    33.0000 </r>
       <r>     0.4571    -0.0000    33.0000 </r>
       <r>     0.4956    -0.0000    33.0000 </r>
       <r>     0.5342    -0.0000    33.0000 </r>
       <r>     0.5727    -0.0000    33.0000 </r>
       <r>     0.6112    -0.0000    33.0000 </r>
       <r>     0.6498    -0.0000    33.0000 </r>
       <r>     0.6883    -0.0000    33.0000 </r>
       <r>     0.7269    -0.0000    33.0000 </r>
       <r>     0.7654    -0.0000    33.0000 </r>
       <r>     0.8039    -0.0000    33.0000 </r>
       <r>     0.8425    -0.0000    33.0000 </r>
       <r>     0.8810    -0.0000    33.0000 </r>
       <r>     0.9196     0.0000    33.0000 </r>
       <r>     0.9581     0.0000    33.0000 </r>
       <r>     0.9966     0.0000    33.0000 </r>
       <r>     1.0352     0.0000    33.0000 </r>
       <r>     1.0737     0.0000    33.0000 </r>
       <r>     1.1123     0.0000    33.0000 </r>
       <r>     1.1508     0.0000    33.0000 </r>
       <r>     1.1894     0.0000    33.0000 </r>
       <r>     1.2279     0.0000    33.0000 </r>
       <r>     1.2664     0.0000    33.0000 </r>
       <r>     1.3050     0.0000    33.0000 </r>
       <r>     1.3435     0.0000    33.0000 </r>
       <r>     1.3821     0.0000    33.0000 </r>
       <r>     1.4206     0.0000    33.0000 </r>
       <r>     1.4591     0.0000    33.0000 </r>
       <r>     1.4977     0.0000    33.0000 </r>
       <r>     1.5362     0.0000    33.0000 </r>
       <r>     1.5748     0.0000    33.0000 </r>
       <r>     1.6133     0.0000    33.0000 </r>
       <r>     1.6518     0.0000    33.0000 </r>
      </set>
     </set>
    </array>
   </total>
  </dos>
 </calculation>
 <structure name="finalpos" >
  <crystal>
   <varray name="basis" >
    <v>      20.99223785       0.00000000       0.00000000 </v>
    <v>       0.00000000      20.42321635       0.00000000 </v>
    <v>       0.00000000       0.00000000      23.62511473 </v>
   </varray>
   <i name="volume">  10128.77217189 </i>
   <varray name="rec_basis" >
    <v>       0.04763666       0.00000000       0.00000000 </v>
    <v>       0.00000000       0.04896388       0.00000000 </v>
    <v>       0.00000000       0.00000000       0.04232784 </v>
   </varray>
  </crystal>
  <varray name="positions" >
   <v>       0.44954538       0.55257234       0.46408409 </v>
   <v>       0.56398171       0.50730814       0.48661020 </v>
   <v>       0.49419184       0.45134229       0.40785503 </v>
   <v>       0.46304036       0.43940980       0.51558035 </v>
   <v>       0.49021783       0.54889330       0.56924801 </v>
  </varray>
 </structure>
</modeling>
