unknown system                          
            1
    20.992238    0.000000    0.000000
     0.000000   20.423216    0.000000
     0.000000    0.000000   23.625115
   Pd
     5
Direct configuration=     1
   0.45046322  0.51582850  0.44567165
   0.55185539  0.45187590  0.46380665
   0.51726536  0.47642485  0.36695103
   0.48506790  0.49076481  0.54739375
   0.45632524  0.56463183  0.61955460
Direct configuration=     2
   0.44977393  0.51641841  0.44684273
   0.55217875  0.45186907  0.46511791
   0.51760349  0.47619656  0.36481615
   0.48563105  0.48881521  0.54583984
   0.45578987  0.56622662  0.62076105
Direct configuration=     3
   0.44972611  0.51645934  0.44692398
   0.55220119  0.45186859  0.46520889
   0.51762695  0.47618073  0.36466804
   0.48567012  0.48867994  0.54573203
   0.45575273  0.56633727  0.62084475
Direct configuration=     4
   0.44972087  0.51669475  0.44706671
   0.55244405  0.45202017  0.46495925
   0.51771041  0.47604970  0.36415794
   0.48538964  0.48806414  0.54640197
   0.45571213  0.56669712  0.62079181
Direct configuration=     5
   0.44971135  0.51712257  0.44732611
   0.55288542  0.45229563  0.46450556
   0.51786210  0.47581157  0.36323088
   0.48487989  0.48694499  0.54761953
   0.45563834  0.56735111  0.62069560
Direct configuration=     6
   0.45011876  0.51722268  0.44758741
   0.55283651  0.45279732  0.46425693
   0.51778947  0.47570089  0.36313884
   0.48462449  0.48595785  0.54784659
   0.45560787  0.56784714  0.62054790
Direct configuration=     7
   0.45134098  0.51752299  0.44837133
   0.55268976  0.45430236  0.46351105
   0.51757160  0.47536886  0.36286272
   0.48385829  0.48299643  0.54852777
   0.45551646  0.56933524  0.62010481
Direct configuration=     8
   0.45161957  0.51799962  0.44887675
   0.55317298  0.45488466  0.46356986
   0.51714607  0.47530583  0.36317140
   0.48332895  0.48176036  0.54857996
   0.45570954  0.56957541  0.61917972
Direct configuration=     9
   0.45245531  0.51942951  0.45039302
   0.55462263  0.45663155  0.46374630
   0.51586945  0.47511674  0.36409742
   0.48174094  0.47805215  0.54873652
   0.45628878  0.57029592  0.61640443
Direct configuration=    10
   0.45412680  0.52228929  0.45342556
   0.55752193  0.46012532  0.46409917
   0.51331623  0.47473857  0.36594947
   0.47856490  0.47063574  0.54904963
   0.45744726  0.57173694  0.61085385
Direct configuration=    11
   0.45746977  0.52800886  0.45949063
   0.56332052  0.46711288  0.46480493
   0.50820978  0.47398224  0.36965357
   0.47221282  0.45580292  0.54967586
   0.45976421  0.57461899  0.59975269
Direct configuration=    12
   0.45758469  0.52820647  0.45973458
   0.56349280  0.46734954  0.46488640
   0.50801230  0.47396369  0.36981688
   0.47202945  0.45537012  0.54964572
   0.45985785  0.57463605  0.59929411
Direct configuration=    13
   0.45792946  0.52879931  0.46046640
   0.56400965  0.46805951  0.46513080
   0.50741987  0.47390805  0.37030681
   0.47147934  0.45407175  0.54955530
   0.46013879  0.57468724  0.59791837
Direct configuration=    14
   0.45861898  0.52998500  0.46193004
   0.56504335  0.46947946  0.46561962
   0.50623500  0.47379678  0.37128667
   0.47037913  0.45147501  0.54937447
   0.46070065  0.57478963  0.59516688
Direct configuration=    15
   0.45999802  0.53235637  0.46485733
   0.56711075  0.47231936  0.46659725
   0.50386526  0.47357422  0.37324640
   0.46817871  0.44628153  0.54901280
   0.46182437  0.57499439  0.58966391
Direct configuration=    16
   0.46275611  0.53709911  0.47071191
   0.57124554  0.47799917  0.46855250
   0.49912578  0.47312911  0.37716585
   0.46377786  0.43589456  0.54828945
   0.46407181  0.57540393  0.57865798
Direct configuration=    17
   0.46113157  0.53430559  0.46726350
   0.56881010  0.47465370  0.46740084
   0.50191738  0.47339128  0.37485725
   0.46637000  0.44201259  0.54871551
   0.46274805  0.57516271  0.58514058
Direct configuration=    18
   0.46186032  0.53516588  0.46918014
   0.56926106  0.47593945  0.46816100
   0.50076224  0.47341160  0.37623439
   0.46570841  0.44052254  0.54799511
   0.46338507  0.57448641  0.58180705
Direct configuration=    19
   0.46367390  0.53730682  0.47394998
   0.57038333  0.47913919  0.47005277
   0.49788752  0.47346218  0.37966157
   0.46406196  0.43681434  0.54620229
   0.46497040  0.57280334  0.57351108
Direct configuration=    20
   0.46295202  0.53645464  0.47205139
   0.56993662  0.47786557  0.46929977
   0.49903177  0.47344205  0.37829742
   0.46471731  0.43829035  0.54691590
   0.46433937  0.57347327  0.57681320
Direct configuration=    21
   0.46318827  0.53673353  0.47267273
   0.57008282  0.47828238  0.46954620
   0.49865730  0.47344863  0.37874386
   0.46450284  0.43780730  0.54668236
   0.46454589  0.57325402  0.57573253
Direct configuration=    22
   0.46307944  0.53614360  0.47245669
   0.56936432  0.47797629  0.46983166
   0.49876435  0.47365047  0.37926316
   0.46513850  0.43922884  0.54607122
   0.46463049  0.57252668  0.57575496
Direct configuration=    23
   0.46275297  0.53437380  0.47180854
   0.56720884  0.47705803  0.47068803
   0.49908550  0.47425596  0.38082105
   0.46704547  0.44349344  0.54423781
   0.46488432  0.57034464  0.57582226
Direct configuration=    24
   0.46210003  0.53083419  0.47051225
   0.56289787  0.47522150  0.47240076
   0.49972780  0.47546696  0.38393684
   0.47085943  0.45202265  0.54057097
   0.46539197  0.56598057  0.57595685
Direct configuration=    25
   0.46263209  0.53371849  0.47156855
   0.56641073  0.47671802  0.47100511
   0.49920441  0.47448016  0.38139789
   0.46775157  0.44507250  0.54355895
   0.46497830  0.56953670  0.57584718
Direct configuration=    26
   0.46121625  0.53472665  0.47084308
   0.56635310  0.47580653  0.47213177
   0.49913327  0.47456943  0.38178557
   0.46897437  0.44603057  0.54310028
   0.46530012  0.56839270  0.57551698
Direct configuration=    27
   0.45727907  0.53753014  0.46882567
   0.56619284  0.47327182  0.47526481
   0.49893543  0.47481768  0.38286363
   0.47237474  0.44869478  0.54182482
   0.46619502  0.56521145  0.57459876
Direct configuration=    28
   0.45642385  0.53885064  0.46767495
   0.56525340  0.47328288  0.47580506
   0.49925005  0.47471005  0.38381371
   0.47326490  0.44739470  0.54160309
   0.46678491  0.56528760  0.57448087
Direct configuration=    29
   0.45603201  0.53945566  0.46714772
   0.56482296  0.47328795  0.47605259
   0.49939421  0.47466074  0.38424901
   0.47367275  0.44679904  0.54150150
   0.46705518  0.56532249  0.57442686
Direct configuration=    30
   0.45583822  0.53990133  0.46753293
   0.56438143  0.47411384  0.47597642
   0.49977968  0.47424001  0.38473701
   0.47326707  0.44613907  0.54134366
   0.46771071  0.56513162  0.57378767
Direct configuration=    31
   0.45560694  0.54043321  0.46799267
   0.56385449  0.47509948  0.47588551
   0.50023971  0.47373789  0.38531940
   0.47278292  0.44535146  0.54115528
   0.46849304  0.56490383  0.57302483
Direct configuration=    32
   0.45514439  0.54149697  0.46891213
   0.56280062  0.47707076  0.47570369
   0.50115978  0.47273367  0.38648417
   0.47181462  0.44377622  0.54077854
   0.47005770  0.56444826  0.57149916
Direct configuration=    33
   0.45486567  0.54119426  0.46805880
   0.56330983  0.47742625  0.47654318
   0.50065066  0.47270165  0.38618597
   0.47158269  0.44389194  0.54056416
   0.47056825  0.56431178  0.57202557
Direct configuration=    34
   0.45449386  0.54079043  0.46692043
   0.56398915  0.47790049  0.47766309
   0.49997147  0.47265894  0.38578816
   0.47127330  0.44404630  0.54027817
   0.47124933  0.56412972  0.57272783
Direct configuration=    35
   0.45428516  0.54051754  0.46687579
   0.56397157  0.47855735  0.47807566
   0.49992550  0.47247400  0.38604008
   0.47085955  0.44432181  0.53986513
   0.47193532  0.56365517  0.57252103
Direct configuration=    36
   0.45365908  0.53969886  0.46674188
   0.56391881  0.48052795  0.47931336
   0.49978760  0.47191917  0.38679582
   0.46961832  0.44514835  0.53862600
   0.47399329  0.56223155  0.57190063
Direct configuration=    37
   0.45240691  0.53806150  0.46647406
   0.56381330  0.48446913  0.48178875
   0.49951180  0.47080951  0.38830730
   0.46713587  0.44680143  0.53614773
   0.47810922  0.55938430  0.57065984
Direct configuration=    38
   0.45291647  0.53872781  0.46658305
   0.56385624  0.48286530  0.48078141
   0.49962403  0.47126108  0.38769221
   0.46814608  0.44612872  0.53715624
   0.47643428  0.56054297  0.57116477
Direct configuration=    39
   0.45280809  0.53869974  0.46654721
   0.56386786  0.48308839  0.48090345
   0.49963018  0.47118527  0.38777968
   0.46799153  0.44610911  0.53703534
   0.47667945  0.56044336  0.57111201
Direct configuration=    40
   0.45248294  0.53861554  0.46643970
   0.56390272  0.48375767  0.48126957
   0.49964862  0.47095784  0.38804207
   0.46752786  0.44605029  0.53667261
   0.47741496  0.56014453  0.57095374
Direct configuration=    41
   0.45183265  0.53844712  0.46622467
   0.56397243  0.48509623  0.48200182
   0.49968549  0.47050299  0.38856687
   0.46660054  0.44593265  0.53594716
   0.47888600  0.55954689  0.57063718
Direct configuration=    42
   0.45053206  0.53811030  0.46579460
   0.56411187  0.48777334  0.48346631
   0.49975924  0.46959328  0.38961646
   0.46474588  0.44569735  0.53449626
   0.48182807  0.55835160  0.57000406
Direct configuration=    43
   0.44793088  0.53743664  0.46493448
   0.56439073  0.49312758  0.48639529
   0.49990673  0.46777387  0.39171563
   0.46103656  0.44522677  0.53159445
   0.48771220  0.55596101  0.56873783
Direct configuration=    44
   0.44272852  0.53608933  0.46321423
   0.56494846  0.50383605  0.49225325
   0.50020172  0.46413504  0.39591399
   0.45361793  0.44428560  0.52579085
   0.49948047  0.55117985  0.56620538
Direct configuration=    45
   0.44681657  0.53714806  0.46456601
   0.56451019  0.49542126  0.48765002
   0.49996992  0.46699446  0.39261489
   0.45944754  0.44502518  0.53035136
   0.49023289  0.55493692  0.56819540
Direct configuration=    46
   0.44553123  0.53836060  0.46400751
   0.56421813  0.49694588  0.48837880
   0.50046207  0.46619029  0.39356392
   0.45849275  0.44342623  0.52971199
   0.49227293  0.55460286  0.56771547
Direct configuration=    47
   0.44394268  0.53985918  0.46331725
   0.56385717  0.49883014  0.48927950
   0.50107032  0.46519643  0.39473682
   0.45731273  0.44145011  0.52892179
   0.49479421  0.55419001  0.56712233
Direct configuration=    48
   0.44382631  0.54056743  0.46344331
   0.56302433  0.49883972  0.48896957
   0.50146251  0.46488130  0.39563061
   0.45768872  0.44124340  0.52845868
   0.49497523  0.55399403  0.56687552
Direct configuration=    49
   0.44347720  0.54269220  0.46382150
   0.56052584  0.49886844  0.48803977
   0.50263907  0.46393588  0.39831199
   0.45881671  0.44062325  0.52706934
   0.49551829  0.55340610  0.56613509
Direct configuration=    50
   0.44329461  0.54355660  0.46396247
   0.56089393  0.49864826  0.48760915
   0.50247405  0.46323709  0.39898023
   0.45932627  0.44054178  0.52629696
   0.49498825  0.55354215  0.56652888
Direct configuration=    51
   0.44274684  0.54614981  0.46438539
   0.56199819  0.49798771  0.48631728
   0.50197898  0.46114070  0.40098495
   0.46085495  0.44029738  0.52397983
   0.49339814  0.55395028  0.56771024
Direct configuration=    52
   0.44285525  0.54660126  0.46452832
   0.56239290  0.49813696  0.48640143
   0.50145099  0.46053819  0.40143684
   0.46127826  0.44043835  0.52324534
   0.49299970  0.55381111  0.56776576
Direct configuration=    53
   0.44318046  0.54795560  0.46495709
   0.56357703  0.49858473  0.48665389
   0.49986701  0.45873065  0.40279251
   0.46254822  0.44086129  0.52104188
   0.49180439  0.55339361  0.56793232
Direct configuration=    54
   0.44383088  0.55066427  0.46581463
   0.56594529  0.49948028  0.48715881
   0.49669905  0.45511558  0.40550385
   0.46508813  0.44170715  0.51663496
   0.48941376  0.55255859  0.56826544
Direct configuration=    55
   0.44454653  0.55093475  0.46552046
   0.56640729  0.50081994  0.48751006
   0.49570662  0.45461811  0.40642826
   0.46481155  0.44112174  0.51588286
   0.48950512  0.55203133  0.56803605
Direct configuration=    56
   0.44599658  0.55148281  0.46492441
   0.56734339  0.50353440  0.48822176
   0.49369574  0.45361011  0.40830131
   0.46425116  0.43993558  0.51435895
   0.48969024  0.55096298  0.56757126
Direct configuration=    57
   0.44698844  0.55177756  0.46464538
   0.56624066  0.50480244  0.48836951
   0.49357984  0.45303197  0.40819792
   0.46397371  0.43950628  0.51453614
   0.49019444  0.55040763  0.56762873
Direct configuration=    58
   0.44894065  0.55235770  0.46409618
   0.56407025  0.50729822  0.48866031
   0.49335174  0.45189404  0.40799443
   0.46342763  0.43866133  0.51488490
   0.49118683  0.54931458  0.56774186
Direct configuration=    59
   0.44833614  0.55217806  0.46426624
   0.56474233  0.50652539  0.48857027
   0.49342237  0.45224640  0.40805744
   0.46359673  0.43892298  0.51477690
   0.49087954  0.54965305  0.56770683
Direct configuration=    60
   0.44897795  0.55239542  0.46397532
   0.56419162  0.50694693  0.48769927
   0.49378497  0.45180020  0.40770561
   0.46327069  0.43870307  0.51517988
   0.49075187  0.54968024  0.56881761
Direct configuration=    61
   0.44914878  0.55245328  0.46389788
   0.56404504  0.50705913  0.48746744
   0.49388148  0.45168144  0.40761197
   0.46318391  0.43864454  0.51528714
   0.49071789  0.54968748  0.56911325
Direct configuration=    62
   0.44965703  0.55229514  0.46403550
   0.56359518  0.50717774  0.48681790
   0.49412308  0.45153481  0.40780305
   0.46318277  0.43924906  0.51539021
   0.49041905  0.54926913  0.56933103
Direct configuration=    63
   0.44954999  0.55232844  0.46400652
   0.56368992  0.50715276  0.48695468
   0.49407220  0.45156569  0.40776281
   0.46318301  0.43912175  0.51536850
   0.49048198  0.54935723  0.56928517
Direct configuration=    64
   0.44954622  0.55252762  0.46406987
   0.56392821  0.50727965  0.48667336
   0.49416990  0.45138325  0.40783812
   0.46306651  0.43935699  0.51554151
   0.49026626  0.54897836  0.56925482
Direct configuration=    65
   0.44954538  0.55257234  0.46408409
   0.56398171  0.50730814  0.48661020
   0.49419184  0.45134229  0.40785503
   0.46304036  0.43940980  0.51558035
   0.49021783  0.54889330  0.56924801
