   8   8   0   0
  0.1390437E+04  0.2161721E-08  0.2265703E-08  0.2271113E-08  0.5000000E-15
   1.0000000000000000E-004
  CAR 
 unknown system                          
      2.09547287    -12.76786196  301     -4.98664780      1.00000000
    -12.768  0.0000E+00  0.0000E+00  0.0000E+00  0.0000E+00
    -12.718  0.0000E+00  0.0000E+00  0.0000E+00  0.0000E+00
    -12.669  0.0000E+00  0.0000E+00  0.0000E+00  0.0000E+00
    -12.619  0.0000E+00  0.0000E+00  0.0000E+00  0.0000E+00
    -12.570  0.0000E+00  0.0000E+00  0.0000E+00  0.0000E+00
    -12.520  0.0000E+00  0.0000E+00  0.0000E+00  0.0000E+00
    -12.471  0.0000E+00  0.0000E+00  0.0000E+00  0.0000E+00
    -12.421  0.0000E+00  0.0000E+00  0.0000E+00  0.0000E+00
    -12.372 -0.5468E-29 -0.5468E-29 -0.2709E-30 -0.2709E-30
    -12.322 -0.2593E-27 -0.2593E-27 -0.1312E-28 -0.1312E-28
    -12.272 -0.1106E-25 -0.1106E-25 -0.5612E-27 -0.5612E-27
    -12.223 -0.4168E-24 -0.4168E-24 -0.2121E-25 -0.2121E-25
    -12.173 -0.1387E-22 -0.1387E-22 -0.7083E-24 -0.7083E-24
    -12.124 -0.4075E-21 -0.4075E-21 -0.2090E-22 -0.2090E-22
    -12.074 -0.1057E-19 -0.1057E-19 -0.5445E-21 -0.5445E-21
    -12.025 -0.2420E-18 -0.2420E-18 -0.1253E-19 -0.1253E-19
    -11.975 -0.4888E-17 -0.4888E-17 -0.2547E-18 -0.2547E-18
    -11.926 -0.8489E-16 -0.8489E-16 -0.4461E-17 -0.4461E-17
    -11.876 -0.1325E-14 -0.1325E-14 -0.7011E-16 -0.7011E-16
    -11.827 -0.1832E-13 -0.1832E-13 -0.9777E-15 -0.9777E-15
    -11.777 -0.2230E-12 -0.2230E-12 -0.1203E-13 -0.1203E-13
    -11.727 -0.2390E-11 -0.2390E-11 -0.1304E-12 -0.1304E-12
    -11.678 -0.2254E-10 -0.2254E-10 -0.1247E-11 -0.1247E-11
    -11.628 -0.1869E-09 -0.1869E-09 -0.1051E-10 -0.1051E-10
    -11.579 -0.1362E-08 -0.1362E-08 -0.7797E-10 -0.7797E-10
    -11.529 -0.8701E-08 -0.8701E-08 -0.5091E-09 -0.5091E-09
    -11.480 -0.4870E-07 -0.4870E-07 -0.2922E-08 -0.2922E-08
    -11.430 -0.2383E-06 -0.2383E-06 -0.1473E-07 -0.1473E-07
    -11.381 -0.1017E-05 -0.1017E-05 -0.6509E-07 -0.6509E-07
    -11.331 -0.3766E-05 -0.3766E-05 -0.2517E-06 -0.2517E-06
    -11.282 -0.1205E-04 -0.1205E-04 -0.8487E-06 -0.8487E-06
    -11.232 -0.3303E-04 -0.3303E-04 -0.2485E-05 -0.2485E-05
    -11.182 -0.7645E-04 -0.7645E-04 -0.6273E-05 -0.6273E-05
    -11.133 -0.1455E-03 -0.1455E-03 -0.1348E-04 -0.1348E-04
    -11.083 -0.2145E-03 -0.2145E-03 -0.2411E-04 -0.2411E-04
    -11.034 -0.1995E-03 -0.1995E-03 -0.3399E-04 -0.3399E-04
    -10.984  0.4671E-04  0.4671E-04 -0.3168E-04 -0.3168E-04
    -10.935  0.6736E-03  0.6736E-03  0.1696E-05  0.1696E-05
    -10.885  0.1704E-02  0.1704E-02  0.8611E-04  0.8611E-04
    -10.836  0.2918E-02  0.2918E-02  0.2307E-03  0.2307E-03
    -10.786  0.3887E-02  0.3887E-02  0.4232E-03  0.4232E-03
    -10.737  0.4188E-02  0.4188E-02  0.6307E-03  0.6307E-03
    -10.687  0.3680E-02  0.3680E-02  0.8130E-03  0.8130E-03
    -10.637  0.2596E-02  0.2596E-02  0.9416E-03  0.9416E-03
    -10.588  0.1383E-02  0.1383E-02  0.1010E-02  0.1010E-02
    -10.538  0.4227E-03  0.4227E-03  0.1031E-02  0.1031E-02
    -10.489 -0.1450E-03 -0.1450E-03  0.1024E-02  0.1024E-02
    -10.439 -0.3880E-03 -0.3880E-03  0.1005E-02  0.1005E-02
    -10.390 -0.4266E-03 -0.4266E-03  0.9836E-03  0.9836E-03
    -10.340 -0.2921E-03 -0.2921E-03  0.9691E-03  0.9691E-03
    -10.291  0.1013E-03  0.1013E-03  0.9741E-03  0.9741E-03
    -10.241  0.8562E-03  0.8562E-03  0.1017E-02  0.1017E-02
    -10.192  0.1931E-02  0.1931E-02  0.1112E-02  0.1112E-02
    -10.142  0.3053E-02  0.3053E-02  0.1263E-02  0.1263E-02
    -10.092  0.3833E-02  0.3833E-02  0.1453E-02  0.1453E-02
    -10.043  0.4035E-02  0.4035E-02  0.1653E-02  0.1653E-02
     -9.993  0.3787E-02  0.3787E-02  0.1841E-02  0.1841E-02
     -9.944  0.3488E-02  0.3488E-02  0.2014E-02  0.2014E-02
     -9.894  0.3460E-02  0.3460E-02  0.2185E-02  0.2185E-02
     -9.845  0.3672E-02  0.3672E-02  0.2367E-02  0.2367E-02
     -9.795  0.3806E-02  0.3806E-02  0.2556E-02  0.2556E-02
     -9.746  0.3616E-02  0.3616E-02  0.2735E-02  0.2735E-02
     -9.696  0.3205E-02  0.3205E-02  0.2894E-02  0.2894E-02
     -9.647  0.2943E-02  0.2943E-02  0.3039E-02  0.3039E-02
     -9.597  0.3122E-02  0.3122E-02  0.3194E-02  0.3194E-02
     -9.547  0.3708E-02  0.3708E-02  0.3378E-02  0.3378E-02
     -9.498  0.4407E-02  0.4407E-02  0.3596E-02  0.3596E-02
     -9.448  0.4928E-02  0.4928E-02  0.3840E-02  0.3840E-02
     -9.399  0.5126E-02  0.5126E-02  0.4094E-02  0.4094E-02
     -9.349  0.4942E-02  0.4942E-02  0.4339E-02  0.4339E-02
     -9.300  0.4335E-02  0.4335E-02  0.4554E-02  0.4554E-02
     -9.250  0.3378E-02  0.3378E-02  0.4721E-02  0.4721E-02
     -9.201  0.2440E-02  0.2440E-02  0.4842E-02  0.4842E-02
     -9.151  0.2164E-02  0.2164E-02  0.4949E-02  0.4949E-02
     -9.102  0.3130E-02  0.3130E-02  0.5104E-02  0.5104E-02
     -9.052  0.5384E-02  0.5384E-02  0.5371E-02  0.5371E-02
     -9.002  0.8225E-02  0.8225E-02  0.5779E-02  0.5779E-02
     -8.953  0.1048E-01  0.1048E-01  0.6298E-02  0.6298E-02
     -8.903  0.1119E-01  0.1119E-01  0.6852E-02  0.6852E-02
     -8.854  0.1016E-01  0.1016E-01  0.7356E-02  0.7356E-02
     -8.804  0.8099E-02  0.8099E-02  0.7757E-02  0.7757E-02
     -8.755  0.6127E-02  0.6127E-02  0.8060E-02  0.8060E-02
     -8.705  0.5091E-02  0.5091E-02  0.8313E-02  0.8313E-02
     -8.656  0.5213E-02  0.5213E-02  0.8571E-02  0.8571E-02
     -8.606  0.6169E-02  0.6169E-02  0.8877E-02  0.8877E-02
     -8.557  0.7404E-02  0.7404E-02  0.9243E-02  0.9243E-02
     -8.507  0.8397E-02  0.8397E-02  0.9659E-02  0.9659E-02
     -8.457  0.8804E-02  0.8804E-02  0.1010E-01  0.1010E-01
     -8.408  0.8528E-02  0.8528E-02  0.1052E-01  0.1052E-01
     -8.358  0.7742E-02  0.7742E-02  0.1090E-01  0.1090E-01
     -8.309  0.6810E-02  0.6810E-02  0.1124E-01  0.1124E-01
     -8.259  0.6147E-02  0.6147E-02  0.1154E-01  0.1154E-01
     -8.210  0.6040E-02  0.6040E-02  0.1184E-01  0.1184E-01
     -8.160  0.6528E-02  0.6528E-02  0.1217E-01  0.1217E-01
     -8.111  0.7353E-02  0.7353E-02  0.1253E-01  0.1253E-01
     -8.061  0.8096E-02  0.8096E-02  0.1293E-01  0.1293E-01
     -8.012  0.8468E-02  0.8468E-02  0.1335E-01  0.1335E-01
     -7.962  0.8543E-02  0.8543E-02  0.1377E-01  0.1377E-01
     -7.913  0.8686E-02  0.8686E-02  0.1420E-01  0.1420E-01
     -7.863  0.9257E-02  0.9257E-02  0.1466E-01  0.1466E-01
     -7.813  0.1038E-01  0.1038E-01  0.1518E-01  0.1518E-01
     -7.764  0.1193E-01  0.1193E-01  0.1577E-01  0.1577E-01
     -7.714  0.1359E-01  0.1359E-01  0.1644E-01  0.1644E-01
     -7.665  0.1488E-01  0.1488E-01  0.1718E-01  0.1718E-01
     -7.615  0.1526E-01  0.1526E-01  0.1794E-01  0.1794E-01
     -7.566  0.1451E-01  0.1451E-01  0.1865E-01  0.1865E-01
     -7.516  0.1302E-01  0.1302E-01  0.1930E-01  0.1930E-01
     -7.467  0.1178E-01  0.1178E-01  0.1988E-01  0.1988E-01
     -7.417  0.1173E-01  0.1173E-01  0.2047E-01  0.2047E-01
     -7.368  0.1304E-01  0.1304E-01  0.2111E-01  0.2111E-01
     -7.318  0.1489E-01  0.1489E-01  0.2185E-01  0.2185E-01
     -7.268  0.1606E-01  0.1606E-01  0.2264E-01  0.2264E-01
     -7.219  0.1566E-01  0.1566E-01  0.2342E-01  0.2342E-01
     -7.169  0.1376E-01  0.1376E-01  0.2410E-01  0.2410E-01
     -7.120  0.1118E-01  0.1118E-01  0.2466E-01  0.2466E-01
     -7.070  0.9010E-02  0.9010E-02  0.2510E-01  0.2510E-01
     -7.021  0.8075E-02  0.8075E-02  0.2550E-01  0.2550E-01
     -6.971  0.8670E-02  0.8670E-02  0.2593E-01  0.2593E-01
     -6.922  0.1057E-01  0.1057E-01  0.2646E-01  0.2646E-01
     -6.872  0.1323E-01  0.1323E-01  0.2711E-01  0.2711E-01
     -6.823  0.1602E-01  0.1602E-01  0.2791E-01  0.2791E-01
     -6.773  0.1847E-01  0.1847E-01  0.2882E-01  0.2882E-01
     -6.723  0.2018E-01  0.2018E-01  0.2982E-01  0.2982E-01
     -6.674  0.2083E-01  0.2083E-01  0.3085E-01  0.3085E-01
     -6.624  0.2019E-01  0.2019E-01  0.3185E-01  0.3185E-01
     -6.575  0.1834E-01  0.1834E-01  0.3276E-01  0.3276E-01
     -6.525  0.1584E-01  0.1584E-01  0.3355E-01  0.3355E-01
     -6.476  0.1354E-01  0.1354E-01  0.3422E-01  0.3422E-01
     -6.426  0.1208E-01  0.1208E-01  0.3481E-01  0.3481E-01
     -6.377  0.1167E-01  0.1167E-01  0.3539E-01  0.3539E-01
     -6.327  0.1202E-01  0.1202E-01  0.3599E-01  0.3599E-01
     -6.278  0.1266E-01  0.1266E-01  0.3662E-01  0.3662E-01
     -6.228  0.1314E-01  0.1314E-01  0.3727E-01  0.3727E-01
     -6.178  0.1321E-01  0.1321E-01  0.3792E-01  0.3792E-01
     -6.129  0.1290E-01  0.1290E-01  0.3856E-01  0.3856E-01
     -6.079  0.1257E-01  0.1257E-01  0.3918E-01  0.3918E-01
     -6.030  0.1262E-01  0.1262E-01  0.3981E-01  0.3981E-01
     -5.980  0.1314E-01  0.1314E-01  0.4046E-01  0.4046E-01
     -5.931  0.1362E-01  0.1362E-01  0.4113E-01  0.4113E-01
     -5.881  0.1321E-01  0.1321E-01  0.4179E-01  0.4179E-01
     -5.832  0.1136E-01  0.1136E-01  0.4235E-01  0.4235E-01
     -5.782  0.8269E-02  0.8269E-02  0.4276E-01  0.4276E-01
     -5.733  0.4805E-02  0.4805E-02  0.4300E-01  0.4300E-01
     -5.683  0.1924E-02  0.1924E-02  0.4309E-01  0.4309E-01
     -5.633  0.1342E-03  0.1342E-03  0.4310E-01  0.4310E-01
     -5.584 -0.6302E-03 -0.6302E-03  0.4307E-01  0.4307E-01
     -5.534 -0.7630E-03 -0.7630E-03  0.4303E-01  0.4303E-01
     -5.485 -0.6492E-03 -0.6492E-03  0.4300E-01  0.4300E-01
     -5.435 -0.4670E-03 -0.4670E-03  0.4298E-01  0.4298E-01
     -5.386 -0.1695E-03 -0.1695E-03  0.4297E-01  0.4297E-01
     -5.336  0.4055E-03  0.4055E-03  0.4299E-01  0.4299E-01
     -5.287  0.1358E-02  0.1358E-02  0.4306E-01  0.4306E-01
     -5.237  0.2567E-02  0.2567E-02  0.4318E-01  0.4318E-01
     -5.188  0.3659E-02  0.3659E-02  0.4336E-01  0.4336E-01
     -5.138  0.4185E-02  0.4185E-02  0.4357E-01  0.4357E-01
     -5.088  0.3903E-02  0.3903E-02  0.4377E-01  0.4377E-01
     -5.039  0.2947E-02  0.2947E-02  0.4391E-01  0.4391E-01
     -4.989  0.1733E-02  0.1733E-02  0.4400E-01  0.4400E-01
     -4.940  0.6944E-03  0.6944E-03  0.4403E-01  0.4403E-01
     -4.890  0.5705E-04  0.5705E-04  0.4403E-01  0.4403E-01
     -4.841 -0.1969E-03 -0.1969E-03  0.4402E-01  0.4402E-01
     -4.791 -0.2156E-03 -0.2156E-03  0.4401E-01  0.4401E-01
     -4.742 -0.1474E-03 -0.1474E-03  0.4401E-01  0.4401E-01
     -4.692 -0.7786E-04 -0.7786E-04  0.4400E-01  0.4400E-01
     -4.643 -0.3381E-04 -0.3381E-04  0.4400E-01  0.4400E-01
     -4.593 -0.1251E-04 -0.1251E-04  0.4400E-01  0.4400E-01
     -4.543 -0.4472E-05 -0.4472E-05  0.4400E-01  0.4400E-01
     -4.494 -0.3363E-05 -0.3363E-05  0.4400E-01  0.4400E-01
     -4.444 -0.8085E-05 -0.8085E-05  0.4400E-01  0.4400E-01
     -4.395 -0.2290E-04 -0.2290E-04  0.4400E-01  0.4400E-01
     -4.345 -0.5668E-04 -0.5668E-04  0.4400E-01  0.4400E-01
     -4.296 -0.1173E-03 -0.1173E-03  0.4399E-01  0.4399E-01
     -4.246 -0.1947E-03 -0.1947E-03  0.4398E-01  0.4398E-01
     -4.197 -0.2335E-03 -0.2335E-03  0.4397E-01  0.4397E-01
     -4.147 -0.1149E-03 -0.1149E-03  0.4396E-01  0.4396E-01
     -4.098  0.3111E-03  0.3111E-03  0.4398E-01  0.4398E-01
     -4.048  0.1124E-02  0.1124E-02  0.4403E-01  0.4403E-01
     -3.998  0.2213E-02  0.2213E-02  0.4414E-01  0.4414E-01
     -3.949  0.3268E-02  0.3268E-02  0.4431E-01  0.4431E-01
     -3.899  0.3955E-02  0.3955E-02  0.4450E-01  0.4450E-01
     -3.850  0.4166E-02  0.4166E-02  0.4471E-01  0.4471E-01
     -3.800  0.4138E-02  0.4138E-02  0.4491E-01  0.4491E-01
     -3.751  0.4296E-02  0.4296E-02  0.4513E-01  0.4513E-01
     -3.701  0.4961E-02  0.4961E-02  0.4537E-01  0.4537E-01
     -3.652  0.6151E-02  0.6151E-02  0.4568E-01  0.4568E-01
     -3.602  0.7579E-02  0.7579E-02  0.4605E-01  0.4605E-01
     -3.553  0.8760E-02  0.8760E-02  0.4649E-01  0.4649E-01
     -3.503  0.9178E-02  0.9178E-02  0.4694E-01  0.4694E-01
     -3.454  0.8498E-02  0.8498E-02  0.4736E-01  0.4736E-01
     -3.404  0.6777E-02  0.6777E-02  0.4770E-01  0.4770E-01
     -3.354  0.4489E-02  0.4489E-02  0.4792E-01  0.4792E-01
     -3.305  0.2293E-02  0.2293E-02  0.4803E-01  0.4803E-01
     -3.255  0.6966E-03  0.6966E-03  0.4807E-01  0.4807E-01
     -3.206 -0.1534E-03 -0.1534E-03  0.4806E-01  0.4806E-01
     -3.156 -0.4175E-03 -0.4175E-03  0.4804E-01  0.4804E-01
     -3.107 -0.3704E-03 -0.3704E-03  0.4802E-01  0.4802E-01
     -3.057 -0.2337E-03 -0.2337E-03  0.4801E-01  0.4801E-01
     -3.008 -0.1181E-03 -0.1181E-03  0.4800E-01  0.4800E-01
     -2.958 -0.4989E-04 -0.4989E-04  0.4800E-01  0.4800E-01
     -2.909 -0.1797E-04 -0.1797E-04  0.4800E-01  0.4800E-01
     -2.859 -0.5581E-05 -0.5581E-05  0.4800E-01  0.4800E-01
     -2.809 -0.1505E-05 -0.1505E-05  0.4800E-01  0.4800E-01
     -2.760 -0.3536E-06 -0.3536E-06  0.4800E-01  0.4800E-01
     -2.710 -0.7268E-07 -0.7268E-07  0.4800E-01  0.4800E-01
     -2.661 -0.1309E-07 -0.1309E-07  0.4800E-01  0.4800E-01
     -2.611 -0.2070E-08 -0.2070E-08  0.4800E-01  0.4800E-01
     -2.562 -0.2890E-09 -0.2890E-09  0.4800E-01  0.4800E-01
     -2.512 -0.4906E-10 -0.4906E-10  0.4800E-01  0.4800E-01
     -2.463 -0.1249E-09 -0.1249E-09  0.4800E-01  0.4800E-01
     -2.413 -0.9289E-09 -0.9289E-09  0.4800E-01  0.4800E-01
     -2.364 -0.6259E-08 -0.6259E-08  0.4800E-01  0.4800E-01
     -2.314 -0.3704E-07 -0.3704E-07  0.4800E-01  0.4800E-01
     -2.264 -0.1923E-06 -0.1923E-06  0.4800E-01  0.4800E-01
     -2.215 -0.8730E-06 -0.8730E-06  0.4800E-01  0.4800E-01
     -2.165 -0.3459E-05 -0.3459E-05  0.4800E-01  0.4800E-01
     -2.116 -0.1191E-04 -0.1191E-04  0.4800E-01  0.4800E-01
     -2.066 -0.3541E-04 -0.3541E-04  0.4800E-01  0.4800E-01
     -2.017 -0.9009E-04 -0.9009E-04  0.4799E-01  0.4799E-01
     -1.967 -0.1930E-03 -0.1930E-03  0.4798E-01  0.4798E-01
     -1.918 -0.3370E-03 -0.3370E-03  0.4797E-01  0.4797E-01
     -1.868 -0.4434E-03 -0.4434E-03  0.4794E-01  0.4794E-01
     -1.819 -0.3177E-03 -0.3177E-03  0.4793E-01  0.4793E-01
     -1.769  0.3266E-03  0.3266E-03  0.4795E-01  0.4795E-01
     -1.719  0.1719E-02  0.1719E-02  0.4803E-01  0.4803E-01
     -1.670  0.3807E-02  0.3807E-02  0.4822E-01  0.4822E-01
     -1.620  0.6135E-02  0.6135E-02  0.4852E-01  0.4852E-01
     -1.571  0.8014E-02  0.8014E-02  0.4892E-01  0.4892E-01
     -1.521  0.8923E-02  0.8923E-02  0.4936E-01  0.4936E-01
     -1.472  0.8838E-02  0.8838E-02  0.4980E-01  0.4980E-01
     -1.422  0.8185E-02  0.8185E-02  0.5021E-01  0.5021E-01
     -1.373  0.7478E-02  0.7478E-02  0.5058E-01  0.5058E-01
     -1.323  0.6948E-02  0.6948E-02  0.5092E-01  0.5092E-01
     -1.274  0.6454E-02  0.6454E-02  0.5124E-01  0.5124E-01
     -1.224  0.5696E-02  0.5696E-02  0.5152E-01  0.5152E-01
     -1.174  0.4504E-02  0.4504E-02  0.5175E-01  0.5175E-01
     -1.125  0.3010E-02  0.3010E-02  0.5189E-01  0.5189E-01
     -1.075  0.1611E-02  0.1611E-02  0.5197E-01  0.5197E-01
     -1.026  0.7649E-03  0.7649E-03  0.5201E-01  0.5201E-01
     -0.976  0.7503E-03  0.7503E-03  0.5205E-01  0.5205E-01
     -0.927  0.1503E-02  0.1503E-02  0.5212E-01  0.5212E-01
     -0.877  0.2628E-02  0.2628E-02  0.5225E-01  0.5225E-01
     -0.828  0.3610E-02  0.3610E-02  0.5243E-01  0.5243E-01
     -0.778  0.4110E-02  0.4110E-02  0.5264E-01  0.5264E-01
     -0.729  0.4156E-02  0.4156E-02  0.5284E-01  0.5284E-01
     -0.679  0.4045E-02  0.4045E-02  0.5304E-01  0.5304E-01
     -0.629  0.4044E-02  0.4044E-02  0.5324E-01  0.5324E-01
     -0.580  0.4185E-02  0.4185E-02  0.5345E-01  0.5345E-01
     -0.530  0.4339E-02  0.4339E-02  0.5367E-01  0.5367E-01
     -0.481  0.4430E-02  0.4430E-02  0.5388E-01  0.5388E-01
     -0.431  0.4494E-02  0.4494E-02  0.5411E-01  0.5411E-01
     -0.382  0.4531E-02  0.4531E-02  0.5433E-01  0.5433E-01
     -0.332  0.4380E-02  0.4380E-02  0.5455E-01  0.5455E-01
     -0.283  0.3818E-02  0.3818E-02  0.5474E-01  0.5474E-01
     -0.233  0.2809E-02  0.2809E-02  0.5488E-01  0.5488E-01
     -0.184  0.1635E-02  0.1635E-02  0.5496E-01  0.5496E-01
     -0.134  0.7640E-03  0.7640E-03  0.5500E-01  0.5500E-01
     -0.084  0.5917E-03  0.5916E-03  0.5503E-01  0.5503E-01
     -0.035  0.1217E-02  0.1217E-02  0.5509E-01  0.5509E-01
      0.015  0.2369E-02  0.2369E-02  0.5520E-01  0.5520E-01
      0.064  0.3511E-02  0.3511E-02  0.5538E-01  0.5538E-01
      0.114  0.4094E-02  0.4094E-02  0.5558E-01  0.5558E-01
      0.163  0.3844E-02  0.3844E-02  0.5577E-01  0.5577E-01
      0.213  0.2902E-02  0.2902E-02  0.5591E-01  0.5591E-01
      0.262  0.1698E-02  0.1698E-02  0.5600E-01  0.5600E-01
      0.312  0.6720E-03  0.6721E-03  0.5603E-01  0.5603E-01
      0.361  0.4631E-04  0.4634E-04  0.5603E-01  0.5603E-01
      0.411 -0.1995E-03 -0.1995E-03  0.5602E-01  0.5602E-01
      0.461 -0.2145E-03 -0.2145E-03  0.5601E-01  0.5601E-01
      0.510 -0.1455E-03 -0.1455E-03  0.5601E-01  0.5601E-01
      0.560 -0.7644E-04 -0.7645E-04  0.5600E-01  0.5600E-01
      0.609 -0.3302E-04 -0.3303E-04  0.5600E-01  0.5600E-01
      0.659 -0.1205E-04 -0.1205E-04  0.5600E-01  0.5600E-01
      0.708 -0.3765E-05 -0.3766E-05  0.5600E-01  0.5600E-01
      0.758 -0.1016E-05 -0.1017E-05  0.5600E-01  0.5600E-01
      0.807 -0.2383E-06 -0.2383E-06  0.5600E-01  0.5600E-01
      0.857 -0.4870E-07 -0.4870E-07  0.5600E-01  0.5600E-01
      0.906 -0.8700E-08 -0.8701E-08  0.5600E-01  0.5600E-01
      0.956 -0.1361E-08 -0.1362E-08  0.5600E-01  0.5600E-01
      1.005 -0.1869E-09 -0.1869E-09  0.5600E-01  0.5600E-01
      1.055 -0.2254E-10 -0.2254E-10  0.5600E-01  0.5600E-01
      1.105 -0.2390E-11 -0.2390E-11  0.5600E-01  0.5600E-01
      1.154 -0.2230E-12 -0.2230E-12  0.5600E-01  0.5600E-01
      1.204 -0.1831E-13 -0.1832E-13  0.5600E-01  0.5600E-01
      1.253 -0.1327E-14 -0.1327E-14  0.5600E-01  0.5600E-01
      1.303 -0.8515E-16 -0.8515E-16  0.5600E-01  0.5600E-01
      1.352 -0.4482E-17 -0.4482E-17  0.5600E-01  0.5600E-01
      1.402  0.0000E+00  0.0000E+00  0.5600E-01  0.5600E-01
      1.451  0.0000E+00  0.0000E+00  0.5600E-01  0.5600E-01
      1.501  0.0000E+00  0.0000E+00  0.5600E-01  0.5600E-01
      1.550  0.0000E+00  0.0000E+00  0.5600E-01  0.5600E-01
      1.600  0.0000E+00  0.0000E+00  0.5600E-01  0.5600E-01
      1.650  0.0000E+00  0.0000E+00  0.5600E-01  0.5600E-01
      1.699  0.0000E+00  0.0000E+00  0.5600E-01  0.5600E-01
      1.749  0.0000E+00  0.0000E+00  0.5600E-01  0.5600E-01
      1.798  0.0000E+00  0.0000E+00  0.5600E-01  0.5600E-01
      1.848  0.0000E+00  0.0000E+00  0.5600E-01  0.5600E-01
      1.897  0.0000E+00  0.0000E+00  0.5600E-01  0.5600E-01
      1.947  0.0000E+00  0.0000E+00  0.5600E-01  0.5600E-01
      1.996  0.0000E+00  0.0000E+00  0.5600E-01  0.5600E-01
      2.046  0.0000E+00  0.0000E+00  0.5600E-01  0.5600E-01
      2.095  0.0000E+00  0.0000E+00  0.5600E-01  0.5600E-01
