    8    8 1000    2
  0.1390437E+04  0.2161721E-08  0.2265703E-08  0.2271113E-08  0.5000000E-15
   1.0000000000000000E-004
  CAR 
 unknown system                          
     88      1     56
 
  0.1262379E-14  0.1262379E-14  0.1262379E-14  0.1000000E+01
    1      -10.767862    -10.767862   1.000000   1.000000
    2      -10.088870    -10.088870   1.000000   1.000000
    3       -9.809601     -9.809601   1.000000   1.000000
    4       -9.518304     -9.518304   1.000000   1.000000
    5       -9.315482     -9.315482   1.000000   1.000000
    6       -8.985710     -8.985710   1.000000   1.000000
    7       -8.945154     -8.945154   1.000000   1.000000
    8       -8.880006     -8.880006   1.000000   1.000000
    9       -8.656246     -8.656246   1.000000   1.000000
   10       -8.508523     -8.508523   1.000000   1.000000
   11       -8.431029     -8.431029   1.000000   1.000000
   12       -8.270832     -8.270832   1.000000   1.000000
   13       -8.083215     -8.083215   1.000000   1.000000
   14       -8.031921     -8.031921   1.000000   1.000000
   15       -7.849403     -7.849403   1.000000   1.000000
   16       -7.810900     -7.810900   1.000000   1.000000
   17       -7.670391     -7.670391   1.000000   1.000000
   18       -7.653262     -7.653262   1.000000   1.000000
   19       -7.582226     -7.582226   1.000000   1.000000
   20       -7.545588     -7.545588   1.000000   1.000000
   21       -7.373324     -7.373324   1.000000   1.000000
   22       -7.311577     -7.311577   1.000000   1.000000
   23       -7.291594     -7.291594   1.000000   1.000000
   24       -7.235743     -7.235743   1.000000   1.000000
   25       -7.157398     -7.157398   1.000000   1.000000
   26       -7.019681     -7.019681   1.000000   1.000000
   27       -6.880440     -6.880440   1.000000   1.000000
   28       -6.854895     -6.854895   1.000000   1.000000
   29       -6.797610     -6.797610   1.000000   1.000000
   30       -6.731120     -6.731120   1.000000   1.000000
   31       -6.667853     -6.667853   1.000000   1.000000
   32       -6.634874     -6.634874   1.000000   1.000000
   33       -6.629814     -6.629814   1.000000   1.000000
   34       -6.551437     -6.551437   1.000000   1.000000
   35       -6.433251     -6.433251   1.000000   1.000000
   36       -6.368251     -6.368251   1.000000   1.000000
   37       -6.281410     -6.281410   1.000000   1.000000
   38       -6.195243     -6.195243   1.000000   1.000000
   39       -6.156905     -6.156905   1.000000   1.000000
   40       -6.058741     -6.058741   1.000000   1.000000
   41       -5.924736     -5.924736   1.000000   1.000000
   42       -5.907126     -5.907126   1.000000   1.000000
   43       -5.863227     -5.863227   1.000000   1.000000
   44       -5.155024     -5.155024   1.000000   1.000000
   45       -3.911612     -3.911612  -0.000000  -0.000000
   46       -3.673463     -3.673463  -0.000000  -0.000000
   47       -3.526315     -3.526315  -0.000000  -0.000000
   48       -3.462837     -3.462837  -0.000000  -0.000000
   49       -1.588549     -1.588549  -0.000000  -0.000000
   50       -1.543559     -1.543559  -0.000000  -0.000000
   51       -1.375111     -1.375111  -0.000000  -0.000000
   52       -1.227533     -1.227533  -0.000000  -0.000000
   53       -0.818329     -0.818329  -0.000000  -0.000000
   54       -0.568239     -0.568239  -0.000000  -0.000000
   55       -0.336311     -0.336311  -0.000000  -0.000000
   56        0.095469      0.095473  -0.000000  -0.000000
