       N       E                     dE             d eps       ncg     rms          rms(c)
DAV:   1     0.750062957333E+03    0.75006E+03   -0.13262E+04   224   0.704E+02
DAV:   2     0.452039279028E+03   -0.29802E+03   -0.27770E+03   424   0.755E+01
DAV:   3     0.129089683124E+03   -0.32295E+03   -0.30099E+03   408   0.693E+01
DAV:   4     0.109938520062E+02   -0.11810E+03   -0.10931E+03   304   0.520E+01
DAV:   5    -0.121954309695E+02   -0.23189E+02   -0.20555E+02   320   0.203E+01    0.226E+01
DAV:   6    -0.490358339196E+01    0.72918E+01   -0.77056E+01   240   0.204E+01    0.158E+01
DAV:   7    -0.509972558170E+01   -0.19614E+00   -0.36282E+00   256   0.958E+00    0.705E+00
DAV:   8    -0.716820757656E+01   -0.20685E+01   -0.12154E+00   240   0.402E+00    0.205E+00
DAV:   9    -0.916218843981E+01   -0.19940E+01   -0.41768E-01   240   0.239E+00    0.156E+00
DAV:  10    -0.993198466010E+01   -0.76980E+00   -0.14184E-01   256   0.156E+00    0.132E+00
DAV:  11    -0.108295192060E+02   -0.89753E+00   -0.14151E-01   248   0.115E+00    0.120E+00
DAV:  12    -0.123754562424E+02   -0.15459E+01   -0.56600E-01   240   0.259E+00    0.782E-01
DAV:  13    -0.135165909661E+02   -0.11411E+01   -0.47555E-01   240   0.179E+00    0.535E-01
DAV:  14    -0.139757873130E+02   -0.45920E+00   -0.93876E-02   248   0.735E-01    0.409E-01
DAV:  15    -0.144890840665E+02   -0.51330E+00   -0.93519E-02   224   0.747E-01    0.302E-01
DAV:  16    -0.149822803820E+02   -0.49320E+00   -0.52609E-02   248   0.579E-01    0.164E-01
DAV:  17    -0.152045441578E+02   -0.22226E+00   -0.96266E-03   256   0.272E-01    0.115E-01
DAV:  18    -0.153954240767E+02   -0.19088E+00   -0.64376E-03   240   0.240E-01    0.624E-02
DAV:  19    -0.154536727907E+02   -0.58249E-01   -0.11694E-03   216   0.937E-02    0.390E-02
DAV:  20    -0.154736841644E+02   -0.20011E-01   -0.38087E-04   176   0.506E-02    0.219E-02
DAV:  21    -0.154876116258E+02   -0.13927E-01   -0.15516E-04   168   0.368E-02    0.134E-02
DAV:  22    -0.154935625610E+02   -0.59509E-02   -0.11026E-04   176   0.246E-02    0.787E-03
DAV:  23    -0.154961367165E+02   -0.25742E-02   -0.40465E-05   176   0.156E-02    0.620E-03
DAV:  24    -0.154973840361E+02   -0.12473E-02   -0.20204E-05   168   0.109E-02    0.392E-03
DAV:  25    -0.154985647213E+02   -0.11807E-02   -0.13706E-05   176   0.854E-03    0.258E-03
DAV:  26    -0.154994915628E+02   -0.92684E-03   -0.90395E-06   168   0.628E-03    0.143E-03
DAV:  27    -0.154997831376E+02   -0.29157E-03   -0.18822E-06   168   0.344E-03    0.827E-04
DAV:  28    -0.154999125660E+02   -0.12943E-03   -0.11054E-06   160   0.228E-03    0.479E-04
DAV:  29    -0.154999356195E+02   -0.23054E-04   -0.47066E-07   160   0.146E-03
   1 F= -.15499936E+02 E0= -.15512563E+02  d E =-.154999E+02  mag=    -0.0001
       N       E                     dE             d eps       ncg     rms          rms(c)
DAV:   1    -0.158307852065E+02   -0.33087E+00   -0.50158E+02   224   0.791E+01    0.516E+00
DAV:   2    -0.162821627893E+02   -0.45138E+00   -0.48167E+00   240   0.105E+01    0.351E+00
DAV:   3    -0.162565764103E+02    0.25586E-01   -0.31881E-01   240   0.224E+00    0.184E+00
DAV:   4    -0.162591696315E+02   -0.25932E-02   -0.32377E-02   240   0.101E+00    0.355E-01
DAV:   5    -0.162539728792E+02    0.51968E-02   -0.17186E-02   240   0.499E-01    0.141E-01
DAV:   6    -0.162537115069E+02    0.26137E-03   -0.33154E-03   240   0.176E-01    0.392E-02
DAV:   7    -0.162537917061E+02   -0.80199E-04   -0.73368E-05   160   0.409E-02
   2 F= -.16253792E+02 E0= -.16270357E+02  d E =-.753856E+00  mag=    -0.0000
       N       E                     dE             d eps       ncg     rms          rms(c)
DAV:   1    -0.162523210717E+02    0.13904E-02   -0.14416E+01   224   0.131E+01    0.729E-01
DAV:   2    -0.162668665254E+02   -0.14545E-01   -0.15826E-01   256   0.189E+00    0.432E-01
DAV:   3    -0.162660618043E+02    0.80472E-03   -0.92429E-03   240   0.391E-01    0.268E-01
DAV:   4    -0.162662203376E+02   -0.15853E-03   -0.14402E-03   256   0.169E-01    0.556E-02
DAV:   5    -0.162661084267E+02    0.11191E-03   -0.45226E-04   240   0.754E-02    0.219E-02
DAV:   6    -0.162661298398E+02   -0.21413E-04   -0.10297E-04   160   0.331E-02
   3 F= -.16266130E+02 E0= -.16282868E+02  d E =-.766194E+00  mag=    -0.0000
       N       E                     dE             d eps       ncg     rms          rms(c)
DAV:   1    -0.162914289859E+02   -0.25321E-01   -0.16237E+01   224   0.140E+01    0.408E-01
DAV:   2    -0.163082439572E+02   -0.16815E-01   -0.18144E-01   256   0.205E+00    0.290E-01
DAV:   3    -0.163074684119E+02    0.77555E-03   -0.60678E-03   240   0.350E-01    0.187E-01
DAV:   4    -0.163068916470E+02    0.57676E-03   -0.21416E-03   240   0.179E-01    0.725E-02
DAV:   5    -0.163068654362E+02    0.26211E-04   -0.24937E-04   176   0.717E-02
   4 F= -.16306865E+02 E0= -.16314999E+02  d E =-.407356E-01  mag=    -0.0000
       N       E                     dE             d eps       ncg     rms          rms(c)
DAV:   1    -0.162467517512E+02    0.60140E-01   -0.10699E+02   224   0.361E+01    0.108E+00
DAV:   2    -0.163582535486E+02   -0.11150E+00   -0.12019E+00   240   0.527E+00    0.797E-01
DAV:   3    -0.163543943636E+02    0.38592E-02   -0.38418E-02   240   0.896E-01    0.497E-01
DAV:   4    -0.163515602273E+02    0.28341E-02   -0.10971E-02   256   0.407E-01    0.207E-01
DAV:   5    -0.163518234784E+02   -0.26325E-03   -0.14464E-03   240   0.156E-01    0.794E-02
DAV:   6    -0.163517665970E+02    0.56881E-04   -0.66050E-04   240   0.891E-02
   5 F= -.16351767E+02 E0= -.16355835E+02  d E =-.856368E-01  mag=    -0.0000
       N       E                     dE             d eps       ncg     rms          rms(c)
DAV:   1    -0.163625815440E+02   -0.10758E-01   -0.21489E+01   224   0.161E+01    0.445E-01
DAV:   2    -0.163852478354E+02   -0.22666E-01   -0.24277E-01   224   0.236E+00    0.331E-01
DAV:   3    -0.163845972686E+02    0.65057E-03   -0.74036E-03   256   0.400E-01    0.212E-01
DAV:   4    -0.163841236046E+02    0.47366E-03   -0.19365E-03   224   0.162E-01    0.867E-02
DAV:   5    -0.163842453958E+02   -0.12179E-03   -0.30153E-04   176   0.707E-02    0.316E-02
DAV:   6    -0.163842654236E+02   -0.20028E-04   -0.93060E-05   144   0.367E-02
   6 F= -.16384265E+02 E0= -.16388206E+02  d E =-.324988E-01  mag=    -0.0000
       N       E                     dE             d eps       ncg     rms          rms(c)
DAV:   1    -0.163750147250E+02    0.92307E-02   -0.24739E+01   224   0.173E+01    0.511E-01
DAV:   2    -0.164010096030E+02   -0.25995E-01   -0.28023E-01   224   0.254E+00    0.379E-01
DAV:   3    -0.164002222810E+02    0.78732E-03   -0.87187E-03   256   0.434E-01    0.237E-01
DAV:   4    -0.163996577189E+02    0.56456E-03   -0.23494E-03   224   0.179E-01    0.938E-02
DAV:   5    -0.163997444696E+02   -0.86751E-04   -0.27658E-04   176   0.714E-02
   7 F= -.16399744E+02 E0= -.16403642E+02  d E =-.479779E-01  mag=    -0.0000
       N       E                     dE             d eps       ncg     rms          rms(c)
DAV:   1    -0.164046625902E+02   -0.50049E-02   -0.10278E+01   224   0.110E+01    0.312E-01
DAV:   2    -0.164153736450E+02   -0.10711E-01   -0.11556E-01   240   0.161E+00    0.204E-01
DAV:   3    -0.164150456866E+02    0.32796E-03   -0.35039E-03   256   0.271E-01    0.136E-01
DAV:   4    -0.164148640390E+02    0.18165E-03   -0.92361E-04   224   0.115E-01    0.490E-02
DAV:   5    -0.164149049291E+02   -0.40890E-04   -0.80170E-05   144   0.421E-02
   8 F= -.16414905E+02 E0= -.16418798E+02  d E =-.151605E-01  mag=    -0.0000
       N       E                     dE             d eps       ncg     rms          rms(c)
DAV:   1    -0.163933295368E+02    0.21535E-01   -0.32526E+01   224   0.195E+01    0.545E-01
DAV:   2    -0.164269620134E+02   -0.33632E-01   -0.36270E-01   240   0.284E+00    0.360E-01
DAV:   3    -0.164259204693E+02    0.10415E-02   -0.10881E-02   256   0.476E-01    0.241E-01
DAV:   4    -0.164252333820E+02    0.68709E-03   -0.29711E-03   224   0.205E-01    0.866E-02
DAV:   5    -0.164253020820E+02   -0.68700E-04   -0.28030E-04   192   0.747E-02
   9 F= -.16425302E+02 E0= -.16429189E+02  d E =-.255576E-01  mag=    -0.0000
       N       E                     dE             d eps       ncg     rms          rms(c)
DAV:   1    -0.164229553332E+02    0.22780E-02   -0.15700E+01   224   0.135E+01    0.291E-01
DAV:   2    -0.164396294629E+02   -0.16674E-01   -0.17257E-01   256   0.196E+00    0.221E-01
DAV:   3    -0.164391576586E+02    0.47180E-03   -0.47481E-03   240   0.311E-01    0.158E-01
DAV:   4    -0.164387185520E+02    0.43911E-03   -0.12887E-03   256   0.129E-01    0.634E-02
DAV:   5    -0.164387613266E+02   -0.42775E-04   -0.40645E-04   224   0.720E-02
  10 F= -.16438761E+02 E0= -.16442641E+02  d E =-.134592E-01  mag=    -0.0000
       N       E                     dE             d eps       ncg     rms          rms(c)
DAV:   1    -0.163157954591E+02    0.12292E+00   -0.13950E+02   224   0.405E+01    0.894E-01
DAV:   2    -0.164603568406E+02   -0.14456E+00   -0.14895E+00   240   0.578E+00    0.663E-01
DAV:   3    -0.164562548424E+02    0.41020E-02   -0.40940E-02   256   0.912E-01    0.469E-01
DAV:   4    -0.164521038752E+02    0.41510E-02   -0.12359E-02   256   0.403E-01    0.186E-01
DAV:   5    -0.164523011496E+02   -0.19727E-03   -0.28362E-03   240   0.197E-01    0.875E-02
DAV:   6    -0.164521665118E+02    0.13464E-03   -0.53663E-04   224   0.837E-02    0.408E-02
DAV:   7    -0.164521954712E+02   -0.28959E-04   -0.81271E-05   144   0.362E-02
  11 F= -.16452195E+02 E0= -.16456065E+02  d E =-.268934E-01  mag=    -0.0000
       N       E                     dE             d eps       ncg     rms          rms(c)
DAV:   1    -0.164466895988E+02    0.54769E-02   -0.61257E+00   224   0.846E+00    0.187E-01
DAV:   2    -0.164532133305E+02   -0.65237E-02   -0.67227E-02   256   0.123E+00    0.137E-01
DAV:   3    -0.164530358842E+02    0.17745E-03   -0.18807E-03   240   0.195E-01    0.983E-02
DAV:   4    -0.164528961832E+02    0.13970E-03   -0.54066E-04   256   0.826E-02    0.363E-02
DAV:   5    -0.164529256209E+02   -0.29438E-04   -0.10862E-04   144   0.399E-02
  12 F= -.16452926E+02 E0= -.16456796E+02  d E =-.276235E-01  mag=    -0.0000
       N       E                     dE             d eps       ncg     rms          rms(c)
DAV:   1    -0.164457322180E+02    0.71640E-02   -0.19097E+01   224   0.150E+01    0.287E-01
DAV:   2    -0.164661658276E+02   -0.20434E-01   -0.20979E-01   240   0.217E+00    0.221E-01
DAV:   3    -0.164655873623E+02    0.57847E-03   -0.56910E-03   256   0.341E-01    0.165E-01
DAV:   4    -0.164649800830E+02    0.60728E-03   -0.13195E-03   224   0.128E-01    0.675E-02
DAV:   5    -0.164649671213E+02    0.12962E-04   -0.61364E-04   240   0.827E-02
  13 F= -.16464967E+02 E0= -.16468837E+02  d E =-.120415E-01  mag=    -0.0000
       N       E                     dE             d eps       ncg     rms          rms(c)
DAV:   1    -0.163031007249E+02    0.16188E+00   -0.17342E+02   224   0.454E+01    0.102E+00
DAV:   2    -0.164857579347E+02   -0.18266E+00   -0.18824E+00   240   0.647E+00    0.656E-01
DAV:   3    -0.164802660661E+02    0.54919E-02   -0.52860E-02   256   0.102E+00    0.468E-01
DAV:   4    -0.164752781029E+02    0.49880E-02   -0.14187E-02   256   0.417E-01    0.157E-01
DAV:   5    -0.164753362792E+02   -0.58176E-04   -0.21630E-03   256   0.166E-01    0.671E-02
DAV:   6    -0.164753472769E+02   -0.10998E-04   -0.36268E-04   224   0.679E-02
  14 F= -.16475347E+02 E0= -.16479219E+02  d E =-.224217E-01  mag=    -0.0000
       N       E                     dE             d eps       ncg     rms          rms(c)
DAV:   1    -0.164630344729E+02    0.12302E-01   -0.13775E+01   224   0.127E+01    0.252E-01
DAV:   2    -0.164777509949E+02   -0.14717E-01   -0.15061E-01   256   0.183E+00    0.198E-01
DAV:   3    -0.164773719632E+02    0.37903E-03   -0.40646E-03   240   0.289E-01    0.148E-01
DAV:   4    -0.164769830369E+02    0.38893E-03   -0.11027E-03   240   0.117E-01    0.566E-02
DAV:   5    -0.164770244440E+02   -0.41407E-04   -0.37716E-04   224   0.658E-02
  15 F= -.16477024E+02 E0= -.16480895E+02  d E =-.240988E-01  mag=    -0.0000
       N       E                     dE             d eps       ncg     rms          rms(c)
DAV:   1    -0.164760919769E+02    0.89106E-03   -0.84353E+00   224   0.994E+00    0.218E-01
DAV:   2    -0.164850982666E+02   -0.90063E-02   -0.92841E-02   240   0.145E+00    0.178E-01
DAV:   3    -0.164847936733E+02    0.30459E-03   -0.25943E-03   256   0.230E-01    0.128E-01
DAV:   4    -0.164845043680E+02    0.28931E-03   -0.87934E-04   240   0.107E-01    0.486E-02
DAV:   5    -0.164845278811E+02   -0.23513E-04   -0.22470E-04   176   0.537E-02
  16 F= -.16484528E+02 E0= -.16488400E+02  d E =-.750344E-02  mag=    -0.0000
       N       E                     dE             d eps       ncg     rms          rms(c)
DAV:   1    -0.164166333271E+02    0.67871E-01   -0.76115E+01   224   0.301E+01    0.693E-01
DAV:   2    -0.164977238508E+02   -0.81091E-01   -0.83954E-01   240   0.432E+00    0.538E-01
DAV:   3    -0.164951064262E+02    0.26174E-02   -0.23685E-02   256   0.686E-01    0.376E-01
DAV:   4    -0.164925822797E+02    0.25241E-02   -0.79256E-03   256   0.321E-01    0.139E-01
DAV:   5    -0.164927475971E+02   -0.16532E-03   -0.16299E-03   256   0.140E-01    0.702E-02
DAV:   6    -0.164926513163E+02    0.96281E-04   -0.54998E-04   224   0.781E-02
  17 F= -.16492651E+02 E0= -.16496530E+02  d E =-.156269E-01  mag=    -0.0000
       N       E                     dE             d eps       ncg     rms          rms(c)
DAV:   1    -0.164894124908E+02    0.33351E-02   -0.34582E+00   224   0.636E+00    0.147E-01
DAV:   2    -0.164931289604E+02   -0.37165E-02   -0.38240E-02   256   0.924E-01    0.114E-01
DAV:   3    -0.164930219523E+02    0.10701E-03   -0.10839E-03   256   0.147E-01    0.795E-02
DAV:   4    -0.164929472462E+02    0.74706E-04   -0.34039E-04   224   0.672E-02
  18 F= -.16492947E+02 E0= -.16496824E+02  d E =-.159228E-01  mag=    -0.0000
       N       E                     dE             d eps       ncg     rms          rms(c)
DAV:   1    -0.164929714079E+02    0.50544E-04   -0.84648E+00   224   0.100E+01    0.233E-01
DAV:   2    -0.165019790643E+02   -0.90077E-02   -0.92029E-02   240   0.144E+00    0.195E-01
DAV:   3    -0.165016293643E+02    0.34970E-03   -0.25551E-03   256   0.225E-01    0.141E-01
DAV:   4    -0.165013184253E+02    0.31094E-03   -0.11962E-03   240   0.121E-01    0.465E-02
DAV:   5    -0.165013508016E+02   -0.32376E-04   -0.15192E-04   160   0.477E-02
  19 F= -.16501351E+02 E0= -.16505230E+02  d E =-.840356E-02  mag=    -0.0000
       N       E                     dE             d eps       ncg     rms          rms(c)
DAV:   1    -0.164342853455E+02    0.67033E-01   -0.76509E+01   224   0.302E+01    0.700E-01
DAV:   2    -0.165152623046E+02   -0.80977E-01   -0.82965E-01   240   0.431E+00    0.575E-01
DAV:   3    -0.165126155527E+02    0.26468E-02   -0.22850E-02   256   0.671E-01    0.414E-01
DAV:   4    -0.165099117839E+02    0.27038E-02   -0.95526E-03   224   0.342E-01    0.138E-01
DAV:   5    -0.165101552760E+02   -0.24349E-03   -0.15157E-03   256   0.135E-01    0.798E-02
DAV:   6    -0.165100110903E+02    0.14419E-03   -0.62162E-04   224   0.843E-02    0.235E-02
DAV:   7    -0.165100334751E+02   -0.22385E-04   -0.54764E-05   144   0.289E-02
  20 F= -.16510033E+02 E0= -.16513923E+02  d E =-.170862E-01  mag=    -0.0000
       N       E                     dE             d eps       ncg     rms          rms(c)
DAV:   1    -0.165011083640E+02    0.89027E-02   -0.17533E+01   224   0.145E+01    0.258E-01
DAV:   2    -0.165199633371E+02   -0.18855E-01   -0.19295E-01   256   0.210E+00    0.234E-01
DAV:   3    -0.165194756013E+02    0.48774E-03   -0.49415E-03   256   0.326E-01    0.174E-01
DAV:   4    -0.165188006864E+02    0.67491E-03   -0.12182E-03   240   0.126E-01    0.853E-02
DAV:   5    -0.165187775012E+02    0.23185E-04   -0.10098E-03   240   0.106E-01    0.371E-02
DAV:   6    -0.165187772119E+02    0.28925E-06   -0.59508E-05   144   0.307E-02
  21 F= -.16518777E+02 E0= -.16522659E+02  d E =-.874374E-02  mag=    -0.0000
       N       E                     dE             d eps       ncg     rms          rms(c)
DAV:   1    -0.163830301707E+02    0.13575E+00   -0.14330E+02   224   0.416E+01    0.780E-01
DAV:   2    -0.165350589810E+02   -0.15203E+00   -0.15534E+00   256   0.596E+00    0.654E-01
DAV:   3    -0.165310667114E+02    0.39923E-02   -0.40195E-02   256   0.922E-01    0.481E-01
DAV:   4    -0.165255375762E+02    0.55291E-02   -0.10925E-02   256   0.375E-01    0.212E-01
DAV:   5    -0.165252934284E+02    0.24415E-03   -0.55556E-03   256   0.249E-01    0.928E-02
DAV:   6    -0.165252665057E+02    0.26923E-04   -0.53579E-04   240   0.840E-02
  22 F= -.16525267E+02 E0= -.16529137E+02  d E =-.152330E-01  mag=    -0.0000
       N       E                     dE             d eps       ncg     rms          rms(c)
DAV:   1    -0.165139053420E+02    0.11388E-01   -0.12228E+01   224   0.121E+01    0.210E-01
DAV:   2    -0.165270335469E+02   -0.13128E-01   -0.13392E-01   256   0.175E+00    0.192E-01
DAV:   3    -0.165267462769E+02    0.28727E-03   -0.34264E-03   240   0.272E-01    0.144E-01
DAV:   4    -0.165263358042E+02    0.41047E-03   -0.79555E-04   240   0.103E-01    0.718E-02
DAV:   5    -0.165263503138E+02   -0.14510E-04   -0.72567E-04   240   0.903E-02
  23 F= -.16526350E+02 E0= -.16530223E+02  d E =-.163168E-01  mag=    -0.0000
       N       E                     dE             d eps       ncg     rms          rms(c)
DAV:   1    -0.165097458950E+02    0.16590E-01   -0.31549E+01   224   0.195E+01    0.434E-01
DAV:   2    -0.165432594214E+02   -0.33514E-01   -0.35016E-01   240   0.283E+00    0.356E-01
DAV:   3    -0.165422657838E+02    0.99364E-03   -0.94811E-03   256   0.451E-01    0.248E-01
DAV:   4    -0.165411200836E+02    0.11457E-02   -0.31290E-03   240   0.205E-01    0.100E-01
DAV:   5    -0.165411674856E+02   -0.47402E-04   -0.86638E-04   240   0.101E-01
  24 F= -.16541167E+02 E0= -.16545035E+02  d E =-.148172E-01  mag=    -0.0000
       N       E                     dE             d eps       ncg     rms          rms(c)
DAV:   1    -0.164979132065E+02    0.43207E-01   -0.45964E+01   224   0.235E+01    0.533E-01
DAV:   2    -0.165470611028E+02   -0.49148E-01   -0.51385E-01   256   0.343E+00    0.425E-01
DAV:   3    -0.165456488529E+02    0.14122E-02   -0.14011E-02   240   0.547E-01    0.293E-01
DAV:   4    -0.165440411112E+02    0.16077E-02   -0.43885E-03   256   0.244E-01    0.118E-01
DAV:   5    -0.165441231569E+02   -0.82046E-04   -0.11897E-03   240   0.119E-01    0.542E-02
DAV:   6    -0.165441026167E+02    0.20540E-04   -0.23288E-04   176   0.547E-02
  25 F= -.16544103E+02 E0= -.16547968E+02  d E =-.177523E-01  mag=    -0.0000
       N       E                     dE             d eps       ncg     rms          rms(c)
DAV:   1    -0.165409282644E+02    0.31949E-02   -0.39218E+00   224   0.686E+00    0.152E-01
DAV:   2    -0.165451404638E+02   -0.42122E-02   -0.43594E-02   256   0.998E-01    0.123E-01
DAV:   3    -0.165450443088E+02    0.96155E-04   -0.11830E-03   256   0.159E-01    0.853E-02
DAV:   4    -0.165449528539E+02    0.91455E-04   -0.35967E-04   224   0.704E-02
  26 F= -.16544953E+02 E0= -.16548819E+02  d E =-.186025E-01  mag=    -0.0000
       N       E                     dE             d eps       ncg     rms          rms(c)
DAV:   1    -0.165391842754E+02    0.58600E-02   -0.16226E+01   224   0.140E+01    0.259E-01
DAV:   2    -0.165565923916E+02   -0.17408E-01   -0.17802E-01   256   0.203E+00    0.237E-01
DAV:   3    -0.165560988974E+02    0.49349E-03   -0.46315E-03   240   0.316E-01    0.179E-01
DAV:   4    -0.165554062254E+02    0.69267E-03   -0.14120E-03   240   0.133E-01    0.793E-02
DAV:   5    -0.165553947923E+02    0.11433E-04   -0.81866E-04   256   0.958E-02
  27 F= -.16555395E+02 E0= -.16559260E+02  d E =-.104419E-01  mag=    -0.0000
       N       E                     dE             d eps       ncg     rms          rms(c)
DAV:   1    -0.164210524678E+02    0.13435E+00   -0.14706E+02   224   0.423E+01    0.817E-01
DAV:   2    -0.165774568751E+02   -0.15640E+00   -0.15986E+00   256   0.605E+00    0.700E-01
DAV:   3    -0.165734072993E+02    0.40496E-02   -0.41797E-02   240   0.941E-01    0.515E-01
DAV:   4    -0.165675334092E+02    0.58739E-02   -0.12486E-02   256   0.397E-01    0.222E-01
DAV:   5    -0.165674039884E+02    0.12942E-03   -0.53736E-03   256   0.246E-01    0.104E-01
DAV:   6    -0.165673522953E+02    0.51693E-04   -0.64993E-04   240   0.916E-02
  28 F= -.16567352E+02 E0= -.16571218E+02  d E =-.223994E-01  mag=    -0.0000
       N       E                     dE             d eps       ncg     rms          rms(c)
DAV:   1    -0.165527841866E+02    0.14620E-01   -0.26681E+01   224   0.179E+01    0.300E-01
DAV:   2    -0.165812183526E+02   -0.28434E-01   -0.28974E-01   240   0.258E+00    0.287E-01
DAV:   3    -0.165804866871E+02    0.73167E-03   -0.73422E-03   256   0.399E-01    0.219E-01
DAV:   4    -0.165793569305E+02    0.11298E-02   -0.18458E-03   240   0.154E-01    0.109E-01
DAV:   5    -0.165792823937E+02    0.74537E-04   -0.17902E-03   240   0.141E-01    0.489E-02
DAV:   6    -0.165793097436E+02   -0.27350E-04   -0.93687E-05   144   0.387E-02
  29 F= -.16579310E+02 E0= -.16583176E+02  d E =-.119574E-01  mag=    -0.0000
       N       E                     dE             d eps       ncg     rms          rms(c)
DAV:   1    -0.163649564493E+02    0.21433E+00   -0.24372E+02   224   0.546E+01    0.937E-01
DAV:   2    -0.166169048850E+02   -0.25195E+00   -0.25611E+00   240   0.767E+00    0.872E-01
DAV:   3    -0.166105207702E+02    0.63841E-02   -0.64688E-02   256   0.117E+00    0.658E-01
DAV:   4    -0.166000550850E+02    0.10466E-01   -0.18163E-02   256   0.478E-01    0.321E-01
DAV:   5    -0.165990497311E+02    0.10054E-02   -0.11602E-02   256   0.361E-01    0.141E-01
DAV:   6    -0.165990981601E+02   -0.48429E-04   -0.59693E-04   256   0.938E-02
  30 F= -.16599098E+02 E0= -.16602965E+02  d E =-.317459E-01  mag=    -0.0000
       N       E                     dE             d eps       ncg     rms          rms(c)
DAV:   1    -0.165858495594E+02    0.13200E-01   -0.14583E+01   224   0.132E+01    0.227E-01
DAV:   2    -0.166014619045E+02   -0.15612E-01   -0.15850E-01   240   0.191E+00    0.211E-01
DAV:   3    -0.166010320027E+02    0.42990E-03   -0.40089E-03   256   0.295E-01    0.162E-01
DAV:   4    -0.166004363807E+02    0.59562E-03   -0.11852E-03   240   0.122E-01    0.732E-02
DAV:   5    -0.166004768859E+02   -0.40505E-04   -0.88563E-04   256   0.986E-02
  31 F= -.16600477E+02 E0= -.16604344E+02  d E =-.331246E-01  mag=    -0.0000
       N       E                     dE             d eps       ncg     rms          rms(c)
DAV:   1    -0.165787786225E+02    0.21658E-01   -0.40227E+01   224   0.219E+01    0.430E-01
DAV:   2    -0.166212804051E+02   -0.42502E-01   -0.43645E-01   240   0.317E+00    0.350E-01
DAV:   3    -0.166199708387E+02    0.13096E-02   -0.11370E-02   256   0.500E-01    0.254E-01
DAV:   4    -0.166184041184E+02    0.15667E-02   -0.32518E-03   256   0.202E-01    0.108E-01
DAV:   5    -0.166184052050E+02   -0.10866E-05   -0.16351E-03   256   0.134E-01    0.486E-02
DAV:   6    -0.166184219694E+02   -0.16764E-04   -0.15214E-04   176   0.458E-02
  32 F= -.16618422E+02 E0= -.16622289E+02  d E =-.179451E-01  mag=    -0.0000
       N       E                     dE             d eps       ncg     rms          rms(c)
DAV:   1    -0.163022686127E+02    0.31614E+00   -0.37050E+02   224   0.676E+01    0.149E+00
DAV:   2    -0.166797404380E+02   -0.37747E+00   -0.38775E+00   240   0.937E+00    0.103E+00
DAV:   3    -0.166670864195E+02    0.12654E-01   -0.10276E-01   256   0.147E+00    0.715E-01
DAV:   4    -0.166535228558E+02    0.13564E-01   -0.33023E-02   256   0.635E-01    0.260E-01
DAV:   5    -0.166533119038E+02    0.21095E-03   -0.62694E-03   256   0.269E-01    0.116E-01
DAV:   6    -0.166534479121E+02   -0.13601E-03   -0.66458E-04   256   0.916E-02    0.352E-02
DAV:   7    -0.166535641839E+02   -0.11627E-03   -0.22748E-05   176   0.238E-02    0.129E-02
DAV:   8    -0.166536646140E+02   -0.10043E-03   -0.13811E-05   176   0.129E-02    0.485E-03
DAV:   9    -0.166537709210E+02   -0.10631E-03   -0.96895E-06   176   0.822E-03    0.242E-03
DAV:  10    -0.166538330377E+02   -0.62117E-04   -0.55182E-06   160   0.544E-03
  33 F= -.16653833E+02 E0= -.16657700E+02  d E =-.533562E-01  mag=    -0.0000
       N       E                     dE             d eps       ncg     rms          rms(c)
DAV:   1    -0.152325510584E+02    0.14212E+01   -0.15825E+03   224   0.145E+02    0.454E+00
DAV:   2    -0.167409128938E+02   -0.15084E+01   -0.15394E+01   256   0.185E+01    0.233E+00
DAV:   3    -0.167028988501E+02    0.38014E-01   -0.39318E-01   256   0.288E+00    0.150E+00
DAV:   4    -0.166643490937E+02    0.38550E-01   -0.75689E-02   256   0.987E-01    0.798E-01
DAV:   5    -0.166601990765E+02    0.41500E-02   -0.25760E-02   224   0.549E-01    0.291E-01
DAV:   6    -0.166606917244E+02   -0.49265E-03   -0.11142E-03   240   0.138E-01    0.113E-01
DAV:   7    -0.166609257643E+02   -0.23404E-03   -0.74141E-05   160   0.429E-02    0.441E-02
DAV:   8    -0.166611095937E+02   -0.18383E-03   -0.28255E-05   144   0.193E-02    0.162E-02
DAV:   9    -0.166612479262E+02   -0.13833E-03   -0.12432E-05   160   0.102E-02    0.638E-03
DAV:  10    -0.166613887695E+02   -0.14084E-03   -0.14277E-05   144   0.854E-03    0.347E-03
DAV:  11    -0.166615365091E+02   -0.14774E-03   -0.16858E-05   144   0.821E-03    0.170E-03
DAV:  12    -0.166615913715E+02   -0.54862E-04   -0.70956E-06   160   0.583E-03
  34 F= -.16661591E+02 E0= -.16665458E+02  d E =-.611145E-01  mag=    -0.0000
       N       E                     dE             d eps       ncg     rms          rms(c)
DAV:   1    -0.164117837593E+02    0.24975E+00   -0.26715E+02   224   0.570E+01    0.956E-01
DAV:   2    -0.166875031970E+02   -0.27572E+00   -0.27960E+00   240   0.802E+00    0.934E-01
DAV:   3    -0.166810794970E+02    0.64237E-02   -0.69756E-02   240   0.123E+00    0.707E-01
DAV:   4    -0.166695328926E+02    0.11547E-01   -0.18112E-02   224   0.488E-01    0.366E-01
DAV:   5    -0.166679073861E+02    0.16255E-02   -0.13866E-02   240   0.389E-01    0.158E-01
DAV:   6    -0.166679550033E+02   -0.47617E-04   -0.48018E-04   224   0.881E-02
  35 F= -.16667955E+02 E0= -.16671822E+02  d E =-.674781E-01  mag=     0.0000
       N       E                     dE             d eps       ncg     rms          rms(c)
DAV:   1    -0.166693519724E+02   -0.14446E-02   -0.62212E+00   224   0.858E+00    0.132E-01
DAV:   2    -0.166759096047E+02   -0.65576E-02   -0.65822E-02   240   0.123E+00    0.132E-01
DAV:   3    -0.166757569884E+02    0.15262E-03   -0.16337E-03   240   0.189E-01    0.105E-01
DAV:   4    -0.166755183418E+02    0.23865E-03   -0.39645E-04   208   0.719E-02    0.521E-02
DAV:   5    -0.166755169682E+02    0.13736E-05   -0.45100E-04   224   0.709E-02
  36 F= -.16675517E+02 E0= -.16679384E+02  d E =-.756196E-02  mag=     0.0000
       N       E                     dE             d eps       ncg     rms          rms(c)
DAV:   1    -0.166418224024E+02    0.33696E-01   -0.56109E+01   224   0.258E+01    0.425E-01
DAV:   2    -0.167008001101E+02   -0.58978E-01   -0.59632E-01   224   0.369E+00    0.398E-01
DAV:   3    -0.166992733863E+02    0.15267E-02   -0.15018E-02   240   0.568E-01    0.307E-01
DAV:   4    -0.166968601768E+02    0.24132E-02   -0.40111E-03   224   0.225E-01    0.143E-01
DAV:   5    -0.166966075169E+02    0.25266E-03   -0.30333E-03   224   0.181E-01    0.633E-02
DAV:   6    -0.166965994801E+02    0.80369E-05   -0.16895E-04   144   0.525E-02
  37 F= -.16696599E+02 E0= -.16700466E+02  d E =-.286445E-01  mag=     0.0000
       N       E                     dE             d eps       ncg     rms          rms(c)
DAV:   1    -0.165120061377E+02    0.18460E+00   -0.22756E+02   224   0.523E+01    0.939E-01
DAV:   2    -0.167457485079E+02   -0.23374E+00   -0.23732E+00   240   0.733E+00    0.821E-01
DAV:   3    -0.167395295219E+02    0.62190E-02   -0.60366E-02   240   0.113E+00    0.615E-01
DAV:   4    -0.167302119382E+02    0.93176E-02   -0.17729E-02   256   0.468E-01    0.277E-01
DAV:   5    -0.167295637494E+02    0.64819E-03   -0.83140E-03   224   0.301E-01    0.124E-01
DAV:   6    -0.167295774790E+02   -0.13730E-04   -0.66180E-04   240   0.959E-02
  38 F= -.16729577E+02 E0= -.16733443E+02  d E =-.616225E-01  mag=    -0.0000
       N       E                     dE             d eps       ncg     rms          rms(c)
DAV:   1    -0.158397888321E+02    0.88977E+00   -0.95597E+02   224   0.110E+02    0.264E+00
DAV:   2    -0.167524697865E+02   -0.91268E+00   -0.93402E+00   240   0.146E+01    0.186E+00
DAV:   3    -0.167308460844E+02    0.21624E-01   -0.24115E-01   240   0.225E+00    0.128E+00
DAV:   4    -0.167022036162E+02    0.28642E-01   -0.76702E-02   256   0.987E-01    0.572E-01
DAV:   5    -0.167020572446E+02    0.14637E-03   -0.12149E-02   224   0.390E-01    0.263E-01
DAV:   6    -0.167020332546E+02    0.23990E-04   -0.17404E-03   256   0.152E-01    0.102E-01
DAV:   7    -0.167021729582E+02   -0.13970E-03   -0.11099E-04   144   0.578E-02    0.433E-02
DAV:   8    -0.167023053169E+02   -0.13236E-03   -0.30670E-05   176   0.254E-02    0.148E-02
DAV:   9    -0.167024255508E+02   -0.12023E-03   -0.16368E-05   144   0.163E-02    0.500E-03
DAV:  10    -0.167025045688E+02   -0.79018E-04   -0.98919E-06   160   0.138E-02
  39 F= -.16702505E+02 E0= -.16706370E+02  d E =-.345496E-01  mag=     0.0000
       N       E                     dE             d eps       ncg     rms          rms(c)
DAV:   1    -0.162207701941E+02    0.48166E+00   -0.54309E+02   224   0.820E+01    0.195E+00
DAV:   2    -0.167703426757E+02   -0.54957E+00   -0.56567E+00   240   0.113E+01    0.135E+00
DAV:   3    -0.167556200666E+02    0.14723E-01   -0.15034E-01   240   0.176E+00    0.934E-01
DAV:   4    -0.167380114711E+02    0.17609E-01   -0.51741E-02   224   0.816E-01    0.339E-01
DAV:   5    -0.167382959889E+02   -0.28452E-03   -0.65188E-03   256   0.291E-01    0.167E-01
DAV:   6    -0.167381642370E+02    0.13175E-03   -0.11092E-03   224   0.118E-01    0.634E-02
DAV:   7    -0.167382228087E+02   -0.58572E-04   -0.13813E-04   160   0.574E-02
  40 F= -.16738223E+02 E0= -.16742089E+02  d E =-.702678E-01  mag=    -0.0000
       N       E                     dE             d eps       ncg     rms          rms(c)
DAV:   1    -0.167531091664E+02   -0.14945E-01   -0.52072E+00   224   0.786E+00    0.188E-01
DAV:   2    -0.167585708449E+02   -0.54617E-02   -0.57315E-02   224   0.115E+00    0.144E-01
DAV:   3    -0.167584356845E+02    0.13516E-03   -0.16484E-03   240   0.190E-01    0.980E-02
DAV:   4    -0.167583216233E+02    0.11406E-03   -0.48159E-04   224   0.816E-02    0.391E-02
DAV:   5    -0.167583512803E+02   -0.29657E-04   -0.10546E-04   144   0.441E-02
  41 F= -.16758351E+02 E0= -.16762217E+02  d E =-.201285E-01  mag=     0.0000
       N       E                     dE             d eps       ncg     rms          rms(c)
DAV:   1    -0.167604808765E+02   -0.21593E-02   -0.47014E+01   224   0.236E+01    0.544E-01
DAV:   2    -0.168092725308E+02   -0.48792E-01   -0.51501E-01   224   0.344E+00    0.433E-01
DAV:   3    -0.168079438642E+02    0.13287E-02   -0.14660E-02   224   0.564E-01    0.296E-01
DAV:   4    -0.168064568983E+02    0.14870E-02   -0.40610E-03   240   0.234E-01    0.127E-01
DAV:   5    -0.168065256926E+02   -0.68794E-04   -0.12493E-03   256   0.124E-01    0.572E-02
DAV:   6    -0.168064625032E+02    0.63189E-04   -0.30574E-04   208   0.652E-02
  42 F= -.16806463E+02 E0= -.16810328E+02  d E =-.682397E-01  mag=     0.0000
       N       E                     dE             d eps       ncg     rms          rms(c)
DAV:   1    -0.166612381278E+02    0.14529E+00   -0.19009E+02   224   0.477E+01    0.107E+00
DAV:   2    -0.168547212786E+02   -0.19348E+00   -0.20562E+00   224   0.686E+00    0.865E-01
DAV:   3    -0.168501150721E+02    0.46062E-02   -0.58721E-02   224   0.113E+00    0.589E-01
DAV:   4    -0.168441490359E+02    0.59660E-02   -0.14278E-02   224   0.444E-01    0.274E-01
DAV:   5    -0.168442321391E+02   -0.83103E-04   -0.54236E-03   256   0.255E-01    0.115E-01
DAV:   6    -0.168440249442E+02    0.20719E-03   -0.11830E-03   240   0.119E-01    0.380E-02
DAV:   7    -0.168440575643E+02   -0.32620E-04   -0.42438E-05   160   0.384E-02
  43 F= -.16844058E+02 E0= -.16847923E+02  d E =-.105835E+00  mag=    -0.0000
       N       E                     dE             d eps       ncg     rms          rms(c)
DAV:   1    -0.168536345311E+02   -0.96096E-02   -0.71942E+00   224   0.924E+00    0.304E-01
DAV:   2    -0.168612235547E+02   -0.75890E-02   -0.81530E-02   240   0.135E+00    0.190E-01
DAV:   3    -0.168609666965E+02    0.25686E-03   -0.27085E-03   224   0.233E-01    0.128E-01
DAV:   4    -0.168609008270E+02    0.65870E-04   -0.82448E-04   240   0.106E-01
  44 F= -.16860901E+02 E0= -.16864766E+02  d E =-.168433E-01  mag=    -0.0000
       N       E                     dE             d eps       ncg     rms          rms(c)
DAV:   1    -0.168115351193E+02    0.49432E-01   -0.64951E+01   224   0.278E+01    0.102E+00
DAV:   2    -0.168803659754E+02   -0.68831E-01   -0.74475E-01   224   0.407E+00    0.591E-01
DAV:   3    -0.168780353415E+02    0.23306E-02   -0.25777E-02   224   0.715E-01    0.387E-01
DAV:   4    -0.168773580698E+02    0.67727E-03   -0.67938E-03   256   0.303E-01    0.956E-02
DAV:   5    -0.168773087925E+02    0.49277E-04   -0.28687E-04   176   0.839E-02
  45 F= -.16877309E+02 E0= -.16881174E+02  d E =-.332512E-01  mag=     0.0000
       N       E                     dE             d eps       ncg     rms          rms(c)
DAV:   1    -0.168803079184E+02   -0.29498E-02   -0.86611E+00   224   0.101E+01    0.228E-01
DAV:   2    -0.168896350348E+02   -0.93271E-02   -0.98377E-02   240   0.149E+00    0.176E-01
DAV:   3    -0.168893971260E+02    0.23791E-03   -0.28092E-03   240   0.242E-01    0.121E-01
DAV:   4    -0.168891754507E+02    0.22168E-03   -0.61640E-04   240   0.934E-02    0.527E-02
DAV:   5    -0.168892058370E+02   -0.30386E-04   -0.24856E-04   192   0.597E-02
  46 F= -.16889206E+02 E0= -.16893071E+02  d E =-.118970E-01  mag=    -0.0000
       N       E                     dE             d eps       ncg     rms          rms(c)
DAV:   1    -0.168351153013E+02    0.54060E-01   -0.63393E+01   224   0.275E+01    0.650E-01
DAV:   2    -0.169027495704E+02   -0.67634E-01   -0.71496E-01   240   0.403E+00    0.484E-01
DAV:   3    -0.169009614692E+02    0.17881E-02   -0.20730E-02   240   0.656E-01    0.327E-01
DAV:   4    -0.168991850098E+02    0.17765E-02   -0.48124E-03   224   0.259E-01    0.134E-01
DAV:   5    -0.168992648986E+02   -0.79889E-04   -0.14524E-03   240   0.139E-01    0.569E-02
DAV:   6    -0.168992116614E+02    0.53237E-04   -0.31389E-04   224   0.648E-02
  47 F= -.16899212E+02 E0= -.16903077E+02  d E =-.219029E-01  mag=    -0.0000
       N       E                     dE             d eps       ncg     rms          rms(c)
DAV:   1    -0.168964576210E+02    0.28073E-02   -0.34798E+00   224   0.644E+00    0.147E-01
DAV:   2    -0.169001827718E+02   -0.37252E-02   -0.38890E-02   240   0.941E-01    0.114E-01
DAV:   3    -0.169000997794E+02    0.82992E-04   -0.11134E-03   256   0.152E-01    0.790E-02
DAV:   4    -0.169000311481E+02    0.68631E-04   -0.25449E-04   160   0.617E-02
  48 F= -.16900031E+02 E0= -.16903897E+02  d E =-.227224E-01  mag=     0.0000
       N       E                     dE             d eps       ncg     rms          rms(c)
DAV:   1    -0.169065440148E+02   -0.64442E-02   -0.58539E+00   224   0.837E+00    0.411E-01
DAV:   2    -0.169126311730E+02   -0.60872E-02   -0.64717E-02   256   0.121E+00    0.249E-01
DAV:   3    -0.169123051258E+02    0.32605E-03   -0.29847E-03   240   0.227E-01    0.148E-01
DAV:   4    -0.169123158210E+02   -0.10695E-04   -0.68212E-04   256   0.993E-02
  49 F= -.16912316E+02 E0= -.16916181E+02  d E =-.122847E-01  mag=     0.0000
       N       E                     dE             d eps       ncg     rms          rms(c)
DAV:   1    -0.169078145219E+02    0.44906E-02   -0.95685E+00   224   0.107E+01    0.502E-01
DAV:   2    -0.169178346854E+02   -0.10020E-01   -0.10770E-01   240   0.155E+00    0.300E-01
DAV:   3    -0.169173832476E+02    0.45144E-03   -0.45924E-03   240   0.286E-01    0.185E-01
DAV:   4    -0.169173770916E+02    0.61560E-05   -0.10434E-03   256   0.123E-01    0.366E-02
DAV:   5    -0.169173251502E+02    0.51941E-04   -0.14713E-04   144   0.465E-02
  50 F= -.16917325E+02 E0= -.16921190E+02  d E =-.172940E-01  mag=     0.0000
       N       E                     dE             d eps       ncg     rms          rms(c)
DAV:   1    -0.169188185221E+02   -0.14414E-02   -0.37055E+00   224   0.665E+00    0.145E-01
DAV:   2    -0.169227648492E+02   -0.39463E-02   -0.41889E-02   240   0.976E-01    0.109E-01
DAV:   3    -0.169226542332E+02    0.11062E-03   -0.11898E-03   256   0.158E-01    0.758E-02
DAV:   4    -0.169225504259E+02    0.10381E-03   -0.24525E-04   128   0.605E-02    0.337E-02
DAV:   5    -0.169225610685E+02   -0.10643E-04   -0.15957E-04   160   0.507E-02
  51 F= -.16922561E+02 E0= -.16926426E+02  d E =-.523592E-02  mag=    -0.0000
       N       E                     dE             d eps       ncg     rms          rms(c)
DAV:   1    -0.168935962856E+02    0.28954E-01   -0.33406E+01   224   0.200E+01    0.439E-01
DAV:   2    -0.169290451557E+02   -0.35449E-01   -0.37690E-01   240   0.292E+00    0.326E-01
DAV:   3    -0.169281067555E+02    0.93840E-03   -0.10795E-02   256   0.474E-01    0.225E-01
DAV:   4    -0.169271458574E+02    0.96090E-03   -0.24138E-03   224   0.180E-01    0.959E-02
DAV:   5    -0.169271722521E+02   -0.26395E-04   -0.88373E-04   256   0.104E-01
  52 F= -.16927172E+02 E0= -.16931038E+02  d E =-.984710E-02  mag=    -0.0000
       N       E                     dE             d eps       ncg     rms          rms(c)
DAV:   1    -0.169266804793E+02    0.46538E-03   -0.35823E+00   224   0.653E+00    0.190E-01
DAV:   2    -0.169305429730E+02   -0.38625E-02   -0.40488E-02   256   0.961E-01    0.128E-01
DAV:   3    -0.169304022580E+02    0.14071E-03   -0.12695E-03   256   0.159E-01    0.858E-02
DAV:   4    -0.169303392852E+02    0.62973E-04   -0.43527E-04   224   0.763E-02
  53 F= -.16930339E+02 E0= -.16934205E+02  d E =-.316703E-02  mag=     0.0000
       N       E                     dE             d eps       ncg     rms          rms(c)
DAV:   1    -0.169270639883E+02    0.33383E-02   -0.42503E+00   224   0.712E+00    0.210E-01
DAV:   2    -0.169316109107E+02   -0.45469E-02   -0.47925E-02   240   0.104E+00    0.138E-01
DAV:   3    -0.169314530307E+02    0.15788E-03   -0.15006E-03   256   0.173E-01    0.925E-02
DAV:   4    -0.169313789806E+02    0.74050E-04   -0.49900E-04   224   0.812E-02
  54 F= -.16931379E+02 E0= -.16935244E+02  d E =-.420673E-02  mag=     0.0000
       N       E                     dE             d eps       ncg     rms          rms(c)
DAV:   1    -0.169325097102E+02   -0.10567E-02   -0.63689E-01   224   0.276E+00    0.885E-02
DAV:   2    -0.169331895062E+02   -0.67980E-03   -0.75179E-03   240   0.411E-01    0.611E-02
DAV:   3    -0.169331737918E+02    0.15714E-04   -0.22996E-04   176   0.702E-02
  55 F= -.16933174E+02 E0= -.16937039E+02  d E =-.179481E-02  mag=     0.0000
       N       E                     dE             d eps       ncg     rms          rms(c)
DAV:   1    -0.169336566660E+02   -0.46716E-03   -0.73897E-01   224   0.298E+00    0.103E-01
DAV:   2    -0.169344213665E+02   -0.76470E-03   -0.86126E-03   256   0.439E-01    0.704E-02
DAV:   3    -0.169343983452E+02    0.23021E-04   -0.27548E-04   192   0.753E-02
  56 F= -.16934398E+02 E0= -.16938264E+02  d E =-.301936E-02  mag=     0.0000
       N       E                     dE             d eps       ncg     rms          rms(c)
DAV:   1    -0.169348710407E+02   -0.44967E-03   -0.32011E-01   224   0.195E+00    0.695E-02
DAV:   2    -0.169352056435E+02   -0.33460E-03   -0.37216E-03   240   0.288E-01    0.474E-02
DAV:   3    -0.169351958219E+02    0.98216E-05   -0.11814E-04   160   0.496E-02
  57 F= -.16935196E+02 E0= -.16939061E+02  d E =-.797477E-03  mag=     0.0000
       N       E                     dE             d eps       ncg     rms          rms(c)
DAV:   1    -0.169353498275E+02   -0.14418E-03   -0.37146E-01   224   0.210E+00    0.793E-02
DAV:   2    -0.169357328031E+02   -0.38298E-03   -0.43472E-03   240   0.309E-01    0.519E-02
DAV:   3    -0.169357199153E+02    0.12888E-04   -0.14025E-04   160   0.535E-02
  58 F= -.16935720E+02 E0= -.16939585E+02  d E =-.132157E-02  mag=    -0.0000
       N       E                     dE             d eps       ncg     rms          rms(c)
DAV:   1    -0.169359628423E+02   -0.23004E-03   -0.44394E-01   224   0.230E+00    0.590E-02
DAV:   2    -0.169364325746E+02   -0.46973E-03   -0.51070E-03   256   0.336E-01    0.414E-02
DAV:   3    -0.169364174891E+02    0.15085E-04   -0.13866E-04   160   0.546E-02
  59 F= -.16936417E+02 E0= -.16940283E+02  d E =-.697574E-03  mag=     0.0000
       N       E                     dE             d eps       ncg     rms          rms(c)
DAV:   1    -0.169365101487E+02   -0.77574E-04   -0.26064E-01   256   0.176E+00    0.495E-02
DAV:   2    -0.169367807494E+02   -0.27060E-03   -0.29551E-03   256   0.256E-01    0.343E-02
DAV:   3    -0.169367708347E+02    0.99147E-05   -0.82051E-05   160   0.415E-02
  60 F= -.16936771E+02 E0= -.16940636E+02  d E =-.105092E-02  mag=    -0.0000
