 vasp.6.1.2 22Jul20 (build Jan 14 2022 17:24:41) gamma-only                      
 executed on             LinuxPGI date 2022.01.27  21:55:22
 running on    8 total cores
 distrk:  each k-point on    8 cores,    1 groups
 distr:  one band on NCORE=   8 cores,    1 groups


--------------------------------------------------------------------------------------------------------


 INCAR:
 POTCAR:    PAW_PBE Au 04Oct2007                  
 -----------------------------------------------------------------------------
|                                                                             |
|           W    W    AA    RRRRR   N    N  II  N    N   GGGG   !!!           |
|           W    W   A  A   R    R  NN   N  II  NN   N  G    G  !!!           |
|           W    W  A    A  R    R  N N  N  II  N N  N  G       !!!           |
|           W WW W  AAAAAA  RRRRR   N  N N  II  N  N N  G  GGG   !            |
|           WW  WW  A    A  R   R   N   NN  II  N   NN  G    G                |
|           W    W  A    A  R    R  N    N  II  N    N   GGGG   !!!           |
|                                                                             |
|     You use a magnetic or noncollinear calculation, but did not specify     |
|     the initial magnetic moment with the MAGMOM tag. Note that a            |
|     default of 1 will be used for all atoms. This ferromagnetic setup       |
|     may break the symmetry of the crystal, in particular it may rule        |
|     out finding an antiferromagnetic solution. Thence, we recommend         |
|     setting the initial magnetic moment manually or verifying carefully     |
|     that this magnetic setup is desired.                                    |
|                                                                             |
 -----------------------------------------------------------------------------

 -----------------------------------------------------------------------------
|                                                                             |
|           W    W    AA    RRRRR   N    N  II  N    N   GGGG   !!!           |
|           W    W   A  A   R    R  NN   N  II  NN   N  G    G  !!!           |
|           W    W  A    A  R    R  N N  N  II  N N  N  G       !!!           |
|           W WW W  AAAAAA  RRRRR   N  N N  II  N  N N  G  GGG   !            |
|           WW  WW  A    A  R   R   N   NN  II  N   NN  G    G                |
|           W    W  A    A  R    R  N    N  II  N    N   GGGG   !!!           |
|                                                                             |
|     For optimal performance we recommend to set                             |
|       NCORE = 4 - approx SQRT(number of cores).                             |
|     NCORE specifies how many cores store one orbital (NPAR=cpu/NCORE).      |
|     This setting can greatly improve the performance of VASP for DFT.       |
|     The default, NCORE=1 might be grossly inefficient on modern             |
|     multi-core architectures or massively parallel machines. Do your        |
|     own testing!!!!                                                         |
|     Unfortunately you need to use the default for GW and RPA                |
|     calculations (for HF NCORE is supported but not extensively tested      |
|     yet).                                                                   |
|                                                                             |
 -----------------------------------------------------------------------------

 POTCAR:    PAW_PBE Au 04Oct2007                  
   SHA256 =  d0044ae04e2bdce24051b198fc5c053d722a5bc6fe3c3b100514a13fc5d2db88 Au/POTCAR             
   COPYR  = (c) Copyright 04Oct2007 Georg Kresse                                                    
   COPYR  = This file is part of the software VASP. Any use, copying, and all other rights are regul
   COPYR  = If you do not have a valid VASP license, you may not use, copy or distribute this file. 
   VRHFIN =Au: s1d10                                                                                
   LEXCH  = PE                                                                                      
   EATOM  =   926.0867 eV,   68.0654 Ry                                                             
                                                                                                    
   TITEL  = PAW_PBE Au 04Oct2007                                                                    
   LULTRA =        F    use ultrasoft PP ?                                                          
   IUNSCR =        1    unscreen: 0-lin 1-nonlin 2-no                                               
   RPACOR =    2.330    partial core radius                                                         
   POMASS =  196.966; ZVAL   =   11.000    mass and valenz                                          
   RCORE  =    2.500    outmost cutoff radius                                                       
   RWIGS  =    2.840; RWIGS  =    1.503    wigner-seitz radius (au A)                               
   ENMAX  =  229.943; ENMIN  =  172.457 eV                                                          
   ICORE  =        3    local potential                                                             
   LCOR   =        T    correct aug charges                                                         
   LPAW   =        T    paw PP                                                                      
   EAUG   =  356.670                                                                                
   DEXC   =    0.000                                                                                
   RMAX   =    2.562    core radius for proj-oper                                                   
   RAUG   =    1.300    factor for augmentation sphere                                              
   RDEP   =    2.598    radius for radial grids                                                     
   RDEPT  =    2.193    core radius for aug-charge                                                  
                                                                                                    
   Atomic configuration                                                                             
   16 entries                                                                                       
     n  l   j            E        occ.                                                              
     1  0  0.50    -80748.5001   2.0000                                                             
     2  0  0.50    -14244.7466   2.0000                                                             
     2  1  1.50    -12310.9591   6.0000                                                             
     3  0  0.50     -3362.1768   2.0000                                                             
     3  1  1.50     -2801.5463   6.0000                                                             
     3  2  2.50     -2203.8206  10.0000                                                             
     4  0  0.50      -729.8168   2.0000                                                             
     4  1  1.50      -546.0527   6.0000                                                             
     4  2  2.50      -325.7302  10.0000                                                             
     4  3  3.50       -81.1472  14.0000                                                             
     5  0  0.50      -108.3201   2.0000                                                             
     5  1  1.50       -59.7479   6.0000                                                             
     5  2  2.50        -6.8783  10.0000                                                             
     6  0  0.50        -5.7602   1.0000                                                             
     6  1  1.50        -6.8029   0.0000                                                             
     5  3  2.50        -1.3606   0.0000                                                             
   Description                                                                                      
     l       E           TYP  RCUT    TYP  RCUT                                                     
     2     -6.8782861     23  2.500                                                                 
     2     -8.2388687     23  2.500                                                                 
     0     -5.7601759     23  2.500                                                                 
     0     -0.8493231     23  2.500                                                                 
     1     -2.7211652     23  2.500                                                                 
     1     27.2116520     23  2.500                                                                 
     3     -1.3605826     23  2.500                                                                 
  local pseudopotential read in
  partial core-charges read in
  partial kinetic energy density read in
  atomic valenz-charges read in
  non local Contribution for L=            2  read in
    real space projection operators read in
  non local Contribution for L=            2  read in
    real space projection operators read in
  non local Contribution for L=            0  read in
    real space projection operators read in
  non local Contribution for L=            0  read in
    real space projection operators read in
  non local Contribution for L=            1  read in
    real space projection operators read in
  non local Contribution for L=            1  read in
    real space projection operators read in
    PAW grid and wavefunctions read in
 
   number of l-projection  operators is LMAX  =            6
   number of lm-projection operators is LMMAX =           18
 
  PAW_PBE Au 04Oct2007                  :
 energy of atom  1       EATOM= -926.0867
 kinetic energy error for atom=    0.0062 (will be added to EATOM!!)
 
 
 POSCAR: Au
  positions in cartesian coordinates
  No initial velocities read in
 exchange correlation table for  LEXCH =        8
   RHO(1)=    0.500       N(1)  =     2000
   RHO(2)=  100.500       N(2)  =     4000
 


--------------------------------------------------------------------------------------------------------


 ion  position               nearest neighbor table
   1  0.459  0.492  0.528-   8 2.58   7 2.67   2 2.74   5 2.75   3 2.75   6 2.76   4 2.79
   2  0.474  0.509  0.410-   3 2.60   6 2.60   4 2.64   1 2.74
   3  0.572  0.485  0.472-   2 2.60   5 2.61   4 2.64   1 2.75
   4  0.490  0.401  0.450-   8 2.48   3 2.64   2 2.64   1 2.79
   5  0.548  0.579  0.535-   7 2.57   3 2.61   6 2.63   1 2.75
   6  0.446  0.601  0.474-   7 2.56   2 2.60   5 2.63   1 2.76
   7  0.443  0.593  0.587-   6 2.56   5 2.57   1 2.67
   8  0.422  0.384  0.536-   4 2.48   1 2.58
 

IMPORTANT INFORMATION: All symmetrisations will be switched off!
NOSYMM: (Re-)initialisation of all symmetry stuff for point group C_1.


----------------------------------------------------------------------------------------

                                     Primitive cell                                     

  volume of cell :   11123.4927

  direct lattice vectors                    reciprocal lattice vectors
    21.617208572  0.000000000  0.000000000     0.046259442  0.000000000  0.000000000
     0.000000000 22.657025112  0.000000000     0.000000000  0.044136421  0.000000000
     0.000000000  0.000000000 22.711126418     0.000000000  0.000000000  0.044031281

  length of vectors
    21.617208572 22.657025112 22.711126418     0.046259442  0.044136421  0.044031281

  position of ions in fractional coordinates (direct lattice)
     0.459101160  0.492160482  0.528106658
     0.473930715  0.509475388  0.409713900
     0.571594916  0.485352726  0.472238674
     0.490269205  0.401274085  0.450438585
     0.547534899  0.578885435  0.534963188
     0.446381848  0.600651093  0.474444426
     0.442891789  0.592953946  0.587001650
     0.421968569  0.384266463  0.536329919

  ion indices of the primitive-cell ions
   primitive index   ion index
                 1           1
                 2           2
                 3           3
                 4           4
                 5           5
                 6           6
                 7           7
                 8           8

----------------------------------------------------------------------------------------

 
 
 KPOINTS: KPOINTS created by Atomic Simulation Env

Automatic generation of k-mesh.
Space group operators:
 irot       det(A)        alpha          n_x          n_y          n_z        tau_x        tau_y        tau_z
    1     1.000000     0.000000     1.000000     0.000000     0.000000     0.000000     0.000000     0.000000
 
 Subroutine IBZKPT returns following result:
 ===========================================
 
 Found      1 irreducible k-points:
 
 Following reciprocal coordinates:
            Coordinates               Weight
  0.000000  0.000000  0.000000      1.000000
 
 Following cartesian coordinates:
            Coordinates               Weight
  0.000000  0.000000  0.000000      1.000000
 


--------------------------------------------------------------------------------------------------------




 Dimension of arrays:
   k-points           NKPTS =      1   k-points in BZ     NKDIM =      1   number of bands    NBANDS=     56
   number of dos      NEDOS =    301   number of ions     NIONS =      8
   non local maximal  LDIM  =      6   non local SUM 2l+1 LMDIM =     18
   total plane-waves  NPLWV = ******
   max r-space proj   IRMAX =      1   max aug-charges    IRDMAX=   7647
   dimension x,y,z NGX =   108 NGY =  112 NGZ =  112
   dimension x,y,z NGXF=   216 NGYF=  224 NGZF=  224
   support grid    NGXF=   216 NGYF=  224 NGZF=  224
   ions per type =               8
   NGX,Y,Z   is equivalent  to a cutoff of   8.31,  8.22,  8.20 a.u.
   NGXF,Y,Z  is equivalent  to a cutoff of  16.61, 16.44, 16.40 a.u.

 SYSTEM =  unknown system                          
 POSCAR =  Au                                      

 Startparameter for this run:
   NWRITE =      2    write-flag & timer
   PREC   = normal    normal or accurate (medium, high low for compatibility)
   ISTART =      0    job   : 0-new  1-cont  2-samecut
   ICHARG =      2    charge: 1-file 2-atom 10-const
   ISPIN  =      2    spin polarized calculation?
   LNONCOLLINEAR =      F non collinear calculations
   LSORBIT =      F    spin-orbit coupling
   INIWAV =      1    electr: 0-lowe 1-rand  2-diag
   LASPH  =      F    aspherical Exc in radial PAW
   METAGGA=      F    non-selfconsistent MetaGGA calc.

 Electronic Relaxation 1
   ENCUT  =  400.0 eV  29.40 Ry    5.42 a.u.  35.25 36.95 37.04*2*pi/ulx,y,z
   ENINI  =  400.0     initial cutoff
   ENAUG  =  356.7 eV  augmentation charge cutoff
   NELM   =     60;   NELMIN=  2; NELMDL=  0     # of ELM steps 
   EDIFF  = 0.1E-03   stopping-criterion for ELM
   LREAL  =      F    real-space projection
   NLSPLINE    = F    spline interpolate recip. space projectors
   LCOMPAT=      F    compatible to vasp.4.4
   GGA_COMPAT  = T    GGA compatible to vasp.4.4-vasp.4.6
   LMAXPAW     = -100 max onsite density
   LMAXMIX     =    2 max onsite mixed and CHGCAR
   VOSKOWN=      0    Vosko Wilk Nusair interpolation
   ROPT   =    0.00000
 Ionic relaxation
   EDIFFG = 0.1E-02   stopping-criterion for IOM
   NSW    =   1000    number of steps for IOM
   NBLOCK =      1;   KBLOCK =   1000    inner block; outer block 
   IBRION =      2    ionic relax: 0-MD 1-quasi-New 2-CG
   NFREE  =      1    steps in history (QN), initial steepest desc. (CG)
   ISIF   =      0    stress and relaxation
   IWAVPR =     11    prediction:  0-non 1-charg 2-wave 3-comb
   ISYM   =      0    0-nonsym 1-usesym 2-fastsym
   LCORR  =      T    Harris-Foulkes like correction to forces

   POTIM  = 0.5000    time-step for ionic-motion
   TEIN   =    0.0    initial temperature
   TEBEG  =    0.0;   TEEND  =   0.0 temperature during run
   SMASS  =  -3.00    Nose mass-parameter (am)
   estimated Nose-frequenzy (Omega)   =  0.10E-29 period in steps = 0.13E+47 mass=  -0.107E-25a.u.
   SCALEE = 1.0000    scale energy and forces
   NPACO  =    256;   APACO  = 16.0  distance and # of slots for P.C.
   PSTRESS=    0.0 pullay stress

  Mass of Ions in am
   POMASS = 196.97
  Ionic Valenz
   ZVAL   =  11.00
  Atomic Wigner-Seitz radii
   RWIGS  =  -1.00
  virtual crystal weights 
   VCA    =   1.00
   NELECT =      88.0000    total number of electrons
   NUPDOWN=      -1.0000    fix difference up-down

 DOS related values:
   EMIN   =  10.00;   EMAX   =-10.00  energy-range for DOS
   EFERMI =   0.00
   ISMEAR =     1;   SIGMA  =   0.20  broadening in eV -4-tet -1-fermi 0-gaus

 Electronic relaxation 2 (details)
   IALGO  =     38    algorithm
   LDIAG  =      T    sub-space diagonalisation (order eigenvalues)
   LSUBROT=      F    optimize rotation matrix (better conditioning)
   TURBO    =      0    0=normal 1=particle mesh
   IRESTART =      0    0=no restart 2=restart with 2 vectors
   NREBOOT  =      0    no. of reboots
   NMIN     =      0    reboot dimension
   EREF     =   0.00    reference energy to select bands
   IMIX   =      4    mixing-type and parameters
     AMIX     =   0.40;   BMIX     =  1.00
     AMIX_MAG =   1.60;   BMIX_MAG =  1.00
     AMIN     =   0.10
     WC   =   100.;   INIMIX=   1;  MIXPRE=   1;  MAXMIX= -45

 Intra band minimization:
   WEIMIN = 0.0010     energy-eigenvalue tresh-hold
   EBREAK =  0.45E-06  absolut break condition
   DEPER  =   0.30     relativ break condition  

   TIME   =   0.40     timestep for ELM

  volume/ion in A,a.u.               =    1390.44      9383.13
  Fermi-wavevector in a.u.,A,eV,Ry     =   0.326204  0.616435  1.447779  0.106409
  Thomas-Fermi vector in A             =   1.217862
 
 Write flags
   LWAVE        =      F    write WAVECAR
   LDOWNSAMPLE  =      F    k-point downsampling of WAVECAR
   LCHARG       =      F    write CHGCAR
   LVTOT        =      F    write LOCPOT, total local potential
   LVHAR        =      F    write LOCPOT, Hartree potential only
   LELF         =      F    write electronic localiz. function (ELF)
   LORBIT       =      0    0 simple, 1 ext, 2 COOP (PROOUT), +10 PAW based schemes


 Dipole corrections
   LMONO  =      F    monopole corrections only (constant potential shift)
   LDIPOL =      F    correct potential (dipole corrections)
   IDIPOL =      0    1-x, 2-y, 3-z, 4-all directions 
   EPSILON=  1.0000000 bulk dielectric constant

 Exchange correlation treatment:
   GGA     =    PE    GGA type
   LEXCH   =     8    internal setting for exchange type
   VOSKOWN=      0    Vosko Wilk Nusair interpolation
   LHFCALC =     F    Hartree Fock is set to
   LHFONE  =     F    Hartree Fock one center treatment
   AEXX    =    0.0000 exact exchange contribution

 Linear response parameters
   LEPSILON=     F    determine dielectric tensor
   LRPA    =     F    only Hartree local field effects (RPA)
   LNABLA  =     F    use nabla operator in PAW spheres
   LVEL    =     F    velocity operator in full k-point grid
   LINTERFAST=   F  fast interpolation
   KINTER  =     0    interpolate to denser k-point grid
   CSHIFT  =0.1000    complex shift for real part using Kramers Kronig
   OMEGAMAX=  -1.0    maximum frequency
   DEG_THRESHOLD= 0.2000000E-02 threshold for treating states as degnerate
   RTIME   =   -0.100 relaxation time in fs
  (WPLASMAI=    0.000 imaginary part of plasma frequency in eV, 0.658/RTIME)
   DFIELD  = 0.0000000 0.0000000 0.0000000 field for delta impulse in time
 
 Orbital magnetization related:
   ORBITALMAG=     F  switch on orbital magnetization
   LCHIMAG   =     F  perturbation theory with respect to B field
   DQ        =  0.001000  dq finite difference perturbation B field
   LLRAUG    =     F  two centre corrections for induced B field



--------------------------------------------------------------------------------------------------------


 conjugate gradient relaxation of ions
 charge density and potential will be updated during run
 spin polarized calculation
 Variant of blocked Davidson
 Davidson routine will perform the subspace rotation
 perform sub-space diagonalisation
    after iterative eigenvector-optimisation
 modified Broyden-mixing scheme, WC =      100.0
 initial mixing is a Kerker type mixing with AMIX =  0.4000 and BMIX =      1.0000
 Hartree-type preconditioning will be used
 using additional bands            12
 reciprocal scheme for non local part
 use partial core corrections
 calculate Harris-corrections to forces 
   (improved forces if not selfconsistent)
 use gradient corrections 
 use of overlap-Matrix (Vanderbilt PP)
 Methfessel and Paxton  Order N= 1 SIGMA  =   0.20


--------------------------------------------------------------------------------------------------------


  energy-cutoff  :      400.00
  volume of cell :    11123.49
      direct lattice vectors                 reciprocal lattice vectors
    21.617208572  0.000000000  0.000000000     0.046259442  0.000000000  0.000000000
     0.000000000 22.657025112  0.000000000     0.000000000  0.044136421  0.000000000
     0.000000000  0.000000000 22.711126418     0.000000000  0.000000000  0.044031281

  length of vectors
    21.617208572 22.657025112 22.711126418     0.046259442  0.044136421  0.044031281


 
 k-points in units of 2pi/SCALE and weight: KPOINTS created by Atomic Simulation Env
   0.00000000  0.00000000  0.00000000       1.000
 
 k-points in reciprocal lattice and weights: KPOINTS created by Atomic Simulation Env
   0.00000000  0.00000000  0.00000000       1.000
 
 position of ions in fractional coordinates (direct lattice) 
   0.45910116  0.49216048  0.52810666
   0.47393071  0.50947539  0.40971390
   0.57159492  0.48535273  0.47223867
   0.49026921  0.40127408  0.45043858
   0.54753490  0.57888544  0.53496319
   0.44638185  0.60065109  0.47444443
   0.44289179  0.59295395  0.58700165
   0.42196857  0.38426646  0.53632992
 
 position of ions in cartesian coordinates  (Angst):
   9.92448554 11.15089241 11.99389707
  10.24505911 11.54319666  9.30506417
  12.35628653 10.99664890 10.72507222
  10.59825167  9.09167702 10.22996764
  11.83617612 13.11582184 12.14961660
   9.64952951 13.60896689 10.77516733
   9.57408417 13.43457245 13.33146868
   9.12178257  8.70633489 12.18065658
 


--------------------------------------------------------------------------------------------------------


 use parallel FFT for orbitals z direction half grid
 k-point   1 :   0.0000 0.0000 0.0000  plane waves:  100931

 maximum and minimum number of plane-waves per node :     12623    12608

 maximum number of plane-waves:    100931
 maximum index in each direction: 
   IXMAX=   35   IYMAX=   36   IZMAX=   37
   IXMIN=  -35   IYMIN=  -36   IZMIN=    0


 parallel 3D FFT for wavefunctions:
    minimum data exchange during FFTs selected (reduces bandwidth)
 parallel 3D FFT for charge:
    minimum data exchange during FFTs selected (reduces bandwidth)


 total amount of memory used by VASP MPI-rank0   218037. kBytes
=======================================================================

   base      :      30000. kBytes
   nonl-proj :       3433. kBytes
   fftplans  :      49637. kBytes
   grid      :     112318. kBytes
   one-center:         15. kBytes
   wavefun   :      22634. kBytes
 
     INWAV:  cpu time    0.0000: real time    0.0000
 Broyden mixing: mesh for mixing (old mesh)
   NGX = 71   NGY = 73   NGZ = 75
  (NGX  =216   NGY  =224   NGZ  =224)
  gives a total of 388725 points

 initial charge density was supplied:
 charge density of overlapping atoms calculated
 number of electron      88.0000000 magnetization       8.0000000
 keeping initial charge density in first step


--------------------------------------------------------------------------------------------------------


 Maximum index for augmentation-charges           955 (set IRDMAX)


--------------------------------------------------------------------------------------------------------


 First call to EWALD:  gamma=   0.079
 Maximum number of real-space cells 3x 3x 3
 Maximum number of reciprocal cells 3x 3x 3

    FEWALD:  cpu time    0.0013: real time    0.0013


--------------------------------------- Iteration      1(   1)  ---------------------------------------


    POTLOK:  cpu time    3.9844: real time    4.0081
    SETDIJ:  cpu time    0.0246: real time    0.0304
     EDDAV:  cpu time    6.6151: real time    6.6243
       DOS:  cpu time    0.0087: real time    0.0087
    --------------------------------------------
      LOOP:  cpu time   10.6329: real time   10.6715

 eigenvalue-minimisations  :   224
 total energy-change (2. order) : 0.7500630E+03  (-0.1326219E+04)
 number of electron      88.0000000 magnetization       8.0000000
 augmentation part       88.0000000 magnetization       8.0000000

 Free energy of the ion-electron system (eV)
  ---------------------------------------------------
  alpha Z        PSCENC =         6.70175720
  Ewald energy   TEWEN  =      8224.62641237
  -Hartree energ DENC   =    -15302.92148546
  -exchange      EXHF   =         0.00000000
  -V(xc)+E(xc)   XCENC  =       118.74452015
  PAW double counting   =      6992.17180065    -6807.49900724
  entropy T*S    EENTRO =        -0.02578749
  eigenvalues    EBANDS =       109.62059702
  atomic energy  EATOM  =      7408.64415014
  Solvation  Ediel_sol  =         0.00000000
  ---------------------------------------------------
  free energy    TOTEN  =       750.06295733 eV

  energy without entropy =      750.08874482  energy(sigma->0) =      750.07155316


--------------------------------------------------------------------------------------------------------




--------------------------------------- Iteration      1(   2)  ---------------------------------------


     EDDAV:  cpu time   10.7029: real time   10.7159
       DOS:  cpu time    0.0080: real time    0.0080
    --------------------------------------------
      LOOP:  cpu time   10.7109: real time   10.7239

 eigenvalue-minimisations  :   424
 total energy-change (2. order) :-0.2980237E+03  (-0.2777035E+03)
 number of electron      88.0000000 magnetization       8.0000000
 augmentation part       88.0000000 magnetization       8.0000000

 Free energy of the ion-electron system (eV)
  ---------------------------------------------------
  alpha Z        PSCENC =         6.70175720
  Ewald energy   TEWEN  =      8224.62641237
  -Hartree energ DENC   =    -15302.92148546
  -exchange      EXHF   =         0.00000000
  -V(xc)+E(xc)   XCENC  =       118.74452015
  PAW double counting   =      6992.17180065    -6807.49900724
  entropy T*S    EENTRO =        -0.11743569
  eigenvalues    EBANDS =      -188.31143308
  atomic energy  EATOM  =      7408.64415014
  Solvation  Ediel_sol  =         0.00000000
  ---------------------------------------------------
  free energy    TOTEN  =       452.03927903 eV

  energy without entropy =      452.15671471  energy(sigma->0) =      452.07842426


--------------------------------------------------------------------------------------------------------




--------------------------------------- Iteration      1(   3)  ---------------------------------------


     EDDAV:  cpu time   10.2933: real time   10.3054
       DOS:  cpu time    0.0081: real time    0.0082
    --------------------------------------------
      LOOP:  cpu time   10.3014: real time   10.3135

 eigenvalue-minimisations  :   408
 total energy-change (2. order) :-0.3229496E+03  (-0.3009926E+03)
 number of electron      88.0000000 magnetization       8.0000000
 augmentation part       88.0000000 magnetization       8.0000000

 Free energy of the ion-electron system (eV)
  ---------------------------------------------------
  alpha Z        PSCENC =         6.70175720
  Ewald energy   TEWEN  =      8224.62641237
  -Hartree energ DENC   =    -15302.92148546
  -exchange      EXHF   =         0.00000000
  -V(xc)+E(xc)   XCENC  =       118.74452015
  PAW double counting   =      6992.17180065    -6807.49900724
  entropy T*S    EENTRO =        -0.00683958
  eigenvalues    EBANDS =      -511.37162509
  atomic energy  EATOM  =      7408.64415014
  Solvation  Ediel_sol  =         0.00000000
  ---------------------------------------------------
  free energy    TOTEN  =       129.08968312 eV

  energy without entropy =      129.09652271  energy(sigma->0) =      129.09196299


--------------------------------------------------------------------------------------------------------




--------------------------------------- Iteration      1(   4)  ---------------------------------------


     EDDAV:  cpu time    8.1728: real time    8.1873
       DOS:  cpu time    0.0079: real time    0.0079
    --------------------------------------------
      LOOP:  cpu time    8.1807: real time    8.1952

 eigenvalue-minimisations  :   304
 total energy-change (2. order) :-0.1180958E+03  (-0.1093109E+03)
 number of electron      88.0000000 magnetization       8.0000000
 augmentation part       88.0000000 magnetization       8.0000000

 Free energy of the ion-electron system (eV)
  ---------------------------------------------------
  alpha Z        PSCENC =         6.70175720
  Ewald energy   TEWEN  =      8224.62641237
  -Hartree energ DENC   =    -15302.92148546
  -exchange      EXHF   =         0.00000000
  -V(xc)+E(xc)   XCENC  =       118.74452015
  PAW double counting   =      6992.17180065    -6807.49900724
  entropy T*S    EENTRO =        -0.01519760
  eigenvalues    EBANDS =      -629.45909819
  atomic energy  EATOM  =      7408.64415014
  Solvation  Ediel_sol  =         0.00000000
  ---------------------------------------------------
  free energy    TOTEN  =        10.99385201 eV

  energy without entropy =       11.00904961  energy(sigma->0) =       10.99891787


--------------------------------------------------------------------------------------------------------




--------------------------------------- Iteration      1(   5)  ---------------------------------------


     EDDAV:  cpu time    8.4797: real time    8.4880
       DOS:  cpu time    0.0080: real time    0.0080
    CHARGE:  cpu time    0.8725: real time    0.8733
    MIXING:  cpu time    0.0627: real time    0.0627
    --------------------------------------------
      LOOP:  cpu time    9.4229: real time    9.4320

 eigenvalue-minimisations  :   320
 total energy-change (2. order) :-0.2318928E+02  (-0.2055494E+02)
 number of electron      87.9999980 magnetization       7.2035504
 augmentation part       30.9139926 magnetization       6.4510102

 Broyden mixing:
  rms(total) = 0.22568E+01    rms(broyden)= 0.22568E+01
  rms(prec ) = 0.22817E+01
  weight for this iteration     100.00

 Free energy of the ion-electron system (eV)
  ---------------------------------------------------
  alpha Z        PSCENC =         6.70175720
  Ewald energy   TEWEN  =      8224.62641237
  -Hartree energ DENC   =    -15302.92148546
  -exchange      EXHF   =         0.00000000
  -V(xc)+E(xc)   XCENC  =       118.74452015
  PAW double counting   =      6992.17180065    -6807.49900724
  entropy T*S    EENTRO =        -0.04748597
  eigenvalues    EBANDS =      -652.61609280
  atomic energy  EATOM  =      7408.64415014
  Solvation  Ediel_sol  =         0.00000000
  ---------------------------------------------------
  free energy    TOTEN  =       -12.19543097 eV

  energy without entropy =      -12.14794500  energy(sigma->0) =      -12.17960231


--------------------------------------------------------------------------------------------------------




--------------------------------------- Iteration      1(   6)  ---------------------------------------


    POTLOK:  cpu time    4.0197: real time    4.0263
    SETDIJ:  cpu time    0.0302: real time    0.0302
     EDDAV:  cpu time    6.8728: real time    6.8800
       DOS:  cpu time    0.0030: real time    0.0030
    CHARGE:  cpu time    0.8508: real time    0.8517
    MIXING:  cpu time    0.0726: real time    0.0727
    --------------------------------------------
      LOOP:  cpu time   11.8490: real time   11.8638

 eigenvalue-minimisations  :   240
 total energy-change (2. order) : 0.7291848E+01  (-0.7705551E+01)
 number of electron      87.9999979 magnetization       6.5583897
 augmentation part       32.4528543 magnetization       4.0820528

 Broyden mixing:
  rms(total) = 0.15848E+01    rms(broyden)= 0.15848E+01
  rms(prec ) = 0.15919E+01
  weight for this iteration     100.00

 eigenvalues of (default mixing * dielectric matrix)
  average eigenvalue GAMMA=   0.9356
  0.9356

 Free energy of the ion-electron system (eV)
  ---------------------------------------------------
  alpha Z        PSCENC =         6.70175720
  Ewald energy   TEWEN  =      8224.62641237
  -Hartree energ DENC   =    -15233.72603006
  -exchange      EXHF   =         0.00000000
  -V(xc)+E(xc)   XCENC  =       123.77643170
  PAW double counting   =      7394.22434747    -7218.28257195
  entropy T*S    EENTRO =         0.02702133
  eigenvalues    EBANDS =      -710.89510159
  atomic energy  EATOM  =      7408.64415014
  Solvation  Ediel_sol  =         0.00000000
  ---------------------------------------------------
  free energy    TOTEN  =        -4.90358339 eV

  energy without entropy =       -4.93060472  energy(sigma->0) =       -4.91259050


--------------------------------------------------------------------------------------------------------




--------------------------------------- Iteration      1(   7)  ---------------------------------------


    POTLOK:  cpu time    3.9740: real time    3.9939
    SETDIJ:  cpu time    0.0279: real time    0.0279
     EDDAV:  cpu time    7.1703: real time    7.1775
       DOS:  cpu time    0.0021: real time    0.0021
    CHARGE:  cpu time    0.8885: real time    0.8894
    MIXING:  cpu time    0.0797: real time    0.0798
    --------------------------------------------
      LOOP:  cpu time   12.1425: real time   12.1706

 eigenvalue-minimisations  :   256
 total energy-change (2. order) :-0.1961422E+00  (-0.3628179E+00)
 number of electron      87.9999979 magnetization       5.6132777
 augmentation part       32.2544645 magnetization       3.6251504

 Broyden mixing:
  rms(total) = 0.70513E+00    rms(broyden)= 0.70513E+00
  rms(prec ) = 0.70738E+00
  weight for this iteration     100.00

 eigenvalues of (default mixing * dielectric matrix)
  average eigenvalue GAMMA=   1.2383
  0.7344  1.7422

 Free energy of the ion-electron system (eV)
  ---------------------------------------------------
  alpha Z        PSCENC =         6.70175720
  Ewald energy   TEWEN  =      8224.62641237
  -Hartree energ DENC   =    -15258.06648261
  -exchange      EXHF   =         0.00000000
  -V(xc)+E(xc)   XCENC  =       124.25336382
  PAW double counting   =      7755.37172906    -7582.90300233
  entropy T*S    EENTRO =        -0.03462105
  eigenvalues    EBANDS =      -683.69303219
  atomic energy  EATOM  =      7408.64415014
  Solvation  Ediel_sol  =         0.00000000
  ---------------------------------------------------
  free energy    TOTEN  =        -5.09972558 eV

  energy without entropy =       -5.06510453  energy(sigma->0) =       -5.08818523


--------------------------------------------------------------------------------------------------------




--------------------------------------- Iteration      1(   8)  ---------------------------------------


    POTLOK:  cpu time    4.0165: real time    4.0205
    SETDIJ:  cpu time    0.0282: real time    0.0282
     EDDAV:  cpu time    6.7481: real time    6.7572
       DOS:  cpu time    0.0027: real time    0.0027
    CHARGE:  cpu time    0.8617: real time    0.8648
    MIXING:  cpu time    0.0797: real time    0.0798
    --------------------------------------------
      LOOP:  cpu time   11.7370: real time   11.7532

 eigenvalue-minimisations  :   240
 total energy-change (2. order) :-0.2068482E+01  (-0.1215423E+00)
 number of electron      87.9999979 magnetization       5.1526031
 augmentation part       32.1598431 magnetization       3.3142395

 Broyden mixing:
  rms(total) = 0.20526E+00    rms(broyden)= 0.20525E+00
  rms(prec ) = 0.20889E+00
  weight for this iteration     100.00

 eigenvalues of (default mixing * dielectric matrix)
  average eigenvalue GAMMA=   1.2131
  2.0464  0.9145  0.6784

 Free energy of the ion-electron system (eV)
  ---------------------------------------------------
  alpha Z        PSCENC =         6.70175720
  Ewald energy   TEWEN  =      8224.62641237
  -Hartree energ DENC   =    -15272.43132647
  -exchange      EXHF   =         0.00000000
  -V(xc)+E(xc)   XCENC  =       122.83086905
  PAW double counting   =      8103.62129053    -7934.53049977
  entropy T*S    EENTRO =        -0.03973200
  eigenvalues    EBANDS =      -666.59112862
  atomic energy  EATOM  =      7408.64415014
  Solvation  Ediel_sol  =         0.00000000
  ---------------------------------------------------
  free energy    TOTEN  =        -7.16820758 eV

  energy without entropy =       -7.12847558  energy(sigma->0) =       -7.15496358


--------------------------------------------------------------------------------------------------------




--------------------------------------- Iteration      1(   9)  ---------------------------------------


    POTLOK:  cpu time    3.9275: real time    3.9350
    SETDIJ:  cpu time    0.0273: real time    0.0274
     EDDAV:  cpu time    6.8846: real time    6.8937
       DOS:  cpu time    0.0018: real time    0.0018
    CHARGE:  cpu time    0.8488: real time    0.8497
    MIXING:  cpu time    0.0898: real time    0.0899
    --------------------------------------------
      LOOP:  cpu time   11.7798: real time   11.7974

 eigenvalue-minimisations  :   240
 total energy-change (2. order) :-0.1993981E+01  (-0.4176777E-01)
 number of electron      87.9999980 magnetization       4.7253829
 augmentation part       32.1936959 magnetization       3.4405838

 Broyden mixing:
  rms(total) = 0.15622E+00    rms(broyden)= 0.15622E+00
  rms(prec ) = 0.16097E+00
  weight for this iteration     100.00

 eigenvalues of (default mixing * dielectric matrix)
  average eigenvalue GAMMA=   1.1264
  2.1985  0.8994  0.8044  0.6031

 Free energy of the ion-electron system (eV)
  ---------------------------------------------------
  alpha Z        PSCENC =         6.70175720
  Ewald energy   TEWEN  =      8224.62641237
  -Hartree energ DENC   =    -15270.35298873
  -exchange      EXHF   =         0.00000000
  -V(xc)+E(xc)   XCENC  =       121.19477155
  PAW double counting   =      8142.20134922    -7973.71542109
  entropy T*S    EENTRO =        -0.05619344
  eigenvalues    EBANDS =      -668.40602565
  atomic energy  EATOM  =      7408.64415014
  Solvation  Ediel_sol  =         0.00000000
  ---------------------------------------------------
  free energy    TOTEN  =        -9.16218844 eV

  energy without entropy =       -9.10599500  energy(sigma->0) =       -9.14345729


--------------------------------------------------------------------------------------------------------




--------------------------------------- Iteration      1(  10)  ---------------------------------------


    POTLOK:  cpu time    3.9930: real time    3.9990
    SETDIJ:  cpu time    0.0274: real time    0.0274
     EDDAV:  cpu time    7.1424: real time    7.1497
       DOS:  cpu time    0.0082: real time    0.0082
    CHARGE:  cpu time    0.8543: real time    0.8596
    MIXING:  cpu time    0.0936: real time    0.0937
    --------------------------------------------
      LOOP:  cpu time   12.1189: real time   12.1375

 eigenvalue-minimisations  :   256
 total energy-change (2. order) :-0.7697962E+00  (-0.1418398E-01)
 number of electron      87.9999980 magnetization       4.2848712
 augmentation part       32.2143323 magnetization       3.2383550

 Broyden mixing:
  rms(total) = 0.13226E+00    rms(broyden)= 0.13226E+00
  rms(prec ) = 0.13587E+00
  weight for this iteration     100.00

 eigenvalues of (default mixing * dielectric matrix)
  average eigenvalue GAMMA=   1.0739
  2.2796  0.9833  0.8221  0.6422  0.6422

 Free energy of the ion-electron system (eV)
  ---------------------------------------------------
  alpha Z        PSCENC =         6.70175720
  Ewald energy   TEWEN  =      8224.62641237
  -Hartree energ DENC   =    -15270.10821680
  -exchange      EXHF   =         0.00000000
  -V(xc)+E(xc)   XCENC  =       120.56876262
  PAW double counting   =      8156.00073075    -7987.80003830
  entropy T*S    EENTRO =        -0.05417311
  eigenvalues    EBANDS =      -668.51136954
  atomic energy  EATOM  =      7408.64415014
  Solvation  Ediel_sol  =         0.00000000
  ---------------------------------------------------
  free energy    TOTEN  =        -9.93198466 eV

  energy without entropy =       -9.87781155  energy(sigma->0) =       -9.91392696


--------------------------------------------------------------------------------------------------------




--------------------------------------- Iteration      1(  11)  ---------------------------------------


    POTLOK:  cpu time    3.9492: real time    3.9671
    SETDIJ:  cpu time    0.0272: real time    0.0272
     EDDAV:  cpu time    6.9975: real time    7.0071
       DOS:  cpu time    0.0009: real time    0.0009
    CHARGE:  cpu time    0.9007: real time    0.9017
    MIXING:  cpu time    0.1061: real time    0.1062
    --------------------------------------------
      LOOP:  cpu time   11.9816: real time   12.0102

 eigenvalue-minimisations  :   248
 total energy-change (2. order) :-0.8975345E+00  (-0.1415093E-01)
 number of electron      87.9999980 magnetization       3.1547048
 augmentation part       32.2290956 magnetization       2.4029073

 Broyden mixing:
  rms(total) = 0.11986E+00    rms(broyden)= 0.11986E+00
  rms(prec ) = 0.12395E+00
  weight for this iteration     100.00

 eigenvalues of (default mixing * dielectric matrix)
  average eigenvalue GAMMA=   1.2929
  2.6045  1.8444  1.1856  0.9108  0.6586  0.5536

 Free energy of the ion-electron system (eV)
  ---------------------------------------------------
  alpha Z        PSCENC =         6.70175720
  Ewald energy   TEWEN  =      8224.62641237
  -Hartree energ DENC   =    -15270.24358123
  -exchange      EXHF   =         0.00000000
  -V(xc)+E(xc)   XCENC  =       119.85861145
  PAW double counting   =      8152.72884368    -7984.56950760
  entropy T*S    EENTRO =        -0.04425481
  eigenvalues    EBANDS =      -668.53195040
  atomic energy  EATOM  =      7408.64415014
  Solvation  Ediel_sol  =         0.00000000
  ---------------------------------------------------
  free energy    TOTEN  =       -10.82951921 eV

  energy without entropy =      -10.78526440  energy(sigma->0) =      -10.81476760


--------------------------------------------------------------------------------------------------------




--------------------------------------- Iteration      1(  12)  ---------------------------------------


    POTLOK:  cpu time    3.9701: real time    3.9750
    SETDIJ:  cpu time    0.0290: real time    0.0290
     EDDAV:  cpu time    6.8027: real time    6.8118
       DOS:  cpu time    0.0009: real time    0.0009
    CHARGE:  cpu time    0.8942: real time    0.8951
    MIXING:  cpu time    0.1114: real time    0.1115
    --------------------------------------------
      LOOP:  cpu time   11.8083: real time   11.8232

 eigenvalue-minimisations  :   240
 total energy-change (2. order) :-0.1545937E+01  (-0.5660048E-01)
 number of electron      87.9999980 magnetization       2.1148839
 augmentation part       32.2488544 magnetization       1.7329523

 Broyden mixing:
  rms(total) = 0.78173E-01    rms(broyden)= 0.78171E-01
  rms(prec ) = 0.79993E-01
  weight for this iteration     100.00

 eigenvalues of (default mixing * dielectric matrix)
  average eigenvalue GAMMA=   1.3651
  2.8648  2.4124  1.1543  1.1543  0.7855  0.6562  0.5280

 Free energy of the ion-electron system (eV)
  ---------------------------------------------------
  alpha Z        PSCENC =         6.70175720
  Ewald energy   TEWEN  =      8224.62641237
  -Hartree energ DENC   =    -15271.20138520
  -exchange      EXHF   =         0.00000000
  -V(xc)+E(xc)   XCENC  =       118.62790373
  PAW double counting   =      8138.79739262    -7970.54268041
  entropy T*S    EENTRO =        -0.01325969
  eigenvalues    EBANDS =      -668.01574699
  atomic energy  EATOM  =      7408.64415014
  Solvation  Ediel_sol  =         0.00000000
  ---------------------------------------------------
  free energy    TOTEN  =       -12.37545624 eV

  energy without entropy =      -12.36219655  energy(sigma->0) =      -12.37103634


--------------------------------------------------------------------------------------------------------




--------------------------------------- Iteration      1(  13)  ---------------------------------------


    POTLOK:  cpu time    3.9756: real time    3.9826
    SETDIJ:  cpu time    0.0280: real time    0.0281
     EDDAV:  cpu time    6.8435: real time    6.8503
       DOS:  cpu time    0.0009: real time    0.0009
    CHARGE:  cpu time    0.8437: real time    0.8445
    MIXING:  cpu time    0.1189: real time    0.1191
    --------------------------------------------
      LOOP:  cpu time   11.8106: real time   11.8254

 eigenvalue-minimisations  :   240
 total energy-change (2. order) :-0.1141135E+01  (-0.4755464E-01)
 number of electron      87.9999980 magnetization       1.7109261
 augmentation part       32.2596631 magnetization       1.4842647

 Broyden mixing:
  rms(total) = 0.53514E-01    rms(broyden)= 0.53512E-01
  rms(prec ) = 0.54978E-01
  weight for this iteration     100.00

 eigenvalues of (default mixing * dielectric matrix)
  average eigenvalue GAMMA=   1.4288
  3.8461  2.2886  1.2826  1.2826  0.7763  0.7763  0.6170  0.5608

 Free energy of the ion-electron system (eV)
  ---------------------------------------------------
  alpha Z        PSCENC =         6.70175720
  Ewald energy   TEWEN  =      8224.62641237
  -Hartree energ DENC   =    -15270.97328192
  -exchange      EXHF   =         0.00000000
  -V(xc)+E(xc)   XCENC  =       117.73062494
  PAW double counting   =      8122.97877730    -7954.49183925
  entropy T*S    EENTRO =         0.01944455
  eigenvalues    EBANDS =      -668.75263628
  atomic energy  EATOM  =      7408.64415014
  Solvation  Ediel_sol  =         0.00000000
  ---------------------------------------------------
  free energy    TOTEN  =       -13.51659097 eV

  energy without entropy =      -13.53603551  energy(sigma->0) =      -13.52307248


--------------------------------------------------------------------------------------------------------




--------------------------------------- Iteration      1(  14)  ---------------------------------------


    POTLOK:  cpu time    3.9758: real time    3.9839
    SETDIJ:  cpu time    0.0286: real time    0.0287
     EDDAV:  cpu time    6.9731: real time    6.9819
       DOS:  cpu time    0.0009: real time    0.0009
    CHARGE:  cpu time    0.8526: real time    0.8556
    MIXING:  cpu time    0.1363: real time    0.1364
    --------------------------------------------
      LOOP:  cpu time   11.9673: real time   11.9874

 eigenvalue-minimisations  :   248
 total energy-change (2. order) :-0.4591963E+00  (-0.9387576E-02)
 number of electron      87.9999980 magnetization       1.1918785
 augmentation part       32.2647779 magnetization       1.0306200

 Broyden mixing:
  rms(total) = 0.40931E-01    rms(broyden)= 0.40931E-01
  rms(prec ) = 0.42493E-01
  weight for this iteration     100.00

 eigenvalues of (default mixing * dielectric matrix)
  average eigenvalue GAMMA=   1.4979
  4.6173  2.2867  1.5059  1.5059  0.8216  0.7911  0.7911  0.6196  0.5422

 Free energy of the ion-electron system (eV)
  ---------------------------------------------------
  alpha Z        PSCENC =         6.70175720
  Ewald energy   TEWEN  =      8224.62641237
  -Hartree energ DENC   =    -15269.30278068
  -exchange      EXHF   =         0.00000000
  -V(xc)+E(xc)   XCENC  =       117.32174390
  PAW double counting   =      8120.79858168    -7952.26122771
  entropy T*S    EENTRO =         0.02790450
  eigenvalues    EBANDS =      -670.53232871
  atomic energy  EATOM  =      7408.64415014
  Solvation  Ediel_sol  =         0.00000000
  ---------------------------------------------------
  free energy    TOTEN  =       -13.97578731 eV

  energy without entropy =      -14.00369181  energy(sigma->0) =      -13.98508881


--------------------------------------------------------------------------------------------------------




--------------------------------------- Iteration      1(  15)  ---------------------------------------


    POTLOK:  cpu time    3.9616: real time    3.9685
    SETDIJ:  cpu time    0.0289: real time    0.0290
     EDDAV:  cpu time    6.4767: real time    6.4832
       DOS:  cpu time    0.0011: real time    0.0078
    CHARGE:  cpu time    0.9074: real time    0.9105
    MIXING:  cpu time    0.1468: real time    0.1469
    --------------------------------------------
      LOOP:  cpu time   11.5224: real time   11.5458

 eigenvalue-minimisations  :   224
 total energy-change (2. order) :-0.5132968E+00  (-0.9351873E-02)
 number of electron      87.9999980 magnetization       0.6717378
 augmentation part       32.2768249 magnetization       0.5671068

 Broyden mixing:
  rms(total) = 0.30208E-01    rms(broyden)= 0.30207E-01
  rms(prec ) = 0.31487E-01
  weight for this iteration     100.00

 eigenvalues of (default mixing * dielectric matrix)
  average eigenvalue GAMMA=   1.6280
  5.6718  2.2783  2.2783  1.1622  1.1622  1.0013  0.8993  0.5331  0.6338  0.6600

 Free energy of the ion-electron system (eV)
  ---------------------------------------------------
  alpha Z        PSCENC =         6.70175720
  Ewald energy   TEWEN  =      8224.62641237
  -Hartree energ DENC   =    -15266.02371556
  -exchange      EXHF   =         0.00000000
  -V(xc)+E(xc)   XCENC  =       116.81020643
  PAW double counting   =      8116.69252579    -7948.03191278
  entropy T*S    EENTRO =         0.03496759
  eigenvalues    EBANDS =      -673.94347525
  atomic energy  EATOM  =      7408.64415014
  Solvation  Ediel_sol  =         0.00000000
  ---------------------------------------------------
  free energy    TOTEN  =       -14.48908407 eV

  energy without entropy =      -14.52405166  energy(sigma->0) =      -14.50073993


--------------------------------------------------------------------------------------------------------




--------------------------------------- Iteration      1(  16)  ---------------------------------------


    POTLOK:  cpu time    3.9895: real time    3.9945
    SETDIJ:  cpu time    0.0284: real time    0.0284
     EDDAV:  cpu time    6.9838: real time    6.9906
       DOS:  cpu time    0.0008: real time    0.0008
    CHARGE:  cpu time    0.8539: real time    0.8547
    MIXING:  cpu time    0.1495: real time    0.1518
    --------------------------------------------
      LOOP:  cpu time   12.0060: real time   12.0209

 eigenvalue-minimisations  :   248
 total energy-change (2. order) :-0.4931963E+00  (-0.5260929E-02)
 number of electron      87.9999980 magnetization       0.4302138
 augmentation part       32.2782995 magnetization       0.3721321

 Broyden mixing:
  rms(total) = 0.16361E-01    rms(broyden)= 0.16361E-01
  rms(prec ) = 0.17343E-01
  weight for this iteration     100.00

 eigenvalues of (default mixing * dielectric matrix)
  average eigenvalue GAMMA=   1.6744
  6.6219  2.3395  2.3395  1.3276  1.3276  1.0435  0.8025  0.8025  0.5334  0.6484
  0.6318

 Free energy of the ion-electron system (eV)
  ---------------------------------------------------
  alpha Z        PSCENC =         6.70175720
  Ewald energy   TEWEN  =      8224.62641237
  -Hartree energ DENC   =    -15264.05142939
  -exchange      EXHF   =         0.00000000
  -V(xc)+E(xc)   XCENC  =       116.30381994
  PAW double counting   =      8116.85048942    -7948.10583773
  entropy T*S    EENTRO =         0.03604013
  eigenvalues    EBANDS =      -675.98768247
  atomic energy  EATOM  =      7408.64415014
  Solvation  Ediel_sol  =         0.00000000
  ---------------------------------------------------
  free energy    TOTEN  =       -14.98228038 eV

  energy without entropy =      -15.01832051  energy(sigma->0) =      -14.99429376


--------------------------------------------------------------------------------------------------------




--------------------------------------- Iteration      1(  17)  ---------------------------------------


    POTLOK:  cpu time    3.9431: real time    3.9469
    SETDIJ:  cpu time    0.0280: real time    0.0280
     EDDAV:  cpu time    7.0119: real time    7.0213
       DOS:  cpu time    0.0009: real time    0.0009
    CHARGE:  cpu time    0.8972: real time    0.8981
    MIXING:  cpu time    0.1624: real time    0.1626
    --------------------------------------------
      LOOP:  cpu time   12.0436: real time   12.0577

 eigenvalue-minimisations  :   256
 total energy-change (2. order) :-0.2222638E+00  (-0.9626556E-03)
 number of electron      87.9999980 magnetization       0.1894840
 augmentation part       32.2781142 magnetization       0.1639774

 Broyden mixing:
  rms(total) = 0.11548E-01    rms(broyden)= 0.11547E-01
  rms(prec ) = 0.12573E-01
  weight for this iteration     100.00

 eigenvalues of (default mixing * dielectric matrix)
  average eigenvalue GAMMA=   1.7655
  7.5517  2.7810  2.0969  2.0969  1.1841  1.1841  0.8754  0.8754  0.7369  0.5350
  0.6470  0.6214

 Free energy of the ion-electron system (eV)
  ---------------------------------------------------
  alpha Z        PSCENC =         6.70175720
  Ewald energy   TEWEN  =      8224.62641237
  -Hartree energ DENC   =    -15262.87416091
  -exchange      EXHF   =         0.00000000
  -V(xc)+E(xc)   XCENC  =       116.06921871
  PAW double counting   =      8116.50538083    -7947.71915201
  entropy T*S    EENTRO =         0.03605181
  eigenvalues    EBANDS =      -677.19420229
  atomic energy  EATOM  =      7408.64415014
  Solvation  Ediel_sol  =         0.00000000
  ---------------------------------------------------
  free energy    TOTEN  =       -15.20454416 eV

  energy without entropy =      -15.24059597  energy(sigma->0) =      -15.21656143


--------------------------------------------------------------------------------------------------------




--------------------------------------- Iteration      1(  18)  ---------------------------------------


    POTLOK:  cpu time    3.9640: real time    3.9728
    SETDIJ:  cpu time    0.0298: real time    0.0299
     EDDAV:  cpu time    6.8036: real time    6.8104
       DOS:  cpu time    0.0067: real time    0.0067
    CHARGE:  cpu time    0.8953: real time    0.8962
    MIXING:  cpu time    0.1781: real time    0.1783
    --------------------------------------------
      LOOP:  cpu time   11.8775: real time   11.8943

 eigenvalue-minimisations  :   240
 total energy-change (2. order) :-0.1908799E+00  (-0.6437597E-03)
 number of electron      87.9999980 magnetization       0.0977049
 augmentation part       32.2805947 magnetization       0.0958826

 Broyden mixing:
  rms(total) = 0.62355E-02    rms(broyden)= 0.62338E-02
  rms(prec ) = 0.69476E-02
  weight for this iteration     100.00

 eigenvalues of (default mixing * dielectric matrix)
  average eigenvalue GAMMA=   1.8178
  8.1630  3.5102  2.3621  1.8457  1.2853  1.2853  1.0630  0.8085  0.8085  0.7159
  0.5339  0.6251  0.6251

 Free energy of the ion-electron system (eV)
  ---------------------------------------------------
  alpha Z        PSCENC =         6.70175720
  Ewald energy   TEWEN  =      8224.62641237
  -Hartree energ DENC   =    -15261.05311773
  -exchange      EXHF   =         0.00000000
  -V(xc)+E(xc)   XCENC  =       115.85370943
  PAW double counting   =      8119.05120410    -7950.26009984
  entropy T*S    EENTRO =         0.03750576
  eigenvalues    EBANDS =      -678.99694551
  atomic energy  EATOM  =      7408.64415014
  Solvation  Ediel_sol  =         0.00000000
  ---------------------------------------------------
  free energy    TOTEN  =       -15.39542408 eV

  energy without entropy =      -15.43292984  energy(sigma->0) =      -15.40792600


--------------------------------------------------------------------------------------------------------




--------------------------------------- Iteration      1(  19)  ---------------------------------------


    POTLOK:  cpu time    3.9392: real time    3.9482
    SETDIJ:  cpu time    0.0273: real time    0.0273
     EDDAV:  cpu time    6.3630: real time    6.3694
       DOS:  cpu time    0.0016: real time    0.0016
    CHARGE:  cpu time    0.8477: real time    0.8507
    MIXING:  cpu time    0.2022: real time    0.2024
    --------------------------------------------
      LOOP:  cpu time   11.3809: real time   11.3995

 eigenvalue-minimisations  :   216
 total energy-change (2. order) :-0.5824871E-01  (-0.1169364E-03)
 number of electron      87.9999980 magnetization       0.0550885
 augmentation part       32.2804850 magnetization       0.0540439

 Broyden mixing:
  rms(total) = 0.38995E-02    rms(broyden)= 0.38991E-02
  rms(prec ) = 0.44883E-02
  weight for this iteration     100.00

 eigenvalues of (default mixing * dielectric matrix)
  average eigenvalue GAMMA=   1.8443
  8.7315  3.6324  2.3437  2.3437  1.3222  1.3222  1.1775  0.8196  0.8196  0.8326
  0.5341  0.6842  0.6287  0.6287

 Free energy of the ion-electron system (eV)
  ---------------------------------------------------
  alpha Z        PSCENC =         6.70175720
  Ewald energy   TEWEN  =      8224.62641237
  -Hartree energ DENC   =    -15260.23071361
  -exchange      EXHF   =         0.00000000
  -V(xc)+E(xc)   XCENC  =       115.78767398
  PAW double counting   =      8121.52742246    -7952.75278520
  entropy T*S    EENTRO =         0.03824897
  eigenvalues    EBANDS =      -679.79583910
  atomic energy  EATOM  =      7408.64415014
  Solvation  Ediel_sol  =         0.00000000
  ---------------------------------------------------
  free energy    TOTEN  =       -15.45367279 eV

  energy without entropy =      -15.49192176  energy(sigma->0) =      -15.46642245


--------------------------------------------------------------------------------------------------------




--------------------------------------- Iteration      1(  20)  ---------------------------------------


    POTLOK:  cpu time    3.9504: real time    3.9669
    SETDIJ:  cpu time    0.0273: real time    0.0273
     EDDAV:  cpu time    5.4942: real time    5.4998
       DOS:  cpu time    0.0050: real time    0.0050
    CHARGE:  cpu time    0.8999: real time    0.9008
    MIXING:  cpu time    0.1983: real time    0.1985
    --------------------------------------------
      LOOP:  cpu time   10.5751: real time   10.5983

 eigenvalue-minimisations  :   176
 total energy-change (2. order) :-0.2001137E-01  (-0.3808696E-04)
 number of electron      87.9999980 magnetization       0.0306305
 augmentation part       32.2808226 magnetization       0.0313827

 Broyden mixing:
  rms(total) = 0.21852E-02    rms(broyden)= 0.21851E-02
  rms(prec ) = 0.27312E-02
  weight for this iteration     100.00

 eigenvalues of (default mixing * dielectric matrix)
  average eigenvalue GAMMA=   1.8456
  9.0385  3.8637  2.5336  2.5336  1.2629  1.2629  1.2209  0.9191  0.9191  0.8277
  0.8277  0.5343  0.7020  0.6313  0.6073

 Free energy of the ion-electron system (eV)
  ---------------------------------------------------
  alpha Z        PSCENC =         6.70175720
  Ewald energy   TEWEN  =      8224.62641237
  -Hartree energ DENC   =    -15259.79746584
  -exchange      EXHF   =         0.00000000
  -V(xc)+E(xc)   XCENC  =       115.76551426
  PAW double counting   =      8121.50444611    -7952.72972058
  entropy T*S    EENTRO =         0.03781596
  eigenvalues    EBANDS =      -680.22659379
  atomic energy  EATOM  =      7408.64415014
  Solvation  Ediel_sol  =         0.00000000
  ---------------------------------------------------
  free energy    TOTEN  =       -15.47368416 eV

  energy without entropy =      -15.51150013  energy(sigma->0) =      -15.48628949


--------------------------------------------------------------------------------------------------------




--------------------------------------- Iteration      1(  21)  ---------------------------------------


    POTLOK:  cpu time    3.9279: real time    3.9329
    SETDIJ:  cpu time    0.0269: real time    0.0269
     EDDAV:  cpu time    5.3506: real time    5.3584
       DOS:  cpu time    0.0009: real time    0.0009
    CHARGE:  cpu time    0.8551: real time    0.8560
    MIXING:  cpu time    0.2162: real time    0.2186
    --------------------------------------------
      LOOP:  cpu time   10.3775: real time   10.3938

 eigenvalue-minimisations  :   168
 total energy-change (2. order) :-0.1392746E-01  (-0.1551646E-04)
 number of electron      87.9999980 magnetization       0.0144379
 augmentation part       32.2808726 magnetization       0.0144388

 Broyden mixing:
  rms(total) = 0.13358E-02    rms(broyden)= 0.13358E-02
  rms(prec ) = 0.18074E-02
  weight for this iteration     100.00

 eigenvalues of (default mixing * dielectric matrix)
  average eigenvalue GAMMA=   1.8474
  9.2746  4.1847  2.5172  2.5172  1.7272  1.3060  1.3060  0.9473  0.9473  0.8396
  0.8396  0.5343  0.6915  0.6915  0.6033  0.6310

 Free energy of the ion-electron system (eV)
  ---------------------------------------------------
  alpha Z        PSCENC =         6.70175720
  Ewald energy   TEWEN  =      8224.62641237
  -Hartree energ DENC   =    -15259.41150764
  -exchange      EXHF   =         0.00000000
  -V(xc)+E(xc)   XCENC  =       115.74987506
  PAW double counting   =      8121.94650860    -7953.17579712
  entropy T*S    EENTRO =         0.03810617
  eigenvalues    EBANDS =      -680.60711639
  atomic energy  EATOM  =      7408.64415014
  Solvation  Ediel_sol  =         0.00000000
  ---------------------------------------------------
  free energy    TOTEN  =       -15.48761163 eV

  energy without entropy =      -15.52571780  energy(sigma->0) =      -15.50031368


--------------------------------------------------------------------------------------------------------




--------------------------------------- Iteration      1(  22)  ---------------------------------------


    POTLOK:  cpu time    3.9076: real time    4.0589
    SETDIJ:  cpu time    0.0281: real time    0.0281
     EDDAV:  cpu time    5.4950: real time    5.5008
       DOS:  cpu time    0.0012: real time    0.0012
    CHARGE:  cpu time    0.8433: real time    0.8441
    MIXING:  cpu time    0.2392: real time    0.2395
    --------------------------------------------
      LOOP:  cpu time   10.5144: real time   10.6725

 eigenvalue-minimisations  :   176
 total energy-change (2. order) :-0.5950935E-02  (-0.1102556E-04)
 number of electron      87.9999980 magnetization       0.0101856
 augmentation part       32.2811643 magnetization       0.0103866

 Broyden mixing:
  rms(total) = 0.78667E-03    rms(broyden)= 0.78664E-03
  rms(prec ) = 0.11616E-02
  weight for this iteration     100.00

 eigenvalues of (default mixing * dielectric matrix)
  average eigenvalue GAMMA=   1.8315
  9.2836  4.4733  2.4670  2.3803  2.3803  1.3070  1.3070  0.9918  0.8721  0.8721
  0.7813  0.7813  0.7751  0.5342  0.6991  0.6150  0.6150

 Free energy of the ion-electron system (eV)
  ---------------------------------------------------
  alpha Z        PSCENC =         6.70175720
  Ewald energy   TEWEN  =      8224.62641237
  -Hartree energ DENC   =    -15259.10863425
  -exchange      EXHF   =         0.00000000
  -V(xc)+E(xc)   XCENC  =       115.74212878
  PAW double counting   =      8121.84233530    -7953.07052636
  entropy T*S    EENTRO =         0.03789594
  eigenvalues    EBANDS =      -680.90908167
  atomic energy  EATOM  =      7408.64415014
  Solvation  Ediel_sol  =         0.00000000
  ---------------------------------------------------
  free energy    TOTEN  =       -15.49356256 eV

  energy without entropy =      -15.53145850  energy(sigma->0) =      -15.50619454


--------------------------------------------------------------------------------------------------------




--------------------------------------- Iteration      1(  23)  ---------------------------------------


    POTLOK:  cpu time    3.8954: real time    3.9004
    SETDIJ:  cpu time    0.0285: real time    0.0285
     EDDAV:  cpu time    5.5183: real time    5.5262
       DOS:  cpu time    0.0008: real time    0.0008
    CHARGE:  cpu time    0.8904: real time    0.8913
    MIXING:  cpu time    0.2391: real time    0.2393
    --------------------------------------------
      LOOP:  cpu time   10.5725: real time   10.5866

 eigenvalue-minimisations  :   176
 total energy-change (2. order) :-0.2574155E-02  (-0.4046464E-05)
 number of electron      87.9999980 magnetization       0.0053298
 augmentation part       32.2811817 magnetization       0.0044099

 Broyden mixing:
  rms(total) = 0.62032E-03    rms(broyden)= 0.62031E-03
  rms(prec ) = 0.86057E-03
  weight for this iteration     100.00

 eigenvalues of (default mixing * dielectric matrix)
  average eigenvalue GAMMA=   1.8506
  9.3353  4.8457  2.8011  2.5615  2.5615  1.2981  1.2981  1.2984  0.9600  0.9600
  0.8297  0.8297  0.5340  0.6903  0.6588  0.6588  0.5945  0.5945

 Free energy of the ion-electron system (eV)
  ---------------------------------------------------
  alpha Z        PSCENC =         6.70175720
  Ewald energy   TEWEN  =      8224.62641237
  -Hartree energ DENC   =    -15258.86621346
  -exchange      EXHF   =         0.00000000
  -V(xc)+E(xc)   XCENC  =       115.73838197
  PAW double counting   =      8121.82120729    -7953.04911463
  entropy T*S    EENTRO =         0.03797499
  eigenvalues    EBANDS =      -681.15069259
  atomic energy  EATOM  =      7408.64415014
  Solvation  Ediel_sol  =         0.00000000
  ---------------------------------------------------
  free energy    TOTEN  =       -15.49613672 eV

  energy without entropy =      -15.53411171  energy(sigma->0) =      -15.50879505


--------------------------------------------------------------------------------------------------------




--------------------------------------- Iteration      1(  24)  ---------------------------------------


    POTLOK:  cpu time    3.8889: real time    3.9126
    SETDIJ:  cpu time    0.0287: real time    0.0287
     EDDAV:  cpu time    5.3756: real time    5.3831
       DOS:  cpu time    0.0063: real time    0.0063
    CHARGE:  cpu time    0.8359: real time    0.8368
    MIXING:  cpu time    0.2617: real time    0.2620
    --------------------------------------------
      LOOP:  cpu time   10.3971: real time   10.4296

 eigenvalue-minimisations  :   168
 total energy-change (2. order) :-0.1247320E-02  (-0.2020367E-05)
 number of electron      87.9999980 magnetization       0.0026725
 augmentation part       32.2812995 magnetization       0.0021426

 Broyden mixing:
  rms(total) = 0.39185E-03    rms(broyden)= 0.39184E-03
  rms(prec ) = 0.56731E-03
  weight for this iteration     100.00

 eigenvalues of (default mixing * dielectric matrix)
  average eigenvalue GAMMA=   1.8465
  9.3381  5.1032  2.9753  2.6033  2.6033  1.5130  1.2918  1.2918  1.0294  1.0294
  0.8178  0.8178  0.8668  0.7610  0.5342  0.6706  0.5867  0.6331  0.6173

 Free energy of the ion-electron system (eV)
  ---------------------------------------------------
  alpha Z        PSCENC =         6.70175720
  Ewald energy   TEWEN  =      8224.62641237
  -Hartree energ DENC   =    -15258.69570061
  -exchange      EXHF   =         0.00000000
  -V(xc)+E(xc)   XCENC  =       115.73589990
  PAW double counting   =      8121.69528882    -7952.92158309
  entropy T*S    EENTRO =         0.03787134
  eigenvalues    EBANDS =      -681.32148009
  atomic energy  EATOM  =      7408.64415014
  Solvation  Ediel_sol  =         0.00000000
  ---------------------------------------------------
  free energy    TOTEN  =       -15.49738404 eV

  energy without entropy =      -15.53525537  energy(sigma->0) =      -15.51000782


--------------------------------------------------------------------------------------------------------




--------------------------------------- Iteration      1(  25)  ---------------------------------------


    POTLOK:  cpu time    3.8649: real time    3.8768
    SETDIJ:  cpu time    0.0281: real time    0.0281
     EDDAV:  cpu time    5.4734: real time    5.4809
       DOS:  cpu time    0.0016: real time    0.0016
    CHARGE:  cpu time    0.8400: real time    0.8408
    MIXING:  cpu time    0.2793: real time    0.2795
    --------------------------------------------
      LOOP:  cpu time   10.4873: real time   10.5077

 eigenvalue-minimisations  :   176
 total energy-change (2. order) :-0.1180685E-02  (-0.1370575E-05)
 number of electron      87.9999980 magnetization       0.0002886
 augmentation part       32.2813233 magnetization      -0.0000282

 Broyden mixing:
  rms(total) = 0.25817E-03    rms(broyden)= 0.25816E-03
  rms(prec ) = 0.35207E-03
  weight for this iteration     100.00

 eigenvalues of (default mixing * dielectric matrix)
  average eigenvalue GAMMA=   1.8735
  9.3566  5.3460  3.4608  2.5557  2.5557  2.2408  1.3039  1.3039  1.1164  0.9525
  0.9525  0.8563  0.8563  0.7927  0.7927  0.5341  0.6532  0.6407  0.5841  0.6151

 Free energy of the ion-electron system (eV)
  ---------------------------------------------------
  alpha Z        PSCENC =         6.70175720
  Ewald energy   TEWEN  =      8224.62641237
  -Hartree energ DENC   =    -15258.53028957
  -exchange      EXHF   =         0.00000000
  -V(xc)+E(xc)   XCENC  =       115.73340302
  PAW double counting   =      8121.77336133    -7952.99958239
  entropy T*S    EENTRO =         0.03790219
  eigenvalues    EBANDS =      -681.48567902
  atomic energy  EATOM  =      7408.64415014
  Solvation  Ediel_sol  =         0.00000000
  ---------------------------------------------------
  free energy    TOTEN  =       -15.49856472 eV

  energy without entropy =      -15.53646691  energy(sigma->0) =      -15.51119878


--------------------------------------------------------------------------------------------------------




--------------------------------------- Iteration      1(  26)  ---------------------------------------


    POTLOK:  cpu time    3.9313: real time    3.9381
    SETDIJ:  cpu time    0.0281: real time    0.0281
     EDDAV:  cpu time    5.3225: real time    5.3277
       DOS:  cpu time    0.0064: real time    0.0064
    CHARGE:  cpu time    0.8868: real time    0.8877
    MIXING:  cpu time    0.2886: real time    0.2911
    --------------------------------------------
      LOOP:  cpu time   10.4637: real time   10.4792

 eigenvalue-minimisations  :   168
 total energy-change (2. order) :-0.9268414E-03  (-0.9039514E-06)
 number of electron      87.9999980 magnetization       0.0000102
 augmentation part       32.2814061 magnetization      -0.0000001

 Broyden mixing:
  rms(total) = 0.14306E-03    rms(broyden)= 0.14303E-03
  rms(prec ) = 0.18690E-03
  weight for this iteration     100.00

 eigenvalues of (default mixing * dielectric matrix)
  average eigenvalue GAMMA=   1.9294
  9.3629  6.1778  4.1910  2.6529  2.6529  2.4819  1.2781  1.2781  1.3307  1.1178
  0.9170  0.9170  0.8334  0.8334  0.7836  0.5341  0.6970  0.6564  0.6183  0.6183
  0.5860

 Free energy of the ion-electron system (eV)
  ---------------------------------------------------
  alpha Z        PSCENC =         6.70175720
  Ewald energy   TEWEN  =      8224.62641237
  -Hartree energ DENC   =    -15258.40461366
  -exchange      EXHF   =         0.00000000
  -V(xc)+E(xc)   XCENC  =       115.73142224
  PAW double counting   =      8121.79284061    -7953.01857647
  entropy T*S    EENTRO =         0.03787112
  eigenvalues    EBANDS =      -681.61075511
  atomic energy  EATOM  =      7408.64415014
  Solvation  Ediel_sol  =         0.00000000
  ---------------------------------------------------
  free energy    TOTEN  =       -15.49949156 eV

  energy without entropy =      -15.53736269  energy(sigma->0) =      -15.51211527


--------------------------------------------------------------------------------------------------------




--------------------------------------- Iteration      1(  27)  ---------------------------------------


    POTLOK:  cpu time    3.9141: real time    3.9235
    SETDIJ:  cpu time    0.0267: real time    0.0267
     EDDAV:  cpu time    5.3739: real time    5.3792
       DOS:  cpu time    0.0009: real time    0.0009
    CHARGE:  cpu time    0.8448: real time    0.8457
    MIXING:  cpu time    0.3131: real time    0.3134
    --------------------------------------------
      LOOP:  cpu time   10.4735: real time   10.4893

 eigenvalue-minimisations  :   168
 total energy-change (2. order) :-0.2915748E-03  (-0.1882203E-06)
 number of electron      87.9999980 magnetization      -0.0001309
 augmentation part       32.2814036 magnetization      -0.0001626

 Broyden mixing:
  rms(total) = 0.82733E-04    rms(broyden)= 0.82722E-04
  rms(prec ) = 0.11437E-03
  weight for this iteration     100.00

 eigenvalues of (default mixing * dielectric matrix)
  average eigenvalue GAMMA=   1.9624
  9.3838  6.9857  4.5286  2.7212  2.7212  2.5031  1.6214  1.2747  1.2747  1.3145
  0.9261  0.9261  0.8469  0.8469  0.8107  0.8107  0.5342  0.6717  0.6615  0.6126
  0.6126  0.5835

 Free energy of the ion-electron system (eV)
  ---------------------------------------------------
  alpha Z        PSCENC =         6.70175720
  Ewald energy   TEWEN  =      8224.62641237
  -Hartree energ DENC   =    -15258.36474986
  -exchange      EXHF   =         0.00000000
  -V(xc)+E(xc)   XCENC  =       115.73090651
  PAW double counting   =      8121.86679432    -7953.09297937
  entropy T*S    EENTRO =         0.03788817
  eigenvalues    EBANDS =      -681.64996261
  atomic energy  EATOM  =      7408.64415014
  Solvation  Ediel_sol  =         0.00000000
  ---------------------------------------------------
  free energy    TOTEN  =       -15.49978314 eV

  energy without entropy =      -15.53767131  energy(sigma->0) =      -15.51241253


--------------------------------------------------------------------------------------------------------




--------------------------------------- Iteration      1(  28)  ---------------------------------------


    POTLOK:  cpu time    3.8433: real time    3.8612
    SETDIJ:  cpu time    0.0279: real time    0.0279
     EDDAV:  cpu time    5.2041: real time    5.2116
       DOS:  cpu time    0.0009: real time    0.0009
    CHARGE:  cpu time    0.8407: real time    0.8415
    MIXING:  cpu time    0.3368: real time    0.3372
    --------------------------------------------
      LOOP:  cpu time   10.2537: real time   10.2804

 eigenvalue-minimisations  :   160
 total energy-change (2. order) :-0.1294284E-03  (-0.1105351E-06)
 number of electron      87.9999980 magnetization      -0.0001191
 augmentation part       32.2813805 magnetization      -0.0001195

 Broyden mixing:
  rms(total) = 0.47949E-04    rms(broyden)= 0.47941E-04
  rms(prec ) = 0.70590E-04
  weight for this iteration     100.00

 eigenvalues of (default mixing * dielectric matrix)
  average eigenvalue GAMMA=   1.9936
  9.4062  7.7410  4.7307  2.7728  2.7728  2.6223  2.0603  1.3961  1.2788  1.2788
  1.0471  0.9414  0.9414  0.8365  0.8365  0.7627  0.7627  0.5341  0.6811  0.6445
  0.6131  0.6131  0.5788

 Free energy of the ion-electron system (eV)
  ---------------------------------------------------
  alpha Z        PSCENC =         6.70175720
  Ewald energy   TEWEN  =      8224.62641237
  -Hartree energ DENC   =    -15258.34784195
  -exchange      EXHF   =         0.00000000
  -V(xc)+E(xc)   XCENC  =       115.73077378
  PAW double counting   =      8121.90869454    -7953.13505744
  entropy T*S    EENTRO =         0.03788379
  eigenvalues    EBANDS =      -681.66668499
  atomic energy  EATOM  =      7408.64415014
  Solvation  Ediel_sol  =         0.00000000
  ---------------------------------------------------
  free energy    TOTEN  =       -15.49991257 eV

  energy without entropy =      -15.53779635  energy(sigma->0) =      -15.51254049


--------------------------------------------------------------------------------------------------------




--------------------------------------- Iteration      1(  29)  ---------------------------------------


    POTLOK:  cpu time    3.8392: real time    3.8446
    SETDIJ:  cpu time    0.0288: real time    0.0288
     EDDAV:  cpu time    5.1972: real time    5.2025
       DOS:  cpu time    0.0009: real time    0.0009
    --------------------------------------------
      LOOP:  cpu time    9.0661: real time    9.0767

 eigenvalue-minimisations  :   160
 total energy-change (2. order) :-0.2305352E-04  (-0.4706625E-07)
 number of electron      87.9999980 magnetization      -0.0001191
 augmentation part       32.2813805 magnetization      -0.0001195

 Free energy of the ion-electron system (eV)
  ---------------------------------------------------
  alpha Z        PSCENC =         6.70175720
  Ewald energy   TEWEN  =      8224.62641237
  -Hartree energ DENC   =    -15258.34039005
  -exchange      EXHF   =         0.00000000
  -V(xc)+E(xc)   XCENC  =       115.73077086
  PAW double counting   =      8121.91638509    -7953.14276314
  entropy T*S    EENTRO =         0.03788322
  eigenvalues    EBANDS =      -681.67414131
  atomic energy  EATOM  =      7408.64415014
  Solvation  Ediel_sol  =         0.00000000
  ---------------------------------------------------
  free energy    TOTEN  =       -15.49993562 eV

  energy without entropy =      -15.53781884  energy(sigma->0) =      -15.51256336


--------------------------------------------------------------------------------------------------------




 average (electrostatic) potential at core
  the test charge radii are     1.2098
  (the norm of the test charge is              1.0000)
       1 -77.6870       2 -76.8656       3 -76.9033       4 -77.4952       5 -77.1033
       6 -77.0677       7 -77.4089       8 -77.1065
 
 
 
 E-fermi :  -4.6751     XC(G=0):  -0.3557     alpha+bet : -0.1708


 spin component 1

 k-point     1 :       0.0000    0.0000    0.0000
  band No.  band energies     occupation 
      1     -11.6079      1.00000
      2     -10.7257      1.00000
      3     -10.3435      1.00000
      4     -10.0369      1.00000
      5      -9.8051      1.00000
      6      -9.6312      1.00000
      7      -9.3662      1.00000
      8      -9.2461      1.00000
      9      -9.2255      1.00000
     10      -9.1298      1.00000
     11      -8.8721      1.00000
     12      -8.8571      1.00000
     13      -8.6983      1.00000
     14      -8.6198      1.00000
     15      -8.5575      1.00000
     16      -8.4433      1.00000
     17      -8.2644      1.00000
     18      -8.0193      1.00000
     19      -7.9709      1.00000
     20      -7.8492      1.00000
     21      -7.6341      1.00000
     22      -7.3934      1.00000
     23      -7.3531      1.00000
     24      -7.3102      1.00000
     25      -7.2529      1.00000
     26      -7.1829      1.00000
     27      -6.9188      1.00000
     28      -6.8921      1.00000
     29      -6.8655      1.00000
     30      -6.8448      1.00000
     31      -6.7962      1.00000
     32      -6.6033      1.00000
     33      -6.5450      1.00000
     34      -6.5252      1.00000
     35      -6.4334      1.00000
     36      -6.2928      1.00000
[...]
  -Hartree energ DENC   =    -14695.11024062
  -exchange      EXHF   =         0.00000000
  -V(xc)+E(xc)   XCENC  =       114.23669244
  PAW double counting   =      7778.82059923    -7607.33040132
  entropy T*S    EENTRO =         0.01159582
  eigenvalues    EBANDS =      -659.77417176
  atomic energy  EATOM  =      7408.64415014
  Solvation  Ediel_sol  =         0.00000000
  ---------------------------------------------------
  free energy    TOTEN  =       -16.93678075 eV

  energy without entropy =      -16.94837657  energy(sigma->0) =      -16.94064602


--------------------------------------------------------------------------------------------------------




--------------------------------------- Iteration     60(   3)  ---------------------------------------


    POTLOK:  cpu time    3.8368: real time    3.8439
    SETDIJ:  cpu time    0.0282: real time    0.0282
     EDDAV:  cpu time    5.2819: real time    5.2874
       DOS:  cpu time    0.0014: real time    0.0014
    --------------------------------------------
      LOOP:  cpu time    9.1483: real time    9.1609

 eigenvalue-minimisations  :   160
 total energy-change (2. order) : 0.9914700E-05  (-0.8205059E-05)
 number of electron      87.9999974 magnetization       0.0000000
 augmentation part       32.3617937 magnetization      -0.0000000

 Free energy of the ion-electron system (eV)
  ---------------------------------------------------
  alpha Z        PSCENC =         6.70175720
  Ewald energy   TEWEN  =      7636.86323812
  -Hartree energ DENC   =    -14695.11220832
  -exchange      EXHF   =         0.00000000
  -V(xc)+E(xc)   XCENC  =       114.23668608
  PAW double counting   =      7778.79754554    -7607.30793792
  entropy T*S    EENTRO =         0.01159582
  eigenvalues    EBANDS =      -659.77159750
  atomic energy  EATOM  =      7408.64415014
  Solvation  Ediel_sol  =         0.00000000
  ---------------------------------------------------
  free energy    TOTEN  =       -16.93677083 eV

  energy without entropy =      -16.94836665  energy(sigma->0) =      -16.94063611


--------------------------------------------------------------------------------------------------------




 average (electrostatic) potential at core
  the test charge radii are     1.2098
  (the norm of the test charge is              1.0000)
       1 -77.2661       2 -76.7921       3 -76.8300       4 -77.1593       5 -76.9034
       6 -76.8705       7 -77.3433       8 -76.9021
 
 
 
 E-fermi :  -4.9866     XC(G=0):  -0.3627     alpha+bet : -0.1708


 spin component 1

 k-point     1 :       0.0000    0.0000    0.0000
  band No.  band energies     occupation 
      1     -10.7679      1.00000
      2     -10.0889      1.00000
      3      -9.8096      1.00000
      4      -9.5183      1.00000
      5      -9.3155      1.00000
      6      -8.9857      1.00000
      7      -8.9452      1.00000
      8      -8.8800      1.00000
      9      -8.6562      1.00000
     10      -8.5085      1.00000
     11      -8.4310      1.00000
     12      -8.2708      1.00000
     13      -8.0832      1.00000
     14      -8.0319      1.00000
     15      -7.8494      1.00000
     16      -7.8109      1.00000
     17      -7.6704      1.00000
     18      -7.6533      1.00000
     19      -7.5822      1.00000
     20      -7.5456      1.00000
     21      -7.3733      1.00000
     22      -7.3116      1.00000
     23      -7.2916      1.00000
     24      -7.2357      1.00000
     25      -7.1574      1.00000
     26      -7.0197      1.00000
     27      -6.8804      1.00000
     28      -6.8549      1.00000
     29      -6.7976      1.00000
     30      -6.7311      1.00000
     31      -6.6679      1.00000
     32      -6.6349      1.00000
     33      -6.6298      1.00000
     34      -6.5514      1.00000
     35      -6.4333      1.00000
     36      -6.3683      1.00000
     37      -6.2814      1.00000
     38      -6.1952      1.00000
     39      -6.1569      1.00000
     40      -6.0587      1.00000
     41      -5.9247      1.00000
     42      -5.9071      1.00000
     43      -5.8632      1.00000
     44      -5.1550      1.00000
     45      -3.9116     -0.00000
     46      -3.6735     -0.00000
     47      -3.5263     -0.00000
     48      -3.4628     -0.00000
     49      -1.5885     -0.00000
     50      -1.5436     -0.00000
     51      -1.3751     -0.00000
     52      -1.2275     -0.00000
     53      -0.8183     -0.00000
     54      -0.5682     -0.00000
     55      -0.3363     -0.00000
     56       0.0955     -0.00000

 spin component 2

 k-point     1 :       0.0000    0.0000    0.0000
  band No.  band energies     occupation 
      1     -10.7679      1.00000
      2     -10.0889      1.00000
      3      -9.8096      1.00000
      4      -9.5183      1.00000
      5      -9.3155      1.00000
      6      -8.9857      1.00000
      7      -8.9452      1.00000
      8      -8.8800      1.00000
      9      -8.6562      1.00000
     10      -8.5085      1.00000
     11      -8.4310      1.00000
     12      -8.2708      1.00000
     13      -8.0832      1.00000
     14      -8.0319      1.00000
     15      -7.8494      1.00000
     16      -7.8109      1.00000
     17      -7.6704      1.00000
     18      -7.6533      1.00000
     19      -7.5822      1.00000
     20      -7.5456      1.00000
     21      -7.3733      1.00000
     22      -7.3116      1.00000
     23      -7.2916      1.00000
     24      -7.2357      1.00000
     25      -7.1574      1.00000
     26      -7.0197      1.00000
     27      -6.8804      1.00000
     28      -6.8549      1.00000
     29      -6.7976      1.00000
     30      -6.7311      1.00000
     31      -6.6679      1.00000
     32      -6.6349      1.00000
     33      -6.6298      1.00000
     34      -6.5514      1.00000
     35      -6.4333      1.00000
     36      -6.3683      1.00000
     37      -6.2814      1.00000
     38      -6.1952      1.00000
     39      -6.1569      1.00000
     40      -6.0587      1.00000
     41      -5.9247      1.00000
     42      -5.9071      1.00000
     43      -5.8632      1.00000
     44      -5.1550      1.00000
     45      -3.9116     -0.00000
     46      -3.6735     -0.00000
     47      -3.5263     -0.00000
     48      -3.4628     -0.00000
     49      -1.5885     -0.00000
     50      -1.5436     -0.00000
     51      -1.3751     -0.00000
     52      -1.2275     -0.00000
     53      -0.8183     -0.00000
     54      -0.5682     -0.00000
     55      -0.3363     -0.00000
     56       0.0955     -0.00000


--------------------------------------------------------------------------------------------------------


 soft charge-density along one line, spin component            1
         0         1         2         3         4         5         6         7         8         9
 total charge-density along one line
 
 soft charge-density along one line, spin component            2
         0         1         2         3         4         5         6         7         8         9
 total charge-density along one line
 
 pseudopotential strength for first ion, spin component:            1
 -9.454   0.008   0.018  -0.009   0.001  -9.570   0.008   0.017
  0.008  -9.469  -0.002  -0.007   0.013   0.008  -9.585  -0.001
  0.018  -0.002  -9.428   0.007  -0.041   0.017  -0.001  -9.545
 -0.009  -0.007   0.007  -9.400   0.010  -0.009  -0.006   0.007
  0.001   0.013  -0.041   0.010  -9.469   0.001   0.012  -0.040
 -9.570   0.008   0.017  -0.009   0.001  -9.670   0.008   0.017
  0.008  -9.585  -0.001  -0.006   0.012   0.008  -9.685  -0.001
  0.017  -0.001  -9.545   0.007  -0.040   0.017  -0.001  -9.646
 -0.009  -0.006   0.007  -9.518   0.010  -0.009  -0.006   0.007
  0.001   0.012  -0.040   0.010  -9.584   0.001   0.012  -0.039
  0.009   0.008  -0.012  -0.007  -0.028   0.009   0.008  -0.012
  0.013   0.012  -0.018  -0.010  -0.041   0.013   0.012  -0.018
 -0.009   0.014  -0.003  -0.000  -0.004  -0.009   0.014  -0.003
 -0.000   0.004   0.018  -0.010   0.000  -0.000   0.004   0.017
  0.004  -0.000   0.006   0.015  -0.011   0.004  -0.000   0.006
 -0.011   0.016  -0.004  -0.000  -0.005  -0.010   0.015  -0.003
 -0.000   0.005   0.021  -0.011   0.001  -0.000   0.004   0.020
  0.005  -0.000   0.007   0.017  -0.013   0.005  -0.000   0.007
 pseudopotential strength for first ion, spin component:            2
 -9.454   0.008   0.018  -0.009   0.001  -9.570   0.008   0.017
  0.008  -9.469  -0.002  -0.007   0.013   0.008  -9.585  -0.001
  0.018  -0.002  -9.428   0.007  -0.041   0.017  -0.001  -9.545
 -0.009  -0.007   0.007  -9.400   0.010  -0.009  -0.006   0.007
  0.001   0.013  -0.041   0.010  -9.469   0.001   0.012  -0.040
 -9.570   0.008   0.017  -0.009   0.001  -9.670   0.008   0.017
  0.008  -9.585  -0.001  -0.006   0.012   0.008  -9.685  -0.001
  0.017  -0.001  -9.545   0.007  -0.040   0.017  -0.001  -9.646
 -0.009  -0.006   0.007  -9.518   0.010  -0.009  -0.006   0.007
  0.001   0.012  -0.040   0.010  -9.584   0.001   0.012  -0.039
  0.009   0.008  -0.012  -0.007  -0.028   0.009   0.008  -0.012
  0.013   0.012  -0.018  -0.010  -0.041   0.013   0.012  -0.018
 -0.009   0.014  -0.003  -0.000  -0.004  -0.009   0.014  -0.003
 -0.000   0.004   0.018  -0.010   0.000  -0.000   0.004   0.017
  0.004  -0.000   0.006   0.015  -0.011   0.004  -0.000   0.006
 -0.011   0.016  -0.004  -0.000  -0.005  -0.010   0.015  -0.003
 -0.000   0.005   0.021  -0.011   0.001  -0.000   0.004   0.020
  0.005  -0.000   0.007   0.017  -0.013   0.005  -0.000   0.007
 total augmentation occupancy for first ion, spin component:            1
  3.686  -0.219  -0.282   0.063  -0.031  -1.591   0.217   0.388  -0.091   0.054  -0.477   0.106  -0.173  -0.032  -0.055  -0.002
 -0.219   3.992  -0.155   0.077  -0.172   0.217  -2.001   0.193  -0.043   0.253  -0.344   0.017   0.264  -0.036   0.004   0.003
 -0.282  -0.155   3.849  -0.193   0.428   0.387   0.193  -1.746   0.221  -0.587   0.506  -0.038   0.027   0.193   0.047  -0.004
  0.063   0.077  -0.193   3.439  -0.325  -0.091  -0.046   0.222  -1.218   0.352   0.470  -0.169  -0.032  -0.132   0.145   0.000
 -0.031  -0.172   0.428  -0.325   4.146   0.055   0.254  -0.586   0.352  -2.276   1.291  -0.178  -0.024   0.012  -0.130  -0.003
 -1.591   0.217   0.387  -0.091   0.055   1.457  -0.217  -0.468   0.112  -0.076   0.429  -0.111   0.165   0.034   0.056  -0.005
  0.217  -2.001   0.193  -0.046   0.254  -0.217   1.950  -0.224   0.019  -0.320   0.308  -0.028  -0.261   0.036   0.006   0.009
  0.388   0.193  -1.746   0.222  -0.586  -0.468  -0.224   1.612  -0.244   0.713  -0.450   0.050  -0.018  -0.202  -0.053   0.001
 -0.091  -0.043   0.221  -1.218   0.352   0.112   0.019  -0.244   0.992  -0.373  -0.430   0.166   0.032   0.140  -0.157  -0.001
  0.054   0.253  -0.587   0.352  -2.276  -0.076  -0.320   0.713  -0.373   2.325  -1.160   0.204   0.027  -0.004   0.137  -0.001
 -0.477  -0.344   0.506   0.470   1.291   0.429   0.308  -0.450  -0.430  -1.160   2.290  -0.499   0.015  -0.170   0.122  -0.001
  0.106   0.017  -0.038  -0.169  -0.178  -0.111  -0.028   0.050   0.166   0.204  -0.499   0.128  -0.019   0.057  -0.044   0.001
 -0.173   0.264   0.027  -0.032  -0.024   0.165  -0.261  -0.018   0.032   0.027   0.015  -0.019   0.189   0.017   0.021  -0.006
 -0.032  -0.036   0.193  -0.132   0.012   0.034   0.036  -0.202   0.140  -0.004  -0.170   0.057   0.017   0.075  -0.010  -0.001
 -0.055   0.004   0.047   0.145  -0.130   0.056   0.006  -0.053  -0.157   0.137   0.122  -0.044   0.021  -0.010   0.063  -0.001
 -0.002   0.003  -0.004   0.000  -0.003  -0.005   0.009   0.001  -0.001  -0.001  -0.001   0.001  -0.006  -0.001  -0.001   0.000
 -0.000   0.003   0.012  -0.003   0.003  -0.000  -0.000   0.004  -0.005  -0.002   0.012  -0.003  -0.000  -0.003   0.001   0.000
  0.007  -0.000   0.004   0.008  -0.008  -0.003  -0.000   0.001   0.004  -0.002  -0.009   0.002  -0.001   0.001  -0.002   0.000
 total augmentation occupancy for first ion, spin component:            2
 -0.000   0.000  -0.000  -0.000   0.000   0.000  -0.000   0.000   0.000  -0.000  -0.000   0.000   0.000  -0.000  -0.000   0.000
  0.000   0.000  -0.000  -0.000  -0.000  -0.000  -0.000   0.000   0.000   0.000   0.000  -0.000  -0.000   0.000  -0.000   0.000
 -0.000  -0.000  -0.000  -0.000   0.000   0.000   0.000   0.000   0.000  -0.000   0.000  -0.000   0.000  -0.000  -0.000  -0.000
 -0.000  -0.000  -0.000   0.000   0.000  -0.000   0.000   0.000  -0.000  -0.000   0.000  -0.000  -0.000  -0.000  -0.000   0.000
  0.000  -0.000   0.000   0.000   0.000  -0.000   0.000  -0.000  -0.000  -0.000  -0.000   0.000  -0.000  -0.000   0.000  -0.000
  0.000  -0.000   0.000  -0.000  -0.000  -0.000   0.000  -0.000   0.000   0.000   0.000  -0.000  -0.000   0.000   0.000  -0.000
 -0.000  -0.000   0.000   0.000   0.000   0.000  -0.000  -0.000  -0.000  -0.000  -0.000   0.000   0.000   0.000  -0.000  -0.000
  0.000   0.000   0.000   0.000  -0.000  -0.000  -0.000  -0.000  -0.000  -0.000  -0.000   0.000  -0.000   0.000   0.000   0.000
  0.000   0.000   0.000  -0.000  -0.000   0.000  -0.000  -0.000  -0.000   0.000  -0.000   0.000   0.000   0.000   0.000  -0.000
 -0.000   0.000  -0.000  -0.000  -0.000   0.000  -0.000  -0.000   0.000   0.000  -0.000  -0.000   0.000   0.000  -0.000   0.000
 -0.000   0.000   0.000   0.000  -0.000   0.000  -0.000  -0.000  -0.000  -0.000  -0.000   0.000   0.000   0.000   0.000  -0.000
  0.000  -0.000  -0.000  -0.000   0.000  -0.000   0.000   0.000   0.000  -0.000   0.000  -0.000  -0.000  -0.000  -0.000   0.000
  0.000  -0.000   0.000  -0.000  -0.000  -0.000   0.000  -0.000   0.000   0.000   0.000  -0.000  -0.000   0.000   0.000   0.000
 -0.000   0.000  -0.000  -0.000  -0.000   0.000   0.000   0.000   0.000   0.000   0.000  -0.000   0.000  -0.000  -0.000  -0.000
 -0.000  -0.000  -0.000  -0.000   0.000   0.000  -0.000   0.000   0.000  -0.000   0.000  -0.000   0.000  -0.000  -0.000  -0.000
  0.000   0.000  -0.000   0.000  -0.000  -0.000  -0.000   0.000  -0.000   0.000  -0.000   0.000   0.000  -0.000  -0.000   0.000
 -0.000  -0.000   0.000  -0.000   0.000   0.000  -0.000  -0.000   0.000  -0.000   0.000  -0.000   0.000   0.000   0.000  -0.000
  0.000  -0.000  -0.000  -0.000  -0.000  -0.000   0.000  -0.000  -0.000   0.000  -0.000   0.000  -0.000   0.000   0.000   0.000


------------------------ aborting loop because EDIFF is reached ----------------------------------------


    CHARGE:  cpu time    0.8882: real time    0.8890
    FORLOC:  cpu time    0.1062: real time    0.1063
    FORNL :  cpu time    3.6342: real time    3.6377
    FORCOR:  cpu time    3.7463: real time    3.7506
    FORHAR:  cpu time    0.5072: real time    0.5078
    MIXING:  cpu time    0.0819: real time    0.0820
    OFIELD:  cpu time    0.0000: real time    0.0000

 VOLUME and BASIS-vectors are now :
 -----------------------------------------------------------------------------
  energy-cutoff  :      400.00
  volume of cell :    11123.49
      direct lattice vectors                 reciprocal lattice vectors
    21.617208572  0.000000000  0.000000000     0.046259442  0.000000000  0.000000000
     0.000000000 22.657025112  0.000000000     0.000000000  0.044136421  0.000000000
     0.000000000  0.000000000 22.711126418     0.000000000  0.000000000  0.044031281

  length of vectors
    21.617208572 22.657025112 22.711126418     0.046259442  0.044136421  0.044031281


 FORCES acting on ions
    electron-ion (+dipol)            ewald-force                    non-local-force                 convergence-correction
 -----------------------------------------------------------------------------------------------
   0.424E+03 0.132E+03 -.559E+03   -.423E+03 -.132E+03 0.558E+03   -.992E+00 0.574E+00 0.170E+01   0.448E-01 -.272E-01 0.228E-01
   0.408E+01 -.123E+03 0.783E+03   -.637E+01 0.123E+03 -.778E+03   0.235E+01 0.154E+00 -.512E+01   -.638E-01 0.394E-02 -.117E-01
   -.738E+03 0.111E+03 0.255E+03   0.734E+03 -.110E+03 -.251E+03   0.420E+01 -.961E+00 -.380E+01   0.395E-01 -.110E-01 0.359E-01
   -.218E+02 0.577E+03 0.266E+03   0.215E+02 -.577E+03 -.265E+03   0.245E+00 -.268E+00 -.615E+00   -.115E-01 0.290E-02 -.370E-01
   -.581E+03 -.239E+03 -.386E+03   0.581E+03 0.239E+03 0.385E+03   -.221E+00 0.818E+00 0.105E+01   -.103E-01 0.131E-01 -.115E-01
   0.480E+03 -.488E+03 0.314E+03   -.479E+03 0.487E+03 -.315E+03   -.110E+01 0.107E+01 0.888E+00   0.595E-01 0.211E-01 -.173E-01
   0.151E+03 -.634E+03 -.486E+03   -.150E+03 0.629E+03 0.483E+03   -.820E+00 0.568E+01 0.322E+01   -.344E-01 -.109E-01 -.384E-02
   0.280E+03 0.664E+03 -.184E+03   -.278E+03 -.658E+03 0.182E+03   -.235E+01 -.668E+01 0.126E+01   -.271E-01 0.728E-02 0.220E-01
 -----------------------------------------------------------------------------------------------
   -.131E+01 -.392E+00 0.142E+01   -.568E-13 0.114E-12 -.171E-12   0.131E+01 0.392E+00 -.141E+01   -.329E-02 -.682E-03 -.681E-03
 
 
 POSITION                                       TOTAL-FORCE (eV/Angst)
 -----------------------------------------------------------------------------------
      9.21789     11.13822     12.90700         0.023306      0.008292      0.002232
     10.63727     11.85538      8.59542        -0.008956     -0.009175     -0.022718
     12.99425     11.14250     10.18054         0.002297     -0.009815      0.009912
     10.51671     10.11138     10.66314        -0.008945     -0.004452      0.002633
     11.76942     12.22898     12.21826        -0.009094      0.010794      0.001228
      9.34205     12.83154     10.65089         0.014926      0.010037      0.017041
      9.75605     13.73747     13.19254        -0.015271     -0.005279      0.000810
      9.07201      8.60265     12.28313         0.001736     -0.000402     -0.011137
 -----------------------------------------------------------------------------------
    total drift:                                0.001463     -0.000509      0.003565


--------------------------------------------------------------------------------------------------------



  FREE ENERGIE OF THE ION-ELECTRON SYSTEM (eV)
  ---------------------------------------------------
  free  energy   TOTEN  =       -16.93677083 eV

  energy  without entropy=      -16.94836665  energy(sigma->0) =      -16.94063611
 
 d Force = 0.1725762E-03[ 0.128E-03, 0.218E-03]  d Energy = 0.3533456E-03-0.181E-03
 d Force = 0.7702042E+00[ 0.772E+00, 0.768E+00]  d Ewald  = 0.7702009E+00 0.331E-05


--------------------------------------------------------------------------------------------------------


    POTLOK:  cpu time    3.8490: real time    3.8651


--------------------------------------------------------------------------------------------------------




--------------------------------------------------------------------------------------------------------


  
 reached required accuracy - stopping structural energy minimisation
     LOOP+:  cpu time   46.0321: real time   46.1819
    4ORBIT:  cpu time    0.0000: real time    0.0000

 total amount of memory used by VASP MPI-rank0   218037. kBytes
=======================================================================

   base      :      30000. kBytes
   nonl-proj :       3433. kBytes
   fftplans  :      49637. kBytes
   grid      :     112318. kBytes
   one-center:         15. kBytes
   wavefun   :      22634. kBytes
 
  
  
 General timing and accounting informations for this job:
 ========================================================
  
                  Total CPU time used (sec):     4665.848
                            User time (sec):     4613.990
                          System time (sec):       51.858
                         Elapsed time (sec):     4695.355
  
                   Maximum memory used (kb):      432092.
                   Average memory used (kb):           0.
  
                          Minor page faults:     16598327
                          Major page faults:        54824
                 Voluntary context switches:         2847
