unknown system                          
            1
    21.617209    0.000000    0.000000
     0.000000   22.657025    0.000000
     0.000000    0.000000   22.711126
   Au
     8
Direct configuration=     1
   0.45910116  0.49216048  0.52810666
   0.47393071  0.50947539  0.40971390
   0.57159492  0.48535273  0.47223867
   0.49026921  0.40127408  0.45043858
   0.54753490  0.57888544  0.53496319
   0.44638185  0.60065109  0.47444443
   0.44289179  0.59295395  0.58700165
   0.42196857  0.38426646  0.53632992
Direct configuration=     2
   0.45809395  0.49196743  0.52961373
   0.47172300  0.51073666  0.40557798
   0.57666226  0.48478784  0.47286658
   0.49160217  0.39997885  0.44809760
   0.55222399  0.57912190  0.53615585
   0.44343767  0.60261012  0.47079994
   0.44071056  0.59328916  0.59070539
   0.41921949  0.38252766  0.53941992
Direct configuration=     3
   0.45792110  0.49193429  0.52987237
   0.47134412  0.51095311  0.40486819
   0.57753190  0.48469090  0.47297434
   0.49183093  0.39975657  0.44769585
   0.55302871  0.57916248  0.53636053
   0.44293241  0.60294632  0.47017449
   0.44033623  0.59334669  0.59134101
   0.41874771  0.38222925  0.53995021
Direct configuration=     4
   0.45828197  0.49235261  0.52951347
   0.47104477  0.51101935  0.40408473
   0.57845674  0.48444181  0.47297968
   0.49150618  0.40054863  0.44838079
   0.55294339  0.57885365  0.53696118
   0.44224600  0.60286614  0.47030343
   0.44062796  0.59280020  0.59082122
   0.41856610  0.38213725  0.54019249
Direct configuration=     5
   0.45920644  0.49342424  0.52859405
   0.47027790  0.51118905  0.40207767
   0.58082599  0.48380369  0.47299335
   0.49067426  0.40257771  0.45013546
   0.55272481  0.57806248  0.53849991
   0.44048755  0.60266071  0.47063374
   0.44137531  0.59140019  0.58948964
   0.41810083  0.38190155  0.54081317
Direct configuration=     6
   0.45956586  0.49279467  0.52778402
   0.47015562  0.51155418  0.40143590
   0.58164386  0.48388935  0.47294749
   0.49034635  0.40376198  0.45099495
   0.55300775  0.57731944  0.53881700
   0.43980526  0.60219356  0.47038674
   0.44125575  0.59129059  0.58961153
   0.41789265  0.38221585  0.54125938
Direct configuration=     7
   0.45995154  0.49211909  0.52691477
   0.47002440  0.51194600  0.40074722
   0.58252151  0.48398127  0.47289828
   0.48999448  0.40503281  0.45191725
   0.55331137  0.57652210  0.53915726
   0.43907310  0.60169227  0.47012169
   0.44112746  0.59117297  0.58974232
   0.41766924  0.38255311  0.54173820
Direct configuration=     8
   0.45993140  0.49226325  0.52689033
   0.47021897  0.51246987  0.40028427
   0.58306761  0.48432176  0.47265260
   0.49010180  0.40541889  0.45193761
   0.55339808  0.57577038  0.53918994
   0.43876825  0.60100030  0.47002319
   0.44097217  0.59106507  0.58980775
   0.41721483  0.38271010  0.54245130
Direct configuration=     9
   0.45989560  0.49251943  0.52684691
   0.47056472  0.51340080  0.39946161
   0.58403803  0.48492680  0.47221603
   0.49029251  0.40610496  0.45197378
   0.55355216  0.57443458  0.53924802
   0.43822654  0.59977066  0.46984815
   0.44069620  0.59087332  0.58992401
   0.41640735  0.38298907  0.54371849
Direct configuration=    10
   0.45951012  0.49234905  0.52714134
   0.47122292  0.51371528  0.39862379
   0.58473357  0.48508146  0.47139754
   0.49018457  0.40650661  0.45228016
   0.55342770  0.57382203  0.53955729
   0.43777447  0.59913485  0.47006953
   0.44058351  0.59080651  0.58992814
   0.41623623  0.38360383  0.54423920
Direct configuration=    11
   0.45836625  0.49184347  0.52801503
   0.47317604  0.51464844  0.39613766
   0.58679752  0.48554038  0.46896875
   0.48986427  0.40769848  0.45318933
   0.55305841  0.57200436  0.54047501
   0.43643303  0.59724816  0.47072643
   0.44024912  0.59060826  0.58994041
   0.41572846  0.38542807  0.54578438
Direct configuration=    12
   0.45860704  0.49194990  0.52783112
   0.47276490  0.51445201  0.39666100
   0.58636305  0.48544378  0.46948002
   0.48993169  0.40744759  0.45299794
   0.55313614  0.57238699  0.54028183
   0.43671541  0.59764532  0.47058815
   0.44031951  0.59064999  0.58993783
   0.41583535  0.38504405  0.54545911
Direct configuration=    13
   0.45833656  0.49236062  0.52825255
   0.47399106  0.51447178  0.39630187
   0.58635382  0.48572446  0.46832570
   0.48973078  0.40805590  0.45341694
   0.55289426  0.57153785  0.54049794
   0.43633920  0.59685064  0.47058870
   0.44025537  0.59092057  0.59019979
   0.41577205  0.38509779  0.54565351
Direct configuration=    14
   0.45752512  0.49359279  0.52951687
   0.47766954  0.51453112  0.39522448
   0.58632615  0.48656653  0.46486273
   0.48912805  0.40988083  0.45467392
   0.55216860  0.56899045  0.54114627
   0.43521056  0.59446661  0.47059034
   0.44006296  0.59173229  0.59098568
   0.41558213  0.38525900  0.54623671
Direct configuration=    15
   0.45775502  0.49324368  0.52915865
   0.47662732  0.51451431  0.39552973
   0.58633399  0.48632795  0.46584389
   0.48929882  0.40936377  0.45431778
   0.55237420  0.56971220  0.54096258
   0.43553034  0.59514207  0.47058987
   0.44011747  0.59150231  0.59076302
   0.41563594  0.38521333  0.54607147
Direct configuration=    16
   0.45739016  0.49307690  0.52953880
   0.47748335  0.51459015  0.39539224
   0.58626254  0.48661703  0.46507624
   0.48910267  0.40962475  0.45461276
   0.55242504  0.56926401  0.54111350
   0.43525309  0.59477637  0.47042425
   0.44010055  0.59188023  0.59097936
   0.41565570  0.38519018  0.54609986
Direct configuration=    17
   0.45629556  0.49257655  0.53067924
   0.48005143  0.51481768  0.39497978
   0.58604820  0.48748428  0.46277330
   0.48851421  0.41040767  0.45549767
   0.55257757  0.56791946  0.54156624
   0.43442137  0.59367926  0.46992737
   0.44004978  0.59301401  0.59162838
   0.41571499  0.38512072  0.54618501
Direct configuration=    18
   0.45652945  0.49268346  0.53043555
   0.47950269  0.51476906  0.39506791
   0.58609400  0.48729897  0.46326538
   0.48863995  0.41024038  0.45530859
   0.55254498  0.56820676  0.54146950
   0.43459908  0.59391368  0.47003354
   0.44006063  0.59277175  0.59148970
   0.41570233  0.38513556  0.54616681
Direct configuration=    19
   0.45599486  0.49268625  0.53110571
   0.48022228  0.51501342  0.39501631
   0.58607411  0.48770740  0.46264023
   0.48851377  0.41018574  0.45538762
   0.55264675  0.56787883  0.54165389
   0.43434226  0.59366787  0.46987191
   0.44028062  0.59315554  0.59133476
   0.41559844  0.38472457  0.54622657
Direct configuration=    20
   0.45439110  0.49269460  0.53311617
   0.48238105  0.51574649  0.39486151
   0.58601446  0.48893272  0.46076478
   0.48813522  0.41002182  0.45562471
   0.55295207  0.56689507  0.54220704
   0.43357179  0.59293045  0.46938701
   0.44094062  0.59430690  0.59086994
   0.41528680  0.38349158  0.54640583
Direct configuration=    21
   0.45364912  0.49220903  0.53381900
   0.48291422  0.51616898  0.39480780
   0.58618556  0.48942602  0.46029353
   0.48792029  0.41050463  0.45602068
   0.55301224  0.56634087  0.54247169
   0.43319817  0.59255822  0.46930324
   0.44156254  0.59508299  0.59020234
   0.41523097  0.38272888  0.54631872
Direct configuration=    22
   0.45153546  0.49082582  0.53582109
   0.48443303  0.51737250  0.39465478
   0.58667296  0.49083124  0.45895110
   0.48730802  0.41187999  0.45714868
   0.55318367  0.56476215  0.54322558
   0.43213386  0.59149790  0.46906459
   0.44333417  0.59729379  0.58830060
   0.41507192  0.38055623  0.54607057
Direct configuration=    23
   0.45215528  0.49123144  0.53523399
   0.48398765  0.51701957  0.39469965
   0.58653003  0.49041917  0.45934476
   0.48748757  0.41147667  0.45681790
   0.55313340  0.56522511  0.54300451
   0.43244597  0.59180883  0.46913457
   0.44281465  0.59664548  0.58885827
   0.41511856  0.38119335  0.54614334
Direct configuration=    24
   0.45146021  0.49154259  0.53606444
   0.48373635  0.51737804  0.39433265
   0.58727503  0.49050827  0.45941594
   0.48761335  0.41268964  0.45708317
   0.55300244  0.56413515  0.54320414
   0.43193505  0.59110813  0.46929628
   0.44356575  0.59763402  0.58791194
   0.41508492  0.38002379  0.54592843
Direct configuration=    25
   0.45062073  0.49191837  0.53706743
   0.48343284  0.51781097  0.39388940
   0.58817481  0.49061589  0.45950190
   0.48776526  0.41415459  0.45740354
   0.55284428  0.56281877  0.54344526
   0.43131799  0.59026185  0.46949157
   0.44447289  0.59882793  0.58676901
   0.41504430  0.37861125  0.54566889
Direct configuration=    26
   0.45086608  0.49180854  0.53677429
   0.48352155  0.51768444  0.39401895
   0.58791184  0.49058444  0.45947677
   0.48772086  0.41372644  0.45730991
   0.55289051  0.56320350  0.54337479
   0.43149833  0.59050918  0.46943449
   0.44420776  0.59847899  0.58710305
   0.41505617  0.37902408  0.54574474
Direct configuration=    27
   0.45020393  0.49157842  0.53741927
   0.48325840  0.51781331  0.39367220
   0.58851125  0.49043835  0.45951991
   0.48780227  0.41465875  0.45758626
   0.55296871  0.56240181  0.54348653
   0.43105921  0.59006787  0.46937294
   0.44454280  0.59942724  0.58682751
   0.41532652  0.37863387  0.54535237
Direct configuration=    28
   0.44821748  0.49088807  0.53935420
   0.48246897  0.51819990  0.39263194
   0.59030950  0.49000010  0.45964933
   0.48804649  0.41745566  0.45841534
   0.55320331  0.55999676  0.54382178
   0.42974187  0.58874394  0.46918829
   0.44554792  0.60227196  0.58600089
   0.41613756  0.37746323  0.54417524
Direct configuration=    29
   0.44715364  0.49110457  0.54064050
   0.48235258  0.51827334  0.39214004
   0.59101871  0.48967800  0.45941189
   0.48830331  0.41835413  0.45853379
   0.55300083  0.55903668  0.54405320
   0.42921609  0.58811076  0.46917386
   0.44601099  0.60323964  0.58569733
   0.41661695  0.37722250  0.54358639
Direct configuration=    30
   0.44396210  0.49175406  0.54449938
   0.48200341  0.51849367  0.39066435
   0.59314634  0.48871170  0.45869960
   0.48907376  0.42104954  0.45888912
   0.55239340  0.55615644  0.54474748
   0.42763877  0.58621121  0.46913057
   0.44740022  0.60614269  0.58478666
   0.41805510  0.37650031  0.54181982
Direct configuration=    31
   0.44317555  0.49191412  0.54545039
   0.48191736  0.51854797  0.39030067
   0.59367069  0.48847356  0.45852405
   0.48926363  0.42171382  0.45897670
   0.55224370  0.55544662  0.54491859
   0.42725004  0.58574307  0.46911990
   0.44774260  0.60685813  0.58456223
   0.41840953  0.37632233  0.54138446
Direct configuration=    32
   0.44185675  0.49204985  0.54697656
   0.48227761  0.51881914  0.38981218
   0.59409888  0.48850673  0.45808030
   0.48947658  0.42297689  0.45955536
   0.55148625  0.55408844  0.54472193
   0.42703679  0.58463541  0.46924905
   0.44843931  0.60726715  0.58399747
   0.41900092  0.37667601  0.54084416
Direct configuration=    33
   0.43790033  0.49245704  0.55155506
   0.48335835  0.51963264  0.38834669
   0.59538348  0.48860624  0.45674903
   0.49011544  0.42676612  0.46129135
   0.54921390  0.55001388  0.54413195
   0.42639705  0.58131244  0.46963649
   0.45052947  0.60849421  0.58230317
   0.42077509  0.37773705  0.53922326
Direct configuration=    34
   0.42998750  0.49327141  0.56071206
   0.48551983  0.52125966  0.38541572
   0.59795267  0.48880525  0.45408649
   0.49139316  0.43434459  0.46476334
   0.54466919  0.54186478  0.54295200
   0.42511757  0.57466650  0.47041137
   0.45470977  0.61094832  0.57891456
   0.42432342  0.37985912  0.53598146
Direct configuration=    35
   0.43335693  0.49292463  0.55681284
   0.48459943  0.52056685  0.38666378
   0.59685866  0.48872051  0.45522024
   0.49084908  0.43111754  0.46328491
   0.54660441  0.54533481  0.54345445
   0.42566239  0.57749646  0.47008141
   0.45292973  0.60990332  0.58035749
   0.42281248  0.37895550  0.53736188
Direct configuration=    36
   0.43283080  0.49294984  0.55740273
   0.48475771  0.52069621  0.38645611
   0.59707761  0.48877243  0.45502162
   0.49096755  0.43170032  0.46347644
   0.54635836  0.54478002  0.54332109
   0.42560562  0.57704680  0.47008842
   0.45315363  0.61006905  0.58019324
   0.42292183  0.37900495  0.53727735
Direct configuration=    37
   0.43125242  0.49302546  0.55917238
   0.48523254  0.52108430  0.38583309
   0.59773445  0.48892822  0.45442576
   0.49132295  0.43344864  0.46405105
   0.54562022  0.54311564  0.54292101
   0.42543530  0.57569784  0.47010944
   0.45382533  0.61056623  0.57970048
   0.42324989  0.37915329  0.53702378
Direct configuration=    38
   0.42809567  0.49317669  0.56271168
   0.48618220  0.52186049  0.38458705
   0.59904813  0.48923978  0.45323404
   0.49203374  0.43694529  0.46520028
   0.54414395  0.53978689  0.54212086
   0.42509466  0.57299991  0.47015148
   0.45516874  0.61156060  0.57871496
   0.42390601  0.37944997  0.53651664
Direct configuration=    39
   0.42178216  0.49347915  0.56979029
   0.48808152  0.52341286  0.38209497
   0.60167549  0.48986291  0.45085060
   0.49345533  0.44393858  0.46749872
   0.54119141  0.53312939  0.54052056
   0.42441337  0.56760405  0.47023556
   0.45785556  0.61354934  0.57674393
   0.42521826  0.38004333  0.53550236
Direct configuration=    40
   0.42659996  0.49324834  0.56438864
   0.48663216  0.52222825  0.38399667
   0.59967056  0.48938740  0.45266939
   0.49237053  0.43860204  0.46574479
   0.54344448  0.53820969  0.54174174
   0.42493326  0.57172160  0.47017140
   0.45580526  0.61203174  0.57824802
   0.42421689  0.37959054  0.53627635
Direct configuration=    41
   0.42634686  0.49324261  0.56464668
   0.48676451  0.52245057  0.38373338
   0.60019543  0.48958785  0.45239442
   0.49224911  0.43914761  0.46604201
   0.54326857  0.53779976  0.54153785
   0.42502792  0.57131827  0.47014387
   0.45582122  0.61194665  0.57820427
   0.42399948  0.37952630  0.53653452
Direct configuration=    42
   0.42558757  0.49322541  0.56542081
   0.48716155  0.52311750  0.38294353
   0.60177003  0.49018920  0.45156949
   0.49188485  0.44078434  0.46693365
   0.54274084  0.53656996  0.54092619
   0.42531192  0.57010827  0.47006129
   0.45586910  0.61169137  0.57807304
   0.42334724  0.37933357  0.53730901
Direct configuration=    43
   0.42406898  0.49319100  0.56696905
   0.48795565  0.52445137  0.38136382
   0.60491923  0.49139191  0.44991965
   0.49115635  0.44405778  0.46871695
   0.54168539  0.53411037  0.53970285
   0.42587991  0.56768827  0.46989612
   0.45596484  0.61118081  0.57781058
   0.42204276  0.37894811  0.53885798
Direct configuration=    44
   0.42410039  0.49299349  0.56690058
   0.48823187  0.52454001  0.38112538
   0.60479921  0.49160774  0.44986809
   0.49081617  0.44446121  0.46911433
   0.54192717  0.53415881  0.53932085
   0.42623096  0.56739634  0.46989899
   0.45570348  0.61039802  0.57782983
   0.42186385  0.37946399  0.53917894
Direct configuration=    45
   0.42419462  0.49240098  0.56669516
   0.48906053  0.52480595  0.38041006
   0.60443917  0.49225523  0.44971344
   0.48979563  0.44567149  0.47030647
   0.54265251  0.53430414  0.53817485
   0.42728411  0.56652055  0.46990761
   0.45491939  0.60804965  0.57788759
   0.42132714  0.38101163  0.54014183
Direct configuration=    46
   0.42419721  0.49250850  0.56688812
   0.48945511  0.52476849  0.38019157
   0.60424439  0.49233913  0.44942061
   0.48951880  0.44604917  0.47026603
   0.54305666  0.53481263  0.53808428
   0.42772239  0.56626633  0.46964513
   0.45452027  0.60718597  0.57818592
   0.42095828  0.38108939  0.54055534
Direct configuration=    47
   0.42420418  0.49279856  0.56740864
   0.49051950  0.52466746  0.37960218
   0.60371897  0.49256543  0.44863071
   0.48877205  0.44706794  0.47015693
   0.54414687  0.53618431  0.53783998
   0.42890464  0.56558057  0.46893710
   0.45344364  0.60485617  0.57899068
   0.41996326  0.38129917  0.54167079
Direct configuration=    48
   0.42420254  0.49273046  0.56728643
   0.49026960  0.52469118  0.37974056
   0.60384233  0.49251230  0.44881617
   0.48894738  0.44682875  0.47018255
   0.54389090  0.53586225  0.53789734
   0.42862706  0.56574158  0.46910334
   0.45369642  0.60540319  0.57880173
   0.42019688  0.38124992  0.54140889
Direct configuration=    49
   0.42412865  0.49252721  0.56758163
   0.49061949  0.52453116  0.37946219
   0.60373314  0.49238109  0.44845127
   0.48868955  0.44664975  0.47001137
   0.54420645  0.53640798  0.53814549
   0.42876534  0.56580428  0.46882874
   0.45344500  0.60574298  0.57934771
   0.42008548  0.38097517  0.54140861
Direct configuration=    50
   0.42403409  0.49226710  0.56795942
   0.49106728  0.52432637  0.37910593
   0.60359340  0.49221316  0.44798426
   0.48835957  0.44642068  0.46979230
   0.54461028  0.53710640  0.53846307
   0.42894232  0.56588452  0.46847730
   0.45312323  0.60617785  0.58004645
   0.41994292  0.38062354  0.54140826
Direct configuration=    51
   0.42432711  0.49235387  0.56798225
   0.49142558  0.52408092  0.37896305
   0.60306422  0.49212459  0.44791456
   0.48811245  0.44641122  0.46980850
   0.54461121  0.53751198  0.53844021
   0.42927444  0.56591901  0.46865026
   0.45289624  0.60626513  0.58025119
   0.41996186  0.38035290  0.54122698
Direct configuration=    52
   0.42520617  0.49261417  0.56805075
   0.49250047  0.52334455  0.37853440
   0.60147666  0.49185890  0.44770545
   0.48737106  0.44638286  0.46985710
   0.54461400  0.53872871  0.53837163
   0.43027081  0.56602246  0.46916913
   0.45221526  0.60652698  0.58086539
   0.42001868  0.37954099  0.54068315
Direct configuration=    53
   0.42554578  0.49232915  0.56800654
   0.49267810  0.52318605  0.37859073
   0.60099484  0.49181108  0.44771154
   0.48702742  0.44637490  0.46992193
   0.54456634  0.53911774  0.53829232
   0.43079174  0.56600557  0.46915322
   0.45200588  0.60662886  0.58101509
   0.42006300  0.37956627  0.54054562
Direct configuration=    54
   0.42591528  0.49201905  0.56795843
   0.49287135  0.52301360  0.37865201
   0.60047063  0.49175906  0.44771816
   0.48665354  0.44636625  0.46999247
   0.54451448  0.53954099  0.53820604
   0.43135850  0.56598719  0.46913592
   0.45177809  0.60673971  0.58117797
   0.42011123  0.37959377  0.54039599
Direct configuration=    55
   0.42600062  0.49191048  0.56803272
   0.49270767  0.52307651  0.37871192
   0.60058143  0.49177130  0.44778712
   0.48660780  0.44635931  0.46988001
   0.54447051  0.53963180  0.53819361
   0.43156450  0.56602399  0.46903750
   0.45172076  0.60662166  0.58109708
   0.42001980  0.37962456  0.54049704
Direct configuration=    56
   0.42609207  0.49179413  0.56811233
   0.49253227  0.52314394  0.37877612
   0.60070017  0.49178443  0.44786102
   0.48655877  0.44635188  0.46975949
   0.54442339  0.53972911  0.53818029
   0.43178527  0.56606343  0.46893202
   0.45165933  0.60649515  0.58101038
   0.41992182  0.37965755  0.54060534
Direct configuration=    57
   0.42615601  0.49177780  0.56816339
   0.49245580  0.52317316  0.37864362
   0.60079910  0.49180096  0.44797043
   0.48653880  0.44630494  0.46972297
   0.54445460  0.53971351  0.53811343
   0.43183373  0.56615449  0.46899917
   0.45157195  0.60644137  0.58096444
   0.41986312  0.37965340  0.54065955
Direct configuration=    58
   0.42622475  0.49176024  0.56821829
   0.49237357  0.52320457  0.37850115
   0.60090546  0.49181874  0.44808806
   0.48651733  0.44625446  0.46968371
   0.54448816  0.53969674  0.53804154
   0.43188583  0.56625239  0.46907138
   0.45147799  0.60638354  0.58091504
   0.41980000  0.37964893  0.54071783
Direct configuration=    59
   0.42633235  0.49167001  0.56827120
   0.49220387  0.52323255  0.37848206
   0.60101968  0.49180245  0.44818675
   0.48650576  0.44626908  0.46958628
   0.54446462  0.53972325  0.53800977
   0.43204033  0.56630099  0.46901511
   0.45138231  0.60634898  0.58089765
   0.41972419  0.37967231  0.54078818
Direct configuration=    60
   0.42641447  0.49160114  0.56831159
   0.49207435  0.52325391  0.37846749
   0.60110686  0.49179002  0.44826207
   0.48649693  0.44628024  0.46951193
   0.54444665  0.53974349  0.53798552
   0.43215825  0.56633808  0.46897217
   0.45130927  0.60632260  0.58088437
   0.41966632  0.37969015  0.54084186
