  16  16   0   0
  0.8966269E+03  0.2368288E-08  0.2398548E-08  0.2525508E-08  0.5000000E-15
   1.0000000000000000E-004
  CAR 
 unknown system                          
      2.42422397    -11.22906407  301     -4.34939736      1.00000000
    -11.229  0.0000E+00  0.0000E+00  0.0000E+00  0.0000E+00
    -11.184  0.0000E+00  0.0000E+00  0.0000E+00  0.0000E+00
    -11.138  0.0000E+00  0.0000E+00  0.0000E+00  0.0000E+00
    -11.093  0.0000E+00  0.0000E+00  0.0000E+00  0.0000E+00
    -11.047  0.0000E+00  0.0000E+00  0.0000E+00  0.0000E+00
    -11.002  0.0000E+00  0.0000E+00  0.0000E+00  0.0000E+00
    -10.956  0.0000E+00  0.0000E+00  0.0000E+00  0.0000E+00
    -10.910  0.0000E+00  0.0000E+00  0.0000E+00  0.0000E+00
    -10.865 -0.4451E-30  0.0000E+00 -0.2026E-31  0.0000E+00
    -10.819 -0.1655E-28 -0.2181E-30 -0.7736E-30 -0.9926E-32
    -10.774 -0.5678E-27 -0.8280E-29 -0.2662E-28 -0.3868E-30
    -10.728 -0.1754E-25 -0.2898E-27 -0.8249E-27 -0.1358E-28
    -10.683 -0.4879E-24 -0.9136E-26 -0.2303E-25 -0.4294E-27
    -10.637 -0.1222E-22 -0.2593E-24 -0.5792E-24 -0.1223E-25
    -10.592 -0.2755E-21 -0.6627E-23 -0.1312E-22 -0.3138E-24
    -10.546 -0.5592E-20 -0.1525E-21 -0.2676E-21 -0.7253E-23
    -10.501 -0.1021E-18 -0.3158E-20 -0.4916E-20 -0.1510E-21
    -10.455 -0.1679E-17 -0.5886E-19 -0.8132E-19 -0.2830E-20
    -10.410 -0.2360E-16 -0.9873E-18 -0.1156E-17 -0.4776E-19
    -10.364 -0.3204E-15 -0.1490E-16 -0.1574E-16 -0.7259E-18
    -10.319 -0.3818E-14 -0.1962E-15 -0.1895E-15 -0.9654E-17
    -10.273 -0.4094E-13 -0.2388E-14 -0.2053E-14 -0.1183E-15
    -10.228 -0.3943E-12 -0.2614E-13 -0.2000E-13 -0.1308E-14
    -10.182 -0.3410E-11 -0.2571E-12 -0.1752E-12 -0.1301E-13
    -10.137 -0.2647E-10 -0.2270E-11 -0.1380E-11 -0.1163E-12
    -10.091 -0.1843E-09 -0.1799E-10 -0.9769E-11 -0.9352E-12
    -10.046 -0.1150E-08 -0.1279E-09 -0.6212E-10 -0.6758E-11
    -10.000 -0.6427E-08 -0.8155E-09 -0.3546E-09 -0.4387E-10
     -9.955 -0.3212E-07 -0.4655E-08 -0.1816E-08 -0.2557E-09
     -9.909 -0.1433E-06 -0.2377E-07 -0.8340E-08 -0.1338E-08
     -9.864 -0.5702E-06 -0.1084E-06 -0.3429E-07 -0.6272E-08
     -9.818 -0.2016E-05 -0.4410E-06 -0.1260E-06 -0.2634E-07
     -9.773 -0.6316E-05 -0.1596E-05 -0.4135E-06 -0.9897E-07
     -9.727 -0.1744E-04 -0.5118E-05 -0.1207E-05 -0.3319E-06
     -9.682 -0.4209E-04 -0.1449E-04 -0.3123E-05 -0.9912E-06
     -9.636 -0.8771E-04 -0.3591E-04 -0.7114E-05 -0.2626E-05
     -9.591 -0.1540E-03 -0.7709E-04 -0.1412E-04 -0.6134E-05
     -9.545 -0.2163E-03 -0.1403E-03 -0.2397E-04 -0.1252E-04
     -9.500 -0.2060E-03 -0.2071E-03 -0.3334E-04 -0.2195E-04
     -9.454 -0.8312E-05 -0.2185E-03 -0.3372E-04 -0.3189E-04
     -9.409  0.4989E-03 -0.6711E-04 -0.1102E-04 -0.3495E-04
     -9.363  0.1361E-02  0.3732E-03  0.5093E-04 -0.1796E-04
     -9.318  0.2461E-02  0.1171E-02  0.1629E-03  0.3531E-04
     -9.272  0.3502E-02  0.2243E-02  0.3223E-03  0.1374E-03
     -9.227  0.4119E-02  0.3326E-02  0.5097E-03  0.2888E-03
     -9.181  0.4059E-02  0.4057E-02  0.6945E-03  0.4734E-03
     -9.136  0.3326E-02  0.4153E-02  0.8458E-03  0.6624E-03
     -9.090  0.2164E-02  0.3574E-02  0.9443E-03  0.8251E-03
     -9.045  0.9257E-03  0.2543E-02  0.9865E-03  0.9408E-03
     -8.999 -0.9175E-04  0.1413E-02  0.9823E-03  0.1005E-02
     -8.954 -0.6959E-03  0.4792E-03  0.9506E-03  0.1027E-02
     -8.908 -0.7388E-03 -0.1380E-03  0.9170E-03  0.1021E-02
     -8.862 -0.3650E-04 -0.4734E-03  0.9153E-03  0.9991E-03
     -8.817  0.1619E-02 -0.6119E-03  0.9890E-03  0.9713E-03
     -8.771  0.4323E-02 -0.5760E-03  0.1186E-02  0.9451E-03
     -8.726  0.7886E-02 -0.2760E-03  0.1545E-02  0.9325E-03
     -8.680  0.1174E-01  0.4542E-03  0.2079E-02  0.9532E-03
     -8.635  0.1503E-01  0.1757E-02  0.2763E-02  0.1033E-02
     -8.589  0.1692E-01  0.3643E-02  0.3533E-02  0.1199E-02
     -8.544  0.1685E-01  0.5934E-02  0.4300E-02  0.1469E-02
     -8.498  0.1481E-01  0.8306E-02  0.4974E-02  0.1847E-02
     -8.453  0.1136E-01  0.1040E-01  0.5491E-02  0.2320E-02
     -8.407  0.7394E-02  0.1191E-01  0.5828E-02  0.2862E-02
     -8.362  0.3849E-02  0.1268E-01  0.6003E-02  0.3439E-02
     -8.316  0.1402E-02  0.1264E-01  0.6067E-02  0.4014E-02
     -8.271  0.3017E-03  0.1183E-01  0.6080E-02  0.4553E-02
     -8.225  0.3800E-03  0.1033E-01  0.6098E-02  0.5023E-02
     -8.180  0.1205E-02  0.8332E-02  0.6152E-02  0.5402E-02
     -8.134  0.2303E-02  0.6153E-02  0.6257E-02  0.5682E-02
     -8.089  0.3387E-02  0.4218E-02  0.6411E-02  0.5874E-02
     -8.043  0.4486E-02  0.2943E-02  0.6616E-02  0.6008E-02
     -7.998  0.5896E-02  0.2571E-02  0.6884E-02  0.6125E-02
     -7.952  0.7980E-02  0.3049E-02  0.7247E-02  0.6264E-02
     -7.907  0.1094E-01  0.4065E-02  0.7745E-02  0.6449E-02
     -7.861  0.1473E-01  0.5234E-02  0.8416E-02  0.6687E-02
     -7.816  0.1902E-01  0.6314E-02  0.9281E-02  0.6974E-02
     -7.770  0.2329E-01  0.7311E-02  0.1034E-01  0.7307E-02
     -7.725  0.2684E-01  0.8410E-02  0.1156E-01  0.7690E-02
     -7.679  0.2895E-01  0.9795E-02  0.1288E-01  0.8136E-02
     -7.634  0.2923E-01  0.1152E-01  0.1421E-01  0.8660E-02
     -7.588  0.2787E-01  0.1351E-01  0.1548E-01  0.9275E-02
     -7.543  0.2570E-01  0.1568E-01  0.1665E-01  0.9989E-02
     -7.497  0.2374E-01  0.1797E-01  0.1773E-01  0.1081E-01
     -7.452  0.2269E-01  0.2029E-01  0.1876E-01  0.1173E-01
     -7.406  0.2258E-01  0.2243E-01  0.1979E-01  0.1275E-01
     -7.361  0.2289E-01  0.2410E-01  0.2083E-01  0.1385E-01
     -7.315  0.2289E-01  0.2505E-01  0.2187E-01  0.1499E-01
     -7.270  0.2207E-01  0.2533E-01  0.2288E-01  0.1614E-01
     -7.224  0.2040E-01  0.2521E-01  0.2381E-01  0.1729E-01
     -7.179  0.1828E-01  0.2505E-01  0.2464E-01  0.1843E-01
     -7.133  0.1632E-01  0.2493E-01  0.2538E-01  0.1956E-01
     -7.088  0.1502E-01  0.2461E-01  0.2606E-01  0.2068E-01
     -7.042  0.1453E-01  0.2366E-01  0.2673E-01  0.2176E-01
     -6.997  0.1465E-01  0.2179E-01  0.2739E-01  0.2275E-01
     -6.951  0.1500E-01  0.1915E-01  0.2808E-01  0.2362E-01
     -6.906  0.1526E-01  0.1634E-01  0.2877E-01  0.2437E-01
     -6.860  0.1537E-01  0.1420E-01  0.2947E-01  0.2501E-01
     -6.815  0.1544E-01  0.1328E-01  0.3017E-01  0.2562E-01
     -6.769  0.1565E-01  0.1358E-01  0.3088E-01  0.2623E-01
     -6.723  0.1601E-01  0.1455E-01  0.3161E-01  0.2690E-01
     -6.678  0.1634E-01  0.1544E-01  0.3236E-01  0.2760E-01
     -6.632  0.1639E-01  0.1577E-01  0.3310E-01  0.2832E-01
     -6.587  0.1603E-01  0.1549E-01  0.3383E-01  0.2902E-01
     -6.541  0.1530E-01  0.1499E-01  0.3453E-01  0.2970E-01
     -6.496  0.1432E-01  0.1473E-01  0.3518E-01  0.3037E-01
     -6.450  0.1328E-01  0.1497E-01  0.3579E-01  0.3106E-01
     -6.405  0.1242E-01  0.1559E-01  0.3635E-01  0.3177E-01
     -6.359  0.1202E-01  0.1621E-01  0.3690E-01  0.3250E-01
     -6.314  0.1230E-01  0.1647E-01  0.3746E-01  0.3325E-01
     -6.268  0.1317E-01  0.1620E-01  0.3806E-01  0.3399E-01
     -6.223  0.1419E-01  0.1545E-01  0.3870E-01  0.3469E-01
     -6.177  0.1482E-01  0.1432E-01  0.3938E-01  0.3534E-01
     -6.132  0.1478E-01  0.1296E-01  0.4005E-01  0.3593E-01
     -6.086  0.1424E-01  0.1158E-01  0.4070E-01  0.3646E-01
     -6.041  0.1363E-01  0.1057E-01  0.4132E-01  0.3694E-01
     -5.995  0.1327E-01  0.1036E-01  0.4192E-01  0.3741E-01
     -5.950  0.1312E-01  0.1118E-01  0.4252E-01  0.3792E-01
     -5.904  0.1304E-01  0.1285E-01  0.4311E-01  0.3851E-01
     -5.859  0.1310E-01  0.1483E-01  0.4371E-01  0.3918E-01
     -5.813  0.1366E-01  0.1645E-01  0.4433E-01  0.3993E-01
     -5.768  0.1517E-01  0.1724E-01  0.4502E-01  0.4072E-01
     -5.722  0.1774E-01  0.1707E-01  0.4583E-01  0.4149E-01
     -5.677  0.2096E-01  0.1611E-01  0.4678E-01  0.4223E-01
     -5.631  0.2403E-01  0.1469E-01  0.4788E-01  0.4289E-01
     -5.586  0.2608E-01  0.1334E-01  0.4906E-01  0.4350E-01
     -5.540  0.2662E-01  0.1269E-01  0.5027E-01  0.4408E-01
     -5.495  0.2575E-01  0.1335E-01  0.5145E-01  0.4469E-01
     -5.449  0.2418E-01  0.1559E-01  0.5255E-01  0.4540E-01
     -5.404  0.2287E-01  0.1911E-01  0.5359E-01  0.4626E-01
     -5.358  0.2257E-01  0.2299E-01  0.5461E-01  0.4731E-01
     -5.313  0.2356E-01  0.2607E-01  0.5569E-01  0.4850E-01
     -5.267  0.2556E-01  0.2738E-01  0.5685E-01  0.4974E-01
     -5.222  0.2805E-01  0.2660E-01  0.5813E-01  0.5095E-01
     -5.176  0.3050E-01  0.2427E-01  0.5951E-01  0.5206E-01
     -5.131  0.3255E-01  0.2167E-01  0.6100E-01  0.5305E-01
     -5.085  0.3398E-01  0.2024E-01  0.6254E-01  0.5397E-01
     -5.040  0.3465E-01  0.2095E-01  0.6412E-01  0.5492E-01
     -4.994  0.3458E-01  0.2375E-01  0.6569E-01  0.5600E-01
     -4.949  0.3404E-01  0.2769E-01  0.6724E-01  0.5726E-01
     -4.903  0.3354E-01  0.3136E-01  0.6877E-01  0.5869E-01
     -4.858  0.3366E-01  0.3366E-01  0.7030E-01  0.6022E-01
     -4.812  0.3465E-01  0.3424E-01  0.7188E-01  0.6178E-01
     -4.767  0.3623E-01  0.3351E-01  0.7353E-01  0.6330E-01
     -4.721  0.3752E-01  0.3229E-01  0.7523E-01  0.6477E-01
     -4.675  0.3753E-01  0.3132E-01  0.7694E-01  0.6620E-01
     -4.630  0.3563E-01  0.3096E-01  0.7856E-01  0.6761E-01
     -4.584  0.3186E-01  0.3107E-01  0.8001E-01  0.6902E-01
     -4.539  0.2684E-01  0.3127E-01  0.8124E-01  0.7044E-01
     -4.493  0.2142E-01  0.3122E-01  0.8221E-01  0.7187E-01
     -4.448  0.1624E-01  0.3074E-01  0.8295E-01  0.7326E-01
     -4.402  0.1160E-01  0.2986E-01  0.8348E-01  0.7462E-01
     -4.357  0.7605E-02  0.2863E-01  0.8382E-01  0.7593E-01
     -4.311  0.4329E-02  0.2710E-01  0.8402E-01  0.7716E-01
     -4.266  0.1874E-02  0.2524E-01  0.8411E-01  0.7831E-01
     -4.220  0.2933E-03  0.2312E-01  0.8412E-01  0.7936E-01
     -4.175 -0.4979E-03  0.2086E-01  0.8410E-01  0.8031E-01
     -4.129 -0.7198E-03  0.1867E-01  0.8406E-01  0.8116E-01
     -4.084 -0.6425E-03  0.1663E-01  0.8403E-01  0.8192E-01
     -4.038 -0.4889E-03  0.1458E-01  0.8401E-01  0.8258E-01
     -3.993 -0.3853E-03  0.1225E-01  0.8399E-01  0.8314E-01
     -3.947 -0.3588E-03  0.9495E-02  0.8398E-01  0.8357E-01
     -3.902 -0.3521E-03  0.6467E-02  0.8396E-01  0.8386E-01
     -3.856 -0.2404E-03  0.3580E-02  0.8395E-01  0.8403E-01
     -3.811  0.1380E-03  0.1278E-02  0.8396E-01  0.8408E-01
     -3.765  0.9194E-03 -0.1958E-03  0.8400E-01  0.8408E-01
     -3.720  0.2130E-02 -0.8504E-03  0.8410E-01  0.8404E-01
     -3.674  0.3628E-02 -0.8290E-03  0.8426E-01  0.8400E-01
     -3.629  0.5121E-02 -0.2675E-03  0.8449E-01  0.8399E-01
     -3.583  0.6282E-02  0.7516E-03  0.8478E-01  0.8402E-01
     -3.538  0.6891E-02  0.2138E-02  0.8509E-01  0.8412E-01
     -3.492  0.6938E-02  0.3711E-02  0.8541E-01  0.8429E-01
     -3.447  0.6614E-02  0.5195E-02  0.8571E-01  0.8452E-01
     -3.401  0.6211E-02  0.6307E-02  0.8599E-01  0.8481E-01
     -3.356  0.5998E-02  0.6885E-02  0.8627E-01  0.8512E-01
     -3.310  0.6133E-02  0.6957E-02  0.8655E-01  0.8544E-01
     -3.265  0.6634E-02  0.6729E-02  0.8685E-01  0.8575E-01
     -3.219  0.7369E-02  0.6487E-02  0.8718E-01  0.8604E-01
     -3.174  0.8064E-02  0.6484E-02  0.8755E-01  0.8634E-01
     -3.128  0.8365E-02  0.6849E-02  0.8793E-01  0.8665E-01
     -3.083  0.7962E-02  0.7538E-02  0.8829E-01  0.8699E-01
     -3.037  0.6759E-02  0.8312E-02  0.8860E-01  0.8737E-01
     -2.992  0.4953E-02  0.8793E-02  0.8883E-01  0.8777E-01
     -2.946  0.2966E-02  0.8603E-02  0.8896E-01  0.8816E-01
     -2.901  0.1264E-02  0.7553E-02  0.8902E-01  0.8851E-01
     -2.855  0.1877E-03  0.5768E-02  0.8903E-01  0.8877E-01
     -2.810 -0.1167E-03  0.3658E-02  0.8902E-01  0.8893E-01
     -2.764  0.3188E-03  0.1733E-02  0.8904E-01  0.8901E-01
     -2.719  0.1312E-02  0.4006E-03  0.8910E-01  0.8903E-01
     -2.673  0.2544E-02 -0.1377E-03  0.8921E-01  0.8903E-01
     -2.627  0.3609E-02  0.1162E-03  0.8938E-01  0.8903E-01
     -2.582  0.4133E-02  0.1001E-02  0.8956E-01  0.8908E-01
     -2.536  0.3940E-02  0.2219E-02  0.8974E-01  0.8918E-01
     -2.491  0.3132E-02  0.3372E-02  0.8989E-01  0.8933E-01
     -2.445  0.2029E-02  0.4064E-02  0.8998E-01  0.8952E-01
     -2.400  0.9950E-03  0.4055E-02  0.9002E-01  0.8970E-01
     -2.354  0.2642E-03  0.3378E-02  0.9004E-01  0.8985E-01
     -2.309 -0.1138E-03  0.2314E-02  0.9003E-01  0.8996E-01
     -2.263 -0.2251E-03  0.1233E-02  0.9002E-01  0.9002E-01
     -2.218 -0.1969E-03  0.4142E-03  0.9001E-01  0.9003E-01
     -2.172 -0.1289E-03 -0.4843E-04  0.9001E-01  0.9003E-01
     -2.127 -0.7293E-04 -0.2151E-03  0.9000E-01  0.9002E-01
     -2.081 -0.4582E-04 -0.2111E-03  0.9000E-01  0.9001E-01
     -2.036 -0.5044E-04 -0.1470E-03  0.9000E-01  0.9001E-01
     -1.990 -0.8916E-04 -0.8697E-04  0.8999E-01  0.9000E-01
     -1.945 -0.1642E-03 -0.5572E-04  0.8999E-01  0.9000E-01
     -1.899 -0.2651E-03 -0.5925E-04  0.8997E-01  0.9000E-01
     -1.854 -0.3478E-03 -0.9978E-04  0.8996E-01  0.8999E-01
     -1.808 -0.3182E-03 -0.1767E-03  0.8994E-01  0.8998E-01
     -1.763 -0.3836E-04 -0.2737E-03  0.8994E-01  0.8997E-01
     -1.717  0.6357E-03 -0.3392E-03  0.8997E-01  0.8996E-01
     -1.672  0.1798E-02 -0.2743E-03  0.9005E-01  0.8994E-01
     -1.626  0.3451E-02  0.5346E-04  0.9021E-01  0.8995E-01
     -1.581  0.5489E-02  0.7700E-03  0.9046E-01  0.8998E-01
     -1.535  0.7702E-02  0.1947E-02  0.9081E-01  0.9007E-01
     -1.490  0.9771E-02  0.3578E-02  0.9125E-01  0.9023E-01
     -1.444  0.1129E-01  0.5575E-02  0.9177E-01  0.9049E-01
     -1.399  0.1192E-01  0.7758E-02  0.9231E-01  0.9084E-01
     -1.353  0.1155E-01  0.9827E-02  0.9284E-01  0.9129E-01
     -1.308  0.1055E-01  0.1138E-01  0.9332E-01  0.9180E-01
     -1.262  0.9643E-02  0.1206E-01  0.9376E-01  0.9235E-01
     -1.217  0.9536E-02  0.1183E-01  0.9419E-01  0.9289E-01
     -1.171  0.1047E-01  0.1112E-01  0.9467E-01  0.9340E-01
     -1.126  0.1203E-01  0.1068E-01  0.9521E-01  0.9388E-01
     -1.080  0.1339E-01  0.1110E-01  0.9582E-01  0.9439E-01
     -1.035  0.1382E-01  0.1238E-01  0.9645E-01  0.9495E-01
     -0.989  0.1310E-01  0.1388E-01  0.9705E-01  0.9559E-01
     -0.944  0.1155E-01  0.1472E-01  0.9757E-01  0.9626E-01
     -0.898  0.9703E-02  0.1437E-01  0.9802E-01  0.9691E-01
     -0.853  0.8039E-02  0.1288E-01  0.9838E-01  0.9750E-01
     -0.807  0.6792E-02  0.1077E-01  0.9869E-01  0.9799E-01
     -0.762  0.5984E-02  0.8672E-02  0.9896E-01  0.9838E-01
     -0.716  0.5485E-02  0.7023E-02  0.9921E-01  0.9870E-01
     -0.671  0.5074E-02  0.5957E-02  0.9944E-01  0.9897E-01
     -0.625  0.4521E-02  0.5357E-02  0.9965E-01  0.9921E-01
     -0.579  0.3695E-02  0.4954E-02  0.9982E-01  0.9944E-01
     -0.534  0.2639E-02  0.4458E-02  0.9994E-01  0.9964E-01
     -0.488  0.1547E-02  0.3691E-02  0.1000E+00  0.9981E-01
     -0.443  0.6423E-03  0.2673E-02  0.1000E+00  0.9993E-01
     -0.397  0.5745E-04  0.1592E-02  0.1000E+00  0.1000E+00
     -0.352 -0.2148E-03  0.6778E-03  0.1000E+00  0.1000E+00
     -0.306 -0.2780E-03  0.7251E-04  0.1000E+00  0.1000E+00
     -0.261 -0.2583E-03 -0.2247E-03  0.1000E+00  0.1000E+00
     -0.215 -0.2506E-03 -0.3165E-03  0.9999E-01  0.1000E+00
     -0.170 -0.2988E-03 -0.3281E-03  0.9998E-01  0.1000E+00
     -0.124 -0.3909E-03 -0.3431E-03  0.9996E-01  0.9998E-01
     -0.079 -0.4537E-03 -0.3727E-03  0.9994E-01  0.9997E-01
     -0.033 -0.3465E-03 -0.3529E-03  0.9993E-01  0.9995E-01
      0.012  0.1283E-03 -0.1644E-03  0.9993E-01  0.9994E-01
      0.058  0.1183E-02  0.3292E-03  0.9999E-01  0.9996E-01
      0.103  0.2972E-02  0.1237E-02  0.1001E+00  0.1000E+00
      0.149  0.5492E-02  0.2619E-02  0.1004E+00  0.1001E+00
      0.194  0.8493E-02  0.4483E-02  0.1008E+00  0.1003E+00
      0.240  0.1143E-01  0.6774E-02  0.1013E+00  0.1006E+00
      0.285  0.1356E-01  0.9298E-02  0.1019E+00  0.1011E+00
      0.331  0.1417E-01  0.1163E-01  0.1025E+00  0.1016E+00
      0.376  0.1295E-01  0.1312E-01  0.1031E+00  0.1022E+00
      0.422  0.1020E-01  0.1318E-01  0.1036E+00  0.1028E+00
      0.467  0.6735E-02  0.1158E-01  0.1039E+00  0.1033E+00
      0.513  0.3483E-02  0.8721E-02  0.1041E+00  0.1037E+00
      0.558  0.1110E-02  0.5411E-02  0.1041E+00  0.1040E+00
      0.604 -0.2039E-03  0.2519E-02  0.1041E+00  0.1041E+00
      0.649 -0.6660E-03  0.5618E-03  0.1041E+00  0.1041E+00
      0.695 -0.6409E-03 -0.4101E-03  0.1040E+00  0.1041E+00
      0.740 -0.4423E-03 -0.6672E-03  0.1040E+00  0.1041E+00
      0.786 -0.2482E-03 -0.5621E-03  0.1040E+00  0.1040E+00
      0.831 -0.1183E-03 -0.3597E-03  0.1040E+00  0.1040E+00
      0.877 -0.4892E-04 -0.1906E-03  0.1040E+00  0.1040E+00
      0.922 -0.1774E-04 -0.8646E-04  0.1040E+00  0.1040E+00
      0.968 -0.5685E-05 -0.3417E-04  0.1040E+00  0.1040E+00
      1.013 -0.1617E-05 -0.1188E-04  0.1040E+00  0.1040E+00
      1.059 -0.4094E-06 -0.3655E-05  0.1040E+00  0.1040E+00
      1.104 -0.9254E-07 -0.9997E-06  0.1040E+00  0.1040E+00
      1.150 -0.1870E-07 -0.2437E-06  0.1040E+00  0.1040E+00
      1.195 -0.3383E-08 -0.5308E-07  0.1040E+00  0.1040E+00
      1.241 -0.5486E-09 -0.1035E-07  0.1040E+00  0.1040E+00
      1.286 -0.7979E-10 -0.1806E-08  0.1040E+00  0.1040E+00
      1.332 -0.1042E-10 -0.2829E-09  0.1040E+00  0.1040E+00
      1.377 -0.1222E-11 -0.3976E-10  0.1040E+00  0.1040E+00
      1.423 -0.1287E-12 -0.5018E-11  0.1040E+00  0.1040E+00
      1.468 -0.1219E-13 -0.5692E-12  0.1040E+00  0.1040E+00
      1.514 -0.1039E-14 -0.5804E-13  0.1040E+00  0.1040E+00
      1.560 -0.8294E-16 -0.5323E-14  0.1040E+00  0.1040E+00
      1.605 -0.4879E-17 -0.4391E-15  0.1040E+00  0.1040E+00
      1.651  0.0000E+00 -0.3415E-16  0.1040E+00  0.1040E+00
      1.696  0.0000E+00  0.0000E+00  0.1040E+00  0.1040E+00
      1.742  0.0000E+00  0.0000E+00  0.1040E+00  0.1040E+00
      1.787  0.0000E+00  0.0000E+00  0.1040E+00  0.1040E+00
      1.833  0.0000E+00  0.0000E+00  0.1040E+00  0.1040E+00
      1.878  0.0000E+00  0.0000E+00  0.1040E+00  0.1040E+00
      1.924  0.0000E+00  0.0000E+00  0.1040E+00  0.1040E+00
      1.969  0.0000E+00  0.0000E+00  0.1040E+00  0.1040E+00
      2.015  0.0000E+00  0.0000E+00  0.1040E+00  0.1040E+00
      2.060  0.0000E+00  0.0000E+00  0.1040E+00  0.1040E+00
      2.106  0.0000E+00  0.0000E+00  0.1040E+00  0.1040E+00
      2.151  0.0000E+00  0.0000E+00  0.1040E+00  0.1040E+00
      2.197  0.0000E+00  0.0000E+00  0.1040E+00  0.1040E+00
      2.242  0.0000E+00  0.0000E+00  0.1040E+00  0.1040E+00
      2.288  0.0000E+00  0.0000E+00  0.1040E+00  0.1040E+00
      2.333  0.0000E+00  0.0000E+00  0.1040E+00  0.1040E+00
      2.379  0.0000E+00  0.0000E+00  0.1040E+00  0.1040E+00
      2.424  0.0000E+00  0.0000E+00  0.1040E+00  0.1040E+00
