   16   16 1000    2
  0.8966269E+03  0.2368288E-08  0.2398548E-08  0.2525508E-08  0.5000000E-15
   1.0000000000000000E-004
  CAR 
 unknown system                          
    160      1    104
 
  0.1262379E-14  0.1262379E-14  0.1262379E-14  0.1000000E+01
    1       -9.229064     -9.174790   1.000000   1.000000
    2       -8.699209     -8.527267   1.000000   1.000000
    3       -8.626510     -8.433800   1.000000   1.000000
    4       -8.606939     -8.358128   1.000000   1.000000
    5       -8.528438     -8.282031   1.000000   1.000000
    6       -8.498610     -8.179920   1.000000   1.000000
    7       -8.096746     -7.893169   1.000000   1.000000
    8       -7.882330     -7.758190   1.000000   1.000000
    9       -7.881247     -7.623949   1.000000   1.000000
   10       -7.802744     -7.580176   1.000000   1.000000
   11       -7.747510     -7.528330   1.000000   1.000000
   12       -7.701186     -7.446855   1.000000   1.000000
   13       -7.678100     -7.393268   1.000000   1.000000
   14       -7.663391     -7.376223   1.000000   1.000000
   15       -7.640351     -7.332510   1.000000   1.000000
   16       -7.628265     -7.324435   1.000000   1.000000
   17       -7.574601     -7.260897   1.000000   1.000000
   18       -7.491615     -7.215202   1.000000   1.000000
   19       -7.437074     -7.152252   1.000000   1.000000
   20       -7.405784     -7.124106   1.000000   1.000000
   21       -7.403433     -7.121808   1.000000   1.000000
   22       -7.296740     -7.026695   1.000000   1.000000
   23       -7.287483     -7.012212   1.000000   1.000000
   24       -7.257522     -6.984164   1.000000   1.000000
   25       -7.224850     -6.931890   1.000000   1.000000
   26       -7.097803     -6.769576   1.000000   1.000000
   27       -7.067246     -6.756922   1.000000   1.000000
   28       -6.976396     -6.690959   1.000000   1.000000
   29       -6.919784     -6.604957   1.000000   1.000000
   30       -6.871901     -6.591901   1.000000   1.000000
   31       -6.798891     -6.477807   1.000000   1.000000
   32       -6.696012     -6.378559   1.000000   1.000000
   33       -6.659038     -6.377665   1.000000   1.000000
   34       -6.651816     -6.322582   1.000000   1.000000
   35       -6.528494     -6.224939   1.000000   1.000000
   36       -6.468703     -6.157955   1.000000   1.000000
   37       -6.421409     -6.116162   1.000000   1.000000
   38       -6.291327     -5.980905   1.000000   1.000000
   39       -6.190447     -5.849520   1.000000   1.000000
   40       -6.182497     -5.839707   1.000000   1.000000
   41       -6.157009     -5.824711   1.000000   1.000000
   42       -5.982639     -5.709505   1.000000   1.000000
   43       -5.946018     -5.645242   1.000000   1.000000
   44       -5.927070     -5.635594   1.000000   1.000000
   45       -5.787569     -5.506576   1.000000   1.000000
   46       -5.707334     -5.403406   1.000000   1.000000
   47       -5.703826     -5.381139   1.000000   1.000000
   48       -5.626162     -5.339798   1.000000   1.000000
   49       -5.588511     -5.314327   1.000000   1.000000
   50       -5.576715     -5.282998   1.000000   1.000000
   51       -5.539556     -5.229093   1.000000   1.000000
   52       -5.529091     -5.222939   1.000000   1.000000
   53       -5.460195     -5.183282   1.000000   1.000000
   54       -5.417552     -5.151715   1.000000   1.000000
   55       -5.354116     -5.012697   1.000000   1.000014
   56       -5.298326     -4.991944   1.000000   1.000027
   57       -5.276050     -4.954790   1.000000   1.000080
   58       -5.234403     -4.944197   1.000000   1.000108
   59       -5.215394     -4.903443   1.000000   1.000318
   60       -5.196390     -4.891240   1.000000   1.000432
   61       -5.112139     -4.844943   1.000000   1.001278
   62       -5.106999     -4.815631   1.000001   1.002381
   63       -5.101640     -4.811614   1.000001   1.002582
   64       -5.051379     -4.771371   1.000004   1.005517
   65       -5.044789     -4.751549   1.000005   1.007720
   66       -5.003239     -4.681477   1.000019   1.020303
   67       -4.965380     -4.661750   1.000059   1.024836
   68       -4.944581     -4.619556   1.000107   1.033408
   69       -4.914308     -4.599148   1.000241   1.035372
   70       -4.909393     -4.576948   1.000273   1.034149
   71       -4.842831     -4.533648   1.001339   1.014907
   72       -4.809113     -4.495158   1.002715   0.969529
   73       -4.760566     -4.490945   1.006647   0.962546
   74       -4.753496     -4.430399   1.007478   0.813565
   75       -4.748879     -4.402683   1.008062   0.716841
   76       -4.713480     -4.387111   1.013659   0.656475
   77       -4.672589     -4.331878   1.022329   0.426185
   78       -4.664592     -4.288443   1.024178   0.254881
   79       -4.633293     -4.255825   1.031038   0.148062
   80       -4.630414     -4.226869   1.031585   0.074393
   81       -4.588416     -4.180407   1.035317  -0.000671
   82       -4.535957     -4.095289   1.016674  -0.035154
   83       -4.457804     -4.010608   0.892305  -0.018812
   84       -4.417698     -3.999646   0.771167  -0.016476
   85       -3.622722     -3.447138  -0.000002  -0.000000
   86       -3.492585     -3.313822  -0.000000  -0.000000
   87       -3.315382     -3.146875  -0.000000  -0.000000
   88       -3.157817     -2.997306  -0.000000  -0.000000
   89       -3.072589     -2.925814  -0.000000  -0.000000
   90       -2.596757     -2.448743  -0.000000  -0.000000
   91       -1.574693     -1.446021  -0.000000  -0.000000
   92       -1.442683     -1.299438  -0.000000  -0.000000
   93       -1.393247     -1.267274  -0.000000  -0.000000
   94       -1.330730     -1.204815  -0.000000  -0.000000
   95       -1.133618     -1.005317  -0.000000  -0.000000
   96       -1.083959     -0.985786  -0.000000  -0.000000
   97       -1.075725     -0.966557  -0.000000  -0.000000
   98       -0.956855     -0.866159  -0.000000  -0.000000
   99       -0.834874     -0.743624  -0.000000  -0.000000
  100       -0.646970     -0.553801  -0.000000  -0.000000
  101        0.175995      0.215195  -0.000000  -0.000000
  102        0.297572      0.372229  -0.000000  -0.000000
  103        0.334890      0.403930  -0.000000  -0.000000
  104        0.345854      0.424224  -0.000000  -0.000000
