       N       E                     dE             d eps       ncg     rms          rms(c)
DAV:   1     0.141541383751E+04    0.14154E+04   -0.27109E+04   416   0.735E+02
DAV:   2     0.732676473442E+03   -0.68274E+03   -0.61625E+03   800   0.870E+01
DAV:   3     0.136650854307E+03   -0.59603E+03   -0.54935E+03   664   0.821E+01
DAV:   4    -0.405262938495E+02   -0.17718E+03   -0.16062E+03   552   0.499E+01
DAV:   5    -0.646370655545E+02   -0.24111E+02   -0.20328E+02   560   0.177E+01    0.249E+01
DAV:   6    -0.516837286850E+02    0.12953E+02   -0.45929E+01   432   0.156E+01    0.138E+01
DAV:   7    -0.536427689491E+02   -0.19590E+01   -0.23172E+01   440   0.269E+01    0.196E+01
DAV:   8    -0.512043224005E+02    0.24384E+01   -0.12933E+01   448   0.214E+01    0.131E+01
DAV:   9    -0.506088848877E+02    0.59544E+00   -0.82503E+00   464   0.156E+01    0.877E+00
DAV:  10    -0.512823524373E+02   -0.67347E+00   -0.26122E+00   456   0.106E+01    0.639E+00
DAV:  11    -0.521770319873E+02   -0.89468E+00   -0.11119E+00   448   0.625E+00    0.379E+00
DAV:  12    -0.530174638275E+02   -0.84043E+00   -0.54018E-01   440   0.431E+00    0.326E+00
DAV:  13    -0.546587570947E+02   -0.16413E+01   -0.50797E-01   440   0.355E+00    0.214E+00
DAV:  14    -0.559718131093E+02   -0.13131E+01   -0.31580E-01   440   0.244E+00    0.161E+00
DAV:  15    -0.568375870935E+02   -0.86577E+00   -0.15996E-01   440   0.165E+00    0.122E+00
DAV:  16    -0.579047749561E+02   -0.10672E+01   -0.20291E-01   440   0.161E+00    0.125E+00
DAV:  17    -0.587261690614E+02   -0.82139E+00   -0.15547E-01   456   0.137E+00    0.129E+00
DAV:  18    -0.592092183297E+02   -0.48305E+00   -0.77365E-02   432   0.118E+00    0.938E-01
DAV:  19    -0.600627499206E+02   -0.85353E+00   -0.12604E-01   424   0.104E+00    0.757E-01
DAV:  20    -0.606314305622E+02   -0.56868E+00   -0.64109E-02   432   0.839E-01    0.529E-01
DAV:  21    -0.613111152991E+02   -0.67968E+00   -0.88294E-02   448   0.751E-01    0.431E-01
DAV:  22    -0.616163019489E+02   -0.30519E+00   -0.19796E-02   504   0.455E-01    0.325E-01
DAV:  23    -0.619379542937E+02   -0.32165E+00   -0.14507E-02   424   0.412E-01    0.293E-01
DAV:  24    -0.622831092462E+02   -0.34515E+00   -0.14135E-02   448   0.349E-01    0.235E-01
DAV:  25    -0.624902540524E+02   -0.20714E+00   -0.55653E-03   472   0.264E-01    0.157E-01
DAV:  26    -0.627210590939E+02   -0.23081E+00   -0.69489E-03   440   0.223E-01    0.119E-01
DAV:  27    -0.628131563256E+02   -0.92097E-01   -0.22141E-03   496   0.151E-01    0.103E-01
DAV:  28    -0.628815875145E+02   -0.68431E-01   -0.14809E-03   440   0.118E-01    0.683E-02
DAV:  29    -0.629227081144E+02   -0.41121E-01   -0.55183E-04   360   0.760E-02    0.452E-02
DAV:  30    -0.629420028663E+02   -0.19295E-01   -0.20490E-04   312   0.596E-02    0.461E-02
DAV:  31    -0.629593828056E+02   -0.17380E-01   -0.23990E-04   336   0.449E-02    0.217E-02
DAV:  32    -0.629702096403E+02   -0.10827E-01   -0.12813E-04   296   0.279E-02    0.179E-02
DAV:  33    -0.629746903528E+02   -0.44807E-02   -0.89633E-05   320   0.226E-02    0.164E-02
DAV:  34    -0.629766654317E+02   -0.19751E-02   -0.28975E-05   304   0.188E-02    0.951E-03
DAV:  35    -0.629783820402E+02   -0.17166E-02   -0.32558E-05   296   0.122E-02    0.690E-03
DAV:  36    -0.629798973111E+02   -0.15153E-02   -0.26423E-05   304   0.101E-02    0.583E-03
DAV:  37    -0.629806236768E+02   -0.72637E-03   -0.16776E-05   296   0.900E-03    0.464E-03
DAV:  38    -0.629812794743E+02   -0.65580E-03   -0.10794E-05   296   0.733E-03    0.293E-03
DAV:  39    -0.629818544973E+02   -0.57502E-03   -0.79857E-06   272   0.458E-03    0.185E-03
DAV:  40    -0.629822709648E+02   -0.41647E-03   -0.48984E-06   264   0.371E-03    0.158E-03
DAV:  41    -0.629824173395E+02   -0.14637E-03   -0.21771E-06   272   0.314E-03    0.124E-03
DAV:  42    -0.629825330716E+02   -0.11573E-03   -0.12923E-06   272   0.209E-03    0.721E-04
DAV:  43    -0.629826190582E+02   -0.85987E-04   -0.72587E-07   240   0.156E-03
   1 F= -.62982619E+02 E0= -.62992297E+02  d E =-.629826E+02  mag=     7.7427
       N       E                     dE             d eps       ncg     rms          rms(c)
DAV:   1    -0.629830421957E+02   -0.50912E-03   -0.22796E-01   448   0.125E+00    0.107E-01
DAV:   2    -0.629838794679E+02   -0.83727E-03   -0.52619E-03   440   0.337E-01    0.349E-01
DAV:   3    -0.629832606146E+02    0.61885E-03   -0.19359E-03   432   0.276E-01    0.755E-02
DAV:   4    -0.629833644238E+02   -0.10381E-03   -0.28677E-04   272   0.105E-01    0.679E-02
DAV:   5    -0.629833587261E+02    0.56976E-05   -0.91237E-05   280   0.660E-02
   2 F= -.62983359E+02 E0= -.62993035E+02  d E =-.739668E-03  mag=     7.7410
       N       E                     dE             d eps       ncg     rms          rms(c)
DAV:   1    -0.629833347304E+02    0.29693E-04   -0.30379E-01   440   0.144E+00    0.128E-01
DAV:   2    -0.629843099343E+02   -0.97520E-03   -0.67243E-03   440   0.379E-01    0.382E-01
DAV:   3    -0.629835735696E+02    0.73636E-03   -0.25328E-03   432   0.310E-01    0.836E-02
DAV:   4    -0.629836985918E+02   -0.12502E-03   -0.48408E-04   264   0.123E-01    0.106E-01
DAV:   5    -0.629836635379E+02    0.35054E-04   -0.31116E-04   248   0.107E-01
   3 F= -.62983664E+02 E0= -.62993334E+02  d E =-.104448E-02  mag=     7.7390
       N       E                     dE             d eps       ncg     rms          rms(c)
DAV:   1    -0.629837019128E+02   -0.33210E-05   -0.32878E-01   440   0.149E+00    0.102E-01
DAV:   2    -0.629843799676E+02   -0.67805E-03   -0.58657E-03   448   0.321E-01    0.254E-01
DAV:   3    -0.629840754023E+02    0.30457E-03   -0.15419E-03   432   0.241E-01    0.891E-02
DAV:   4    -0.629840999832E+02   -0.24581E-04   -0.27984E-04   256   0.101E-01
   4 F= -.62984100E+02 E0= -.62993859E+02  d E =-.436445E-03  mag=     7.7375
       N       E                     dE             d eps       ncg     rms          rms(c)
DAV:   1    -0.629839666440E+02    0.10876E-03   -0.28988E-01   432   0.140E+00    0.108E-01
DAV:   2    -0.629845693116E+02   -0.60267E-03   -0.52143E-03   432   0.323E-01    0.264E-01
DAV:   3    -0.629842677678E+02    0.30154E-03   -0.15186E-03   432   0.239E-01    0.109E-01
DAV:   4    -0.629842763288E+02   -0.85610E-05   -0.32298E-04   264   0.107E-01
   5 F= -.62984276E+02 E0= -.62994125E+02  d E =-.612791E-03  mag=     7.7359
