 vasp.6.1.2 22Jul20 (build Aug  2 2021 21:04:21) gamma-only                      
 executed on             LinuxPGI date 2021.12.24  06:58:02
 running on   16 total cores
 distrk:  each k-point on   16 cores,    1 groups
 distr:  one band on NCORE=  16 cores,    1 groups


--------------------------------------------------------------------------------------------------------


 INCAR:
 POTCAR:    PAW_PBE Pd 04Jan2005                  
 -----------------------------------------------------------------------------
|                                                                             |
|           W    W    AA    RRRRR   N    N  II  N    N   GGGG   !!!           |
|           W    W   A  A   R    R  NN   N  II  NN   N  G    G  !!!           |
|           W    W  A    A  R    R  N N  N  II  N N  N  G       !!!           |
|           W WW W  AAAAAA  RRRRR   N  N N  II  N  N N  G  GGG   !            |
|           WW  WW  A    A  R   R   N   NN  II  N   NN  G    G                |
|           W    W  A    A  R    R  N    N  II  N    N   GGGG   !!!           |
|                                                                             |
|     You use a magnetic or noncollinear calculation, but did not specify     |
|     the initial magnetic moment with the MAGMOM tag. Note that a            |
|     default of 1 will be used for all atoms. This ferromagnetic setup       |
|     may break the symmetry of the crystal, in particular it may rule        |
|     out finding an antiferromagnetic solution. Thence, we recommend         |
|     setting the initial magnetic moment manually or verifying carefully     |
|     that this magnetic setup is desired.                                    |
|                                                                             |
 -----------------------------------------------------------------------------

 -----------------------------------------------------------------------------
|                                                                             |
|           W    W    AA    RRRRR   N    N  II  N    N   GGGG   !!!           |
|           W    W   A  A   R    R  NN   N  II  NN   N  G    G  !!!           |
|           W    W  A    A  R    R  N N  N  II  N N  N  G       !!!           |
|           W WW W  AAAAAA  RRRRR   N  N N  II  N  N N  G  GGG   !            |
|           WW  WW  A    A  R   R   N   NN  II  N   NN  G    G                |
|           W    W  A    A  R    R  N    N  II  N    N   GGGG   !!!           |
|                                                                             |
|     For optimal performance we recommend to set                             |
|       NCORE = 4 - approx SQRT(number of cores).                             |
|     NCORE specifies how many cores store one orbital (NPAR=cpu/NCORE).      |
|     This setting can greatly improve the performance of VASP for DFT.       |
|     The default, NCORE=1 might be grossly inefficient on modern             |
|     multi-core architectures or massively parallel machines. Do your        |
|     own testing!!!!                                                         |
|     Unfortunately you need to use the default for GW and RPA                |
|     calculations (for HF NCORE is supported but not extensively tested      |
|     yet).                                                                   |
|                                                                             |
 -----------------------------------------------------------------------------

 POTCAR:    PAW_PBE Pd 04Jan2005                  
   SHA256 =  dd6f6f02930356371984e2b707ff5e456046761dc76b07c1eba30abd15eb3c39 Pd/POTCAR             
   COPYR  = (c) Copyright 04Jan2005 Georg Kresse                                                    
   COPYR  = This file is part of the software VASP. Any use, copying, and all other rights are regul
   COPYR  = If you do not have a valid VASP license, you may not use, copy or distribute this file. 
   VRHFIN =Pd : s1 d9                                                                               
   LEXCH  = PE                                                                                      
   EATOM  =   809.7530 eV,   59.5152 Ry                                                             
                                                                                                    
   TITEL  = PAW_PBE Pd 04Jan2005                                                                    
   LULTRA =        F    use ultrasoft PP ?                                                          
   IUNSCR =        1    unscreen: 0-lin 1-nonlin 2-no                                               
   RPACOR =    2.000    partial core radius                                                         
   POMASS =  106.420; ZVAL   =   10.000    mass and valenz                                          
   RCORE  =    2.600    outmost cutoff radius                                                       
   RWIGS  =    2.710; RWIGS  =    1.434    wigner-seitz radius (au A)                               
   ENMAX  =  250.925; ENMIN  =  188.194 eV                                                          
   ICORE  =        3    local potential                                                             
   LCOR   =        T    correct aug charges                                                         
   LPAW   =        T    paw PP                                                                      
   EAUG   =  416.230                                                                                
   DEXC   =    0.000                                                                                
   RMAX   =    2.653    core radius for proj-oper                                                   
   RAUG   =    1.300    factor for augmentation sphere                                              
   RDEP   =    2.734    radius for radial grids                                                     
   RDEPT  =    2.103    core radius for aug-charge                                                  
                                                                                                    
   Atomic configuration                                                                             
   12 entries                                                                                       
     n  l   j            E        occ.                                                              
     1  0  0.50    -24164.6631   2.0000                                                             
     2  0  0.50     -3530.9218   2.0000                                                             
     2  1  1.50     -3165.6822   6.0000                                                             
     3  0  0.50      -639.4577   2.0000                                                             
     3  1  1.50      -519.4532   6.0000                                                             
     3  2  2.50      -328.9757  10.0000                                                             
     4  0  0.50       -88.7014   2.0000                                                             
     4  1  1.50       -54.4540   6.0000                                                             
     4  2  2.50        -6.6878   9.0000                                                             
     5  0  0.50        -4.3543   1.0000                                                             
     5  1  0.50        -1.3606   0.0000                                                             
     4  3  2.50        -1.3606   0.0000                                                             
   Description                                                                                      
     l       E           TYP  RCUT    TYP  RCUT                                                     
     2     -6.6878251     23  2.400                                                                 
     2     -8.0484077     23  2.400                                                                 
     0     -4.3542939     23  2.400                                                                 
     0      4.3406793     23  2.400                                                                 
     1     -4.0817478     23  2.600                                                                 
     1     15.8380318     23  2.600                                                                 
     3     -4.0817478     23  2.400                                                                 
  local pseudopotential read in
  partial core-charges read in
  partial kinetic energy density read in
  atomic valenz-charges read in
  non local Contribution for L=            2  read in
    real space projection operators read in
  non local Contribution for L=            2  read in
    real space projection operators read in
  non local Contribution for L=            0  read in
    real space projection operators read in
  non local Contribution for L=            0  read in
    real space projection operators read in
  non local Contribution for L=            1  read in
    real space projection operators read in
  non local Contribution for L=            1  read in
    real space projection operators read in
    PAW grid and wavefunctions read in
 
   number of l-projection  operators is LMAX  =            6
   number of lm-projection operators is LMMAX =           18
 
  PAW_PBE Pd 04Jan2005                  :
 energy of atom  1       EATOM= -809.7530
 kinetic energy error for atom=    0.0091 (will be added to EATOM!!)
 
 
 POSCAR: Pd
  positions in cartesian coordinates
  No initial velocities read in
 exchange correlation table for  LEXCH =        8
   RHO(1)=    0.500       N(1)  =     2000
   RHO(2)=  100.500       N(2)  =     4000
 


--------------------------------------------------------------------------------------------------------


 ion  position               nearest neighbor table
   1  0.380  0.506  0.444-   5 2.66   6 2.68   3 2.69   2 2.73  12 2.73   9 2.83
   2  0.432  0.580  0.510-   9 2.54   8 2.65   1 2.73   7 2.74   5 2.77   3 2.77   4 3.23
   3  0.473  0.560  0.409-   9 2.67   1 2.69   4 2.70  10 2.72   6 2.73   2 2.77
   4  0.562  0.569  0.475-   9 2.60   8 2.61  10 2.68   3 2.70  14 2.72  11 2.83   2 3.23
   5  0.379  0.485  0.547-   7 2.65   1 2.66  13 2.68  12 2.71   2 2.77   9 2.93
   6  0.459  0.449  0.391-  10 2.66  12 2.68   1 2.68   3 2.73  15 2.74   9 2.82
   7  0.457  0.533  0.606-  11 2.64   5 2.65   8 2.66  13 2.73   2 2.74   9 3.13
   8  0.523  0.611  0.563-   4 2.61  11 2.65   2 2.65   7 2.66
   9  0.487  0.492  0.492-   2 2.54  15 2.55  13 2.60   4 2.60  11 2.63   3 2.67  12 2.69   6 2.82
                             1 2.83   5 2.93  10 2.94   7 3.13  14 3.14
  10  0.563  0.490  0.400-  14 2.65   6 2.66   4 2.68   3 2.72  15 2.78   9 2.94
  11  0.558  0.506  0.570-   9 2.63   7 2.64  14 2.64   8 2.65  16 2.65   4 2.83  13 2.84
  12  0.416  0.405  0.480-   6 2.68   9 2.69  13 2.70   5 2.71   1 2.73  15 2.77
  13  0.471  0.426  0.572-   9 2.60  16 2.62   5 2.68  12 2.70   7 2.73  11 2.84  15 3.19
  14  0.618  0.470  0.489-  11 2.64  10 2.65  16 2.66   4 2.72  15 2.73   9 3.14
  15  0.531  0.400  0.462-   9 2.55  16 2.65  14 2.73   6 2.74  12 2.77  10 2.78  13 3.19
  16  0.576  0.398  0.558-  13 2.62  11 2.65  15 2.65  14 2.66
 

IMPORTANT INFORMATION: All symmetrisations will be switched off!
NOSYMM: (Re-)initialisation of all symmetry stuff for point group C_1.


----------------------------------------------------------------------------------------

                                     Primitive cell                                     

  volume of cell :   14346.0302

  direct lattice vectors                    reciprocal lattice vectors
    23.682877406  0.000000000  0.000000000     0.042224599  0.000000000  0.000000000
     0.000000000 23.985484422  0.000000000     0.000000000  0.041691883  0.000000000
     0.000000000  0.000000000 25.255081783     0.000000000  0.000000000  0.039595991

  length of vectors
    23.682877406 23.985484422 25.255081783     0.042224599  0.041691883  0.039595991

  position of ions in fractional coordinates (direct lattice)
     0.380065243  0.506458873  0.443786127
     0.431793751  0.580432688  0.510184450
     0.472860233  0.559869702  0.409174438
     0.562257714  0.568630534  0.475182548
     0.378504140  0.485128389  0.547241820
     0.459098862  0.448560821  0.391017819
     0.457206649  0.533262950  0.606039836
     0.523182010  0.610822320  0.563313509
     0.486993783  0.491660296  0.491760822
     0.562721406  0.490217458  0.399513560
     0.558404666  0.506338389  0.570487000
     0.415987288  0.405222801  0.480121373
     0.470564810  0.425817826  0.572033380
     0.617779557  0.470371453  0.488726762
     0.531470974  0.400209503  0.462208781
     0.576377971  0.397962803  0.558426785

  ion indices of the primitive-cell ions
   primitive index   ion index
                 1           1
                 2           2
                 3           3
                 4           4
                 5           5
                 6           6
                 7           7
                 8           8
                 9           9
                10          10
                11          11
                12          12
                13          13
                14          14
                15          15
                16          16

----------------------------------------------------------------------------------------

 
 
 KPOINTS: KPOINTS created by Atomic Simulation Env

Automatic generation of k-mesh.
Space group operators:
 irot       det(A)        alpha          n_x          n_y          n_z        tau_x        tau_y        tau_z
    1     1.000000     0.000000     1.000000     0.000000     0.000000     0.000000     0.000000     0.000000
 
 Subroutine IBZKPT returns following result:
 ===========================================
 
 Found      1 irreducible k-points:
 
 Following reciprocal coordinates:
            Coordinates               Weight
  0.000000  0.000000  0.000000      1.000000
 
 Following cartesian coordinates:
            Coordinates               Weight
  0.000000  0.000000  0.000000      1.000000
 


--------------------------------------------------------------------------------------------------------




 Dimension of arrays:
   k-points           NKPTS =      1   k-points in BZ     NKDIM =      1   number of bands    NBANDS=    104
   number of dos      NEDOS =    301   number of ions     NIONS =     16
   non local maximal  LDIM  =      6   non local SUM 2l+1 LMDIM =     18
   total plane-waves  NPLWV = ******
   max r-space proj   IRMAX =      1   max aug-charges    IRDMAX=   6334
   dimension x,y,z NGX =   120 NGY =  120 NGZ =  126
   dimension x,y,z NGXF=   240 NGYF=  240 NGZF=  252
   support grid    NGXF=   240 NGYF=  240 NGZF=  252
   ions per type =              16
   NGX,Y,Z   is equivalent  to a cutoff of   8.42,  8.32,  8.29 a.u.
   NGXF,Y,Z  is equivalent  to a cutoff of  16.85, 16.63, 16.59 a.u.

 SYSTEM =  unknown system                          
 POSCAR =  Pd                                      

 Startparameter for this run:
   NWRITE =      2    write-flag & timer
   PREC   = normal    normal or accurate (medium, high low for compatibility)
   ISTART =      0    job   : 0-new  1-cont  2-samecut
   ICHARG =      2    charge: 1-file 2-atom 10-const
   ISPIN  =      2    spin polarized calculation?
   LNONCOLLINEAR =      F non collinear calculations
   LSORBIT =      F    spin-orbit coupling
   INIWAV =      1    electr: 0-lowe 1-rand  2-diag
   LASPH  =      F    aspherical Exc in radial PAW
   METAGGA=      F    non-selfconsistent MetaGGA calc.

 Electronic Relaxation 1
   ENCUT  =  400.0 eV  29.40 Ry    5.42 a.u.  38.62 39.11 41.18*2*pi/ulx,y,z
   ENINI  =  400.0     initial cutoff
   ENAUG  =  416.2 eV  augmentation charge cutoff
   NELM   =     60;   NELMIN=  2; NELMDL=  0     # of ELM steps 
   EDIFF  = 0.1E-03   stopping-criterion for ELM
   LREAL  =      F    real-space projection
   NLSPLINE    = F    spline interpolate recip. space projectors
   LCOMPAT=      F    compatible to vasp.4.4
   GGA_COMPAT  = T    GGA compatible to vasp.4.4-vasp.4.6
   LMAXPAW     = -100 max onsite density
   LMAXMIX     =    2 max onsite mixed and CHGCAR
   VOSKOWN=      0    Vosko Wilk Nusair interpolation
   ROPT   =    0.00000
 Ionic relaxation
   EDIFFG = 0.1E-02   stopping-criterion for IOM
   NSW    =   1000    number of steps for IOM
   NBLOCK =      1;   KBLOCK =   1000    inner block; outer block 
   IBRION =      2    ionic relax: 0-MD 1-quasi-New 2-CG
   NFREE  =      1    steps in history (QN), initial steepest desc. (CG)
   ISIF   =      0    stress and relaxation
   IWAVPR =     11    prediction:  0-non 1-charg 2-wave 3-comb
   ISYM   =      0    0-nonsym 1-usesym 2-fastsym
   LCORR  =      T    Harris-Foulkes like correction to forces

   POTIM  = 0.5000    time-step for ionic-motion
   TEIN   =    0.0    initial temperature
   TEBEG  =    0.0;   TEEND  =   0.0 temperature during run
   SMASS  =  -3.00    Nose mass-parameter (am)
   estimated Nose-frequenzy (Omega)   =  0.10E-29 period in steps = 0.13E+47 mass=  -0.128E-25a.u.
   SCALEE = 1.0000    scale energy and forces
   NPACO  =    256;   APACO  = 16.0  distance and # of slots for P.C.
   PSTRESS=    0.0 pullay stress

  Mass of Ions in am
   POMASS = 106.42
  Ionic Valenz
   ZVAL   =  10.00
  Atomic Wigner-Seitz radii
   RWIGS  =  -1.00
  virtual crystal weights 
   VCA    =   1.00
   NELECT =     160.0000    total number of electrons
   NUPDOWN=      -1.0000    fix difference up-down

 DOS related values:
   EMIN   =  10.00;   EMAX   =-10.00  energy-range for DOS
   EFERMI =   0.00
   ISMEAR =     1;   SIGMA  =   0.20  broadening in eV -4-tet -1-fermi 0-gaus

 Electronic relaxation 2 (details)
   IALGO  =     38    algorithm
   LDIAG  =      T    sub-space diagonalisation (order eigenvalues)
   LSUBROT=      F    optimize rotation matrix (better conditioning)
   TURBO    =      0    0=normal 1=particle mesh
   IRESTART =      0    0=no restart 2=restart with 2 vectors
   NREBOOT  =      0    no. of reboots
   NMIN     =      0    reboot dimension
   EREF     =   0.00    reference energy to select bands
   IMIX   =      4    mixing-type and parameters
     AMIX     =   0.40;   BMIX     =  1.00
     AMIX_MAG =   1.60;   BMIX_MAG =  1.00
     AMIN     =   0.10
     WC   =   100.;   INIMIX=   1;  MIXPRE=   1;  MAXMIX= -45

 Intra band minimization:
   WEIMIN = 0.0010     energy-eigenvalue tresh-hold
   EBREAK =  0.24E-06  absolut break condition
   DEPER  =   0.30     relativ break condition  

   TIME   =   0.40     timestep for ELM

  volume/ion in A,a.u.               =     896.63      6050.74
  Fermi-wavevector in a.u.,A,eV,Ry     =   0.365767  0.691199  1.820260  0.133785
  Thomas-Fermi vector in A             =   1.289603
 
 Write flags
   LWAVE        =      F    write WAVECAR
   LDOWNSAMPLE  =      F    k-point downsampling of WAVECAR
   LCHARG       =      F    write CHGCAR
   LVTOT        =      F    write LOCPOT, total local potential
   LVHAR        =      F    write LOCPOT, Hartree potential only
   LELF         =      F    write electronic localiz. function (ELF)
   LORBIT       =      0    0 simple, 1 ext, 2 COOP (PROOUT), +10 PAW based schemes


 Dipole corrections
   LMONO  =      F    monopole corrections only (constant potential shift)
   LDIPOL =      F    correct potential (dipole corrections)
   IDIPOL =      0    1-x, 2-y, 3-z, 4-all directions 
   EPSILON=  1.0000000 bulk dielectric constant

 Exchange correlation treatment:
   GGA     =    PE    GGA type
   LEXCH   =     8    internal setting for exchange type
   VOSKOWN=      0    Vosko Wilk Nusair interpolation
   LHFCALC =     F    Hartree Fock is set to
   LHFONE  =     F    Hartree Fock one center treatment
   AEXX    =    0.0000 exact exchange contribution

 Linear response parameters
   LEPSILON=     F    determine dielectric tensor
   LRPA    =     F    only Hartree local field effects (RPA)
   LNABLA  =     F    use nabla operator in PAW spheres
   LVEL    =     F    velocity operator in full k-point grid
   LINTERFAST=   F  fast interpolation
   KINTER  =     0    interpolate to denser k-point grid
   CSHIFT  =0.1000    complex shift for real part using Kramers Kronig
   OMEGAMAX=  -1.0    maximum frequency
   DEG_THRESHOLD= 0.2000000E-02 threshold for treating states as degnerate
   RTIME   =   -0.100 relaxation time in fs
  (WPLASMAI=    0.000 imaginary part of plasma frequency in eV, 0.658/RTIME)
   DFIELD  = 0.0000000 0.0000000 0.0000000 field for delta impulse in time
 
 Orbital magnetization related:
   ORBITALMAG=     F  switch on orbital magnetization
   LCHIMAG   =     F  perturbation theory with respect to B field
   DQ        =  0.001000  dq finite difference perturbation B field
   LLRAUG    =     F  two centre corrections for induced B field



--------------------------------------------------------------------------------------------------------


 conjugate gradient relaxation of ions
 charge density and potential will be updated during run
 spin polarized calculation
 Variant of blocked Davidson
 Davidson routine will perform the subspace rotation
 perform sub-space diagonalisation
    after iterative eigenvector-optimisation
 modified Broyden-mixing scheme, WC =      100.0
 initial mixing is a Kerker type mixing with AMIX =  0.4000 and BMIX =      1.0000
 Hartree-type preconditioning will be used
 using additional bands            24
 reciprocal scheme for non local part
 use partial core corrections
 calculate Harris-corrections to forces 
   (improved forces if not selfconsistent)
 use gradient corrections 
 use of overlap-Matrix (Vanderbilt PP)
 Methfessel and Paxton  Order N= 1 SIGMA  =   0.20


--------------------------------------------------------------------------------------------------------


  energy-cutoff  :      400.00
  volume of cell :    14346.03
      direct lattice vectors                 reciprocal lattice vectors
    23.682877406  0.000000000  0.000000000     0.042224599  0.000000000  0.000000000
     0.000000000 23.985484422  0.000000000     0.000000000  0.041691883  0.000000000
     0.000000000  0.000000000 25.255081783     0.000000000  0.000000000  0.039595991

  length of vectors
    23.682877406 23.985484422 25.255081783     0.042224599  0.041691883  0.039595991


 
 k-points in units of 2pi/SCALE and weight: KPOINTS created by Atomic Simulation Env
   0.00000000  0.00000000  0.00000000       1.000
 
 k-points in reciprocal lattice and weights: KPOINTS created by Atomic Simulation Env
   0.00000000  0.00000000  0.00000000       1.000
 
 position of ions in fractional coordinates (direct lattice) 
   0.38006524  0.50645887  0.44378613
   0.43179375  0.58043269  0.51018445
   0.47286023  0.55986970  0.40917444
   0.56225771  0.56863053  0.47518255
   0.37850414  0.48512839  0.54724182
   0.45909886  0.44856082  0.39101782
   0.45720665  0.53326295  0.60603984
   0.52318201  0.61082232  0.56331351
   0.48699378  0.49166030  0.49176082
   0.56272141  0.49021746  0.39951356
   0.55840467  0.50633839  0.57048700
   0.41598729  0.40522280  0.48012137
   0.47056481  0.42581783  0.57203338
   0.61777956  0.47037145  0.48872676
   0.53147097  0.40020950  0.46220878
   0.57637797  0.39796280  0.55842678
 
 position of ions in cartesian coordinates  (Angst):
   9.00103855 12.14766141 11.20785492
  10.22611848 13.92195919 12.88475001
  11.19869092 13.42874602 10.33373389
  13.31588051 13.63887880 12.00077412
   8.96406714 11.63603942 13.82063692
  10.87278207 10.75894859  9.87518700
  10.82796902 12.79057017 15.30558563
  12.39045540 14.65086924 14.22652874
  11.53341407 11.79271038 12.41945977
  13.32686208 11.75810320 10.08974762
  13.22462924 12.14477154 14.40769584
   9.85177594  9.71946518 12.12550453
  11.14432872 10.21344682 14.44674980
  14.63079750 11.28208715 12.34283435
  12.58676192  9.59921881 11.67312056
  13.65028883  9.54533061 14.10311412
 


--------------------------------------------------------------------------------------------------------


 use parallel FFT for orbitals z direction half grid
 k-point   1 :   0.0000 0.0000 0.0000  plane waves:  130311

 maximum and minimum number of plane-waves per node :      8150     8140

 maximum number of plane-waves:    130311
 maximum index in each direction: 
   IXMAX=   38   IYMAX=   39   IZMAX=   41
   IXMIN=  -38   IYMIN=  -39   IZMIN=    0


 parallel 3D FFT for wavefunctions:
    minimum data exchange during FFTs selected (reduces bandwidth)
 parallel 3D FFT for charge:
    minimum data exchange during FFTs selected (reduces bandwidth)


 total amount of memory used by VASP MPI-rank0   169100. kBytes
=======================================================================

   base      :      30000. kBytes
   nonl-proj :       3257. kBytes
   fftplans  :      33270. kBytes
   grid      :      75429. kBytes
   one-center:         15. kBytes
   wavefun   :      27129. kBytes
 
     INWAV:  cpu time    0.0000: real time    0.0000
 Broyden mixing: mesh for mixing (old mesh)
   NGX = 77   NGY = 79   NGZ = 83
  (NGX  =240   NGY  =240   NGZ  =252)
  gives a total of 504889 points

 initial charge density was supplied:
 charge density of overlapping atoms calculated
 number of electron     160.0000000 magnetization      16.0000000
 keeping initial charge density in first step


--------------------------------------------------------------------------------------------------------


 Maximum index for augmentation-charges           398 (set IRDMAX)


--------------------------------------------------------------------------------------------------------


 First call to EWALD:  gamma=   0.073
 Maximum number of real-space cells 3x 3x 3
 Maximum number of reciprocal cells 3x 3x 3

    FEWALD:  cpu time    0.0118: real time    0.0118


--------------------------------------- Iteration      1(   1)  ---------------------------------------


    POTLOK:  cpu time    1.7424: real time    1.7558
    SETDIJ:  cpu time    0.0200: real time    0.0200
     EDDAV:  cpu time    6.0757: real time    6.0807
       DOS:  cpu time    0.0113: real time    0.0113
    --------------------------------------------
      LOOP:  cpu time    7.8494: real time    7.8678

 eigenvalue-minimisations  :   416
 total energy-change (2. order) : 0.1415414E+04  (-0.2710904E+04)
 number of electron     160.0000000 magnetization      16.0000000
 augmentation part      160.0000000 magnetization      16.0000000

 Free energy of the ion-electron system (eV)
  ---------------------------------------------------
  alpha Z        PSCENC =        11.63029590
  Ewald energy   TEWEN  =     27010.41458113
  -Hartree energ DENC   =    -39320.73328181
  -exchange      EXHF   =         0.00000000
  -V(xc)+E(xc)   XCENC  =      -480.33554533
  PAW double counting   =     12906.36685261   -11910.91650437
  entropy T*S    EENTRO =        -0.08982739
  eigenvalues    EBANDS =       243.17498551
  atomic energy  EATOM  =     12955.90228127
  Solvation  Ediel_sol  =         0.00000000
  ---------------------------------------------------
  free energy    TOTEN  =      1415.41383751 eV

  energy without entropy =     1415.50366490  energy(sigma->0) =     1415.44377997


--------------------------------------------------------------------------------------------------------




--------------------------------------- Iteration      1(   2)  ---------------------------------------


     EDDAV:  cpu time   10.0586: real time   10.0719
       DOS:  cpu time    0.0109: real time    0.0109
    --------------------------------------------
      LOOP:  cpu time   10.0696: real time   10.0828

 eigenvalue-minimisations  :   800
 total energy-change (2. order) :-0.6827374E+03  (-0.6162521E+03)
 number of electron     160.0000000 magnetization      16.0000000
 augmentation part      160.0000000 magnetization      16.0000000

 Free energy of the ion-electron system (eV)
  ---------------------------------------------------
  alpha Z        PSCENC =        11.63029590
  Ewald energy   TEWEN  =     27010.41458113
  -Hartree energ DENC   =    -39320.73328181
  -exchange      EXHF   =         0.00000000
  -V(xc)+E(xc)   XCENC  =      -480.33554533
  PAW double counting   =     12906.36685261   -11910.91650437
  entropy T*S    EENTRO =        -0.04000199
  eigenvalues    EBANDS =      -439.61220397
  atomic energy  EATOM  =     12955.90228127
  Solvation  Ediel_sol  =         0.00000000
  ---------------------------------------------------
  free energy    TOTEN  =       732.67647344 eV

  energy without entropy =      732.71647543  energy(sigma->0) =      732.68980744


--------------------------------------------------------------------------------------------------------




--------------------------------------- Iteration      1(   3)  ---------------------------------------


     EDDAV:  cpu time    8.6574: real time    8.6689
       DOS:  cpu time    0.0091: real time    0.0091
    --------------------------------------------
      LOOP:  cpu time    8.6665: real time    8.6781

 eigenvalue-minimisations  :   664
 total energy-change (2. order) :-0.5960256E+03  (-0.5493451E+03)
 number of electron     160.0000000 magnetization      16.0000000
 augmentation part      160.0000000 magnetization      16.0000000

 Free energy of the ion-electron system (eV)
  ---------------------------------------------------
  alpha Z        PSCENC =        11.63029590
  Ewald energy   TEWEN  =     27010.41458113
  -Hartree energ DENC   =    -39320.73328181
  -exchange      EXHF   =         0.00000000
  -V(xc)+E(xc)   XCENC  =      -480.33554533
  PAW double counting   =     12906.36685261   -11910.91650437
  entropy T*S    EENTRO =        -0.02654476
  eigenvalues    EBANDS =     -1035.65128033
  atomic energy  EATOM  =     12955.90228127
  Solvation  Ediel_sol  =         0.00000000
  ---------------------------------------------------
  free energy    TOTEN  =       136.65085431 eV

  energy without entropy =      136.67739906  energy(sigma->0) =      136.65970256


--------------------------------------------------------------------------------------------------------




--------------------------------------- Iteration      1(   4)  ---------------------------------------


     EDDAV:  cpu time    7.3300: real time    7.3435
       DOS:  cpu time    0.0118: real time    0.0118
    --------------------------------------------
      LOOP:  cpu time    7.3418: real time    7.3553

 eigenvalue-minimisations  :   552
 total energy-change (2. order) :-0.1771771E+03  (-0.1606203E+03)
 number of electron     160.0000000 magnetization      16.0000000
 augmentation part      160.0000000 magnetization      16.0000000

 Free energy of the ion-electron system (eV)
  ---------------------------------------------------
  alpha Z        PSCENC =        11.63029590
  Ewald energy   TEWEN  =     27010.41458113
  -Hartree energ DENC   =    -39320.73328181
  -exchange      EXHF   =         0.00000000
  -V(xc)+E(xc)   XCENC  =      -480.33554533
  PAW double counting   =     12906.36685261   -11910.91650437
  entropy T*S    EENTRO =         0.00558936
  eigenvalues    EBANDS =     -1212.86056261
  atomic energy  EATOM  =     12955.90228127
  Solvation  Ediel_sol  =         0.00000000
  ---------------------------------------------------
  free energy    TOTEN  =       -40.52629385 eV

  energy without entropy =      -40.53188321  energy(sigma->0) =      -40.52815697


--------------------------------------------------------------------------------------------------------




--------------------------------------- Iteration      1(   5)  ---------------------------------------


     EDDAV:  cpu time    7.4135: real time    7.4197
       DOS:  cpu time    0.0090: real time    0.0090
    CHARGE:  cpu time    0.5331: real time    0.5334
    MIXING:  cpu time    0.0320: real time    0.0320
    --------------------------------------------
      LOOP:  cpu time    7.9877: real time    7.9942

 eigenvalue-minimisations  :   560
 total energy-change (2. order) :-0.2411077E+02  (-0.2032834E+02)
 number of electron     160.0000013 magnetization      14.8863789
 augmentation part       67.6993556 magnetization      13.2349661

 Broyden mixing:
  rms(total) = 0.24888E+01    rms(broyden)= 0.24887E+01
  rms(prec ) = 0.25384E+01
  weight for this iteration     100.00

 Free energy of the ion-electron system (eV)
  ---------------------------------------------------
  alpha Z        PSCENC =        11.63029590
  Ewald energy   TEWEN  =     27010.41458113
  -Hartree energ DENC   =    -39320.73328181
  -exchange      EXHF   =         0.00000000
  -V(xc)+E(xc)   XCENC  =      -480.33554533
  PAW double counting   =     12906.36685261   -11910.91650437
  entropy T*S    EENTRO =        -0.02179922
  eigenvalues    EBANDS =     -1236.94394573
  atomic energy  EATOM  =     12955.90228127
  Solvation  Ediel_sol  =         0.00000000
  ---------------------------------------------------
  free energy    TOTEN  =       -64.63706555 eV

  energy without entropy =      -64.61526634  energy(sigma->0) =      -64.62979915


--------------------------------------------------------------------------------------------------------




--------------------------------------- Iteration      1(   6)  ---------------------------------------


    POTLOK:  cpu time    1.7494: real time    1.7526
    SETDIJ:  cpu time    0.0215: real time    0.0216
     EDDAV:  cpu time    6.1491: real time    6.1541
       DOS:  cpu time    0.0101: real time    0.0101
    CHARGE:  cpu time    0.5373: real time    0.5376
    MIXING:  cpu time    0.0303: real time    0.0303
    --------------------------------------------
      LOOP:  cpu time    8.4976: real time    8.5063

 eigenvalue-minimisations  :   432
 total energy-change (2. order) : 0.1295334E+02  (-0.4592933E+01)
 number of electron     160.0000010 magnetization      14.2988805
 augmentation part       69.0272907 magnetization       8.8378049

 Broyden mixing:
  rms(total) = 0.13804E+01    rms(broyden)= 0.13803E+01
  rms(prec ) = 0.14392E+01
  weight for this iteration     100.00

 eigenvalues of (default mixing * dielectric matrix)
  average eigenvalue GAMMA=   0.7660
  0.7660

 Free energy of the ion-electron system (eV)
  ---------------------------------------------------
  alpha Z        PSCENC =        11.63029590
  Ewald energy   TEWEN  =     27010.41458113
  -Hartree energ DENC   =    -39381.97236683
  -exchange      EXHF   =         0.00000000
  -V(xc)+E(xc)   XCENC  =      -472.70067113
  PAW double counting   =     13723.69175138   -12737.65827435
  entropy T*S    EENTRO =         0.06347212
  eigenvalues    EBANDS =     -1161.05479817
  atomic energy  EATOM  =     12955.90228127
  Solvation  Ediel_sol  =         0.00000000
  ---------------------------------------------------
  free energy    TOTEN  =       -51.68372869 eV

  energy without entropy =      -51.74720080  energy(sigma->0) =      -51.70488606


--------------------------------------------------------------------------------------------------------




--------------------------------------- Iteration      1(   7)  ---------------------------------------


    POTLOK:  cpu time    1.7528: real time    1.7539
    SETDIJ:  cpu time    0.0193: real time    0.0193
     EDDAV:  cpu time    6.2361: real time    6.2539
       DOS:  cpu time    0.0128: real time    0.0129
    CHARGE:  cpu time    0.5442: real time    0.5455
    MIXING:  cpu time    0.0309: real time    0.0309
    --------------------------------------------
      LOOP:  cpu time    8.5961: real time    8.6165

 eigenvalue-minimisations  :   440
 total energy-change (2. order) :-0.1959040E+01  (-0.2317169E+01)
 number of electron     160.0000024 magnetization      13.7973348
 augmentation part       68.3466379 magnetization       9.8156229

 Broyden mixing:
  rms(total) = 0.19607E+01    rms(broyden)= 0.19606E+01
  rms(prec ) = 0.21146E+01
  weight for this iteration     100.00

 eigenvalues of (default mixing * dielectric matrix)
  average eigenvalue GAMMA=   0.6893
  1.0174  0.3612

 Free energy of the ion-electron system (eV)
  ---------------------------------------------------
  alpha Z        PSCENC =        11.63029590
  Ewald energy   TEWEN  =     27010.41458113
  -Hartree energ DENC   =    -39450.62322089
  -exchange      EXHF   =         0.00000000
  -V(xc)+E(xc)   XCENC  =      -470.68707914
  PAW double counting   =     14172.18729677   -13188.43147778
  entropy T*S    EENTRO =         0.00241185
  eigenvalues    EBANDS =     -1094.03785805
  atomic energy  EATOM  =     12955.90228127
  Solvation  Ediel_sol  =         0.00000000
  ---------------------------------------------------
  free energy    TOTEN  =       -53.64276895 eV

  energy without entropy =      -53.64518080  energy(sigma->0) =      -53.64357290


--------------------------------------------------------------------------------------------------------




--------------------------------------- Iteration      1(   8)  ---------------------------------------


    POTLOK:  cpu time    1.7785: real time    1.7797
    SETDIJ:  cpu time    0.0199: real time    0.0199
     EDDAV:  cpu time    6.3148: real time    6.3241
       DOS:  cpu time    0.0127: real time    0.0127
    CHARGE:  cpu time    0.5323: real time    0.5326
    MIXING:  cpu time    0.0343: real time    0.0343
    --------------------------------------------
      LOOP:  cpu time    8.6924: real time    8.7033

 eigenvalue-minimisations  :   448
 total energy-change (2. order) : 0.2438447E+01  (-0.1293321E+01)
 number of electron     160.0000015 magnetization      13.5313336
 augmentation part       68.2280927 magnetization       9.1690064

 Broyden mixing:
  rms(total) = 0.13142E+01    rms(broyden)= 0.13140E+01
  rms(prec ) = 0.14630E+01
  weight for this iteration     100.00

 eigenvalues of (default mixing * dielectric matrix)
  average eigenvalue GAMMA=   0.6104
  1.1187  0.4627  0.2496

 Free energy of the ion-electron system (eV)
  ---------------------------------------------------
  alpha Z        PSCENC =        11.63029590
  Ewald energy   TEWEN  =     27010.41458113
  -Hartree energ DENC   =    -39492.53291727
  -exchange      EXHF   =         0.00000000
  -V(xc)+E(xc)   XCENC  =      -470.03994253
  PAW double counting   =     14432.90852350   -13451.13819149
  entropy T*S    EENTRO =         0.04597204
  eigenvalues    EBANDS =     -1048.39492494
  atomic energy  EATOM  =     12955.90228127
  Solvation  Ediel_sol  =         0.00000000
  ---------------------------------------------------
  free energy    TOTEN  =       -51.20432240 eV

  energy without entropy =      -51.25029444  energy(sigma->0) =      -51.21964641


--------------------------------------------------------------------------------------------------------




--------------------------------------- Iteration      1(   9)  ---------------------------------------


    POTLOK:  cpu time    1.7389: real time    1.7401
    SETDIJ:  cpu time    0.0231: real time    0.0231
     EDDAV:  cpu time    6.4201: real time    6.4339
       DOS:  cpu time    0.0123: real time    0.0123
    CHARGE:  cpu time    0.5542: real time    0.5545
    MIXING:  cpu time    0.0335: real time    0.0336
    --------------------------------------------
      LOOP:  cpu time    8.7820: real time    8.7974

 eigenvalue-minimisations  :   464
 total energy-change (2. order) : 0.5954375E+00  (-0.8250309E+00)
 number of electron     160.0000015 magnetization      13.0787970
 augmentation part       68.2321892 magnetization       8.6226716

 Broyden mixing:
  rms(total) = 0.87717E+00    rms(broyden)= 0.87696E+00
  rms(prec ) = 0.96091E+00
  weight for this iteration     100.00

 eigenvalues of (default mixing * dielectric matrix)
  average eigenvalue GAMMA=   0.6768
  1.4795  0.6967  0.3422  0.1888

 Free energy of the ion-electron system (eV)
  ---------------------------------------------------
  alpha Z        PSCENC =        11.63029590
  Ewald energy   TEWEN  =     27010.41458113
  -Hartree energ DENC   =    -39504.81098336
  -exchange      EXHF   =         0.00000000
  -V(xc)+E(xc)   XCENC  =      -470.10711719
  PAW double counting   =     14528.29738104   -13547.38826408
  entropy T*S    EENTRO =        -0.01300483
  eigenvalues    EBANDS =     -1034.53405476
  atomic energy  EATOM  =     12955.90228127
  Solvation  Ediel_sol  =         0.00000000
  ---------------------------------------------------
  free energy    TOTEN  =       -50.60888489 eV

  energy without entropy =      -50.59588005  energy(sigma->0) =      -50.60454994


--------------------------------------------------------------------------------------------------------




--------------------------------------- Iteration      1(  10)  ---------------------------------------


    POTLOK:  cpu time    1.7553: real time    1.7587
    SETDIJ:  cpu time    0.0192: real time    0.0192
     EDDAV:  cpu time    6.3911: real time    6.4009
       DOS:  cpu time    0.0129: real time    0.0129
    CHARGE:  cpu time    0.5438: real time    0.5441
    MIXING:  cpu time    0.0344: real time    0.0344
    --------------------------------------------
      LOOP:  cpu time    8.7567: real time    8.7702

 eigenvalue-minimisations  :   456
 total energy-change (2. order) :-0.6734675E+00  (-0.2612181E+00)
 number of electron     160.0000015 magnetization      12.8097783
 augmentation part       68.3489109 magnetization       8.2922900

 Broyden mixing:
  rms(total) = 0.63865E+00    rms(broyden)= 0.63855E+00
  rms(prec ) = 0.68082E+00
  weight for this iteration     100.00

 eigenvalues of (default mixing * dielectric matrix)
  average eigenvalue GAMMA=   0.6481
  1.6316  0.7903  0.3713  0.2236  0.2236

 Free energy of the ion-electron system (eV)
  ---------------------------------------------------
  alpha Z        PSCENC =        11.63029590
  Ewald energy   TEWEN  =     27010.41458113
  -Hartree energ DENC   =    -39517.30240604
  -exchange      EXHF   =         0.00000000
  -V(xc)+E(xc)   XCENC  =      -470.77504108
  PAW double counting   =     14651.88386057   -13672.15937422
  entropy T*S    EENTRO =         0.00293782
  eigenvalues    EBANDS =     -1020.87948778
  atomic energy  EATOM  =     12955.90228127
  Solvation  Ediel_sol  =         0.00000000
  ---------------------------------------------------
  free energy    TOTEN  =       -51.28235244 eV

  energy without entropy =      -51.28529025  energy(sigma->0) =      -51.28333171


--------------------------------------------------------------------------------------------------------




--------------------------------------- Iteration      1(  11)  ---------------------------------------


    POTLOK:  cpu time    1.7479: real time    1.7491
    SETDIJ:  cpu time    0.0179: real time    0.0179
     EDDAV:  cpu time    6.4800: real time    6.5821
       DOS:  cpu time    0.0125: real time    0.0125
    CHARGE:  cpu time    0.5344: real time    0.5347
    MIXING:  cpu time    0.0398: real time    0.0399
    --------------------------------------------
      LOOP:  cpu time    8.8326: real time    8.9362

 eigenvalue-minimisations  :   448
 total energy-change (2. order) :-0.8946795E+00  (-0.1111935E+00)
 number of electron     160.0000013 magnetization      12.5815337
 augmentation part       68.3008394 magnetization       8.2237025

 Broyden mixing:
  rms(total) = 0.37894E+00    rms(broyden)= 0.37887E+00
  rms(prec ) = 0.41557E+00
  weight for this iteration     100.00

 eigenvalues of (default mixing * dielectric matrix)
  average eigenvalue GAMMA=   0.6290
  1.6642  0.8340  0.5186  0.2875  0.2875  0.1822

 Free energy of the ion-electron system (eV)
  ---------------------------------------------------
  alpha Z        PSCENC =        11.63029590
  Ewald energy   TEWEN  =     27010.41458113
  -Hartree energ DENC   =    -39527.20582214
  -exchange      EXHF   =         0.00000000
  -V(xc)+E(xc)   XCENC  =      -471.59287611
  PAW double counting   =     14699.80378293   -13720.54746052
  entropy T*S    EENTRO =        -0.00518955
  eigenvalues    EBANDS =     -1010.57662489
  atomic energy  EATOM  =     12955.90228127
  Solvation  Ediel_sol  =         0.00000000
  ---------------------------------------------------
  free energy    TOTEN  =       -52.17703199 eV

  energy without entropy =      -52.17184244  energy(sigma->0) =      -52.17530214


--------------------------------------------------------------------------------------------------------




--------------------------------------- Iteration      1(  12)  ---------------------------------------


    POTLOK:  cpu time    1.7328: real time    1.7341
    SETDIJ:  cpu time    0.0185: real time    0.0185
     EDDAV:  cpu time    6.2533: real time    6.2591
       DOS:  cpu time    0.0127: real time    0.0127
    CHARGE:  cpu time    0.5364: real time    0.5367
    MIXING:  cpu time    0.0433: real time    0.0433
    --------------------------------------------
      LOOP:  cpu time    8.5969: real time    8.6044

 eigenvalue-minimisations  :   440
 total energy-change (2. order) :-0.8404318E+00  (-0.5401788E-01)
 number of electron     160.0000015 magnetization      12.1409957
 augmentation part       68.3134004 magnetization       7.8227300

 Broyden mixing:
  rms(total) = 0.32630E+00    rms(broyden)= 0.32625E+00
  rms(prec ) = 0.35671E+00
  weight for this iteration     100.00

 eigenvalues of (default mixing * dielectric matrix)
  average eigenvalue GAMMA=   0.6643
  1.7558  1.1615  0.7037  0.3224  0.2968  0.1835  0.2263

 Free energy of the ion-electron system (eV)
  ---------------------------------------------------
  alpha Z        PSCENC =        11.63029590
  Ewald energy   TEWEN  =     27010.41458113
  -Hartree energ DENC   =    -39532.36935399
  -exchange      EXHF   =         0.00000000
  -V(xc)+E(xc)   XCENC  =      -472.21679143
  PAW double counting   =     14712.78470759   -13733.77468286
  entropy T*S    EENTRO =         0.00507531
  eigenvalues    EBANDS =     -1005.39357675
  atomic energy  EATOM  =     12955.90228127
  Solvation  Ediel_sol  =         0.00000000
  ---------------------------------------------------
  free energy    TOTEN  =       -53.01746383 eV

  energy without entropy =      -53.02253914  energy(sigma->0) =      -53.01915560


--------------------------------------------------------------------------------------------------------




--------------------------------------- Iteration      1(  13)  ---------------------------------------


    POTLOK:  cpu time    1.7290: real time    1.7302
    SETDIJ:  cpu time    0.0185: real time    0.0185
     EDDAV:  cpu time    6.2006: real time    6.2101
       DOS:  cpu time    0.0147: real time    0.0147
    CHARGE:  cpu time    0.5374: real time    0.5417
    MIXING:  cpu time    0.0504: real time    0.0505
    --------------------------------------------
      LOOP:  cpu time    8.5506: real time    8.5657

 eigenvalue-minimisations  :   440
 total energy-change (2. order) :-0.1641293E+01  (-0.5079666E-01)
 number of electron     160.0000014 magnetization      11.7513858
 augmentation part       68.2875276 magnetization       7.5847997

 Broyden mixing:
  rms(total) = 0.21389E+00    rms(broyden)= 0.21384E+00
  rms(prec ) = 0.23031E+00
  weight for this iteration     100.00

 eigenvalues of (default mixing * dielectric matrix)
  average eigenvalue GAMMA=   0.6799
  1.9914  1.2474  0.6139  0.6139  0.2991  0.2991  0.1973  0.1772

 Free energy of the ion-electron system (eV)
  ---------------------------------------------------
  alpha Z        PSCENC =        11.63029590
  Ewald energy   TEWEN  =     27010.41458113
  -Hartree energ DENC   =    -39542.39072021
  -exchange      EXHF   =         0.00000000
  -V(xc)+E(xc)   XCENC  =      -473.46540315
  PAW double counting   =     14729.49941366   -13750.89258572
  entropy T*S    EENTRO =         0.00274196
  eigenvalues    EBANDS =      -995.35936193
  atomic energy  EATOM  =     12955.90228127
  Solvation  Ediel_sol  =         0.00000000
  ---------------------------------------------------
  free energy    TOTEN  =       -54.65875709 eV

  energy without entropy =      -54.66149906  energy(sigma->0) =      -54.65967108


--------------------------------------------------------------------------------------------------------




--------------------------------------- Iteration      1(  14)  ---------------------------------------


    POTLOK:  cpu time    1.7310: real time    1.7322
    SETDIJ:  cpu time    0.0183: real time    0.0183
     EDDAV:  cpu time    6.2247: real time    6.2427
       DOS:  cpu time    0.0131: real time    0.0131
    CHARGE:  cpu time    0.5456: real time    0.5459
    MIXING:  cpu time    0.0458: real time    0.0459
    --------------------------------------------
      LOOP:  cpu time    8.5785: real time    8.5982

 eigenvalue-minimisations  :   440
 total energy-change (2. order) :-0.1313056E+01  (-0.3157982E-01)
 number of electron     160.0000014 magnetization      11.4419818
 augmentation part       68.2445902 magnetization       7.4298132

 Broyden mixing:
  rms(total) = 0.16052E+00    rms(broyden)= 0.16049E+00
  rms(prec ) = 0.17031E+00
  weight for this iteration     100.00

 eigenvalues of (default mixing * dielectric matrix)
  average eigenvalue GAMMA=   0.6842
  2.0765  1.1986  0.7953  0.7953  0.3245  0.3245  0.2627  0.2043  0.1758

 Free energy of the ion-electron system (eV)
  ---------------------------------------------------
  alpha Z        PSCENC =        11.63029590
  Ewald energy   TEWEN  =     27010.41458113
  -Hartree energ DENC   =    -39550.89580512
  -exchange      EXHF   =         0.00000000
  -V(xc)+E(xc)   XCENC  =      -474.47416998
  PAW double counting   =     14739.30542389   -13761.06425806
  entropy T*S    EENTRO =         0.00572506
  eigenvalues    EBANDS =      -986.79588719
  atomic energy  EATOM  =     12955.90228127
  Solvation  Ediel_sol  =         0.00000000
  ---------------------------------------------------
  free energy    TOTEN  =       -55.97181311 eV

  energy without entropy =      -55.97753817  energy(sigma->0) =      -55.97372146


--------------------------------------------------------------------------------------------------------




--------------------------------------- Iteration      1(  15)  ---------------------------------------


    POTLOK:  cpu time    1.7490: real time    1.7550
    SETDIJ:  cpu time    0.0212: real time    0.0212
     EDDAV:  cpu time    6.2321: real time    6.2382
       DOS:  cpu time    0.0136: real time    0.0136
    CHARGE:  cpu time    0.5754: real time    0.5758
    MIXING:  cpu time    0.0514: real time    0.0515
    --------------------------------------------
      LOOP:  cpu time    8.6428: real time    8.6552

 eigenvalue-minimisations  :   440
 total energy-change (2. order) :-0.8657740E+00  (-0.1599609E-01)
 number of electron     160.0000014 magnetization      11.0546080
 augmentation part       68.2502748 magnetization       7.1549887

 Broyden mixing:
  rms(total) = 0.12189E+00    rms(broyden)= 0.12188E+00
  rms(prec ) = 0.12975E+00
  weight for this iteration     100.00

 eigenvalues of (default mixing * dielectric matrix)
  average eigenvalue GAMMA=   0.7173
  2.2103  1.4876  0.8655  0.8655  0.4663  0.3070  0.3070  0.2882  0.1991  0.1766

 Free energy of the ion-electron system (eV)
  ---------------------------------------------------
  alpha Z        PSCENC =        11.63029590
  Ewald energy   TEWEN  =     27010.41458113
  -Hartree energ DENC   =    -39554.34646157
  -exchange      EXHF   =         0.00000000
  -V(xc)+E(xc)   XCENC  =      -475.15180116
  PAW double counting   =     14730.34854172   -13752.37065845
  entropy T*S    EENTRO =         0.00276049
  eigenvalues    EBANDS =      -983.26712642
  atomic energy  EATOM  =     12955.90228127
  Solvation  Ediel_sol  =         0.00000000
  ---------------------------------------------------
  free energy    TOTEN  =       -56.83758709 eV

  energy without entropy =      -56.84034759  energy(sigma->0) =      -56.83850726


--------------------------------------------------------------------------------------------------------




--------------------------------------- Iteration      1(  16)  ---------------------------------------


    POTLOK:  cpu time    1.7568: real time    1.7676
    SETDIJ:  cpu time    0.0184: real time    0.0184
     EDDAV:  cpu time    6.2469: real time    6.2527
       DOS:  cpu time    0.0122: real time    0.0122
    CHARGE:  cpu time    0.5487: real time    0.5490
    MIXING:  cpu time    0.0459: real time    0.0459
    --------------------------------------------
      LOOP:  cpu time    8.6290: real time    8.6460

 eigenvalue-minimisations  :   440
 total energy-change (2. order) :-0.1067188E+01  (-0.2029108E-01)
 number of electron     160.0000014 magnetization      10.7042001
 augmentation part       68.2438816 magnetization       6.9365808

 Broyden mixing:
  rms(total) = 0.12518E+00    rms(broyden)= 0.12517E+00
  rms(prec ) = 0.13397E+00
  weight for this iteration     100.00

 eigenvalues of (default mixing * dielectric matrix)
  average eigenvalue GAMMA=   0.7423
  2.5110  1.7252  0.8725  0.8725  0.6210  0.3684  0.2970  0.2970  0.1764  0.1961
  0.2284

 Free energy of the ion-electron system (eV)
  ---------------------------------------------------
  alpha Z        PSCENC =        11.63029590
  Ewald energy   TEWEN  =     27010.41458113
  -Hartree energ DENC   =    -39558.46641381
  -exchange      EXHF   =         0.00000000
  -V(xc)+E(xc)   XCENC  =      -475.98911487
  PAW double counting   =     14715.18335568   -13737.47226990
  entropy T*S    EENTRO =         0.00258583
  eigenvalues    EBANDS =      -979.11007619
  atomic energy  EATOM  =     12955.90228127
  Solvation  Ediel_sol  =         0.00000000
  ---------------------------------------------------
  free energy    TOTEN  =       -57.90477496 eV

  energy without entropy =      -57.90736079  energy(sigma->0) =      -57.90563690


--------------------------------------------------------------------------------------------------------




--------------------------------------- Iteration      1(  17)  ---------------------------------------


    POTLOK:  cpu time    1.7620: real time    1.7632
    SETDIJ:  cpu time    0.0187: real time    0.0187
     EDDAV:  cpu time    6.3811: real time    6.3910
       DOS:  cpu time    0.0076: real time    0.0076
    CHARGE:  cpu time    0.5560: real time    0.5563
    MIXING:  cpu time    0.0485: real time    0.0485
    --------------------------------------------
      LOOP:  cpu time    8.7739: real time    8.7854

 eigenvalue-minimisations  :   456
 total energy-change (2. order) :-0.8213941E+00  (-0.1554727E-01)
 number of electron     160.0000015 magnetization      10.4720230
 augmentation part       68.2253988 magnetization       6.8210289

 Broyden mixing:
  rms(total) = 0.12903E+00    rms(broyden)= 0.12901E+00
  rms(prec ) = 0.14076E+00
  weight for this iteration     100.00

 eigenvalues of (default mixing * dielectric matrix)
  average eigenvalue GAMMA=   0.7331
  2.6445  1.8124  0.9289  0.9289  0.6257  0.4449  0.2978  0.2978  0.2603  0.1972
  0.1752  0.1840

 Free energy of the ion-electron system (eV)
  ---------------------------------------------------
  alpha Z        PSCENC =        11.63029590
  Ewald energy   TEWEN  =     27010.41458113
  -Hartree energ DENC   =    -39561.58087153
  -exchange      EXHF   =         0.00000000
  -V(xc)+E(xc)   XCENC  =      -476.63776025
  PAW double counting   =     14699.53473681   -13722.02647416
  entropy T*S    EENTRO =         0.00307451
  eigenvalues    EBANDS =      -975.96603273
  atomic energy  EATOM  =     12955.90228127
  Solvation  Ediel_sol  =         0.00000000
  ---------------------------------------------------
  free energy    TOTEN  =       -58.72616906 eV

  energy without entropy =      -58.72924357  energy(sigma->0) =      -58.72719390


--------------------------------------------------------------------------------------------------------




--------------------------------------- Iteration      1(  18)  ---------------------------------------


    POTLOK:  cpu time    1.7635: real time    1.7645
    SETDIJ:  cpu time    0.0177: real time    0.0177
     EDDAV:  cpu time    6.0830: real time    6.0924
       DOS:  cpu time    0.0105: real time    0.0105
    CHARGE:  cpu time    0.5517: real time    0.5520
    MIXING:  cpu time    0.0543: real time    0.0544
    --------------------------------------------
      LOOP:  cpu time    8.4808: real time    8.4916

 eigenvalue-minimisations  :   432
 total energy-change (2. order) :-0.4830493E+00  (-0.7736531E-02)
 number of electron     160.0000014 magnetization      10.0431329
 augmentation part       68.2223843 magnetization       6.4313296

 Broyden mixing:
  rms(total) = 0.93840E-01    rms(broyden)= 0.93822E-01
  rms(prec ) = 0.10056E+00
  weight for this iteration     100.00

 eigenvalues of (default mixing * dielectric matrix)
  average eigenvalue GAMMA=   0.7846
  2.9488  2.0120  1.0917  1.0917  0.6756  0.6756  0.3257  0.3257  0.2702  0.2583
  0.1983  0.1760  0.1507

 Free energy of the ion-electron system (eV)
  ---------------------------------------------------
  alpha Z        PSCENC =        11.63029590
  Ewald energy   TEWEN  =     27010.41458113
  -Hartree energ DENC   =    -39562.51026034
  -exchange      EXHF   =         0.00000000
  -V(xc)+E(xc)   XCENC  =      -477.04689093
  PAW double counting   =     14686.95872813   -13709.57089230
  entropy T*S    EENTRO =         0.01041169
  eigenvalues    EBANDS =      -974.99747287
  atomic energy  EATOM  =     12955.90228127
  Solvation  Ediel_sol  =         0.00000000
  ---------------------------------------------------
  free energy    TOTEN  =       -59.20921833 eV

  energy without entropy =      -59.21963002  energy(sigma->0) =      -59.21268889


--------------------------------------------------------------------------------------------------------




--------------------------------------- Iteration      1(  19)  ---------------------------------------


    POTLOK:  cpu time    1.7292: real time    1.7328
    SETDIJ:  cpu time    0.0184: real time    0.0184
     EDDAV:  cpu time    5.9965: real time    6.0019
       DOS:  cpu time    0.0139: real time    0.0139
    CHARGE:  cpu time    0.5563: real time    0.5566
    MIXING:  cpu time    0.0573: real time    0.0574
    --------------------------------------------
      LOOP:  cpu time    8.3716: real time    8.3811

 eigenvalue-minimisations  :   424
 total energy-change (2. order) :-0.8535316E+00  (-0.1260370E-01)
 number of electron     160.0000014 magnetization       9.7101558
 augmentation part       68.2238823 magnetization       6.1882867

 Broyden mixing:
  rms(total) = 0.75708E-01    rms(broyden)= 0.75695E-01
  rms(prec ) = 0.79523E-01
  weight for this iteration     100.00

 eigenvalues of (default mixing * dielectric matrix)
  average eigenvalue GAMMA=   0.8005
  3.3605  2.0952  1.1398  1.1398  0.7061  0.7061  0.3588  0.3588  0.2869  0.2869
  0.2428  0.1990  0.1761  0.1498

 Free energy of the ion-electron system (eV)
  ---------------------------------------------------
  alpha Z        PSCENC =        11.63029590
  Ewald energy   TEWEN  =     27010.41458113
  -Hartree energ DENC   =    -39562.96824230
  -exchange      EXHF   =         0.00000000
  -V(xc)+E(xc)   XCENC  =      -477.80557976
  PAW double counting   =     14666.04623717   -13688.85597367
  entropy T*S    EENTRO =         0.01608747
  eigenvalues    EBANDS =      -974.44243713
  atomic energy  EATOM  =     12955.90228127
  Solvation  Ediel_sol  =         0.00000000
  ---------------------------------------------------
  free energy    TOTEN  =       -60.06274992 eV

  energy without entropy =      -60.07883739  energy(sigma->0) =      -60.06811241


--------------------------------------------------------------------------------------------------------




--------------------------------------- Iteration      1(  20)  ---------------------------------------


    POTLOK:  cpu time    1.7505: real time    1.7522
    SETDIJ:  cpu time    0.0186: real time    0.0186
     EDDAV:  cpu time    6.0617: real time    6.0713
       DOS:  cpu time    0.0082: real time    0.0082
    CHARGE:  cpu time    0.5328: real time    0.5331
    MIXING:  cpu time    0.0595: real time    0.0596
    --------------------------------------------
      LOOP:  cpu time    8.4313: real time    8.4430

 eigenvalue-minimisations  :   432
 total energy-change (2. order) :-0.5686806E+00  (-0.6410926E-02)
 number of electron     160.0000014 magnetization       9.2182822
 augmentation part       68.2234766 magnetization       5.7652350

 Broyden mixing:
  rms(total) = 0.52921E-01    rms(broyden)= 0.52915E-01
  rms(prec ) = 0.56197E-01
  weight for this iteration     100.00

 eigenvalues of (default mixing * dielectric matrix)
  average eigenvalue GAMMA=   0.8769
  4.2035  2.1123  1.5886  0.9661  0.8265  0.8265  0.6106  0.3146  0.3146  0.3244
  0.2985  0.2424  0.1983  0.1761  0.1499

 Free energy of the ion-electron system (eV)
  ---------------------------------------------------
  alpha Z        PSCENC =        11.63029590
  Ewald energy   TEWEN  =     27010.41458113
  -Hartree energ DENC   =    -39563.00930333
  -exchange      EXHF   =         0.00000000
  -V(xc)+E(xc)   XCENC  =      -478.32246334
  PAW double counting   =     14653.18569602   -13676.13875026
  entropy T*S    EENTRO =         0.01745190
  eigenvalues    EBANDS =      -974.31121984
  atomic energy  EATOM  =     12955.90228127
  Solvation  Ediel_sol  =         0.00000000
  ---------------------------------------------------
  free energy    TOTEN  =       -60.63143056 eV

  energy without entropy =      -60.64888247  energy(sigma->0) =      -60.63724786


--------------------------------------------------------------------------------------------------------




--------------------------------------- Iteration      1(  21)  ---------------------------------------


    POTLOK:  cpu time    1.7403: real time    1.7421
    SETDIJ:  cpu time    0.0183: real time    0.0183
     EDDAV:  cpu time    6.2655: real time    6.2715
       DOS:  cpu time    0.0132: real time    0.0132
    CHARGE:  cpu time    0.5522: real time    0.5525
    MIXING:  cpu time    0.0657: real time    0.0657
    --------------------------------------------
      LOOP:  cpu time    8.6552: real time    8.6634

 eigenvalue-minimisations  :   448
 total energy-change (2. order) :-0.6796847E+00  (-0.8829390E-02)
 number of electron     160.0000015 magnetization       9.0059131
 augmentation part       68.2326135 magnetization       5.6250267

 Broyden mixing:
  rms(total) = 0.43100E-01    rms(broyden)= 0.43094E-01
  rms(prec ) = 0.45251E-01
  weight for this iteration     100.00

 eigenvalues of (default mixing * dielectric matrix)
  average eigenvalue GAMMA=   0.9046
  4.5609  2.1082  1.8935  1.0842  0.7974  0.7974  0.6121  0.6121  0.3537  0.3061
  0.3061  0.2773  0.2405  0.1984  0.1761  0.1499

 Free energy of the ion-electron system (eV)
  ---------------------------------------------------
  alpha Z        PSCENC =        11.63029590
  Ewald energy   TEWEN  =     27010.41458113
  -Hartree energ DENC   =    -39562.46959471
  -exchange      EXHF   =         0.00000000
  -V(xc)+E(xc)   XCENC  =      -478.96105879
  PAW double counting   =     14640.74522740   -13663.85492430
  entropy T*S    EENTRO =         0.02126474
  eigenvalues    EBANDS =      -974.73918793
  atomic energy  EATOM  =     12955.90228127
  Solvation  Ediel_sol  =         0.00000000
  ---------------------------------------------------
  free energy    TOTEN  =       -61.31111530 eV

  energy without entropy =      -61.33238004  energy(sigma->0) =      -61.31820354


--------------------------------------------------------------------------------------------------------




--------------------------------------- Iteration      1(  22)  ---------------------------------------


    POTLOK:  cpu time    1.7276: real time    1.7286
    SETDIJ:  cpu time    0.0182: real time    0.0182
     EDDAV:  cpu time    6.8197: real time    6.8304
       DOS:  cpu time    0.0147: real time    0.0147
    CHARGE:  cpu time    0.5516: real time    0.5519
    MIXING:  cpu time    0.0708: real time    0.0709
    --------------------------------------------
      LOOP:  cpu time    9.2026: real time    9.2147

 eigenvalue-minimisations  :   504
 total energy-change (2. order) :-0.3051866E+00  (-0.1979574E-02)
 number of electron     160.0000015 magnetization       8.7707811
 augmentation part       68.2179249 magnetization       5.4121332

 Broyden mixing:
  rms(total) = 0.32499E-01    rms(broyden)= 0.32495E-01
  rms(prec ) = 0.34239E-01
  weight for this iteration     100.00

 eigenvalues of (default mixing * dielectric matrix)
  average eigenvalue GAMMA=   0.9250
  5.0138  2.1032  2.1032  1.2125  0.7942  0.7942  0.6645  0.6645  0.3596  0.3596
  0.3064  0.3064  0.2782  0.2405  0.1984  0.1761  0.1499

 Free energy of the ion-electron system (eV)
  ---------------------------------------------------
  alpha Z        PSCENC =        11.63029590
  Ewald energy   TEWEN  =     27010.41458113
  -Hartree energ DENC   =    -39562.04955842
  -exchange      EXHF   =         0.00000000
  -V(xc)+E(xc)   XCENC  =      -479.25690673
  PAW double counting   =     14640.32260372   -13663.43754748
  entropy T*S    EENTRO =         0.02353722
  eigenvalues    EBANDS =      -975.16558855
  atomic energy  EATOM  =     12955.90228127
  Solvation  Ediel_sol  =         0.00000000
  ---------------------------------------------------
  free energy    TOTEN  =       -61.61630195 eV

  energy without entropy =      -61.63983917  energy(sigma->0) =      -61.62414769


--------------------------------------------------------------------------------------------------------




--------------------------------------- Iteration      1(  23)  ---------------------------------------


    POTLOK:  cpu time    1.7405: real time    1.7480
    SETDIJ:  cpu time    0.0187: real time    0.0187
     EDDAV:  cpu time    6.0329: real time    6.0388
       DOS:  cpu time    0.0130: real time    0.0130
    CHARGE:  cpu time    0.5449: real time    0.5452
    MIXING:  cpu time    0.0780: real time    0.0781
    --------------------------------------------
      LOOP:  cpu time    8.4280: real time    8.4418

 eigenvalue-minimisations  :   424
 total energy-change (2. order) :-0.3216523E+00  (-0.1450738E-02)
 number of electron     160.0000015 magnetization       8.5393095
 augmentation part       68.2134887 magnetization       5.1992817

 Broyden mixing:
  rms(total) = 0.29269E-01    rms(broyden)= 0.29266E-01
  rms(prec ) = 0.31200E-01
  weight for this iteration     100.00

 eigenvalues of (default mixing * dielectric matrix)
  average eigenvalue GAMMA=   0.9595
  5.6996  2.3047  2.0037  1.1161  0.9204  0.9204  0.7102  0.7102  0.5850  0.3623
  0.3073  0.3073  0.2793  0.2793  0.2409  0.1984  0.1761  0.1499

 Free energy of the ion-electron system (eV)
  ---------------------------------------------------
  alpha Z        PSCENC =        11.63029590
  Ewald energy   TEWEN  =     27010.41458113
  -Hartree energ DENC   =    -39561.14601186
  -exchange      EXHF   =         0.00000000
  -V(xc)+E(xc)   XCENC  =      -479.58286346
  PAW double counting   =     14640.63633066   -13663.75628317
  entropy T*S    EENTRO =         0.02589603
  eigenvalues    EBANDS =      -976.06218078
  atomic energy  EATOM  =     12955.90228127
  Solvation  Ediel_sol  =         0.00000000
  ---------------------------------------------------
  free energy    TOTEN  =       -61.93795429 eV

  energy without entropy =      -61.96385032  energy(sigma->0) =      -61.94658630


--------------------------------------------------------------------------------------------------------




--------------------------------------- Iteration      1(  24)  ---------------------------------------


    POTLOK:  cpu time    1.7558: real time    1.7569
    SETDIJ:  cpu time    0.0185: real time    0.0185
     EDDAV:  cpu time    6.2735: real time    6.2838
       DOS:  cpu time    0.0147: real time    0.0147
    CHARGE:  cpu time    0.5290: real time    0.5293
    MIXING:  cpu time    0.0758: real time    0.0759
    --------------------------------------------
      LOOP:  cpu time    8.6672: real time    8.6791

 eigenvalue-minimisations  :   448
 total energy-change (2. order) :-0.3451550E+00  (-0.1413506E-02)
 number of electron     160.0000015 magnetization       8.3898831
 augmentation part       68.2168100 magnetization       5.0723979

 Broyden mixing:
  rms(total) = 0.23502E-01    rms(broyden)= 0.23498E-01
  rms(prec ) = 0.25051E-01
  weight for this iteration     100.00

 eigenvalues of (default mixing * dielectric matrix)
  average eigenvalue GAMMA=   0.9766
  6.1556  2.2469  2.2469  1.1566  1.1566  0.8256  0.7155  0.7155  0.5881  0.4764
  0.3076  0.3076  0.3147  0.3147  0.1761  0.1984  0.2407  0.2614  0.1499

 Free energy of the ion-electron system (eV)
  ---------------------------------------------------
  alpha Z        PSCENC =        11.63029590
  Ewald energy   TEWEN  =     27010.41458113
  -Hartree energ DENC   =    -39559.58339109
  -exchange      EXHF   =         0.00000000
  -V(xc)+E(xc)   XCENC  =      -479.94699925
  PAW double counting   =     14640.03482011   -13663.16563661
  entropy T*S    EENTRO =         0.02751695
  eigenvalues    EBANDS =      -977.59657765
  atomic energy  EATOM  =     12955.90228127
  Solvation  Ediel_sol  =         0.00000000
  ---------------------------------------------------
  free energy    TOTEN  =       -62.28310925 eV

  energy without entropy =      -62.31062620  energy(sigma->0) =      -62.29228156


--------------------------------------------------------------------------------------------------------




--------------------------------------- Iteration      1(  25)  ---------------------------------------


    POTLOK:  cpu time    1.7373: real time    1.7384
    SETDIJ:  cpu time    0.0185: real time    0.0186
     EDDAV:  cpu time    6.5196: real time    6.5337
       DOS:  cpu time    0.0137: real time    0.0137
    CHARGE:  cpu time    0.5392: real time    0.5395
    MIXING:  cpu time    0.0846: real time    0.0847
    --------------------------------------------
      LOOP:  cpu time    8.9130: real time    8.9286

 eigenvalue-minimisations  :   472
 total energy-change (2. order) :-0.2071448E+00  (-0.5565320E-03)
 number of electron     160.0000015 magnetization       8.1826323
 augmentation part       68.2183964 magnetization       4.8750075

 Broyden mixing:
  rms(total) = 0.15721E-01    rms(broyden)= 0.15718E-01
  rms(prec ) = 0.16853E-01
  weight for this iteration     100.00

 eigenvalues of (default mixing * dielectric matrix)
  average eigenvalue GAMMA=   1.0321
  6.7834  2.5033  2.5033  1.4475  1.0043  1.0043  0.7000  0.7000  0.7711  0.6235
  0.3648  0.3095  0.3095  0.1761  0.1984  0.3019  0.2975  0.2411  0.2537  0.1499

 Free energy of the ion-electron system (eV)
  ---------------------------------------------------
  alpha Z        PSCENC =        11.63029590
  Ewald energy   TEWEN  =     27010.41458113
  -Hartree energ DENC   =    -39558.48745498
  -exchange      EXHF   =         0.00000000
  -V(xc)+E(xc)   XCENC  =      -480.16663300
  PAW double counting   =     14641.42698396   -13664.55692699
  entropy T*S    EENTRO =         0.02760145
  eigenvalues    EBANDS =      -978.68098278
  atomic energy  EATOM  =     12955.90228127
  Solvation  Ediel_sol  =         0.00000000
  ---------------------------------------------------
  free energy    TOTEN  =       -62.49025405 eV

  energy without entropy =      -62.51785550  energy(sigma->0) =      -62.49945454


--------------------------------------------------------------------------------------------------------




--------------------------------------- Iteration      1(  26)  ---------------------------------------


    POTLOK:  cpu time    1.7487: real time    1.7529
    SETDIJ:  cpu time    0.0179: real time    0.0179
     EDDAV:  cpu time    6.1899: real time    6.2002
       DOS:  cpu time    0.0128: real time    0.0128
    CHARGE:  cpu time    0.5408: real time    0.5411
    MIXING:  cpu time    0.0914: real time    0.0915
    --------------------------------------------
      LOOP:  cpu time    8.6014: real time    8.6165

 eigenvalue-minimisations  :   440
 total energy-change (2. order) :-0.2308050E+00  (-0.6948899E-03)
 number of electron     160.0000015 magnetization       8.0706198
 augmentation part       68.2153402 magnetization       4.7747217

 Broyden mixing:
  rms(total) = 0.11918E-01    rms(broyden)= 0.11916E-01
  rms(prec ) = 0.12890E-01
  weight for this iteration     100.00

 eigenvalues of (default mixing * dielectric matrix)
  average eigenvalue GAMMA=   1.0588
  7.2425  2.8176  2.4369  1.7172  1.0210  1.0210  0.8055  0.6966  0.6966  0.5973
  0.5973  0.1499  0.1761  0.1984  0.3538  0.3087  0.3087  0.3066  0.2917  0.2418
  0.2503

 Free energy of the ion-electron system (eV)
  ---------------------------------------------------
  alpha Z        PSCENC =        11.63029590
  Ewald energy   TEWEN  =     27010.41458113
  -Hartree energ DENC   =    -39556.66650639
  -exchange      EXHF   =         0.00000000
  -V(xc)+E(xc)   XCENC  =      -480.41437894
  PAW double counting   =     14645.49268551   -13668.58917281
  entropy T*S    EENTRO =         0.02800593
  eigenvalues    EBANDS =      -980.51885069
  atomic energy  EATOM  =     12955.90228127
  Solvation  Ediel_sol  =         0.00000000
  ---------------------------------------------------
  free energy    TOTEN  =       -62.72105909 eV

  energy without entropy =      -62.74906502  energy(sigma->0) =      -62.73039440


--------------------------------------------------------------------------------------------------------




--------------------------------------- Iteration      1(  27)  ---------------------------------------


    POTLOK:  cpu time    1.7403: real time    1.7480
    SETDIJ:  cpu time    0.0180: real time    0.0181
     EDDAV:  cpu time    6.7574: real time    6.7689
       DOS:  cpu time    0.0105: real time    0.0105
    CHARGE:  cpu time    0.5502: real time    0.5506
    MIXING:  cpu time    0.0866: real time    0.0908
    --------------------------------------------
      LOOP:  cpu time    9.1631: real time    9.1867

 eigenvalue-minimisations  :   496
 total energy-change (2. order) :-0.9209723E-01  (-0.2214117E-03)
 number of electron     160.0000015 magnetization       7.9729082
 augmentation part       68.2179223 magnetization       4.6784125

 Broyden mixing:
  rms(total) = 0.10267E-01    rms(broyden)= 0.10266E-01
  rms(prec ) = 0.11234E-01
  weight for this iteration     100.00

 eigenvalues of (default mixing * dielectric matrix)
  average eigenvalue GAMMA=   1.0941
  7.8851  3.1843  2.3478  1.9699  1.0707  1.0707  0.7163  0.7163  0.8113  0.6860
  0.6860  0.1499  0.1761  0.1984  0.3632  0.3381  0.3091  0.3091  0.2943  0.2943
  0.2416  0.2510

 Free energy of the ion-electron system (eV)
  ---------------------------------------------------
  alpha Z        PSCENC =        11.63029590
  Ewald energy   TEWEN  =     27010.41458113
  -Hartree energ DENC   =    -39555.42876808
  -exchange      EXHF   =         0.00000000
  -V(xc)+E(xc)   XCENC  =      -480.51819430
  PAW double counting   =     14646.26066047   -13669.34448406
  entropy T*S    EENTRO =         0.02883053
  eigenvalues    EBANDS =      -981.75835919
  atomic energy  EATOM  =     12955.90228127
  Solvation  Ediel_sol  =         0.00000000
  ---------------------------------------------------
  free energy    TOTEN  =       -62.81315633 eV

  energy without entropy =      -62.84198686  energy(sigma->0) =      -62.82276650


--------------------------------------------------------------------------------------------------------




--------------------------------------- Iteration      1(  28)  ---------------------------------------


    POTLOK:  cpu time    1.7361: real time    1.7374
    SETDIJ:  cpu time    0.0157: real time    0.0198
     EDDAV:  cpu time    7.4573: real time    7.9831
       DOS:  cpu time    0.0110: real time    0.0110
    CHARGE:  cpu time    0.5467: real time    0.5473
    MIXING:  cpu time    0.0964: real time    0.0965
    --------------------------------------------
      LOOP:  cpu time    9.8632: real time   10.3950

 eigenvalue-minimisations  :   440
 total energy-change (2. order) :-0.6843119E-01  (-0.1480930E-03)
 number of electron     160.0000015 magnetization       7.9092973
 augmentation part       68.2190400 magnetization       4.6193772

 Broyden mixing:
  rms(total) = 0.68289E-02    rms(broyden)= 0.68279E-02
  rms(prec ) = 0.76243E-02
  weight for this iteration     100.00

 eigenvalues of (default mixing * dielectric matrix)
  average eigenvalue GAMMA=   1.1311
  8.5008  3.6431  2.3598  1.9896  1.2210  0.9911  0.9911  0.7035  0.7035  0.7151
  0.7151  0.6014  0.1499  0.1761  0.1984  0.3571  0.3080  0.3080  0.3247  0.2835
  0.2835  0.2419  0.2488

 Free energy of the ion-electron system (eV)
  ---------------------------------------------------
  alpha Z        PSCENC =        11.63029590
  Ewald energy   TEWEN  =     27010.41458113
  -Hartree energ DENC   =    -39554.20162529
  -exchange      EXHF   =         0.00000000
  -V(xc)+E(xc)   XCENC  =      -480.59750635
  PAW double counting   =     14646.72537970   -13669.79901849
  entropy T*S    EENTRO =         0.02891676
  eigenvalues    EBANDS =      -982.98489215
  atomic energy  EATOM  =     12955.90228127
  Solvation  Ediel_sol  =         0.00000000
  ---------------------------------------------------
  free energy    TOTEN  =       -62.88158751 eV

  energy without entropy =      -62.91050428  energy(sigma->0) =      -62.89122643


--------------------------------------------------------------------------------------------------------




--------------------------------------- Iteration      1(  29)  ---------------------------------------


    POTLOK:  cpu time    1.7251: real time    1.7267
    SETDIJ:  cpu time    0.0156: real time    0.0156
     EDDAV:  cpu time    5.4177: real time    5.4270
       DOS:  cpu time    0.0034: real time    0.0034
    CHARGE:  cpu time    0.5316: real time    0.5321
    MIXING:  cpu time    0.1065: real time    0.1066
    --------------------------------------------
      LOOP:  cpu time    7.7999: real time    7.8115

 eigenvalue-minimisations  :   360
 total energy-change (2. order) :-0.4112060E-01  (-0.5518297E-04)
 number of electron     160.0000015 magnetization       7.8751260
 augmentation part       68.2184786 magnetization       4.5858325

 Broyden mixing:
  rms(total) = 0.45243E-02    rms(broyden)= 0.45236E-02
  rms(prec ) = 0.51392E-02
  weight for this iteration     100.00

 eigenvalues of (default mixing * dielectric matrix)
  average eigenvalue GAMMA=   1.1372
  8.8347  3.8725  2.3574  2.0582  1.3222  0.9728  0.9728  0.8336  0.7001  0.7001
  0.7057  0.6393  0.4441  0.1499  0.1761  0.1984  0.3567  0.3082  0.3082  0.3261
  0.2820  0.2820  0.2420  0.2486

 Free energy of the ion-electron system (eV)
  ---------------------------------------------------
  alpha Z        PSCENC =        11.63029590
  Ewald energy   TEWEN  =     27010.41458113
  -Hartree energ DENC   =    -39553.23426255
  -exchange      EXHF   =         0.00000000
  -V(xc)+E(xc)   XCENC  =      -480.64571497
[...]
     69      -4.9143      1.00024
     70      -4.9094      1.00027
     71      -4.8428      1.00134
     72      -4.8091      1.00271
     73      -4.7606      1.00665
     74      -4.7535      1.00748
     75      -4.7489      1.00806
     76      -4.7135      1.01366
     77      -4.6726      1.02233
     78      -4.6646      1.02418
     79      -4.6333      1.03104
     80      -4.6304      1.03158
     81      -4.5884      1.03532
     82      -4.5360      1.01667
     83      -4.4578      0.89230
     84      -4.4177      0.77117
     85      -3.6227     -0.00000
     86      -3.4926     -0.00000
     87      -3.3154     -0.00000
     88      -3.1578     -0.00000
     89      -3.0726     -0.00000
     90      -2.5968     -0.00000
     91      -1.5747     -0.00000
     92      -1.4427     -0.00000
     93      -1.3932     -0.00000
     94      -1.3307     -0.00000
     95      -1.1336     -0.00000
     96      -1.0840     -0.00000
     97      -1.0757     -0.00000
     98      -0.9569     -0.00000
     99      -0.8349     -0.00000
    100      -0.6470     -0.00000
    101       0.1760     -0.00000
    102       0.2976     -0.00000
    103       0.3349     -0.00000
    104       0.3459     -0.00000

 spin component 2

 k-point     1 :       0.0000    0.0000    0.0000
  band No.  band energies     occupation 
      1      -9.1748      1.00000
      2      -8.5273      1.00000
      3      -8.4338      1.00000
      4      -8.3581      1.00000
      5      -8.2820      1.00000
      6      -8.1799      1.00000
      7      -7.8932      1.00000
      8      -7.7582      1.00000
      9      -7.6239      1.00000
     10      -7.5802      1.00000
     11      -7.5283      1.00000
     12      -7.4469      1.00000
     13      -7.3933      1.00000
     14      -7.3762      1.00000
     15      -7.3325      1.00000
     16      -7.3244      1.00000
     17      -7.2609      1.00000
     18      -7.2152      1.00000
     19      -7.1523      1.00000
     20      -7.1241      1.00000
     21      -7.1218      1.00000
     22      -7.0267      1.00000
     23      -7.0122      1.00000
     24      -6.9842      1.00000
     25      -6.9319      1.00000
     26      -6.7696      1.00000
     27      -6.7569      1.00000
     28      -6.6910      1.00000
     29      -6.6050      1.00000
     30      -6.5919      1.00000
     31      -6.4778      1.00000
     32      -6.3786      1.00000
     33      -6.3777      1.00000
     34      -6.3226      1.00000
     35      -6.2249      1.00000
     36      -6.1580      1.00000
     37      -6.1162      1.00000
     38      -5.9809      1.00000
     39      -5.8495      1.00000
     40      -5.8397      1.00000
     41      -5.8247      1.00000
     42      -5.7095      1.00000
     43      -5.6452      1.00000
     44      -5.6356      1.00000
     45      -5.5066      1.00000
     46      -5.4034      1.00000
     47      -5.3811      1.00000
     48      -5.3398      1.00000
     49      -5.3143      1.00000
     50      -5.2830      1.00000
     51      -5.2291      1.00000
     52      -5.2229      1.00000
     53      -5.1833      1.00000
     54      -5.1517      1.00000
     55      -5.0127      1.00001
     56      -4.9919      1.00003
     57      -4.9548      1.00008
     58      -4.9442      1.00011
     59      -4.9034      1.00032
     60      -4.8912      1.00043
     61      -4.8449      1.00128
     62      -4.8156      1.00238
     63      -4.8116      1.00258
     64      -4.7714      1.00552
     65      -4.7515      1.00772
     66      -4.6815      1.02030
     67      -4.6617      1.02484
     68      -4.6196      1.03341
     69      -4.5991      1.03537
     70      -4.5769      1.03415
     71      -4.5336      1.01491
     72      -4.4952      0.96953
     73      -4.4909      0.96255
     74      -4.4304      0.81357
     75      -4.4027      0.71684
     76      -4.3871      0.65647
     77      -4.3319      0.42619
     78      -4.2884      0.25488
     79      -4.2558      0.14806
     80      -4.2269      0.07439
     81      -4.1804     -0.00067
     82      -4.0953     -0.03515
     83      -4.0106     -0.01881
     84      -3.9996     -0.01648
     85      -3.4471     -0.00000
     86      -3.3138     -0.00000
     87      -3.1469     -0.00000
     88      -2.9973     -0.00000
     89      -2.9258     -0.00000
     90      -2.4487     -0.00000
     91      -1.4460     -0.00000
     92      -1.2994     -0.00000
     93      -1.2673     -0.00000
     94      -1.2048     -0.00000
     95      -1.0053     -0.00000
     96      -0.9858     -0.00000
     97      -0.9666     -0.00000
     98      -0.8662     -0.00000
     99      -0.7436     -0.00000
    100      -0.5538     -0.00000
    101       0.2152     -0.00000
    102       0.3722     -0.00000
    103       0.4039     -0.00000
    104       0.4242     -0.00000


--------------------------------------------------------------------------------------------------------


 soft charge-density along one line, spin component            1
         0         1         2         3         4         5         6         7         8         9
 total charge-density along one line
 
 soft charge-density along one line, spin component            2
         0         1         2         3         4         5         6         7         8         9
 total charge-density along one line
 
 pseudopotential strength for first ion, spin component:            1
 -8.649   0.039   0.014   0.001   0.009  -8.613   0.037   0.014
  0.039  -8.715  -0.012  -0.015   0.007   0.037  -8.676  -0.011
  0.014  -0.012  -8.700   0.022  -0.029   0.014  -0.011  -8.662
  0.001  -0.015   0.022  -8.642   0.047   0.001  -0.015   0.021
  0.009   0.007  -0.029   0.047  -8.658   0.009   0.006  -0.028
 -8.613   0.037   0.014   0.001   0.009  -8.555   0.035   0.013
  0.037  -8.676  -0.011  -0.015   0.006   0.035  -8.615  -0.011
  0.014  -0.011  -8.662   0.021  -0.028   0.013  -0.011  -8.601
  0.001  -0.015   0.021  -8.607   0.045   0.001  -0.014   0.020
  0.009   0.006  -0.028   0.045  -8.622   0.008   0.006  -0.027
  0.006   0.002   0.009  -0.021  -0.014   0.006   0.002   0.009
  0.011   0.003   0.015  -0.036  -0.024   0.010   0.002   0.015
 -0.026  -0.012  -0.006   0.000  -0.011  -0.025  -0.011  -0.006
  0.000   0.010  -0.013  -0.027  -0.000   0.000   0.010  -0.013
  0.010   0.000   0.015  -0.013  -0.027   0.010   0.000   0.015
 -0.029  -0.013  -0.007   0.000  -0.012  -0.028  -0.013  -0.007
  0.000   0.012  -0.014  -0.030  -0.001   0.000   0.012  -0.014
  0.012   0.000   0.017  -0.014  -0.031   0.012   0.000   0.016
 pseudopotential strength for first ion, spin component:            2
 -8.486   0.021   0.004  -0.005   0.000  -8.457   0.021   0.004
  0.021  -8.520  -0.001  -0.008   0.008   0.021  -8.489  -0.001
  0.004  -0.001  -8.500   0.018  -0.021   0.004  -0.001  -8.470
 -0.005  -0.008   0.018  -8.487   0.019  -0.005  -0.008   0.017
  0.000   0.008  -0.021   0.019  -8.480   0.000   0.008  -0.020
 -8.457   0.021   0.004  -0.005   0.000  -8.406   0.020   0.004
  0.021  -8.489  -0.001  -0.008   0.008   0.020  -8.437  -0.001
  0.004  -0.001  -8.470   0.017  -0.020   0.004  -0.001  -8.418
 -0.005  -0.008   0.017  -8.458   0.019  -0.005  -0.008   0.016
  0.000   0.008  -0.020   0.019  -8.452   0.000   0.008  -0.019
  0.001   0.002   0.003  -0.008  -0.005   0.001   0.002   0.003
  0.001   0.003   0.005  -0.014  -0.009   0.001   0.003   0.005
 -0.029  -0.013  -0.006   0.000  -0.010  -0.027  -0.012  -0.006
  0.000   0.010  -0.014  -0.029   0.000   0.000   0.009  -0.013
  0.010   0.000   0.017  -0.013  -0.029   0.010   0.000   0.016
 -0.033  -0.015  -0.007   0.000  -0.011  -0.031  -0.014  -0.007
  0.000   0.011  -0.016  -0.033   0.000   0.000   0.011  -0.015
  0.012   0.000   0.019  -0.014  -0.033   0.012   0.000   0.018
 total augmentation occupancy for first ion, spin component:            1
  2.485   0.181   0.056   0.086   0.191  -1.056  -0.119  -0.047  -0.064  -0.151   0.064   0.002  -0.214  -0.009  -0.010  -0.025
  0.181   1.993  -0.104  -0.115   0.174  -0.120  -0.714   0.070   0.065  -0.137   0.029   0.002  -0.087   0.060  -0.030  -0.011
  0.056  -0.104   2.343   0.248  -0.227  -0.048   0.071  -0.994  -0.166   0.185  -0.078   0.025  -0.011  -0.184   0.114  -0.005
  0.086  -0.115   0.248   2.453   0.040  -0.065   0.066  -0.166  -1.030   0.025   0.186  -0.058  -0.022  -0.195  -0.004   0.001
  0.191   0.174  -0.227   0.040   2.259  -0.151  -0.136   0.185   0.025  -0.842   0.000  -0.019  -0.081   0.049  -0.150  -0.009
 -1.056  -0.120  -0.048  -0.065  -0.151   1.480   0.086   0.047   0.055   0.133  -0.036   0.009   0.315   0.021  -0.009  -0.025
 -0.119  -0.714   0.071   0.066  -0.136   0.086   1.218  -0.056  -0.037   0.111  -0.025   0.007   0.133  -0.072   0.032  -0.012
 -0.047   0.070  -0.994  -0.166   0.185   0.047  -0.056   1.452   0.110  -0.165   0.055   0.001   0.022   0.230  -0.159  -0.003
 -0.064   0.065  -0.166  -1.030   0.025   0.055  -0.037   0.110   1.466  -0.049  -0.082  -0.015   0.025   0.266   0.028  -0.001
 -0.151  -0.137   0.185   0.025  -0.842   0.133   0.111  -0.165  -0.049   1.260   0.047  -0.030   0.097  -0.058   0.212  -0.006
  0.064   0.029  -0.078   0.186   0.000  -0.036  -0.025   0.055  -0.082   0.047   1.671  -0.246  -0.067   0.135   0.283   0.006
  0.002   0.002   0.025  -0.058  -0.019   0.009   0.007   0.001  -0.015  -0.030  -0.246   0.042   0.010  -0.024  -0.049  -0.001
 -0.214  -0.087  -0.011  -0.022  -0.081   0.315   0.133   0.022   0.025   0.097  -0.067   0.010   0.118  -0.003   0.004  -0.009
 -0.009   0.060  -0.184  -0.195   0.049   0.021  -0.072   0.230   0.266  -0.058   0.135  -0.024  -0.003   0.132  -0.012   0.000
 -0.010  -0.030   0.114  -0.004  -0.150  -0.009   0.032  -0.159   0.028   0.212   0.283  -0.049   0.004  -0.012   0.118   0.001
 -0.025  -0.011  -0.005   0.001  -0.009  -0.025  -0.012  -0.003  -0.001  -0.006   0.006  -0.001  -0.009   0.000   0.001   0.002
  0.000   0.008  -0.011  -0.026  -0.001  -0.001   0.005  -0.015  -0.023   0.002  -0.016   0.004   0.000  -0.009  -0.001  -0.000
  0.009   0.000   0.014  -0.013  -0.025   0.004  -0.001   0.014  -0.007  -0.021  -0.032   0.007   0.001  -0.001  -0.011  -0.000
 total augmentation occupancy for first ion, spin component:            2
  0.301  -0.137  -0.089  -0.030  -0.055  -0.118   0.069   0.048   0.012   0.027  -0.037   0.012  -0.020  -0.006   0.003  -0.004
 -0.137   0.573   0.067   0.067  -0.014   0.069  -0.262  -0.034  -0.035   0.014   0.000   0.001  -0.007  -0.011   0.002  -0.002
 -0.089   0.067   0.549  -0.059   0.098   0.048  -0.035  -0.238   0.035  -0.054  -0.039   0.015   0.004  -0.006   0.006  -0.001
 -0.030   0.067  -0.059   0.269  -0.184   0.012  -0.037   0.033  -0.107   0.088   0.050  -0.033   0.002  -0.004   0.008   0.001
 -0.055  -0.014   0.098  -0.184   0.393   0.028   0.014  -0.055   0.090  -0.165   0.058  -0.020   0.007   0.012  -0.007  -0.002
 -0.118   0.069   0.048   0.012   0.028   0.009  -0.031  -0.022  -0.003  -0.013   0.003   0.001   0.003   0.003  -0.001   0.002
  0.069  -0.262  -0.035  -0.037   0.014  -0.031   0.077   0.017   0.016  -0.011   0.002  -0.001   0.001   0.007  -0.002   0.001
  0.048  -0.034  -0.238   0.033  -0.055  -0.022   0.017   0.060  -0.017   0.026   0.003   0.000  -0.003  -0.001   0.000   0.001
  0.012  -0.035   0.035  -0.107   0.090  -0.003   0.016  -0.017   0.007  -0.039   0.008  -0.003  -0.001  -0.003  -0.004  -0.000
  0.027   0.014  -0.054   0.088  -0.165  -0.013  -0.011   0.026  -0.039   0.032  -0.006  -0.001  -0.004  -0.005  -0.000   0.001
 -0.037   0.000  -0.039   0.050   0.058   0.003   0.002   0.003   0.008  -0.006  -0.020   0.003   0.003   0.001  -0.005   0.000
  0.012   0.001   0.015  -0.033  -0.020   0.001  -0.001   0.000  -0.003  -0.001   0.003   0.002  -0.000  -0.000   0.001  -0.000
 -0.020  -0.007   0.004   0.002   0.007   0.003   0.001  -0.003  -0.001  -0.004   0.003  -0.000   0.001   0.002  -0.001   0.000
 -0.006  -0.011  -0.006  -0.004   0.012   0.003   0.007  -0.001  -0.003  -0.005   0.001  -0.000   0.002  -0.002  -0.001   0.000
  0.003   0.002   0.006   0.008  -0.007  -0.001  -0.002   0.000  -0.004  -0.000  -0.005   0.001  -0.001  -0.001  -0.002  -0.000
 -0.004  -0.002  -0.001   0.001  -0.002   0.002   0.001   0.001  -0.000   0.001   0.000  -0.000   0.000   0.000  -0.000   0.000
  0.001   0.001  -0.003  -0.004   0.002  -0.000  -0.001   0.002   0.002  -0.001  -0.001   0.001  -0.000   0.000  -0.000  -0.000
  0.002  -0.000   0.004   0.000  -0.005  -0.001   0.000  -0.002   0.000   0.002  -0.003   0.001  -0.000  -0.000   0.000  -0.000


------------------------ aborting loop because EDIFF is reached ----------------------------------------


    CHARGE:  cpu time    0.5471: real time    0.5516
    FORLOC:  cpu time    0.0919: real time    0.0919
    FORNL :  cpu time    4.2399: real time    4.2509
    FORCOR:  cpu time    1.7396: real time    1.7409
    FORHAR:  cpu time    0.2408: real time    0.2410
    MIXING:  cpu time    0.0274: real time    0.0274
    OFIELD:  cpu time    0.0000: real time    0.0000

 VOLUME and BASIS-vectors are now :
 -----------------------------------------------------------------------------
  energy-cutoff  :      400.00
  volume of cell :    14346.03
      direct lattice vectors                 reciprocal lattice vectors
    23.682877406  0.000000000  0.000000000     0.042224599  0.000000000  0.000000000
     0.000000000 23.985484422  0.000000000     0.000000000  0.041691883  0.000000000
     0.000000000  0.000000000 25.255081783     0.000000000  0.000000000  0.039595991

  length of vectors
    23.682877406 23.985484422 25.255081783     0.042224599  0.041691883  0.039595991


 FORCES acting on ions
    electron-ion (+dipol)            ewald-force                    non-local-force                 convergence-correction
 -----------------------------------------------------------------------------------------------
   0.996E+03 -.163E+03 0.502E+03   -.990E+03 0.162E+03 -.499E+03   -.517E+01 0.127E+01 -.240E+01   0.188E-01 -.127E-02 0.652E-01
   0.586E+03 -.915E+03 -.711E+02   -.584E+03 0.912E+03 0.714E+02   -.251E+01 0.389E+01 -.367E+00   -.346E-02 -.117E+00 -.211E-01
   0.162E+03 -.730E+03 0.852E+03   -.161E+03 0.725E+03 -.848E+03   -.854E+00 0.417E+01 -.374E+01   -.120E+00 0.302E-01 0.380E-01
   -.683E+03 -.807E+03 0.254E+03   0.680E+03 0.803E+03 -.253E+03   0.271E+01 0.340E+01 -.872E+00   -.188E+00 0.424E-01 -.237E-02
   0.101E+04 0.813E+02 -.486E+03   -.100E+04 -.812E+02 0.484E+03   -.510E+01 -.170E+00 0.240E+01   0.154E-01 0.485E-01 -.347E-01
   0.277E+03 0.431E+03 0.101E+04   -.276E+03 -.429E+03 -.100E+04   -.117E+01 -.259E+01 -.508E+01   -.952E-01 0.144E-01 0.246E-01
   0.304E+03 -.301E+03 -.102E+04   -.302E+03 0.300E+03 0.102E+04   -.146E+01 0.103E+01 0.525E+01   -.580E-01 -.956E-02 -.421E-01
   -.270E+03 -.952E+03 -.488E+03   0.268E+03 0.946E+03 0.486E+03   0.190E+01 0.592E+01 0.249E+01   -.669E-01 -.129E-02 0.395E-02
   0.373E+02 0.590E+01 0.439E+02   -.373E+02 -.601E+01 -.442E+02   0.242E+00 0.469E-02 0.278E+00   -.258E+00 0.681E-01 -.457E-01
   -.632E+03 0.258E+01 0.928E+03   0.629E+03 -.236E+01 -.923E+03   0.320E+01 -.264E+00 -.462E+01   -.644E-01 0.364E-01 -.129E-01
   -.665E+03 -.142E+03 -.787E+03   0.663E+03 0.142E+03 0.784E+03   0.244E+01 0.525E+00 0.285E+01   -.148E+00 0.217E-01 0.215E-02
   0.667E+03 0.902E+03 0.131E+03   -.664E+03 -.898E+03 -.130E+03   -.274E+01 -.492E+01 -.504E+00   -.879E-01 0.226E-01 0.330E-01
   0.224E+03 0.714E+03 -.791E+03   -.223E+03 -.711E+03 0.788E+03   -.768E+00 -.299E+01 0.316E+01   -.943E-01 0.510E-01 -.372E-01
   -.109E+04 0.135E+03 0.910E+02   0.109E+04 -.135E+03 -.905E+02   0.549E+01 -.175E+00 -.501E+00   0.587E-01 -.600E-02 0.465E-01
   -.328E+03 0.969E+03 0.369E+03   0.328E+03 -.965E+03 -.367E+03   0.759E+00 -.420E+01 -.167E+01   -.147E+00 -.213E-01 0.904E-02
   -.590E+03 0.768E+03 -.529E+03   0.587E+03 -.763E+03 0.525E+03   0.314E+01 -.486E+01 0.343E+01   -.654E-01 -.562E-01 0.414E-01
 -----------------------------------------------------------------------------------------------
   0.120E+01 -.146E+00 -.159E+00   -.682E-12 -.227E-12 -.114E-12   0.107E+00 0.205E-01 0.898E-01   -.130E+01 0.123E+00 0.678E-01
 
 
 POSITION                                       TOTAL-FORCE (eV/Angst)
 -----------------------------------------------------------------------------------
      9.00261     12.14677     11.20711         0.010141     -0.009069      0.009989
     10.23224     13.91923     12.88625        -0.006370      0.021449     -0.002143
     11.19801     13.43546     10.33090        -0.010211      0.006424     -0.021354
     13.30696     13.63652     11.99768        -0.000182      0.005475      0.013037
      8.96569     11.63958     13.82586         0.000056     -0.003775     -0.007829
     10.87369     10.75653      9.87242         0.004313      0.001419      0.010896
     10.82929     12.79169     15.30705         0.001515      0.005289      0.025325
     12.38980     14.65246     14.22883         0.011280      0.007807      0.007424
     11.53016     11.79139     12.41641        -0.010416     -0.036812     -0.018474
     13.33035     11.76038     10.09461         0.000361     -0.004362      0.010341
     13.22033     12.14191     14.40243        -0.004993     -0.000314     -0.017849
      9.84904      9.71205     12.12755        -0.001594      0.003331     -0.002227
     11.14541     10.21672     14.44278        -0.000052     -0.000294     -0.009546
     14.63873     11.27947     12.34862         0.008892      0.002817     -0.004157
     12.58285      9.60248     11.67506        -0.001997      0.007135      0.006764
     13.65068      9.54615     14.09972        -0.000741     -0.006519     -0.000195
 -----------------------------------------------------------------------------------
    total drift:                                0.006417     -0.002692     -0.001016


--------------------------------------------------------------------------------------------------------



  FREE ENERGIE OF THE ION-ELECTRON SYSTEM (eV)
  ---------------------------------------------------
  free  energy   TOTEN  =       -62.98427633 eV

  energy  without entropy=      -63.01382157  energy(sigma->0) =      -62.99412474
 
 d Force = 0.1844328E-03[ 0.829E-04, 0.286E-03]  d Energy = 0.1763456E-03 0.809E-05
 d Force =-0.6289501E+00[-0.628E+00,-0.630E+00]  d Ewald  =-0.6289495E+00-0.575E-06


--------------------------------------------------------------------------------------------------------


    POTLOK:  cpu time    1.7583: real time    1.7742


--------------------------------------------------------------------------------------------------------




--------------------------------------------------------------------------------------------------------


  
 reached required accuracy - stopping structural energy minimisation
     LOOP+:  cpu time   44.1021: real time   44.2842
    4ORBIT:  cpu time    0.0000: real time    0.0000

 total amount of memory used by VASP MPI-rank0   169100. kBytes
=======================================================================

   base      :      30000. kBytes
   nonl-proj :       3257. kBytes
   fftplans  :      33270. kBytes
   grid      :      75429. kBytes
   one-center:         15. kBytes
   wavefun   :      27129. kBytes
 
  
  
 General timing and accounting informations for this job:
 ========================================================
  
                  Total CPU time used (sec):      548.809
                            User time (sec):      545.008
                          System time (sec):        3.801
                         Elapsed time (sec):      552.818
  
                   Maximum memory used (kb):      351024.
                   Average memory used (kb):           0.
  
                          Minor page faults:      1623874
                          Major page faults:         4974
                 Voluntary context switches:         7849
