unknown system                          
            1
    23.682877    0.000000    0.000000
     0.000000   23.985484    0.000000
     0.000000    0.000000   25.255082
   Pd
    16
Direct configuration=     1
   0.38006524  0.50645887  0.44378613
   0.43179375  0.58043269  0.51018445
   0.47286023  0.55986970  0.40917444
   0.56225771  0.56863053  0.47518255
   0.37850414  0.48512839  0.54724182
   0.45909886  0.44856082  0.39101782
   0.45720665  0.53326295  0.60603984
   0.52318201  0.61082232  0.56331351
   0.48699378  0.49166030  0.49176082
   0.56272141  0.49021746  0.39951356
   0.55840467  0.50633839  0.57048700
   0.41598729  0.40522280  0.48012137
   0.47056481  0.42581783  0.57203338
   0.61777956  0.47037145  0.48872676
   0.53147097  0.40020950  0.46220878
   0.57637797  0.39796280  0.55842678
Direct configuration=     2
   0.38005191  0.50645554  0.44376493
   0.43183676  0.58042817  0.51020768
   0.47286176  0.55994300  0.40914065
   0.56218745  0.56860394  0.47514400
   0.37851416  0.48515739  0.54729856
   0.45910676  0.44852929  0.39098404
   0.45721409  0.53326371  0.60604414
   0.52317050  0.61084763  0.56333541
   0.48700766  0.49159946  0.49177463
   0.56275566  0.49023605  0.39955373
   0.55836747  0.50628347  0.57043654
   0.41597519  0.40515770  0.48014473
   0.47059045  0.42586159  0.57198055
   0.61783008  0.47033967  0.48878638
   0.53142999  0.40026297  0.46223816
   0.57636917  0.39799722  0.55838489
Direct configuration=     3
   0.38003655  0.50645170  0.44374048
   0.43188635  0.58042297  0.51023446
   0.47286352  0.56002751  0.40910168
   0.56210644  0.56857328  0.47509954
   0.37852570  0.48519083  0.54736397
   0.45911586  0.44849292  0.39094508
   0.45722267  0.53326458  0.60604909
   0.52315723  0.61087682  0.56336067
   0.48702365  0.49152930  0.49179055
   0.56279515  0.49025749  0.39960005
   0.55832459  0.50622016  0.57037837
   0.41596123  0.40508264  0.48017167
   0.47062001  0.42591204  0.57191963
   0.61788833  0.47030302  0.48885512
   0.53138273  0.40032463  0.46227204
   0.57635903  0.39803691  0.55833659
Direct configuration=     4
   0.38008564  0.50643632  0.44374882
   0.43197205  0.58036926  0.51023935
   0.47284707  0.56009055  0.40908135
   0.56199014  0.56855200  0.47507907
   0.37854986  0.48523490  0.54740765
   0.45912681  0.44847583  0.39092614
   0.45724328  0.53328791  0.60607429
   0.52315575  0.61088302  0.56338331
   0.48693729  0.49156847  0.49171288
   0.56283316  0.49028583  0.39965474
   0.55827221  0.50621954  0.57032683
   0.41591507  0.40499538  0.48018744
   0.47061518  0.42593392  0.57189715
   0.61800514  0.47028211  0.48890719
   0.53134296  0.40033538  0.46227909
   0.57637744  0.39801639  0.55831370
Direct configuration=     5
   0.38013165  0.50642191  0.44375663
   0.43205238  0.58031893  0.51024394
   0.47283165  0.56014964  0.40906229
   0.56188115  0.56853205  0.47505989
   0.37857250  0.48527621  0.54744858
   0.45913706  0.44845982  0.39090838
   0.45726259  0.53330976  0.60609791
   0.52315436  0.61088882  0.56340452
   0.48685636  0.49160518  0.49164009
   0.56286879  0.49031238  0.39970600
   0.55822312  0.50621896  0.57027853
   0.41587180  0.40491360  0.48020222
   0.47061066  0.42595442  0.57187609
   0.61811462  0.47026251  0.48895599
   0.53130567  0.40034546  0.46228570
   0.57639469  0.39799716  0.55829224
