  10  10   0   0
  0.1213273E+04  0.2386530E-08  0.2231731E-08  0.2277981E-08  0.5000000E-15
   1.0000000000000000E-004
  CAR 
 unknown system                          
      1.97802882    -11.87592945  301     -4.11722507      1.00000000
    -11.876  0.0000E+00  0.0000E+00  0.0000E+00  0.0000E+00
    -11.830  0.0000E+00  0.0000E+00  0.0000E+00  0.0000E+00
    -11.784  0.0000E+00  0.0000E+00  0.0000E+00  0.0000E+00
    -11.737  0.0000E+00  0.0000E+00  0.0000E+00  0.0000E+00
    -11.691  0.0000E+00  0.0000E+00  0.0000E+00  0.0000E+00
    -11.645  0.0000E+00  0.0000E+00  0.0000E+00  0.0000E+00
    -11.599  0.0000E+00  0.0000E+00  0.0000E+00  0.0000E+00
    -11.553  0.0000E+00  0.0000E+00  0.0000E+00  0.0000E+00
    -11.506 -0.6768E-30  0.0000E+00 -0.3125E-31  0.0000E+00
    -11.460 -0.2623E-28  0.0000E+00 -0.1243E-29  0.0000E+00
    -11.414 -0.9341E-27 -0.1138E-29 -0.4438E-28 -0.5253E-31
    -11.368 -0.2986E-25 -0.4342E-28 -0.1423E-26 -0.2058E-29
    -11.322 -0.8567E-24 -0.1523E-26 -0.4099E-25 -0.7239E-28
    -11.276 -0.2206E-22 -0.4796E-25 -0.1060E-23 -0.2287E-26
    -11.229 -0.5099E-21 -0.1355E-23 -0.2461E-22 -0.6488E-25
    -11.183 -0.1058E-19 -0.3439E-22 -0.5130E-21 -0.1653E-23
    -11.137 -0.1968E-18 -0.7829E-21 -0.9600E-20 -0.3781E-22
    -11.091 -0.3284E-17 -0.1599E-19 -0.1613E-18 -0.7763E-21
    -11.045 -0.4796E-16 -0.2931E-18 -0.2376E-17 -0.1431E-19
    -10.999 -0.6382E-15 -0.4818E-17 -0.3185E-16 -0.2368E-18
    -10.952 -0.7668E-14 -0.6864E-16 -0.3860E-15 -0.3406E-17
    -10.906 -0.8240E-13 -0.9091E-15 -0.4191E-14 -0.4539E-16
    -10.860 -0.7930E-12 -0.1074E-13 -0.4081E-13 -0.5415E-15
    -10.814 -0.6830E-11 -0.1137E-12 -0.3562E-12 -0.5792E-14
    -10.768 -0.5262E-10 -0.1077E-11 -0.2786E-11 -0.5555E-13
    -10.721 -0.3624E-09 -0.9137E-11 -0.1952E-10 -0.4775E-12
    -10.675 -0.2228E-08 -0.6931E-10 -0.1224E-09 -0.3678E-11
    -10.629 -0.1223E-07 -0.4698E-09 -0.6870E-09 -0.2537E-10
    -10.583 -0.5976E-07 -0.2844E-08 -0.3447E-08 -0.1567E-09
    -10.537 -0.2598E-06 -0.1536E-07 -0.1544E-07 -0.8658E-09
    -10.491 -0.1002E-05 -0.7385E-07 -0.6173E-07 -0.4276E-08
    -10.444 -0.3420E-05 -0.3158E-06 -0.2197E-06 -0.1886E-07
    -10.398 -0.1028E-04 -0.1198E-05 -0.6945E-06 -0.7418E-07
    -10.352 -0.2705E-04 -0.4018E-05 -0.1944E-05 -0.2597E-06
    -10.306 -0.6164E-04 -0.1186E-04 -0.4790E-05 -0.8075E-06
    -10.260 -0.1195E-03 -0.3061E-04 -0.1031E-04 -0.2221E-05
    -10.213 -0.1901E-03 -0.6829E-04 -0.1909E-04 -0.5374E-05
    -10.167 -0.2261E-03 -0.1292E-03 -0.2953E-04 -0.1134E-04
    -10.121 -0.1283E-03 -0.1989E-03 -0.3546E-04 -0.2053E-04
    -10.075  0.2353E-03 -0.2233E-03 -0.2459E-04 -0.3084E-04
    -10.029  0.9599E-03 -0.9664E-04  0.1974E-04 -0.3530E-04
     -9.983  0.2003E-02  0.3136E-03  0.1123E-03 -0.2082E-04
     -9.936  0.3128E-02  0.1089E-02  0.2567E-03  0.2949E-04
     -9.890  0.3965E-02  0.2163E-02  0.4398E-03  0.1294E-03
     -9.844  0.4187E-02  0.3271E-02  0.6332E-03  0.2804E-03
     -9.798  0.3703E-02  0.4037E-02  0.8042E-03  0.4669E-03
     -9.752  0.2711E-02  0.4160E-02  0.9294E-03  0.6590E-03
     -9.705  0.1578E-02  0.3588E-02  0.1002E-02  0.8247E-03
     -9.659  0.6390E-03  0.2553E-02  0.1032E-02  0.9426E-03
     -9.613  0.5690E-04  0.1430E-02  0.1034E-02  0.1009E-02
     -9.567 -0.1897E-03  0.5353E-03  0.1026E-02  0.1033E-02
     -9.521 -0.2216E-03  0.4640E-05  0.1015E-02  0.1034E-02
     -9.475 -0.1636E-03 -0.2039E-03  0.1008E-02  0.1024E-02
     -9.428 -0.9474E-04 -0.2165E-03  0.1003E-02  0.1014E-02
     -9.382 -0.4581E-04 -0.1535E-03  0.1001E-02  0.1007E-02
     -9.336 -0.1900E-04 -0.8648E-04  0.1000E-02  0.1003E-02
     -9.290 -0.6857E-05 -0.4088E-04  0.1000E-02  0.1001E-02
     -9.244 -0.2175E-05 -0.1662E-04  0.1000E-02  0.1000E-02
     -9.197 -0.6252E-06 -0.5887E-05  0.1000E-02  0.1000E-02
     -9.151 -0.2381E-06 -0.1832E-05  0.1000E-02  0.1000E-02
     -9.105 -0.4087E-06 -0.5033E-06  0.1000E-02  0.1000E-02
     -9.059 -0.1436E-05 -0.1226E-06  0.9999E-03  0.1000E-02
     -9.013 -0.4828E-05 -0.2665E-07  0.9997E-03  0.1000E-02
     -8.967 -0.1441E-04 -0.6020E-08  0.9990E-03  0.1000E-02
     -8.920 -0.3781E-04 -0.6191E-08  0.9973E-03  0.1000E-02
     -8.874 -0.8658E-04 -0.2768E-07  0.9933E-03  0.1000E-02
     -8.828 -0.1705E-03 -0.1271E-06  0.9854E-03  0.1000E-02
     -8.782 -0.2806E-03 -0.5213E-06  0.9725E-03  0.1000E-02
     -8.736 -0.3610E-03 -0.1896E-05  0.9558E-03  0.9999E-03
     -8.690 -0.2826E-03 -0.6098E-05  0.9427E-03  0.9996E-03
     -8.643  0.1485E-03 -0.1725E-04  0.9496E-03  0.9988E-03
     -8.597  0.1118E-02 -0.4268E-04  0.1001E-02  0.9968E-03
     -8.551  0.2670E-02 -0.9127E-04  0.1124E-02  0.9926E-03
     -8.505  0.4587E-02 -0.1656E-03  0.1336E-02  0.9850E-03
     -8.459  0.6385E-02 -0.2448E-03  0.1631E-02  0.9737E-03
     -8.412  0.7477E-02 -0.2641E-03  0.1977E-02  0.9615E-03
     -8.366  0.7456E-02 -0.1076E-03  0.2321E-02  0.9565E-03
     -8.320  0.6316E-02  0.3608E-03  0.2613E-02  0.9732E-03
     -8.274  0.4489E-02  0.1228E-02  0.2820E-02  0.1030E-02
     -8.228  0.2650E-02  0.2453E-02  0.2942E-02  0.1143E-02
     -8.182  0.1422E-02  0.3849E-02  0.3008E-02  0.1321E-02
     -8.135  0.1142E-02  0.5133E-02  0.3061E-02  0.1558E-02
     -8.089  0.1792E-02  0.6034E-02  0.3143E-02  0.1837E-02
     -8.043  0.3108E-02  0.6364E-02  0.3287E-02  0.2130E-02
     -7.997  0.4763E-02  0.6049E-02  0.3507E-02  0.2410E-02
     -7.951  0.6498E-02  0.5136E-02  0.3807E-02  0.2647E-02
     -7.904  0.8125E-02  0.3805E-02  0.4182E-02  0.2823E-02
     -7.858  0.9444E-02  0.2363E-02  0.4618E-02  0.2932E-02
     -7.812  0.1020E-01  0.1185E-02  0.5089E-02  0.2987E-02
     -7.766  0.1016E-01  0.5954E-03  0.5559E-02  0.3014E-02
     -7.720  0.9306E-02  0.7372E-03  0.5988E-02  0.3048E-02
     -7.674  0.7892E-02  0.1491E-02  0.6353E-02  0.3117E-02
     -7.627  0.6448E-02  0.2508E-02  0.6651E-02  0.3233E-02
     -7.581  0.5540E-02  0.3364E-02  0.6906E-02  0.3388E-02
     -7.535  0.5507E-02  0.3799E-02  0.7161E-02  0.3564E-02
     -7.489  0.6285E-02  0.3882E-02  0.7451E-02  0.3743E-02
     -7.443  0.7487E-02  0.3975E-02  0.7797E-02  0.3926E-02
     -7.396  0.8686E-02  0.4468E-02  0.8198E-02  0.4133E-02
     -7.350  0.9700E-02  0.5469E-02  0.8646E-02  0.4385E-02
     -7.304  0.1064E-01  0.6707E-02  0.9137E-02  0.4695E-02
     -7.258  0.1171E-01  0.7716E-02  0.9678E-02  0.5051E-02
     -7.212  0.1291E-01  0.8174E-02  0.1027E-01  0.5429E-02
     -7.166  0.1403E-01  0.8101E-02  0.1092E-01  0.5803E-02
     -7.119  0.1478E-01  0.7799E-02  0.1160E-01  0.6163E-02
     -7.073  0.1500E-01  0.7597E-02  0.1230E-01  0.6514E-02
     -7.027  0.1478E-01  0.7649E-02  0.1298E-01  0.6867E-02
     -6.981  0.1434E-01  0.7893E-02  0.1364E-01  0.7232E-02
     -6.935  0.1388E-01  0.8187E-02  0.1428E-01  0.7610E-02
     -6.889  0.1348E-01  0.8458E-02  0.1491E-01  0.8000E-02
     -6.842  0.1312E-01  0.8741E-02  0.1551E-01  0.8404E-02
     -6.796  0.1270E-01  0.9082E-02  0.1610E-01  0.8823E-02
     -6.750  0.1218E-01  0.9373E-02  0.1666E-01  0.9256E-02
     -6.704  0.1160E-01  0.9313E-02  0.1720E-01  0.9686E-02
     -6.658  0.1110E-01  0.8591E-02  0.1771E-01  0.1008E-01
     -6.611  0.1085E-01  0.7225E-02  0.1821E-01  0.1042E-01
     -6.565  0.1084E-01  0.5766E-02  0.1871E-01  0.1068E-01
     -6.519  0.1084E-01  0.5140E-02  0.1921E-01  0.1092E-01
     -6.473  0.1043E-01  0.6162E-02  0.1969E-01  0.1120E-01
     -6.427  0.9322E-02  0.9031E-02  0.2012E-01  0.1162E-01
     -6.381  0.7687E-02  0.1318E-01  0.2048E-01  0.1223E-01
     -6.334  0.6178E-02  0.1752E-01  0.2076E-01  0.1304E-01
     -6.288  0.5606E-02  0.2095E-01  0.2102E-01  0.1401E-01
     -6.242  0.6433E-02  0.2274E-01  0.2132E-01  0.1506E-01
     -6.196  0.8431E-02  0.2272E-01  0.2171E-01  0.1611E-01
     -6.150  0.1078E-01  0.2120E-01  0.2221E-01  0.1709E-01
     -6.103  0.1258E-01  0.1878E-01  0.2279E-01  0.1795E-01
     -6.057  0.1332E-01  0.1609E-01  0.2340E-01  0.1870E-01
     -6.011  0.1316E-01  0.1353E-01  0.2401E-01  0.1932E-01
     -5.965  0.1270E-01  0.1118E-01  0.2460E-01  0.1984E-01
     -5.919  0.1260E-01  0.8933E-02  0.2518E-01  0.2025E-01
     -5.873  0.1326E-01  0.6808E-02  0.2579E-01  0.2056E-01
     -5.826  0.1472E-01  0.5102E-02  0.2647E-01  0.2080E-01
     -5.780  0.1664E-01  0.4293E-02  0.2724E-01  0.2100E-01
     -5.734  0.1849E-01  0.4715E-02  0.2809E-01  0.2122E-01
     -5.688  0.1973E-01  0.6270E-02  0.2900E-01  0.2151E-01
     -5.642  0.2007E-01  0.8426E-02  0.2993E-01  0.2189E-01
     -5.595  0.1960E-01  0.1050E-01  0.3084E-01  0.2238E-01
     -5.549  0.1877E-01  0.1202E-01  0.3170E-01  0.2293E-01
     -5.503  0.1814E-01  0.1285E-01  0.3254E-01  0.2353E-01
     -5.457  0.1815E-01  0.1312E-01  0.3338E-01  0.2413E-01
     -5.411  0.1898E-01  0.1303E-01  0.3426E-01  0.2474E-01
     -5.365  0.2054E-01  0.1281E-01  0.3520E-01  0.2533E-01
     -5.318  0.2259E-01  0.1265E-01  0.3625E-01  0.2591E-01
     -5.272  0.2488E-01  0.1273E-01  0.3740E-01  0.2650E-01
     -5.226  0.2716E-01  0.1314E-01  0.3865E-01  0.2711E-01
     -5.180  0.2912E-01  0.1385E-01  0.3999E-01  0.2775E-01
     -5.134  0.3028E-01  0.1476E-01  0.4139E-01  0.2843E-01
     -5.087  0.3018E-01  0.1572E-01  0.4279E-01  0.2915E-01
     -5.041  0.2871E-01  0.1652E-01  0.4411E-01  0.2992E-01
     -4.995  0.2634E-01  0.1685E-01  0.4533E-01  0.3070E-01
     -4.949  0.2392E-01  0.1638E-01  0.4643E-01  0.3145E-01
     -4.903  0.2217E-01  0.1496E-01  0.4746E-01  0.3214E-01
     -4.857  0.2128E-01  0.1280E-01  0.4844E-01  0.3273E-01
     -4.810  0.2077E-01  0.1045E-01  0.4940E-01  0.3322E-01
     -4.764  0.1995E-01  0.8674E-02  0.5032E-01  0.3362E-01
     -4.718  0.1829E-01  0.8168E-02  0.5117E-01  0.3399E-01
     -4.672  0.1570E-01  0.9322E-02  0.5189E-01  0.3442E-01
     -4.626  0.1256E-01  0.1209E-01  0.5247E-01  0.3498E-01
     -4.580  0.9489E-02  0.1601E-01  0.5291E-01  0.3572E-01
     -4.533  0.7005E-02  0.2029E-01  0.5323E-01  0.3666E-01
     -4.487  0.5304E-02  0.2400E-01  0.5348E-01  0.3777E-01
     -4.441  0.4199E-02  0.2625E-01  0.5367E-01  0.3898E-01
     -4.395  0.3327E-02  0.2652E-01  0.5383E-01  0.4020E-01
     -4.349  0.2431E-02  0.2498E-01  0.5394E-01  0.4136E-01
     -4.302  0.1493E-02  0.2246E-01  0.5401E-01  0.4240E-01
     -4.256  0.6622E-03  0.2012E-01  0.5404E-01  0.4332E-01
     -4.210  0.8755E-04  0.1886E-01  0.5404E-01  0.4420E-01
     -4.164 -0.1942E-03  0.1885E-01  0.5403E-01  0.4507E-01
     -4.118 -0.2544E-03  0.1958E-01  0.5402E-01  0.4597E-01
     -4.072 -0.2028E-03  0.2030E-01  0.5401E-01  0.4691E-01
     -4.025 -0.1255E-03  0.2046E-01  0.5401E-01  0.4785E-01
     -3.979 -0.6449E-04  0.1996E-01  0.5400E-01  0.4877E-01
     -3.933 -0.2833E-04  0.1903E-01  0.5400E-01  0.4965E-01
     -3.887 -0.1081E-04  0.1799E-01  0.5400E-01  0.5048E-01
     -3.841 -0.3610E-05  0.1693E-01  0.5400E-01  0.5127E-01
     -3.794 -0.1064E-05  0.1575E-01  0.5400E-01  0.5199E-01
     -3.748 -0.2856E-06  0.1414E-01  0.5400E-01  0.5265E-01
     -3.702 -0.1079E-06  0.1189E-01  0.5400E-01  0.5319E-01
     -3.656 -0.2089E-06  0.9064E-02  0.5400E-01  0.5361E-01
     -3.610 -0.7770E-06  0.6008E-02  0.5400E-01  0.5389E-01
     -3.564 -0.2715E-05  0.3239E-02  0.5400E-01  0.5404E-01
     -3.517 -0.8401E-05  0.1174E-02  0.5400E-01  0.5409E-01
     -3.471 -0.2282E-04 -0.4112E-04  0.5400E-01  0.5409E-01
     -3.425 -0.5402E-04 -0.5347E-03  0.5400E-01  0.5407E-01
     -3.379 -0.1100E-03 -0.5762E-03  0.5399E-01  0.5404E-01
     -3.333 -0.1879E-03 -0.4267E-03  0.5398E-01  0.5402E-01
     -3.286 -0.2553E-03 -0.2548E-03  0.5397E-01  0.5401E-01
     -3.240 -0.2320E-03 -0.1308E-03  0.5396E-01  0.5400E-01
     -3.194  0.5604E-05 -0.6506E-04  0.5396E-01  0.5400E-01
     -3.148  0.5779E-03 -0.4685E-04  0.5399E-01  0.5400E-01
     -3.102  0.1523E-02 -0.6809E-04  0.5406E-01  0.5400E-01
     -3.056  0.2738E-02 -0.1273E-03  0.5418E-01  0.5399E-01
     -3.009  0.3991E-02 -0.2181E-03  0.5437E-01  0.5398E-01
     -2.963  0.5024E-02 -0.3052E-03  0.5460E-01  0.5397E-01
     -2.917  0.5671E-02 -0.3002E-03  0.5486E-01  0.5395E-01
     -2.871  0.5915E-02 -0.5820E-04  0.5513E-01  0.5395E-01
     -2.825  0.5868E-02  0.5798E-03  0.5541E-01  0.5398E-01
     -2.778  0.5705E-02  0.1699E-02  0.5567E-01  0.5405E-01
     -2.732  0.5602E-02  0.3220E-02  0.5593E-01  0.5420E-01
     -2.686  0.5678E-02  0.4883E-02  0.5619E-01  0.5443E-01
     -2.640  0.5952E-02  0.6332E-02  0.5646E-01  0.5472E-01
     -2.594  0.6345E-02  0.7270E-02  0.5676E-01  0.5506E-01
     -2.548  0.6729E-02  0.7583E-02  0.5707E-01  0.5541E-01
     -2.501  0.6991E-02  0.7356E-02  0.5739E-01  0.5575E-01
     -2.455  0.7061E-02  0.6786E-02  0.5772E-01  0.5606E-01
     -2.409  0.6886E-02  0.6090E-02  0.5804E-01  0.5634E-01
     -2.363  0.6403E-02  0.5478E-02  0.5833E-01  0.5659E-01
     -2.317  0.5554E-02  0.5155E-02  0.5859E-01  0.5683E-01
     -2.271  0.4359E-02  0.5283E-02  0.5879E-01  0.5708E-01
     -2.224  0.2957E-02  0.5872E-02  0.5893E-01  0.5735E-01
     -2.178  0.1587E-02  0.6680E-02  0.5900E-01  0.5766E-01
     -2.132  0.4873E-03  0.7266E-02  0.5902E-01  0.5799E-01
     -2.086 -0.1776E-03  0.7198E-02  0.5901E-01  0.5832E-01
     -2.040 -0.3349E-03  0.6294E-02  0.5900E-01  0.5861E-01
     -1.993  0.2693E-04  0.4727E-02  0.5900E-01  0.5883E-01
     -1.947  0.8613E-03  0.2915E-02  0.5904E-01  0.5897E-01
     -1.901  0.2014E-02  0.1300E-02  0.5913E-01  0.5903E-01
     -1.855  0.3188E-02  0.1655E-03  0.5928E-01  0.5903E-01
     -1.809  0.4001E-02 -0.4029E-03  0.5946E-01  0.5902E-01
     -1.763  0.4154E-02 -0.4335E-03  0.5966E-01  0.5900E-01
     -1.716  0.3601E-02  0.2420E-04  0.5982E-01  0.5900E-01
     -1.670  0.2574E-02  0.9089E-03  0.5994E-01  0.5904E-01
     -1.624  0.1450E-02  0.2076E-02  0.6001E-01  0.5914E-01
     -1.578  0.5490E-03  0.3239E-02  0.6003E-01  0.5928E-01
     -1.532  0.1056E-04  0.4026E-02  0.6003E-01  0.5947E-01
     -1.485 -0.2054E-03  0.4149E-02  0.6002E-01  0.5966E-01
     -1.439 -0.2273E-03  0.3571E-02  0.6001E-01  0.5983E-01
     -1.393 -0.1817E-03  0.2533E-02  0.6001E-01  0.5994E-01
     -1.347 -0.1507E-03  0.1410E-02  0.6000E-01  0.6001E-01
     -1.301 -0.1697E-03  0.5182E-03  0.5999E-01  0.6003E-01
     -1.255 -0.2364E-03 -0.1607E-04  0.5998E-01  0.6003E-01
     -1.208 -0.3078E-03 -0.2439E-03  0.5997E-01  0.6002E-01
     -1.162 -0.2867E-03 -0.3033E-03  0.5995E-01  0.6001E-01
     -1.116 -0.2547E-04 -0.3229E-03  0.5995E-01  0.5999E-01
     -1.070  0.6296E-03 -0.3634E-03  0.5998E-01  0.5998E-01
     -1.024  0.1751E-02 -0.3936E-03  0.6006E-01  0.5996E-01
     -0.977  0.3250E-02 -0.2876E-03  0.6021E-01  0.5994E-01
     -0.931  0.4865E-02  0.1455E-03  0.6044E-01  0.5995E-01
     -0.885  0.6257E-02  0.1081E-02  0.6072E-01  0.6000E-01
     -0.839  0.7154E-02  0.2554E-02  0.6105E-01  0.6012E-01
     -0.793  0.7464E-02  0.4361E-02  0.6140E-01  0.6032E-01
     -0.747  0.7269E-02  0.6076E-02  0.6174E-01  0.6060E-01
     -0.700  0.6737E-02  0.7226E-02  0.6205E-01  0.6093E-01
     -0.654  0.6033E-02  0.7540E-02  0.6233E-01  0.6128E-01
     -0.608  0.5301E-02  0.7096E-02  0.6257E-01  0.6161E-01
     -0.562  0.4708E-02  0.6257E-02  0.6279E-01  0.6190E-01
     -0.516  0.4454E-02  0.5437E-02  0.6299E-01  0.6215E-01
     -0.470  0.4705E-02  0.4879E-02  0.6321E-01  0.6238E-01
     -0.423  0.5494E-02  0.4612E-02  0.6346E-01  0.6259E-01
     -0.377  0.6663E-02  0.4579E-02  0.6377E-01  0.6280E-01
     -0.331  0.7890E-02  0.4767E-02  0.6414E-01  0.6302E-01
     -0.285  0.8781E-02  0.5237E-02  0.6454E-01  0.6326E-01
     -0.239  0.8978E-02  0.6036E-02  0.6496E-01  0.6354E-01
     -0.192  0.8287E-02  0.7089E-02  0.6534E-01  0.6387E-01
     -0.146  0.6778E-02  0.8159E-02  0.6565E-01  0.6424E-01
     -0.100  0.4784E-02  0.8881E-02  0.6587E-01  0.6465E-01
     -0.054  0.2780E-02  0.8893E-02  0.6600E-01  0.6507E-01
     -0.008  0.1174E-02  0.8001E-02  0.6606E-01  0.6544E-01
      0.038  0.1617E-03  0.6316E-02  0.6606E-01  0.6573E-01
      0.085 -0.2999E-03  0.4235E-02  0.6605E-01  0.6592E-01
      0.131 -0.3911E-03  0.2267E-02  0.6603E-01  0.6603E-01
      0.177 -0.3093E-03  0.7949E-03  0.6602E-01  0.6606E-01
      0.223 -0.1910E-03 -0.5201E-04  0.6601E-01  0.6606E-01
      0.269 -0.9857E-04 -0.3767E-03  0.6600E-01  0.6604E-01
      0.316 -0.4373E-04 -0.3879E-03  0.6600E-01  0.6603E-01
      0.362 -0.1692E-04 -0.2770E-03  0.6600E-01  0.6601E-01
      0.408 -0.5754E-05 -0.1593E-03  0.6600E-01  0.6601E-01
      0.454 -0.1730E-05 -0.7744E-04  0.6600E-01  0.6600E-01
      0.500 -0.4615E-06 -0.3254E-04  0.6600E-01  0.6600E-01
      0.546 -0.1095E-06 -0.1197E-04  0.6600E-01  0.6600E-01
      0.593 -0.2314E-07 -0.3877E-05  0.6600E-01  0.6600E-01
      0.639 -0.4363E-08 -0.1112E-05  0.6600E-01  0.6600E-01
      0.685 -0.7346E-09 -0.2833E-06  0.6600E-01  0.6600E-01
      0.731 -0.1106E-09 -0.6424E-07  0.6600E-01  0.6600E-01
      0.777 -0.1489E-10 -0.1299E-07  0.6600E-01  0.6600E-01
      0.824 -0.1794E-11 -0.2344E-08  0.6600E-01  0.6600E-01
      0.870 -0.1935E-12 -0.3781E-09  0.6600E-01  0.6600E-01
      0.916 -0.1870E-13 -0.5453E-10  0.6600E-01  0.6600E-01
      0.962 -0.1620E-14 -0.7037E-11  0.6600E-01  0.6600E-01
      1.008 -0.1250E-15 -0.8132E-12  0.6600E-01  0.6600E-01
      1.054 -0.9617E-17 -0.8416E-13  0.6600E-01  0.6600E-01
      1.101  0.0000E+00 -0.7809E-14  0.6600E-01  0.6600E-01
      1.147  0.0000E+00 -0.6443E-15  0.6600E-01  0.6600E-01
      1.193  0.0000E+00 -0.4808E-16  0.6600E-01  0.6600E-01
      1.239  0.0000E+00 -0.4808E-17  0.6600E-01  0.6600E-01
      1.285  0.0000E+00  0.0000E+00  0.6600E-01  0.6600E-01
      1.332  0.0000E+00  0.0000E+00  0.6600E-01  0.6600E-01
      1.378  0.0000E+00  0.0000E+00  0.6600E-01  0.6600E-01
      1.424  0.0000E+00  0.0000E+00  0.6600E-01  0.6600E-01
      1.470  0.0000E+00  0.0000E+00  0.6600E-01  0.6600E-01
      1.516  0.0000E+00  0.0000E+00  0.6600E-01  0.6600E-01
      1.562  0.0000E+00  0.0000E+00  0.6600E-01  0.6600E-01
      1.609  0.0000E+00  0.0000E+00  0.6600E-01  0.6600E-01
      1.655  0.0000E+00  0.0000E+00  0.6600E-01  0.6600E-01
      1.701  0.0000E+00  0.0000E+00  0.6600E-01  0.6600E-01
      1.747  0.0000E+00  0.0000E+00  0.6600E-01  0.6600E-01
      1.793  0.0000E+00  0.0000E+00  0.6600E-01  0.6600E-01
      1.839  0.0000E+00  0.0000E+00  0.6600E-01  0.6600E-01
      1.886  0.0000E+00  0.0000E+00  0.6600E-01  0.6600E-01
      1.932  0.0000E+00  0.0000E+00  0.6600E-01  0.6600E-01
      1.978  0.0000E+00  0.0000E+00  0.6600E-01  0.6600E-01
