   10   10 1000    2
  0.1213273E+04  0.2386530E-08  0.2231731E-08  0.2277980E-08  0.5000000E-15
   1.0000000000000000E-004
  CAR 
 unknown system                          
    100      1     66
 
  0.1262379E-14  0.1262379E-14  0.1262379E-14  0.1000000E+01
    1       -9.875929     -9.790000   1.000000   1.000000
    2       -8.454745     -8.144250   1.000000   1.000000
    3       -8.365905     -7.983123   1.000000   1.000000
    4       -8.002270     -7.564492   1.000000   1.000000
    5       -7.840856     -7.305895   1.000000   1.000000
    6       -7.796359     -7.228923   1.000000   1.000000
    7       -7.669439     -7.068177   1.000000   1.000000
    8       -7.440585     -6.946672   1.000000   1.000000
    9       -7.406410     -6.837913   1.000000   1.000000
   10       -7.228313     -6.682040   1.000000   1.000000
   11       -7.221599     -6.664119   1.000000   1.000000
   12       -7.108445     -6.378405   1.000000   1.000000
   13       -7.082471     -6.363664   1.000000   1.000000
   14       -6.993363     -6.317559   1.000000   1.000000
   15       -6.897742     -6.268213   1.000000   1.000000
   16       -6.868271     -6.204769   1.000000   1.000000
   17       -6.728644     -6.178945   1.000000   1.000000
   18       -6.716495     -6.174906   1.000000   1.000000
   19       -6.560523     -6.066898   1.000000   1.000000
   20       -6.486465     -5.986452   1.000000   1.000000
   21       -6.416474     -5.905125   1.000000   1.000000
   22       -6.149088     -5.634085   1.000000   1.000000
   23       -6.147764     -5.619547   1.000000   1.000000
   24       -6.084373     -5.504750   1.000000   1.000000
   25       -5.967412     -5.401413   1.000000   1.000000
   26       -5.901506     -5.396568   1.000000   1.000000
   27       -5.809876     -5.238313   1.000000   1.000000
   28       -5.750741     -5.217812   1.000000   1.000000
   29       -5.703478     -5.124326   1.000000   1.000000
   30       -5.679444     -5.060622   1.000000   1.000000
   31       -5.624720     -4.983432   1.000000   1.000000
   32       -5.575513     -4.964482   1.000000   1.000000
   33       -5.481613     -4.896733   1.000000   1.000000
   34       -5.475619     -4.800416   1.000000   1.000008
   35       -5.386523     -4.627305   1.000000   1.000922
   36       -5.334037     -4.600119   1.000000   1.001682
   37       -5.309773     -4.522921   1.000000   1.007284
   38       -5.268249     -4.476409   1.000000   1.014589
   39       -5.246730     -4.455031   1.000000   1.019028
   40       -5.170822     -4.421368   1.000000   1.026719
   41       -5.164242     -4.386315   1.000000   1.033563
   42       -5.098461     -4.380751   1.000000   1.034290
   43       -5.092989     -4.326505   1.000000   1.029297
   44       -5.070847     -4.244419   1.000000   0.935502
   45       -5.065771     -4.143727   1.000000   0.611056
   46       -5.030412     -4.130318   1.000000   0.555271
   47       -4.920056     -4.123412   1.000000   0.526167
   48       -4.876536     -4.035850   1.000001   0.185242
   49       -4.854373     -3.999809   1.000001   0.085868
   50       -4.811313     -3.943257   1.000005  -0.005821
   51       -4.753868     -3.886958   1.000032  -0.034542
   52       -4.676539     -3.816730   1.000278  -0.027541
   53       -4.673299     -3.748973   1.000302  -0.012896
   54       -4.453172     -3.697580   1.019439  -0.005746
   55       -2.985867     -2.666203  -0.000000  -0.000000
   56       -2.814626     -2.546614  -0.000000  -0.000000
   57       -2.627996     -2.386412  -0.000000  -0.000000
   58       -2.485502     -2.176832  -0.000000  -0.000000
   59       -2.331357     -2.073725  -0.000000  -0.000000
   60       -1.799991     -1.524585  -0.000000  -0.000000
   61       -0.913962     -0.744770  -0.000000  -0.000000
   62       -0.789012     -0.648686  -0.000000  -0.000000
   63       -0.627633     -0.441354  -0.000000  -0.000000
   64       -0.407320     -0.239271  -0.000000  -0.000000
   65       -0.273615     -0.095808  -0.000000  -0.000000
   66       -0.189807     -0.021971  -0.000000  -0.000000
