       N       E                     dE             d eps       ncg     rms          rms(c)
DAV:   1     0.730473276172E+03    0.73047E+03   -0.15864E+04   264   0.692E+02
DAV:   2     0.252612552668E+03   -0.47786E+03   -0.44343E+03   496   0.114E+02
DAV:   3     0.227694855603E+02   -0.22984E+03   -0.21557E+03   384   0.125E+02
DAV:   4    -0.371460596284E+02   -0.59916E+02   -0.53027E+02   424   0.569E+01
DAV:   5    -0.437044024354E+02   -0.65583E+01   -0.61664E+01   302   0.256E+01    0.265E+01
DAV:   6    -0.560745811131E+02   -0.12370E+02   -0.10357E+02   348   0.162E+02    0.509E+01
DAV:   7    -0.408890985418E+02    0.15185E+02   -0.44577E+01   356   0.682E+01    0.324E+01
DAV:   8    -0.395870857777E+02    0.13020E+01   -0.27582E+01   310   0.679E+01    0.301E+01
DAV:   9    -0.404762534551E+02   -0.88917E+00   -0.23299E+01   340   0.675E+01    0.358E+01
DAV:  10    -0.369416735894E+02    0.35346E+01   -0.14420E+01   350   0.561E+01    0.234E+01
DAV:  11    -0.367817164239E+02    0.15996E+00   -0.94377E+00   358   0.353E+01    0.210E+01
DAV:  12    -0.376205811570E+02   -0.83886E+00   -0.79610E+00   366   0.348E+01    0.330E+01
DAV:  13    -0.359374544616E+02    0.16831E+01   -0.66564E+00   340   0.280E+01    0.928E+00
DAV:  14    -0.364025288195E+02   -0.46507E+00   -0.12566E+00   372   0.172E+01    0.152E+01
DAV:  15    -0.360594410657E+02    0.34309E+00   -0.13484E+00   316   0.172E+01    0.503E+00
DAV:  16    -0.363052587823E+02   -0.24582E+00   -0.20933E-01   370   0.500E+00    0.410E+00
DAV:  17    -0.364215297081E+02   -0.11627E+00   -0.20907E-01   372   0.559E+00    0.270E+00
DAV:  18    -0.365732553171E+02   -0.15173E+00   -0.64112E-02   348   0.275E+00    0.293E+00
DAV:  19    -0.367187584444E+02   -0.14550E+00   -0.52723E-02   362   0.259E+00    0.199E+00
DAV:  20    -0.369031158268E+02   -0.18436E+00   -0.53828E-02   374   0.211E+00    0.153E+00
DAV:  21    -0.369998403987E+02   -0.96725E-01   -0.22853E-02   338   0.194E+00    0.130E+00
DAV:  22    -0.370766697058E+02   -0.76829E-01   -0.17014E-02   326   0.163E+00    0.914E-01
DAV:  23    -0.372251414115E+02   -0.14847E+00   -0.98316E-03   340   0.790E-01    0.495E-01
DAV:  24    -0.373181399833E+02   -0.92999E-01   -0.50193E-03   332   0.584E-01    0.338E-01
DAV:  25    -0.373892637793E+02   -0.71124E-01   -0.22076E-03   290   0.355E-01    0.245E-01
DAV:  26    -0.374697640280E+02   -0.80500E-01   -0.25968E-03   248   0.288E-01    0.160E-01
DAV:  27    -0.375471245875E+02   -0.77361E-01   -0.25972E-03   274   0.200E-01    0.177E-01
DAV:  28    -0.376032997701E+02   -0.56175E-01   -0.13923E-03   266   0.194E-01    0.730E-02
DAV:  29    -0.376469206324E+02   -0.43621E-01   -0.11213E-03   260   0.160E-01    0.113E-01
DAV:  30    -0.376708498206E+02   -0.23929E-01   -0.47249E-04   254   0.121E-01    0.576E-02
DAV:  31    -0.376862616140E+02   -0.15412E-01   -0.27325E-04   210   0.852E-02    0.952E-02
DAV:  32    -0.377003106027E+02   -0.14049E-01   -0.32447E-04   212   0.117E-01    0.483E-02
DAV:  33    -0.377085747790E+02   -0.82642E-02   -0.16147E-04   204   0.529E-02    0.515E-02
DAV:  34    -0.377127952427E+02   -0.42205E-02   -0.79391E-05   192   0.430E-02    0.360E-02
DAV:  35    -0.377156605822E+02   -0.28653E-02   -0.51590E-05   180   0.386E-02    0.292E-02
DAV:  36    -0.377174388946E+02   -0.17783E-02   -0.42885E-05   178   0.409E-02    0.123E-02
DAV:  37    -0.377182610485E+02   -0.82215E-03   -0.26720E-05   184   0.282E-02    0.879E-03
DAV:  38    -0.377193764460E+02   -0.11154E-02   -0.29612E-05   178   0.224E-02    0.141E-02
DAV:  39    -0.377198831820E+02   -0.50674E-03   -0.17203E-05   176   0.213E-02    0.527E-03
DAV:  40    -0.377202660070E+02   -0.38283E-03   -0.13222E-05   168   0.141E-02    0.756E-03
DAV:  41    -0.377206008597E+02   -0.33485E-03   -0.11002E-05   172   0.122E-02    0.331E-03
DAV:  42    -0.377208531262E+02   -0.25227E-03   -0.89035E-06   170   0.102E-02    0.623E-03
DAV:  43    -0.377209995423E+02   -0.14642E-03   -0.58117E-06   182   0.110E-02    0.221E-03
DAV:  44    -0.377211032895E+02   -0.10375E-03   -0.46368E-06   170   0.676E-03    0.245E-03
DAV:  45    -0.377211549106E+02   -0.51621E-04   -0.22301E-06   174   0.597E-03
   1 F= -.37721155E+02 E0= -.37725618E+02  d E =-.377212E+02  mag=     8.0541
       N       E                     dE             d eps       ncg     rms          rms(c)
DAV:   1    -0.377881574305E+02   -0.67054E-01   -0.29619E+01   264   0.197E+01    0.344E+00
DAV:   2    -0.396403986253E+02   -0.18522E+01   -0.85756E+00   358   0.374E+01    0.236E+01
DAV:   3    -0.378013157697E+02    0.18391E+01   -0.42112E+00   348   0.307E+01    0.777E+00
DAV:   4    -0.378066908236E+02   -0.53751E-02   -0.65951E-01   390   0.104E+01    0.445E+00
DAV:   5    -0.378242138099E+02   -0.17523E-01   -0.25429E-01   380   0.683E+00    0.283E+00
DAV:   6    -0.378424581933E+02   -0.18244E-01   -0.17553E-01   356   0.514E+00    0.343E+00
DAV:   7    -0.378194688979E+02    0.22989E-01   -0.47947E-02   332   0.368E+00    0.433E-01
DAV:   8    -0.378271307995E+02   -0.76619E-02   -0.12537E-02   388   0.114E+00    0.102E+00
DAV:   9    -0.378268367962E+02    0.29400E-03   -0.18474E-02   352   0.158E+00    0.993E-01
DAV:  10    -0.378263359271E+02    0.50087E-03   -0.59651E-03   382   0.998E-01    0.434E-01
DAV:  11    -0.378284785595E+02   -0.21426E-02   -0.73287E-03   360   0.119E+00    0.104E+00
DAV:  12    -0.378266140448E+02    0.18645E-02   -0.51454E-03   328   0.106E+00    0.463E-01
DAV:  13    -0.378274079384E+02   -0.79389E-03   -0.47849E-04   206   0.347E-01    0.245E-01
DAV:  14    -0.378277959886E+02   -0.38805E-03   -0.86161E-04   188   0.311E-01    0.202E-01
DAV:  15    -0.378279716687E+02   -0.17568E-03   -0.25035E-04   184   0.232E-01    0.390E-02
DAV:  16    -0.378281682975E+02   -0.19663E-03   -0.74953E-05   174   0.747E-02    0.803E-02
DAV:  17    -0.378282897019E+02   -0.12140E-03   -0.81848E-05   180   0.116E-01    0.316E-02
DAV:  18    -0.378283999220E+02   -0.11022E-03   -0.20886E-05   182   0.439E-02    0.171E-02
DAV:  19    -0.378284980643E+02   -0.98142E-04   -0.16580E-05   182   0.352E-02
   2 F= -.37828498E+02 E0= -.37834537E+02  d E =-.107343E+00  mag=     8.0510
       N       E                     dE             d eps       ncg     rms          rms(c)
DAV:   1    -0.378005860790E+02    0.27814E-01   -0.60332E+01   264   0.284E+01    0.473E+00
DAV:   2    -0.407406731414E+02   -0.29401E+01   -0.13514E+01   334   0.521E+01    0.275E+01
DAV:   3    -0.380214342812E+02    0.27192E+01   -0.55766E+00   332   0.385E+01    0.122E+01
DAV:   4    -0.378705559013E+02    0.15088E+00   -0.15574E+00   382   0.153E+01    0.579E+00
DAV:   5    -0.378862875330E+02   -0.15732E-01   -0.48675E-01   380   0.971E+00    0.404E+00
DAV:   6    -0.379191478988E+02   -0.32860E-01   -0.29650E-01   356   0.755E+00    0.460E+00
DAV:   7    -0.378769242894E+02    0.42224E-01   -0.75137E-02   342   0.513E+00    0.732E-01
DAV:   8    -0.378919001601E+02   -0.14976E-01   -0.36591E-02   396   0.225E+00    0.197E+00
DAV:   9    -0.378854044452E+02    0.64957E-02   -0.38831E-02   366   0.251E+00    0.852E-01
DAV:  10    -0.378886145135E+02   -0.32101E-02   -0.77179E-03   382   0.115E+00    0.739E-01
DAV:  11    -0.378903681780E+02   -0.17537E-02   -0.13717E-02   360   0.166E+00    0.128E+00
DAV:  12    -0.378874493191E+02    0.29189E-02   -0.83581E-03   344   0.142E+00    0.496E-01
DAV:  13    -0.378890987106E+02   -0.16494E-02   -0.99516E-04   304   0.439E-01    0.411E-01
DAV:  14    -0.378892962603E+02   -0.19755E-03   -0.13554E-03   228   0.480E-01    0.175E-01
DAV:  15    -0.378897028548E+02   -0.40659E-03   -0.21517E-04   184   0.186E-01    0.107E-01
DAV:  16    -0.378899037080E+02   -0.20085E-03   -0.16126E-04   176   0.158E-01    0.967E-02
DAV:  17    -0.378900867302E+02   -0.18302E-03   -0.69036E-05   182   0.111E-01    0.314E-02
DAV:  18    -0.378902484615E+02   -0.16173E-03   -0.28051E-05   182   0.387E-02    0.217E-02
DAV:  19    -0.378903785733E+02   -0.13011E-03   -0.16289E-05   182   0.327E-02    0.185E-02
DAV:  20    -0.378904621057E+02   -0.83532E-04   -0.78140E-06   168   0.214E-02
   3 F= -.37890462E+02 E0= -.37896058E+02  d E =-.169307E+00  mag=     8.0476
       N       E                     dE             d eps       ncg     rms          rms(c)
DAV:   1    -0.378917279188E+02   -0.13493E-02   -0.19200E+01   264   0.149E+01    0.127E+00
DAV:   2    -0.380288044151E+02   -0.13708E+00   -0.71640E-01   396   0.107E+01    0.692E+00
DAV:   3    -0.379204894512E+02    0.10831E+00   -0.33567E-01   340   0.970E+00    0.285E+00
DAV:   4    -0.379242775155E+02   -0.37881E-02   -0.11371E-01   364   0.531E+00    0.178E+00
DAV:   5    -0.379272946345E+02   -0.30171E-02   -0.49653E-02   360   0.357E+00    0.173E+00
DAV:   6    -0.379234006877E+02    0.38939E-02   -0.25505E-02   342   0.236E+00    0.118E+00
DAV:   7    -0.379218939981E+02    0.15067E-02   -0.82968E-03   364   0.134E+00    0.351E-01
DAV:   8    -0.379256347407E+02   -0.37407E-02   -0.58099E-03   382   0.947E-01    0.952E-01
DAV:   9    -0.379240346032E+02    0.16001E-02   -0.70322E-03   318   0.117E+00    0.510E-01
DAV:  10    -0.379249471617E+02   -0.91256E-03   -0.26390E-03   372   0.758E-01    0.417E-01
DAV:  11    -0.379248729978E+02    0.74164E-04   -0.21154E-03   294   0.668E-01    0.327E-01
DAV:  12    -0.379251345843E+02   -0.26159E-03   -0.64007E-04   212   0.409E-01    0.132E-01
DAV:  13    -0.379253402284E+02   -0.20564E-03   -0.10557E-04   184   0.147E-01    0.800E-02
DAV:  14    -0.379254404252E+02   -0.10020E-03   -0.66464E-05   184   0.910E-02    0.295E-02
DAV:  15    -0.379255710584E+02   -0.13063E-03   -0.36821E-05   184   0.552E-02    0.211E-02
DAV:  16    -0.379256566613E+02   -0.85603E-04   -0.18318E-05   168   0.386E-02
   4 F= -.37925657E+02 E0= -.37929166E+02  d E =-.351946E-01  mag=     8.0458
       N       E                     dE             d eps       ncg     rms          rms(c)
DAV:   1    -0.378852952583E+02    0.40276E-01   -0.33358E+01   264   0.197E+01    0.168E+00
DAV:   2    -0.381136157781E+02   -0.22832E+00   -0.14049E+00   396   0.142E+01    0.822E+00
DAV:   3    -0.379499179293E+02    0.16370E+00   -0.47896E-01   348   0.129E+01    0.395E+00
DAV:   4    -0.379407688437E+02    0.91491E-02   -0.16234E-01   356   0.714E+00    0.238E+00
DAV:   5    -0.379477246030E+02   -0.69558E-02   -0.86938E-02   356   0.467E+00    0.237E+00
DAV:   6    -0.379398140588E+02    0.79105E-02   -0.52657E-02   332   0.322E+00    0.145E+00
DAV:   7    -0.379379992072E+02    0.18149E-02   -0.14697E-02   340   0.182E+00    0.458E-01
DAV:   8    -0.379421518818E+02   -0.41527E-02   -0.50356E-03   372   0.798E-01    0.648E-01
DAV:   9    -0.379431965724E+02   -0.10447E-02   -0.90631E-03   320   0.137E+00    0.106E+00
DAV:  10    -0.379415070278E+02    0.16895E-02   -0.59552E-03   364   0.120E+00    0.185E-01
DAV:  11    -0.379427350412E+02   -0.12280E-02   -0.89796E-04   268   0.354E-01    0.217E-01
DAV:  12    -0.379429987602E+02   -0.26372E-03   -0.13817E-03   240   0.519E-01    0.385E-01
DAV:  13    -0.379427492266E+02    0.24953E-03   -0.89117E-04   182   0.380E-01    0.489E-02
DAV:  14    -0.379430920379E+02   -0.34281E-03   -0.94870E-05   190   0.905E-02    0.358E-02
DAV:  15    -0.379432312088E+02   -0.13917E-03   -0.35238E-05   176   0.518E-02    0.201E-02
DAV:  16    -0.379433550139E+02   -0.12381E-03   -0.23107E-05   176   0.473E-02    0.272E-02
DAV:  17    -0.379434604556E+02   -0.10544E-03   -0.12953E-05   174   0.383E-02    0.109E-02
DAV:  18    -0.379435537495E+02   -0.93294E-04   -0.97627E-06   176   0.211E-02
   5 F= -.37943554E+02 E0= -.37945170E+02  d E =-.530916E-01  mag=     8.0446
       N       E                     dE             d eps       ncg     rms          rms(c)
DAV:   1    -0.379402600772E+02    0.32004E-02   -0.47616E+00   264   0.800E+00    0.795E-01
DAV:   2    -0.379908897499E+02   -0.50630E-01   -0.16082E-01   390   0.527E+00    0.565E+00
DAV:   3    -0.379285628741E+02    0.62327E-01   -0.14172E-01   316   0.615E+00    0.132E+00
DAV:   4    -0.379516480916E+02   -0.23085E-01   -0.31540E-02   380   0.250E+00    0.147E+00
DAV:   5    -0.379479923829E+02    0.36557E-02   -0.18565E-02   366   0.203E+00    0.823E-01
DAV:   6    -0.379477240926E+02    0.26829E-03   -0.46900E-03   348   0.113E+00    0.382E-01
DAV:   7    -0.379486892153E+02   -0.96512E-03   -0.25447E-03   366   0.882E-01    0.466E-01
DAV:   8    -0.379492510542E+02   -0.56184E-03   -0.27806E-03   340   0.769E-01    0.612E-01
DAV:   9    -0.379492346400E+02    0.16414E-04   -0.44361E-03   294   0.809E-01    0.726E-01
DAV:  10    -0.379486720580E+02    0.56258E-03   -0.31164E-03   276   0.727E-01    0.150E-01
DAV:  11    -0.379496709390E+02   -0.99888E-03   -0.73971E-04   212   0.391E-01    0.362E-01
DAV:  12    -0.379493029961E+02    0.36794E-03   -0.53160E-04   188   0.358E-01    0.171E-01
DAV:  13    -0.379494518753E+02   -0.14888E-03   -0.15040E-04   180   0.162E-01    0.322E-02
DAV:  14    -0.379496131816E+02   -0.16131E-03   -0.33992E-05   174   0.492E-02    0.304E-02
DAV:  15    -0.379496422880E+02   -0.29106E-04   -0.10850E-05   174   0.373E-02
   6 F= -.37949642E+02 E0= -.37949082E+02  d E =-.608854E-02  mag=     8.0431
       N       E                     dE             d eps       ncg     rms          rms(c)
DAV:   1    -0.379496610027E+02   -0.47821E-04   -0.78626E-03   278   0.327E-01    0.313E-02
DAV:   2    -0.379496742163E+02   -0.13214E-04   -0.14192E-04   166   0.158E-01
   7 F= -.37949674E+02 E0= -.37949139E+02  d E =-.612047E-02  mag=     8.0429
       N       E                     dE             d eps       ncg     rms          rms(c)
DAV:   1    -0.379487627690E+02    0.89823E-03   -0.20473E+00   264   0.504E+00    0.408E-01
DAV:   2    -0.379567297212E+02   -0.79670E-02   -0.44742E-02   396   0.256E+00    0.192E+00
DAV:   3    -0.379506947591E+02    0.60350E-02   -0.36599E-02   334   0.297E+00    0.108E+00
DAV:   4    -0.379530828330E+02   -0.23881E-02   -0.18045E-02   372   0.167E+00    0.108E+00
DAV:   5    -0.379507383184E+02    0.23445E-02   -0.67324E-03   340   0.144E+00    0.281E-01
DAV:   6    -0.379519291405E+02   -0.11908E-02   -0.19172E-03   314   0.630E-01    0.351E-01
DAV:   7    -0.379517691119E+02    0.16003E-03   -0.14746E-03   254   0.489E-01    0.183E-01
DAV:   8    -0.379521051621E+02   -0.33605E-03   -0.53776E-04   180   0.341E-01    0.240E-01
DAV:   9    -0.379520751690E+02    0.29993E-04   -0.82224E-04   228   0.432E-01
   8 F= -.37952075E+02 E0= -.37951074E+02  d E =-.240095E-02  mag=     8.0424
       N       E                     dE             d eps       ncg     rms          rms(c)
DAV:   1    -0.379477157330E+02    0.43894E-02   -0.31163E+00   264   0.623E+00    0.492E-01
DAV:   2    -0.379569516239E+02   -0.92359E-02   -0.61462E-02   396   0.290E+00    0.179E+00
DAV:   3    -0.379514126044E+02    0.55390E-02   -0.30372E-02   324   0.330E+00    0.979E-01
DAV:   4    -0.379540546278E+02   -0.26420E-02   -0.19826E-02   380   0.185E+00    0.113E+00
DAV:   5    -0.379518259715E+02    0.22287E-02   -0.12212E-02   356   0.141E+00    0.480E-01
DAV:   6    -0.379524282129E+02   -0.60224E-03   -0.33452E-03   330   0.785E-01    0.412E-01
DAV:   7    -0.379524478806E+02   -0.19668E-04   -0.19138E-03   276   0.615E-01    0.240E-01
DAV:   8    -0.379527950747E+02   -0.34719E-03   -0.71326E-04   212   0.394E-01    0.252E-01
DAV:   9    -0.379528931127E+02   -0.98038E-04   -0.15234E-03   244   0.509E-01    0.331E-01
DAV:  10    -0.379527910061E+02    0.10211E-03   -0.71580E-04   188   0.353E-01    0.745E-02
DAV:  11    -0.379531341401E+02   -0.34313E-03   -0.38236E-04   192   0.282E-01    0.242E-01
DAV:  12    -0.379529964058E+02    0.13773E-03   -0.33024E-04   184   0.272E-01    0.796E-02
DAV:  13    -0.379531091576E+02   -0.11275E-03   -0.45988E-05   174   0.819E-02    0.367E-02
DAV:  14    -0.379531595843E+02   -0.50427E-04   -0.19204E-05   174   0.355E-02
   9 F= -.37953160E+02 E0= -.37951528E+02  d E =-.348537E-02  mag=     8.0417
       N       E                     dE             d eps       ncg     rms          rms(c)
DAV:   1    -0.379532546600E+02   -0.14550E-03   -0.98737E-01   264   0.347E+00    0.263E-01
DAV:   2    -0.379560904869E+02   -0.28358E-02   -0.18647E-02   396   0.160E+00    0.105E+00
DAV:   3    -0.379538656477E+02    0.22248E-02   -0.91849E-03   316   0.180E+00    0.481E-01
DAV:   4    -0.379556935981E+02   -0.18280E-02   -0.77995E-03   380   0.106E+00    0.844E-01
DAV:   5    -0.379539960412E+02    0.16976E-02   -0.44831E-03   300   0.859E-01    0.186E-01
DAV:   6    -0.379547448792E+02   -0.74884E-03   -0.69125E-04   210   0.394E-01    0.187E-01
DAV:   7    -0.379547194975E+02    0.25382E-04   -0.38040E-04   172   0.265E-01
  10 F= -.37954719E+02 E0= -.37953022E+02  d E =-.155991E-02  mag=     8.0416
       N       E                     dE             d eps       ncg     rms          rms(c)
DAV:   1    -0.379424272198E+02    0.12318E-01   -0.89080E+00   264   0.104E+01    0.785E-01
DAV:   2    -0.379734388925E+02   -0.31012E-01   -0.19122E-01   396   0.486E+00    0.325E+00
DAV:   3    -0.379535133388E+02    0.19926E-01   -0.92283E-02   324   0.549E+00    0.167E+00
DAV:   4    -0.379636711577E+02   -0.10158E-01   -0.64714E-02   372   0.333E+00    0.215E+00
DAV:   5    -0.379541948971E+02    0.94763E-02   -0.30177E-02   340   0.266E+00    0.538E-01
DAV:   6    -0.379567602920E+02   -0.25654E-02   -0.57836E-03   364   0.107E+00    0.453E-01
DAV:   7    -0.379568691758E+02   -0.10888E-03   -0.38647E-03   318   0.741E-01    0.415E-01
DAV:   8    -0.379578152194E+02   -0.94604E-03   -0.30529E-03   356   0.748E-01    0.601E-01
DAV:   9    -0.379573063367E+02    0.50888E-03   -0.30728E-03   276   0.788E-01    0.394E-01
DAV:  10    -0.379574804793E+02   -0.17414E-03   -0.12735E-03   252   0.458E-01    0.124E-01
DAV:  11    -0.379579038488E+02   -0.42337E-03   -0.68374E-04   198   0.362E-01    0.317E-01
DAV:  12    -0.379576867860E+02    0.21706E-03   -0.42357E-04   180   0.335E-01    0.131E-01
DAV:  13    -0.379578629147E+02   -0.17613E-03   -0.10178E-04   180   0.159E-01    0.410E-02
DAV:  14    -0.379580046095E+02   -0.14169E-03   -0.38049E-05   182   0.637E-02    0.174E-02
DAV:  15    -0.379580928455E+02   -0.88236E-04   -0.19540E-05   182   0.349E-02
  11 F= -.37958093E+02 E0= -.37956454E+02  d E =-.493326E-02  mag=     8.0412
       N       E                     dE             d eps       ncg     rms          rms(c)
DAV:   1    -0.379586498604E+02   -0.64525E-03   -0.38056E-01   264   0.218E+00    0.183E-01
DAV:   2    -0.379593291783E+02   -0.67932E-03   -0.88686E-03   396   0.809E-01    0.561E-01
DAV:   3    -0.379594029165E+02   -0.73738E-04   -0.85680E-03   324   0.114E+00    0.674E-01
DAV:   4    -0.379588987024E+02    0.50421E-03   -0.39755E-03   366   0.829E-01    0.281E-01
DAV:   5    -0.379591033677E+02   -0.20467E-03   -0.10432E-03   252   0.502E-01    0.216E-01
DAV:   6    -0.379592678161E+02   -0.16445E-03   -0.75759E-04   188   0.370E-01    0.202E-01
DAV:   7    -0.379592249553E+02    0.42861E-04   -0.36998E-04   166   0.296E-01
  12 F= -.37959225E+02 E0= -.37957546E+02  d E =-.113211E-02  mag=     8.0411
       N       E                     dE             d eps       ncg     rms          rms(c)
DAV:   1    -0.379590439052E+02    0.22391E-03   -0.38765E-01   264   0.222E+00    0.235E-01
DAV:   2    -0.379638251943E+02   -0.47813E-02   -0.21020E-02   404   0.184E+00    0.167E+00
DAV:   3    -0.379571084777E+02    0.67167E-02   -0.17661E-02   316   0.199E+00    0.348E-01
DAV:   4    -0.379600292876E+02   -0.29208E-02   -0.35170E-03   338   0.844E-01    0.541E-01
DAV:   5    -0.379592748576E+02    0.75443E-03   -0.21459E-03   294   0.717E-01    0.216E-01
DAV:   6    -0.379595348219E+02   -0.25996E-03   -0.67747E-04   220   0.406E-01    0.218E-01
DAV:   7    -0.379596264037E+02   -0.91582E-04   -0.53369E-04   180   0.340E-01
  13 F= -.37959626E+02 E0= -.37958142E+02  d E =-.153356E-02  mag=     8.0410
       N       E                     dE             d eps       ncg     rms          rms(c)
DAV:   1    -0.379595512339E+02   -0.16412E-04   -0.51430E-01   264   0.259E+00    0.263E-01
DAV:   2    -0.379652936788E+02   -0.57424E-02   -0.23276E-02   406   0.205E+00    0.179E+00
DAV:   3    -0.379574749457E+02    0.78187E-02   -0.22941E-02   316   0.220E+00    0.384E-01
DAV:   4    -0.379612718153E+02   -0.37969E-02   -0.54694E-03   364   0.101E+00    0.818E-01
DAV:   5    -0.379596591562E+02    0.16127E-02   -0.33491E-03   292   0.870E-01    0.241E-01
DAV:   6    -0.379602510771E+02   -0.59192E-03   -0.45350E-04   226   0.401E-01    0.142E-01
DAV:   7    -0.379604427099E+02   -0.19163E-03   -0.43805E-04   182   0.270E-01    0.174E-01
DAV:   8    -0.379604654024E+02   -0.22692E-04   -0.39505E-04   164   0.281E-01
  14 F= -.37960465E+02 E0= -.37959360E+02  d E =-.838999E-03  mag=     8.0409
       N       E                     dE             d eps       ncg     rms          rms(c)
DAV:   1    -0.379592529200E+02    0.11898E-02   -0.90490E-01   264   0.342E+00    0.302E-01
DAV:   2    -0.379667258916E+02   -0.74730E-02   -0.40583E-02   396   0.212E+00    0.216E+00
DAV:   3    -0.379566307777E+02    0.10095E-01   -0.34497E-02   332   0.230E+00    0.378E-01
DAV:   4    -0.379620755360E+02   -0.54448E-02   -0.70104E-03   372   0.115E+00    0.982E-01
DAV:   5    -0.379598066201E+02    0.22689E-02   -0.46610E-03   284   0.101E+00    0.167E-01
DAV:   6    -0.379607011573E+02   -0.89454E-03   -0.72421E-04   250   0.402E-01    0.234E-01
DAV:   7    -0.379607338746E+02   -0.32717E-04   -0.84457E-04   198   0.398E-01
  15 F= -.37960734E+02 E0= -.37960271E+02  d E =-.110747E-02  mag=     8.0409
       N       E                     dE             d eps       ncg     rms          rms(c)
DAV:   1    -0.379604317599E+02    0.26940E-03   -0.69406E-01   264   0.287E+00    0.357E-01
DAV:   2    -0.379816726482E+02   -0.21241E-01   -0.67113E-02   398   0.381E+00    0.355E+00
DAV:   3    -0.379531408059E+02    0.28532E-01   -0.74477E-02   340   0.361E+00    0.649E-01
DAV:   4    -0.379609347569E+02   -0.77940E-02   -0.73754E-03   380   0.129E+00    0.543E-01
DAV:   5    -0.379612933368E+02   -0.35858E-03   -0.32761E-03   344   0.868E-01    0.346E-01
DAV:   6    -0.379613546471E+02   -0.61310E-04   -0.12305E-03   254   0.556E-01    0.223E-01
DAV:   7    -0.379613704673E+02   -0.15820E-04   -0.59289E-04   180   0.340E-01
  16 F= -.37961370E+02 E0= -.37961333E+02  d E =-.636593E-03  mag=     8.0409
       N       E                     dE             d eps       ncg     rms          rms(c)
DAV:   1    -0.379592005506E+02    0.21541E-02   -0.14738E+00   264   0.415E+00    0.359E-01
DAV:   2    -0.379735243120E+02   -0.14324E-01   -0.62154E-02   398   0.290E+00    0.291E+00
DAV:   3    -0.379554505681E+02    0.18074E-01   -0.50627E-02   316   0.305E+00    0.487E-01
DAV:   4    -0.379629697189E+02   -0.75192E-02   -0.11341E-02   372   0.131E+00    0.101E+00
DAV:   5    -0.379608204541E+02    0.21493E-02   -0.60007E-03   356   0.112E+00    0.233E-01
DAV:   6    -0.379615659783E+02   -0.74552E-03   -0.12075E-03   278   0.531E-01    0.363E-01
DAV:   7    -0.379614806888E+02    0.85290E-04   -0.14416E-03   244   0.500E-01    0.216E-01
DAV:   8    -0.379617691945E+02   -0.28851E-03   -0.52647E-04   204   0.427E-01    0.280E-01
DAV:   9    -0.379617175318E+02    0.51663E-04   -0.57549E-04   268   0.430E-01
  17 F= -.37961718E+02 E0= -.37962255E+02  d E =-.983657E-03  mag=     8.0409
