<?xml version="1.0" encoding="ISO-8859-1"?>
<modeling>
 <generator>
  <i name="program" type="string">vasp </i>
  <i name="version" type="string">6.1.2  </i>
  <i name="subversion" type="string">22Jul20 (build Aug  2 2021 21:04:21) gamma-only                       parallel </i>
  <i name="platform" type="string">LinuxPGI </i>
  <i name="date" type="string">2021 12 22 </i>
  <i name="time" type="string">03:25:20 </i>
 </generator>
 <incar>
  <i type="int" name="ISPIN">     2</i>
  <i type="int" name="IBRION">     2</i>
  <i type="int" name="NSW">  1000</i>
  <i type="int" name="ISIF">     0</i>
  <i type="int" name="ISYM">     0</i>
  <i name="ENCUT">    400.00000000</i>
  <i type="logical" name="LREAL"> F  </i>
  <i type="int" name="ISMEAR">     1</i>
  <i name="SIGMA">      0.20000000</i>
  <i type="logical" name="LWAVE"> F  </i>
  <i type="logical" name="LCHARG"> F  </i>
  <i type="int" name="KPAR">     1</i>
  <i type="int" name="NCORE">     8</i>
  <i type="string" name="GGA"> PE</i>
  <i type="int" name="ISPIN">     2</i>
 </incar>
 <structure name="primitive_cell" >
  <crystal>
   <varray name="basis" >
    <v>      23.86529926       0.00000000       0.00000000 </v>
    <v>       0.00000000      22.31730700       0.00000000 </v>
    <v>       0.00000000       0.00000000      22.77980485 </v>
   </varray>
   <i name="volume">  12132.73386945 </i>
   <varray name="rec_basis" >
    <v>       0.04190184       0.00000000       0.00000000 </v>
    <v>       0.00000000       0.04480827       0.00000000 </v>
    <v>       0.00000000       0.00000000       0.04389853 </v>
   </varray>
  </crystal>
  <varray name="positions" >
   <v>       0.45835211       0.48169263       0.55636937 </v>
   <v>       0.52963928       0.40370423       0.54540952 </v>
   <v>       0.49710578       0.58020545       0.53048943 </v>
   <v>       0.53367243       0.48732882       0.47655655 </v>
   <v>       0.59509367       0.57067842       0.50154707 </v>
   <v>       0.43900187       0.52462056       0.45697849 </v>
   <v>       0.55913874       0.50457044       0.58186375 </v>
   <v>       0.45546682       0.41402850       0.47013888 </v>
   <v>       0.39577063       0.56826511       0.54473919 </v>
   <v>       0.52268765       0.58448480       0.42482424 </v>
  </varray>
 </structure>
 <varray name="primitive_index" >
  <v type="int" >        1 </v>
  <v type="int" >        2 </v>
  <v type="int" >        3 </v>
  <v type="int" >        4 </v>
  <v type="int" >        5 </v>
  <v type="int" >        6 </v>
  <v type="int" >        7 </v>
  <v type="int" >        8 </v>
  <v type="int" >        9 </v>
  <v type="int" >       10 </v>
 </varray>
 <kpoints>
  <generation param="Gamma">
   <v type="int" name="divisions">       1        1        1 </v>
   <v name="usershift">      0.00000000       0.00000000       0.00000000 </v>
   <v name="genvec1">      1.00000000       0.00000000       0.00000000 </v>
   <v name="genvec2">      0.00000000       1.00000000       0.00000000 </v>
   <v name="genvec3">      0.00000000       0.00000000       1.00000000 </v>
   <v name="shift">      0.00000000       0.00000000       0.00000000 </v>
  </generation>
  <varray name="kpointlist" >
   <v>       0.00000000       0.00000000       0.00000000 </v>
  </varray>
  <varray name="weights" >
   <v>       1.00000000 </v>
  </varray>
 </kpoints>
 <parameters>
  <separator name="general" >
   <i type="string" name="SYSTEM">unknown system</i>
   <i type="logical" name="LCOMPAT"> F  </i>
  </separator>
  <separator name="electronic" >
   <i type="string" name="PREC">normal</i>
   <i name="ENMAX">    400.00000000</i>
   <i name="ENAUG">    544.56500000</i>
   <i name="EDIFF">      0.00010000</i>
   <i type="int" name="IALGO">    38</i>
   <i type="int" name="IWAVPR">    11</i>
   <i type="int" name="NBANDS">    66</i>
   <i type="int" name="NBANDSLOW">    -1</i>
   <i type="int" name="NBANDSHIGH">    -1</i>
   <i name="NELECT">    100.00000000</i>
   <i type="int" name="TURBO">     0</i>
   <i type="int" name="IRESTART">     0</i>
   <i type="int" name="NREBOOT">     0</i>
   <i type="int" name="NMIN">     0</i>
   <i name="EREF">      0.00000000</i>
   <separator name="electronic smearing" >
    <i type="int" name="ISMEAR">     1</i>
    <i name="SIGMA">      0.20000000</i>
    <i name="KSPACING">      0.50000000</i>
    <i type="logical" name="KGAMMA"> T  </i>
    <i type="logical" name="KBLOWUP"> T  </i>
   </separator>
   <separator name="electronic projectors" >
    <i type="logical" name="LREAL"> F  </i>
    <v name="ROPT">      0.00000000      0.00000000</v>
    <i type="int" name="LMAXPAW">  -100</i>
    <i type="int" name="LMAXMIX">     2</i>
    <i type="logical" name="NLSPLINE"> F  </i>
   </separator>
   <separator name="electronic startup" >
    <i type="int" name="ISTART">     0</i>
    <i type="int" name="ICHARG">     2</i>
    <i type="int" name="INIWAV">     1</i>
   </separator>
   <separator name="electronic spin" >
    <i type="int" name="ISPIN">     2</i>
    <i type="logical" name="LNONCOLLINEAR"> F  </i>
    <v name="MAGMOM">      1.00000000      1.00000000      1.00000000      1.00000000      1.00000000      1.00000000      1.00000000      1.00000000      1.00000000      1.00000000</v>
    <i name="NUPDOWN">     -1.00000000</i>
    <i type="logical" name="LSORBIT"> F  </i>
    <v name="SAXIS">      0.00000000      0.00000000      1.00000000</v>
    <i type="logical" name="LSPIRAL"> F  </i>
    <v name="QSPIRAL">      0.00000000      0.00000000      0.00000000</v>
    <i type="logical" name="LZEROZ"> F  </i>
   </separator>
   <separator name="electronic exchange-correlation" >
    <i type="logical" name="LASPH"> F  </i>
    <i type="logical" name="LMETAGGA"> F  </i>
   </separator>
   <separator name="electronic convergence" >
    <i type="int" name="NELM">    60</i>
    <i type="int" name="NELMDL">     0</i>
    <i type="int" name="NELMIN">     2</i>
    <i name="ENINI">    400.00000000</i>
    <separator name="electronic convergence detail" >
     <i type="logical" name="LDIAG"> T  </i>
     <i type="logical" name="LSUBROT"> F  </i>
     <i name="WEIMIN">      0.00100000</i>
     <i name="EBREAK">      0.00000038</i>
     <i name="DEPER">      0.30000000</i>
     <i type="int" name="NRMM">     4</i>
     <i name="TIME">      0.40000000</i>
    </separator>
   </separator>
   <separator name="electronic mixer" >
    <i name="AMIX">      0.40000000</i>
    <i name="BMIX">      1.00000000</i>
    <i name="AMIN">      0.10000000</i>
    <i name="AMIX_MAG">      1.60000000</i>
    <i name="BMIX_MAG">      1.00000000</i>
    <separator name="electronic mixer details" >
     <i type="int" name="IMIX">     4</i>
     <i type="logical" name="MIXFIRST"> F  </i>
     <i type="int" name="MAXMIX">   -45</i>
     <i name="WC">    100.00000000</i>
     <i type="int" name="INIMIX">     1</i>
     <i type="int" name="MIXPRE">     1</i>
     <i type="int" name="MREMOVE">     5</i>
    </separator>
   </separator>
   <separator name="electronic dipolcorrection" >
    <i type="logical" name="LDIPOL"> F  </i>
    <i type="logical" name="LMONO"> F  </i>
    <i type="int" name="IDIPOL">     0</i>
    <i name="EPSILON">      1.00000000</i>
    <v name="DIPOL">   -100.00000000   -100.00000000   -100.00000000</v>
    <i name="EFIELD">      0.00000000</i>
   </separator>
  </separator>
  <separator name="grids" >
   <i type="int" name="NGX">   120</i>
   <i type="int" name="NGY">   112</i>
   <i type="int" name="NGZ">   112</i>
   <i type="int" name="NGXF">   240</i>
   <i type="int" name="NGYF">   224</i>
   <i type="int" name="NGZF">   224</i>
   <i type="logical" name="ADDGRID"> F  </i>
  </separator>
  <separator name="ionic" >
   <i type="int" name="NSW">  1000</i>
   <i type="int" name="IBRION">     2</i>
   <i type="int" name="MDALGO">     0</i>
   <i type="int" name="ISIF">     0</i>
   <i name="PSTRESS">      0.00000000</i>
   <i name="EDIFFG">      0.00100000</i>
   <i type="int" name="NFREE">     1</i>
   <i name="POTIM">      0.50000000</i>
   <i name="SMASS">     -3.00000000</i>
   <i name="SCALEE">      1.00000000</i>
  </separator>
  <separator name="ionic md" >
   <i name="TEBEG">      0.00010000</i>
   <i name="TEEND">      0.00010000</i>
   <i type="int" name="NBLOCK">     1</i>
   <i type="int" name="KBLOCK">  1000</i>
   <i type="int" name="NPACO">   256</i>
   <i name="APACO">     16.00000000</i>
  </separator>
  <separator name="symmetry" >
   <i type="int" name="ISYM">     0</i>
   <i name="SYMPREC">      0.00001000</i>
  </separator>
  <separator name="dos" >
   <i type="int" name="LORBIT">     0</i>
   <v name="RWIGS">     -1.00000000     -1.00000000</v>
   <i type="int" name="NEDOS">   301</i>
   <i name="EMIN">     10.00000000</i>
   <i name="EMAX">    -10.00000000</i>
   <i name="EFERMI">      0.00000000</i>
  </separator>
  <separator name="writing" >
   <i type="int" name="NWRITE">     2</i>
   <i type="logical" name="LWAVE"> F  </i>
   <i type="logical" name="LDOWNSAMPLE"> F  </i>
   <i type="logical" name="LCHARG"> F  </i>
   <i type="logical" name="LPARD"> F  </i>
   <i type="logical" name="LVTOT"> F  </i>
   <i type="logical" name="LVHAR"> F  </i>
   <i type="logical" name="LELF"> F  </i>
   <i type="logical" name="LOPTICS"> F  </i>
   <v name="STM">      0.00000000      0.00000000      0.00000000      0.00000000      0.00000000      0.00000000      0.00000000</v>
  </separator>
  <separator name="performance" >
   <i type="int" name="NPAR">     2</i>
   <i type="int" name="NSIM">     4</i>
   <i type="int" name="NBLK">    -1</i>
   <i type="logical" name="LPLANE"> T  </i>
   <i type="logical" name="LSCALAPACK"> T  </i>
   <i type="logical" name="LSCAAWARE"> F  </i>
   <i type="logical" name="LSCALU"> F  </i>
   <i type="logical" name="LASYNC"> F  </i>
   <i type="logical" name="LORBITALREAL"> F  </i>
  </separator>
  <separator name="miscellaneous" >
   <i type="int" name="IDIOT">     3</i>
   <i type="int" name="PHON_NSTRUCT">    -1</i>
   <i type="logical" name="LMUSIC"> F  </i>
   <v name="POMASS">     58.69000000    106.42000000</v>
   <v name="DARWINR">      0.00000000      0.00000000</v>
   <v name="DARWINV">      1.00000000      1.00000000</v>
   <i type="logical" name="LCORR"> T  </i>
  </separator>
  <i type="logical" name="GGA_COMPAT"> T  </i>
  <i type="logical" name="LBERRY"> F  </i>
  <i type="int" name="ICORELEVEL">     0</i>
  <i type="logical" name="LDAU"> F  </i>
  <i type="int" name="I_CONSTRAINED_M">     0</i>
  <separator name="electronic exchange-correlation" >
   <i type="string" name="GGA">PE</i>
   <i type="int" name="VOSKOWN">     0</i>
   <i type="logical" name="LHFCALC"> F  </i>
   <i type="string" name="PRECFOCK"></i>
   <i type="logical" name="LSYMGRAD"> F  </i>
   <i type="logical" name="LHFONE"> F  </i>
   <i type="logical" name="LRHFCALC"> F  </i>
   <i type="logical" name="LTHOMAS"> F  </i>
   <i type="logical" name="LMODELHF"> F  </i>
   <i type="logical" name="LFOCKACE"> F  </i>
   <i name="ENCUT4O">     -1.00000000</i>
   <i type="int" name="EXXOEP">     0</i>
   <i type="int" name="FOURORBIT">     0</i>
   <i name="AEXX">      0.00000000</i>
   <i name="HFALPHA">      0.00000000</i>
   <i name="MCALPHA">      0.00000000</i>
   <i name="ALDAX">      1.00000000</i>
   <i name="AGGAX">      1.00000000</i>
   <i name="ALDAC">      1.00000000</i>
   <i name="AGGAC">      1.00000000</i>
   <i type="int" name="NKREDX">     1</i>
   <i type="int" name="NKREDY">     1</i>
   <i type="int" name="NKREDZ">     1</i>
   <i type="logical" name="SHIFTRED"> F  </i>
   <i type="logical" name="ODDONLY"> F  </i>
   <i type="logical" name="EVENONLY"> F  </i>
   <i type="int" name="LMAXFOCK">     0</i>
   <i type="int" name="NMAXFOCKAE">     0</i>
   <i type="logical" name="LFOCKAEDFT"> F  </i>
   <i name="HFSCREEN">      0.00000000</i>
   <i name="HFSCREENC">      0.00000000</i>
   <i type="int" name="NBANDSGWLOW">     0</i>
  </separator>
  <separator name="vdW DFT" >
   <i type="logical" name="LUSE_VDW"> F  </i>
   <i name="Zab_VDW">     -0.84910000</i>
   <i name="PARAM1">      0.12340000</i>
   <i name="PARAM2">      1.00000000</i>
   <i name="PARAM3">      0.00000000</i>
  </separator>
  <separator name="model GW" >
   <i type="int" name="MODEL_GW">     0</i>
   <i name="MODEL_EPS0">    727.96403217</i>
   <i name="MODEL_ALPHA">      1.00000000</i>
  </separator>
  <separator name="linear response parameters" >
   <i type="logical" name="LEPSILON"> F  </i>
   <i type="logical" name="LRPA"> F  </i>
   <i type="logical" name="LNABLA"> F  </i>
   <i type="logical" name="LVEL"> F  </i>
   <i type="int" name="KINTER">     0</i>
   <i name="CSHIFT">      0.10000000</i>
   <i name="OMEGAMAX">     -1.00000000</i>
   <i name="DEG_THRESHOLD">      0.00200000</i>
   <i name="RTIME">     -0.10000000</i>
   <i name="WPLASMAI">      0.00000000</i>
   <v name="DFIELD">      0.00000000      0.00000000      0.00000000</v>
   <v name="WPLASMA">      0.00000000      0.00000000      0.00000000      0.00000000      0.00000000      0.00000000      0.00000000      0.00000000      0.00000000</v>
  </separator>
  <separator name="orbital magnetization" >
   <i type="logical" name="NUCIND"> F  </i>
   <v name="MAGPOS">      0.00000000      0.00000000      0.00000000</v>
   <i type="logical" name="LNICSALL"> T  </i>
   <i type="logical" name="ORBITALMAG"> F  </i>
   <i type="logical" name="LMAGBLOCH"> F  </i>
   <i type="logical" name="LCHIMAG"> F  </i>
   <i type="logical" name="LGAUGE"> T  </i>
   <i type="int" name="MAGATOM">     0</i>
   <v name="MAGDIPOL">      0.00000000      0.00000000      0.00000000</v>
   <v name="AVECCONST">      0.00000000      0.00000000      0.00000000</v>
  </separator>
  <separator name="response functions" >
   <i type="logical" name="LFINITE_TEMPERATURE"> F  </i>
   <i type="logical" name="LADDER"> F  </i>
   <i type="logical" name="LRPAFORCE"> F  </i>
   <i type="logical" name="LFXC"> F  </i>
   <i type="logical" name="LHARTREE"> T  </i>
   <i type="int" name="IBSE">     0</i>
   <v type="int" name="KPOINT">    -1     0     0     0</v>
   <i type="logical" name="LTCTC"> F  </i>
   <i type="logical" name="LTCTE"> F  </i>
   <i type="logical" name="LTETE"> F  </i>
   <i type="logical" name="LTRIPLET"> F  </i>
   <i type="logical" name="LFXCEPS"> F  </i>
   <i type="logical" name="LFXHEG"> F  </i>
   <i type="int" name="NATURALO">     2</i>
   <i type="logical" name="LHOLEGF"> F  </i>
   <i type="logical" name="L2ORDER"> F  </i>
   <i type="logical" name="LDMP1"> F  </i>
   <i type="logical" name="LMP2LT"> F  </i>
   <i type="logical" name="LSMP2LT"> F  </i>
   <i type="logical" name="LGWLF"> F  </i>
   <i name="ENCUTGW">     -2.00000000</i>
   <i name="ENCUTGWSOFT">     -2.00000000</i>
   <i name="ENCUTLF">     -1.00000000</i>
   <i type="logical" name="LESF_SPLINES"> F  </i>
   <i type="int" name="LMAXMP2">    -1</i>
   <i name="SCISSOR">      0.00000000</i>
   <i type="int" name="NOMEGA">     0</i>
   <i type="int" name="NOMEGAR">     0</i>
   <i type="int" name="NBANDSGW">    -1</i>
   <i type="int" name="NBANDSO">    -1</i>
   <i type="int" name="NBANDSV">    -1</i>
   <i type="int" name="NELM">     1</i>
   <i type="int" name="NELMHF">     1</i>
   <i type="int" name="DIM">     3</i>
   <i type="int" name="IESPILON">     4</i>
   <i type="int" name="ANTIRES">     0</i>
   <i name="OMEGAMAX">    -30.00000000</i>
   <i name="OMEGAMIN">    -30.00000000</i>
   <i name="OMEGATL">   -200.00000000</i>
   <i type="int" name="OMEGAGRID">     0</i>
   <i name="CSHIFT">     -0.10000000</i>
   <i type="logical" name="LSELFENERGY"> F  </i>
   <i type="logical" name="LSPECTRAL"> F  </i>
   <i type="logical" name="LSPECTRALGW"> F  </i>
   <i type="logical" name="LSINGLES"> F  </i>
   <i type="logical" name="LFERMIGW"> F  </i>
   <i type="logical" name="ODDONLYGW"> F  </i>
   <i type="logical" name="EVENONLYGW"> F  </i>
   <i type="int" name="NKREDLFX">     1</i>
   <i type="int" name="NKREDLFY">     1</i>
   <i type="int" name="NKREDLFZ">     1</i>
   <i type="int" name="MAXMEM">  2800</i>
   <i type="int" name="TELESCOPE">     0</i>
   <i type="int" name="NTAUPAR">    -1</i>
   <i type="int" name="NOMEGAPAR">    -1</i>
   <i name="LAMBDA">      1.00000000</i>
  </separator>
  <separator name="External order field" >
   <i name="OFIELD_KAPPA">      0.00000000</i>
   <v name="OFIELD_K">      0.00000000      0.00000000      0.00000000</v>
   <i name="OFIELD_Q6_NEAR">      0.00000000</i>
   <i name="OFIELD_Q6_FAR">      0.00000000</i>
   <i name="OFIELD_A">      0.00000000</i>
  </separator>
 </parameters>
 <atominfo>
  <atoms>      10 </atoms>
  <types>       2 </types>
  <array name="atoms" >
   <dimension dim="1">ion</dimension>
   <field type="string">element</field>
   <field type="int">atomtype</field>
   <set>
    <rc><c>Ni</c><c>   1</c></rc>
    <rc><c>Ni</c><c>   1</c></rc>
    <rc><c>Ni</c><c>   1</c></rc>
    <rc><c>Ni</c><c>   1</c></rc>
    <rc><c>Ni</c><c>   1</c></rc>
    <rc><c>Ni</c><c>   1</c></rc>
    <rc><c>Pd</c><c>   2</c></rc>
    <rc><c>Pd</c><c>   2</c></rc>
    <rc><c>Pd</c><c>   2</c></rc>
    <rc><c>Pd</c><c>   2</c></rc>
   </set>
  </array>
  <array name="atomtypes" >
   <dimension dim="1">type</dimension>
   <field type="int">atomspertype</field>
   <field type="string">element</field>
   <field>mass</field>
   <field>valence</field>
   <field type="string">pseudopotential</field>
   <set>
    <rc><c>   6</c><c>Ni</c><c>     58.69000000</c><c>     10.00000000</c><c>  PAW_PBE Ni 02Aug2007                  </c></rc>
    <rc><c>   4</c><c>Pd</c><c>    106.42000000</c><c>     10.00000000</c><c>  PAW_PBE Pd 04Jan2005                  </c></rc>
   </set>
  </array>
 </atominfo>
 <structure name="initialpos" >
  <crystal>
   <varray name="basis" >
    <v>      23.86529926       0.00000000       0.00000000 </v>
    <v>       0.00000000      22.31730700       0.00000000 </v>
    <v>       0.00000000       0.00000000      22.77980485 </v>
   </varray>
   <i name="volume">  12132.73386945 </i>
   <varray name="rec_basis" >
    <v>       0.04190184       0.00000000       0.00000000 </v>
    <v>       0.00000000       0.04480827       0.00000000 </v>
    <v>       0.00000000       0.00000000       0.04389853 </v>
   </varray>
  </crystal>
  <varray name="positions" >
   <v>       0.45835211       0.48169263       0.55636937 </v>
   <v>       0.52963928       0.40370423       0.54540952 </v>
   <v>       0.49710578       0.58020545       0.53048943 </v>
   <v>       0.53367243       0.48732882       0.47655655 </v>
   <v>       0.59509367       0.57067842       0.50154707 </v>
   <v>       0.43900187       0.52462056       0.45697849 </v>
   <v>       0.55913874       0.50457044       0.58186375 </v>
   <v>       0.45546682       0.41402850       0.47013888 </v>
   <v>       0.39577063       0.56826511       0.54473919 </v>
   <v>       0.52268765       0.58448480       0.42482424 </v>
  </varray>
 </structure>
 <calculation>
  <scstep>
   <time name="dav">    5.40    5.41</time>
   <time name="total">    7.79    7.80</time>
   <energy>
    <i name="alphaZ">      4.67081296 </i>
    <i name="ewald">  12774.83335218 </i>
    <i name="hartreedc"> -21753.79799850 </i>
    <i name="XCdc">     62.71554370 </i>
    <i name="pawpsdc">   9003.59075477 </i>
    <i name="pawaedc">  -9155.75339974 </i>
    <i name="eentropy">     -0.01359227 </i>
    <i name="bandstr">     89.26920998 </i>
    <i name="atom">   9704.95859309 </i>
    <i name="e_fr_energy">    730.47327617 </i>
    <i name="e_wo_entrp">    730.48686844 </i>
    <i name="e_0_energy">    730.47780693 </i>
   </energy>
  </scstep>
  <scstep>
   <time name="dav">    8.77    8.78</time>
   <time name="total">    8.78    8.79</time>
   <energy>
    <i name="e_fr_energy">    252.61255267 </i>
    <i name="e_wo_entrp">    252.61972167 </i>
    <i name="e_0_energy">    252.61494234 </i>
   </energy>
  </scstep>
  <scstep>
   <time name="dav">    7.13    7.14</time>
   <time name="total">    7.14    7.14</time>
   <energy>
    <i name="e_fr_energy">     22.76948556 </i>
    <i name="e_wo_entrp">     22.78265313 </i>
    <i name="e_0_energy">     22.77387475 </i>
   </energy>
  </scstep>
  <scstep>
   <time name="dav">    7.69    7.69</time>
   <time name="total">    7.69    7.70</time>
   <energy>
    <i name="e_fr_energy">    -37.14605963 </i>
    <i name="e_wo_entrp">    -37.13377810 </i>
    <i name="e_0_energy">    -37.14196579 </i>
   </energy>
  </scstep>
  <scstep>
   <time name="dav">    5.90    5.91</time>
   <time name="total">    6.55    6.56</time>
   <energy>
    <i name="e_fr_energy">    -43.70440244 </i>
    <i name="e_wo_entrp">    -43.67867777 </i>
    <i name="e_0_energy">    -43.69582755 </i>
   </energy>
  </scstep>
  <scstep>
   <time name="dav">    6.62    6.62</time>
   <time name="total">    9.64    9.65</time>
   <energy>
    <i name="e_fr_energy">    -56.07458111 </i>
    <i name="e_wo_entrp">    -56.04060911 </i>
    <i name="e_0_energy">    -56.06325711 </i>
   </energy>
  </scstep>
  <scstep>
   <time name="dav">    6.69    6.69</time>
   <time name="total">    9.71    9.72</time>
   <energy>
    <i name="e_fr_energy">    -40.88909854 </i>
    <i name="e_wo_entrp">    -40.82237827 </i>
    <i name="e_0_energy">    -40.86685845 </i>
   </energy>
  </scstep>
  <scstep>
   <time name="dav">    7.53    7.54</time>
   <time name="total">   10.56   10.57</time>
   <energy>
    <i name="e_fr_energy">    -39.58708578 </i>
    <i name="e_wo_entrp">    -39.55985674 </i>
    <i name="e_0_energy">    -39.57800943 </i>
   </energy>
  </scstep>
  <scstep>
   <time name="dav">    6.50    6.51</time>
   <time name="total">    9.54    9.55</time>
   <energy>
    <i name="e_fr_energy">    -40.47625346 </i>
    <i name="e_wo_entrp">    -40.46847046 </i>
    <i name="e_0_energy">    -40.47365912 </i>
   </energy>
  </scstep>
  <scstep>
   <time name="dav">    6.65    6.66</time>
   <time name="total">    9.68    9.70</time>
   <energy>
    <i name="e_fr_energy">    -36.94167359 </i>
    <i name="e_wo_entrp">    -36.94791945 </i>
    <i name="e_0_energy">    -36.94375554 </i>
   </energy>
  </scstep>
  <scstep>
   <time name="dav">    6.81    6.82</time>
   <time name="total">    9.86    9.87</time>
   <energy>
    <i name="e_fr_energy">    -36.78171642 </i>
    <i name="e_wo_entrp">    -36.76893657 </i>
    <i name="e_0_energy">    -36.77745647 </i>
   </energy>
  </scstep>
  <scstep>
   <time name="dav">    6.92    6.93</time>
   <time name="total">    9.94    9.96</time>
   <energy>
    <i name="e_fr_energy">    -37.62058116 </i>
    <i name="e_wo_entrp">    -37.66766736 </i>
    <i name="e_0_energy">    -37.63627656 </i>
   </energy>
  </scstep>
  <scstep>
   <time name="dav">    6.62    6.63</time>
   <time name="total">    9.65    9.67</time>
   <energy>
    <i name="e_fr_energy">    -35.93745446 </i>
    <i name="e_wo_entrp">    -35.93347651 </i>
    <i name="e_0_energy">    -35.93612848 </i>
   </energy>
  </scstep>
  <scstep>
   <time name="dav">    6.98    6.98</time>
   <time name="total">   10.02   10.04</time>
   <energy>
    <i name="e_fr_energy">    -36.40252882 </i>
    <i name="e_wo_entrp">    -36.41970471 </i>
    <i name="e_0_energy">    -36.40825412 </i>
   </energy>
  </scstep>
  <scstep>
   <time name="dav">    6.17    6.18</time>
   <time name="total">    9.21    9.23</time>
   <energy>
    <i name="e_fr_energy">    -36.05944107 </i>
    <i name="e_wo_entrp">    -36.04285206 </i>
    <i name="e_0_energy">    -36.05391140 </i>
   </energy>
  </scstep>
  <scstep>
   <time name="dav">    6.95    6.96</time>
   <time name="total">   10.00   10.01</time>
   <energy>
    <i name="e_fr_energy">    -36.30525878 </i>
    <i name="e_wo_entrp">    -36.32179586 </i>
    <i name="e_0_energy">    -36.31077114 </i>
   </energy>
  </scstep>
  <scstep>
   <time name="dav">    6.96    6.97</time>
   <time name="total">   10.04   10.06</time>
   <energy>
    <i name="e_fr_energy">    -36.42152971 </i>
    <i name="e_wo_entrp">    -36.42749884 </i>
    <i name="e_0_energy">    -36.42351942 </i>
   </energy>
  </scstep>
  <scstep>
   <time name="dav">    6.62    6.63</time>
   <time name="total">    9.70    9.71</time>
   <energy>
    <i name="e_fr_energy">    -36.57325532 </i>
    <i name="e_wo_entrp">    -36.57478246 </i>
    <i name="e_0_energy">    -36.57376436 </i>
   </energy>
  </scstep>
  <scstep>
   <time name="dav">    6.84    6.85</time>
   <time name="total">    9.94    9.95</time>
   <energy>
    <i name="e_fr_energy">    -36.71875844 </i>
    <i name="e_wo_entrp">    -36.72539473 </i>
    <i name="e_0_energy">    -36.72097054 </i>
   </energy>
  </scstep>
  <scstep>
   <time name="dav">    7.02    7.03</time>
   <time name="total">   10.12   10.14</time>
   <energy>
    <i name="e_fr_energy">    -36.90311583 </i>
    <i name="e_wo_entrp">    -36.91717060 </i>
    <i name="e_0_energy">    -36.90780075 </i>
   </energy>
  </scstep>
  <scstep>
   <time name="dav">    6.45    6.46</time>
   <time name="total">    9.57    9.59</time>
   <energy>
    <i name="e_fr_energy">    -36.99984040 </i>
    <i name="e_wo_entrp">    -37.01281927 </i>
    <i name="e_0_energy">    -37.00416669 </i>
   </energy>
  </scstep>
  <scstep>
   <time name="dav">    6.28    6.29</time>
   <time name="total">    9.38    9.39</time>
   <energy>
    <i name="e_fr_energy">    -37.07666971 </i>
    <i name="e_wo_entrp">    -37.08415888 </i>
    <i name="e_0_energy">    -37.07916610 </i>
   </energy>
  </scstep>
  <scstep>
   <time name="dav">    6.47    6.48</time>
   <time name="total">    9.59    9.60</time>
   <energy>
    <i name="e_fr_energy">    -37.22514141 </i>
    <i name="e_wo_entrp">    -37.23548471 </i>
    <i name="e_0_energy">    -37.22858918 </i>
   </energy>
  </scstep>
  <scstep>
   <time name="dav">    6.67    6.68</time>
   <time name="total">    9.79    9.80</time>
   <energy>
    <i name="e_fr_energy">    -37.31813998 </i>
    <i name="e_wo_entrp">    -37.33110828 </i>
    <i name="e_0_energy">    -37.32246275 </i>
   </energy>
  </scstep>
  <scstep>
   <time name="dav">    5.75    5.75</time>
   <time name="total">    8.88    8.89</time>
   <energy>
    <i name="e_fr_energy">    -37.38926378 </i>
    <i name="e_wo_entrp">    -37.40178386 </i>
    <i name="e_0_energy">    -37.39343714 </i>
   </energy>
  </scstep>
  <scstep>
   <time name="dav">    5.17    5.17</time>
   <time name="total">    8.32    8.33</time>
   <energy>
    <i name="e_fr_energy">    -37.46976403 </i>
    <i name="e_wo_entrp">    -37.48279911 </i>
    <i name="e_0_energy">    -37.47410906 </i>
   </energy>
  </scstep>
  <scstep>
   <time name="dav">    5.53    5.53</time>
   <time name="total">    8.68    8.69</time>
   <energy>
    <i name="e_fr_energy">    -37.54712459 </i>
    <i name="e_wo_entrp">    -37.56073306 </i>
    <i name="e_0_energy">    -37.55166074 </i>
   </energy>
  </scstep>
  <scstep>
   <time name="dav">    5.43    5.43</time>
   <time name="total">    8.58    8.59</time>
   <energy>
    <i name="e_fr_energy">    -37.60329977 </i>
    <i name="e_wo_entrp">    -37.61660664 </i>
    <i name="e_0_energy">    -37.60773540 </i>
   </energy>
  </scstep>
  <scstep>
   <time name="dav">    5.31    5.32</time>
   <time name="total">    8.47    8.48</time>
   <energy>
    <i name="e_fr_energy">    -37.64692063 </i>
    <i name="e_wo_entrp">    -37.66039128 </i>
    <i name="e_0_energy">    -37.65141085 </i>
   </energy>
  </scstep>
  <scstep>
   <time name="dav">    5.26    5.27</time>
   <time name="total">    8.44    8.46</time>
   <energy>
    <i name="e_fr_energy">    -37.67084982 </i>
    <i name="e_wo_entrp">    -37.68421034 </i>
    <i name="e_0_energy">    -37.67530333 </i>
   </energy>
  </scstep>
  <scstep>
   <time name="dav">    6.47    6.66</time>
   <time name="total">   11.37   12.09</time>
   <energy>
    <i name="e_fr_energy">    -37.68626161 </i>
    <i name="e_wo_entrp">    -37.69970828 </i>
    <i name="e_0_energy">    -37.69074384 </i>
   </energy>
  </scstep>
  <scstep>
   <time name="dav">    4.64    4.64</time>
   <time name="total">    7.85    7.87</time>
   <energy>
    <i name="e_fr_energy">    -37.70031060 </i>
    <i name="e_wo_entrp">    -37.71348576 </i>
    <i name="e_0_energy">    -37.70470232 </i>
   </energy>
  </scstep>
  <scstep>
   <time name="dav">    4.53    4.54</time>
   <time name="total">    7.76    7.77</time>
   <energy>
    <i name="e_fr_energy">    -37.70857478 </i>
    <i name="e_wo_entrp">    -37.72172991 </i>
    <i name="e_0_energy">    -37.71295982 </i>
   </energy>
  </scstep>
  <scstep>
   <time name="dav">    4.35    4.35</time>
   <time name="total">    7.60    7.61</time>
   <energy>
    <i name="e_fr_energy">    -37.71279524 </i>
    <i name="e_wo_entrp">    -37.72602365 </i>
    <i name="e_0_energy">    -37.71720471 </i>
   </energy>
  </scstep>
  <scstep>
   <time name="dav">    4.18    4.19</time>
   <time name="total">    7.44    7.45</time>
   <energy>
    <i name="e_fr_energy">    -37.71566058 </i>
    <i name="e_wo_entrp">    -37.72896251 </i>
    <i name="e_0_energy">    -37.72009456 </i>
   </energy>
  </scstep>
  <scstep>
   <time name="dav">    5.38    5.39</time>
   <time name="total">    8.64    8.65</time>
   <energy>
    <i name="e_fr_energy">    -37.71743889 </i>
    <i name="e_wo_entrp">    -37.73087109 </i>
    <i name="e_0_energy">    -37.72191629 </i>
   </energy>
  </scstep>
  <scstep>
   <time name="dav">    4.23    4.24</time>
   <time name="total">    7.51    7.52</time>
   <energy>
    <i name="e_fr_energy">    -37.71826105 </i>
    <i name="e_wo_entrp">    -37.73164711 </i>
    <i name="e_0_energy">    -37.72272307 </i>
   </energy>
  </scstep>
  <scstep>
   <time name="dav">    4.14    4.15</time>
   <time name="total">    7.43    7.44</time>
   <energy>
    <i name="e_fr_energy">    -37.71937645 </i>
    <i name="e_wo_entrp">    -37.73278460 </i>
    <i name="e_0_energy">    -37.72384583 </i>
   </energy>
  </scstep>
  <scstep>
   <time name="dav">    4.12    4.13</time>
   <time name="total">    7.41    7.42</time>
   <energy>
    <i name="e_fr_energy">    -37.71988318 </i>
    <i name="e_wo_entrp">    -37.73326200 </i>
    <i name="e_0_energy">    -37.72434279 </i>
   </energy>
  </scstep>
  <scstep>
   <time name="dav">    3.98    3.99</time>
   <time name="total">    7.30    7.31</time>
   <energy>
    <i name="e_fr_energy">    -37.72026601 </i>
    <i name="e_wo_entrp">    -37.73365329 </i>
    <i name="e_0_energy">    -37.72472844 </i>
   </energy>
  </scstep>
  <scstep>
   <time name="dav">    4.07    4.07</time>
   <time name="total">    7.39    7.41</time>
   <energy>
    <i name="e_fr_energy">    -37.72060086 </i>
    <i name="e_wo_entrp">    -37.73398223 </i>
    <i name="e_0_energy">    -37.72506132 </i>
   </energy>
  </scstep>
  <scstep>
   <time name="dav">    4.02    4.03</time>
   <time name="total">    7.38    7.39</time>
   <energy>
    <i name="e_fr_energy">    -37.72085313 </i>
    <i name="e_wo_entrp">    -37.73424459 </i>
    <i name="e_0_energy">    -37.72531695 </i>
   </energy>
  </scstep>
  <scstep>
   <time name="dav">    4.20    4.21</time>
   <time name="total">    7.58    7.59</time>
   <energy>
    <i name="e_fr_energy">    -37.72099954 </i>
    <i name="e_wo_entrp">    -37.73438104 </i>
    <i name="e_0_energy">    -37.72546004 </i>
   </energy>
  </scstep>
  <scstep>
   <time name="dav">    4.02    4.02</time>
   <time name="total">    7.41    7.42</time>
   <energy>
    <i name="e_fr_energy">    -37.72110329 </i>
    <i name="e_wo_entrp">    -37.73449017 </i>
    <i name="e_0_energy">    -37.72556558 </i>
   </energy>
  </scstep>
  <scstep>
   <time name="dav">    4.09    4.10</time>
   <time name="total">    6.46    6.47</time>
   <energy>
    <i name="alphaZ">      4.67081296 </i>
    <i name="ewald">  12774.83335218 </i>
    <i name="hartreedc"> -21827.57824984 </i>
    <i name="XCdc">     60.01225788 </i>
    <i name="pawpsdc">  10061.99507935 </i>
    <i name="pawaedc"> -10226.36966176 </i>
    <i name="eentropy">      0.01338959 </i>
    <i name="bandstr">   -590.25672836 </i>
    <i name="atom">   9704.95859309 </i>
    <i name="e_fr_energy">    -37.72115491 </i>
    <i name="e_wo_entrp">    -37.73454451 </i>
    <i name="e_0_energy">    -37.72561811 </i>
   </energy>
  </scstep>
  <structure>
   <crystal>
    <varray name="basis" >
     <v>      23.86529926       0.00000000       0.00000000 </v>
     <v>       0.00000000      22.31730700       0.00000000 </v>
     <v>       0.00000000       0.00000000      22.77980485 </v>
    </varray>
    <i name="volume">  12132.73386945 </i>
    <varray name="rec_basis" >
     <v>       0.04190184       0.00000000       0.00000000 </v>
     <v>       0.00000000       0.04480827       0.00000000 </v>
     <v>       0.00000000       0.00000000       0.04389853 </v>
    </varray>
   </crystal>
   <varray name="positions" >
    <v>       0.45835211       0.48169263       0.55636937 </v>
    <v>       0.52963928       0.40370423       0.54540952 </v>
    <v>       0.49710578       0.58020545       0.53048943 </v>
    <v>       0.53367243       0.48732882       0.47655655 </v>
    <v>       0.59509367       0.57067842       0.50154707 </v>
    <v>       0.43900187       0.52462056       0.45697849 </v>
    <v>       0.55913874       0.50457044       0.58186375 </v>
    <v>       0.45546682       0.41402850       0.47013888 </v>
    <v>       0.39577063       0.56826511       0.54473919 </v>
    <v>       0.52268765       0.58448480       0.42482424 </v>
   </varray>
  </structure>
  <varray name="forces" >
   <v>       0.07686998      -0.08589748      -0.14432067 </v>
   <v>      -0.37712017       0.87868890      -0.29525515 </v>
   <v>       0.10316477      -0.07318552      -0.16037852 </v>
   <v>       0.11372703      -0.04109953       0.06659500 </v>
   <v>      -0.90582542      -0.40134143       0.04362717 </v>
   <v>       0.01570489       0.08939963       0.39346846 </v>
   <v>       0.35072365      -0.05876112       0.29302187 </v>
   <v>       0.11057965      -0.10040077      -0.00940879 </v>
   <v>       0.36250753      -0.20720377      -0.17404976 </v>
   <v>       0.14966808      -0.00019892      -0.01329961 </v>
  </varray>
  <energy>
   <i name="e_fr_energy">    -37.72115491 </i>
   <i name="e_wo_entrp">    -37.73454451 </i>
   <i name="e_0_energy">    -37.72561811 </i>
  </energy>
  <time name="totalsc">  401.25  402.51</time>
 </calculation>
 <calculation>
  <scstep>
   <time name="dav">    5.37    5.37</time>
   <time name="total">    8.37    8.38</time>
   <energy>
    <i name="alphaZ">      4.67081296 </i>
    <i name="ewald">  12891.25974890 </i>
    <i name="hartreedc"> -21942.69485480 </i>
    <i name="XCdc">     60.30359747 </i>
    <i name="pawpsdc">  10061.99937178 </i>
    <i name="pawaedc"> -10226.37384741 </i>
    <i name="eentropy">      0.02725490 </i>
    <i name="bandstr">   -591.93883431 </i>
    <i name="atom">   9704.95859309 </i>
    <i name="e_fr_energy">    -37.78815743 </i>
    <i name="e_wo_entrp">    -37.81541233 </i>
    <i name="e_0_energy">    -37.79724240 </i>
   </energy>
  </scstep>
  <scstep>
   <time name="dav">    6.77    6.78</time>
   <time name="total">    9.70    9.71</time>
   <energy>
    <i name="e_fr_energy">    -39.64039863 </i>
    <i name="e_wo_entrp">    -39.60286822 </i>
    <i name="e_0_energy">    -39.62788849 </i>
   </energy>
  </scstep>
  <scstep>
   <time name="dav">    6.62    6.63</time>
   <time name="total">    9.58    9.59</time>
   <energy>
    <i name="e_fr_energy">    -37.80131577 </i>
    <i name="e_wo_entrp">    -37.80112373 </i>
    <i name="e_0_energy">    -37.80125176 </i>
   </energy>
  </scstep>
  <scstep>
   <time name="dav">    7.39    7.40</time>
   <time name="total">   10.38   10.39</time>
   <energy>
    <i name="e_fr_energy">    -37.80669082 </i>
    <i name="e_wo_entrp">    -37.81933311 </i>
    <i name="e_0_energy">    -37.81090492 </i>
   </energy>
  </scstep>
  <scstep>
   <time name="dav">    7.10    7.11</time>
   <time name="total">   10.11   10.12</time>
   <energy>
    <i name="e_fr_energy">    -37.82421381 </i>
    <i name="e_wo_entrp">    -37.83226303 </i>
    <i name="e_0_energy">    -37.82689688 </i>
   </energy>
  </scstep>
  <scstep>
   <time name="dav">    6.73    6.74</time>
   <time name="total">    9.73    9.74</time>
   <energy>
    <i name="e_fr_energy">    -37.84245819 </i>
    <i name="e_wo_entrp">    -37.87273226 </i>
    <i name="e_0_energy">    -37.85254955 </i>
   </energy>
  </scstep>
  <scstep>
   <time name="dav">    6.38    6.38</time>
   <time name="total">    9.40    9.41</time>
   <energy>
    <i name="e_fr_energy">    -37.81946890 </i>
    <i name="e_wo_entrp">    -37.83766448 </i>
    <i name="e_0_energy">    -37.82553409 </i>
   </energy>
  </scstep>
  <scstep>
   <time name="dav">    7.21    7.22</time>
   <time name="total">   10.22   10.23</time>
   <energy>
    <i name="e_fr_energy">    -37.82713080 </i>
    <i name="e_wo_entrp">    -37.84383828 </i>
    <i name="e_0_energy">    -37.83269996 </i>
   </energy>
  </scstep>
  <scstep>
   <time name="dav">    6.65    6.66</time>
   <time name="total">    9.67    9.69</time>
   <energy>
    <i name="e_fr_energy">    -37.82683680 </i>
    <i name="e_wo_entrp">    -37.84384613 </i>
    <i name="e_0_energy">    -37.83250658 </i>
   </energy>
  </scstep>
  <scstep>
   <time name="dav">    7.08    7.09</time>
   <time name="total">   10.10   10.12</time>
   <energy>
    <i name="e_fr_energy">    -37.82633593 </i>
    <i name="e_wo_entrp">    -37.84475630 </i>
    <i name="e_0_energy">    -37.83247605 </i>
   </energy>
  </scstep>
  <scstep>
   <time name="dav">    6.76    6.77</time>
   <time name="total">    9.78    9.80</time>
   <energy>
    <i name="e_fr_energy">    -37.82847856 </i>
    <i name="e_wo_entrp">    -37.84746407 </i>
    <i name="e_0_energy">    -37.83480706 </i>
   </energy>
  </scstep>
  <scstep>
   <time name="dav">    6.33    6.33</time>
   <time name="total">    9.37    9.38</time>
   <energy>
    <i name="e_fr_energy">    -37.82661404 </i>
    <i name="e_wo_entrp">    -37.84637878 </i>
    <i name="e_0_energy">    -37.83320229 </i>
   </energy>
  </scstep>
  <scstep>
   <time name="dav">    4.56    4.56</time>
   <time name="total">    7.60    7.61</time>
   <energy>
    <i name="e_fr_energy">    -37.82740794 </i>
    <i name="e_wo_entrp">    -37.84575904 </i>
    <i name="e_0_energy">    -37.83352497 </i>
   </energy>
  </scstep>
  <scstep>
   <time name="dav">    4.27    4.27</time>
   <time name="total">    7.32    7.33</time>
   <energy>
    <i name="e_fr_energy">    -37.82779599 </i>
    <i name="e_wo_entrp">    -37.84479422 </i>
    <i name="e_0_energy">    -37.83346206 </i>
   </energy>
  </scstep>
  <scstep>
   <time name="dav">    4.23    4.24</time>
   <time name="total">    7.31    7.32</time>
   <energy>
    <i name="e_fr_energy">    -37.82797167 </i>
    <i name="e_wo_entrp">    -37.84590218 </i>
    <i name="e_0_energy">    -37.83394851 </i>
   </energy>
  </scstep>
  <scstep>
   <time name="dav">    4.08    4.08</time>
   <time name="total">    7.14    7.15</time>
   <energy>
    <i name="e_fr_energy">    -37.82816830 </i>
    <i name="e_wo_entrp">    -37.84639945 </i>
    <i name="e_0_energy">    -37.83424535 </i>
   </energy>
  </scstep>
  <scstep>
   <time name="dav">    4.14    4.15</time>
   <time name="total">    7.24    7.25</time>
   <energy>
    <i name="e_fr_energy">    -37.82828970 </i>
    <i name="e_wo_entrp">    -37.84637055 </i>
    <i name="e_0_energy">    -37.83431665 </i>
   </energy>
  </scstep>
  <scstep>
   <time name="dav">    4.19    4.19</time>
   <time name="total">    7.29    7.30</time>
   <energy>
    <i name="e_fr_energy">    -37.82839992 </i>
    <i name="e_wo_entrp">    -37.84657136 </i>
    <i name="e_0_energy">    -37.83445707 </i>
   </energy>
  </scstep>
  <scstep>
   <time name="dav">    4.19    4.19</time>
   <time name="total">    6.55    6.55</time>
   <energy>
    <i name="alphaZ">      4.67081296 </i>
    <i name="ewald">  12891.25974890 </i>
    <i name="hartreedc"> -21941.41642390 </i>
    <i name="XCdc">     60.22459503 </i>
    <i name="pawpsdc">  10109.07971707 </i>
    <i name="pawaedc"> -10273.97501885 </i>
    <i name="eentropy">      0.01811755 </i>
    <i name="bandstr">   -592.64863992 </i>
    <i name="atom">   9704.95859309 </i>
    <i name="e_fr_energy">    -37.82849806 </i>
    <i name="e_wo_entrp">    -37.84661561 </i>
    <i name="e_0_energy">    -37.83453725 </i>
   </energy>
  </scstep>
  <structure>
   <crystal>
    <varray name="basis" >
     <v>      23.86529926       0.00000000       0.00000000 </v>
     <v>       0.00000000      22.31730700       0.00000000 </v>
     <v>       0.00000000       0.00000000      22.77980485 </v>
    </varray>
    <i name="volume">  12132.73386945 </i>
    <varray name="rec_basis" >
     <v>       0.04190184       0.00000000       0.00000000 </v>
     <v>       0.00000000       0.04480827       0.00000000 </v>
     <v>       0.00000000       0.00000000       0.04389853 </v>
    </varray>
   </crystal>
   <varray name="positions" >
    <v>       0.45850750       0.48150695       0.55606373 </v>
    <v>       0.52887695       0.40560366       0.54478423 </v>
    <v>       0.49731432       0.58004725       0.53014978 </v>
    <v>       0.53390232       0.48723998       0.47669758 </v>
    <v>       0.59326258       0.56981085       0.50163946 </v>
    <v>       0.43903361       0.52481381       0.45781177 </v>
    <v>       0.55984771       0.50444341       0.58248431 </v>
    <v>       0.45569035       0.41381146       0.47011895 </v>
    <v>       0.39650342       0.56781720       0.54437059 </v>
    <v>       0.52299019       0.58448437       0.42479607 </v>
   </varray>
  </structure>
  <varray name="forces" >
   <v>       0.08486042      -0.04877569      -0.09473435 </v>
   <v>      -0.22373537       0.58250799      -0.16828984 </v>
   <v>       0.07406716      -0.07640887      -0.09787223 </v>
   <v>       0.02800613      -0.01944844      -0.00944981 </v>
   <v>      -0.55868616      -0.28368852       0.05992813 </v>
   <v>       0.07452342       0.02268975       0.22086624 </v>
   <v>       0.27780488      -0.01255386       0.35203188 </v>
   <v>       0.02074468      -0.10719212      -0.11727245 </v>
   <v>       0.15149435      -0.07139572      -0.01513815 </v>
   <v>       0.07092050       0.01426547      -0.13006943 </v>
  </varray>
  <energy>
   <i name="e_fr_energy">    -37.82849806 </i>
   <i name="e_wo_entrp">    -37.84661561 </i>
   <i name="e_0_energy">    -37.83453725 </i>
  </energy>
  <time name="totalsc">  176.01  176.25</time>
 </calculation>
 <calculation>
  <scstep>
   <time name="dav">    5.37    5.37</time>
   <time name="total">    8.36    8.37</time>
   <energy>
    <i name="alphaZ">      4.67081296 </i>
    <i name="ewald">  13060.63915985 </i>
    <i name="hartreedc"> -22108.48637705 </i>
    <i name="XCdc">     60.66974882 </i>
    <i name="pawpsdc">  10109.07269209 </i>
    <i name="pawaedc"> -10273.96869949 </i>
    <i name="eentropy">      0.02547499 </i>
    <i name="bandstr">   -595.38199134 </i>
    <i name="atom">   9704.95859309 </i>
    <i name="e_fr_energy">    -37.80058608 </i>
    <i name="e_wo_entrp">    -37.82606107 </i>
    <i name="e_0_energy">    -37.80907774 </i>
   </energy>
  </scstep>
  <scstep>
   <time name="dav">    6.38    6.39</time>
   <time name="total">    9.33    9.35</time>
   <energy>
    <i name="e_fr_energy">    -40.74067314 </i>
    <i name="e_wo_entrp">    -40.72320103 </i>
    <i name="e_0_energy">    -40.73484910 </i>
   </energy>
  </scstep>
  <scstep>
   <time name="dav">    6.43    6.44</time>
   <time name="total">    9.42    9.43</time>
   <energy>
    <i name="e_fr_energy">    -38.02143428 </i>
    <i name="e_wo_entrp">    -38.01120520 </i>
    <i name="e_0_energy">    -38.01802459 </i>
   </energy>
  </scstep>
  <scstep>
   <time name="dav">    7.09    7.10</time>
   <time name="total">   10.09   10.10</time>
   <energy>
    <i name="e_fr_energy">    -37.87055590 </i>
    <i name="e_wo_entrp">    -37.88275381 </i>
    <i name="e_0_energy">    -37.87462187 </i>
   </energy>
  </scstep>
  <scstep>
   <time name="dav">    7.07    7.07</time>
   <time name="total">   10.05   10.07</time>
   <energy>
    <i name="e_fr_energy">    -37.88628753 </i>
    <i name="e_wo_entrp">    -37.88357523 </i>
    <i name="e_0_energy">    -37.88538343 </i>
   </energy>
  </scstep>
  <scstep>
   <time name="dav">    6.71    6.72</time>
   <time name="total">    9.70    9.71</time>
   <energy>
    <i name="e_fr_energy">    -37.91914790 </i>
    <i name="e_wo_entrp">    -37.95303590 </i>
    <i name="e_0_energy">    -37.93044390 </i>
   </energy>
  </scstep>
  <scstep>
   <time name="dav">    6.51    6.52</time>
   <time name="total">    9.53    9.55</time>
   <energy>
    <i name="e_fr_energy">    -37.87692429 </i>
    <i name="e_wo_entrp">    -37.89407724 </i>
    <i name="e_0_energy">    -37.88264194 </i>
   </energy>
  </scstep>
  <scstep>
   <time name="dav">    7.31    7.32</time>
   <time name="total">   10.32   10.34</time>
   <energy>
    <i name="e_fr_energy">    -37.89190016 </i>
    <i name="e_wo_entrp">    -37.90729976 </i>
    <i name="e_0_energy">    -37.89703336 </i>
   </energy>
  </scstep>
  <scstep>
   <time name="dav">    6.85    6.85</time>
   <time name="total">    9.85    9.87</time>
   <energy>
    <i name="e_fr_energy">    -37.88540445 </i>
    <i name="e_wo_entrp">    -37.90064793 </i>
    <i name="e_0_energy">    -37.89048561 </i>
   </energy>
  </scstep>
  <scstep>
   <time name="dav">    7.11    7.12</time>
   <time name="total">   10.77   10.78</time>
   <energy>
    <i name="e_fr_energy">    -37.88861451 </i>
    <i name="e_wo_entrp">    -37.90565793 </i>
    <i name="e_0_energy">    -37.89429565 </i>
   </energy>
  </scstep>
  <scstep>
   <time name="dav">    8.71    8.72</time>
   <time name="total">   11.73   11.75</time>
   <energy>
    <i name="e_fr_energy">    -37.89036818 </i>
    <i name="e_wo_entrp">    -37.90818985 </i>
    <i name="e_0_energy">    -37.89630873 </i>
   </energy>
  </scstep>
  <scstep>
   <time name="dav">    6.60    6.61</time>
   <time name="total">    9.64    9.66</time>
   <energy>
    <i name="e_fr_energy">    -37.88744932 </i>
    <i name="e_wo_entrp">    -37.90628299 </i>
    <i name="e_0_energy">    -37.89372721 </i>
   </energy>
  </scstep>
  <scstep>
   <time name="dav">    6.01    6.02</time>
   <time name="total">    9.06    9.07</time>
   <energy>
    <i name="e_fr_energy">    -37.88909871 </i>
    <i name="e_wo_entrp">    -37.90638859 </i>
    <i name="e_0_energy">    -37.89486200 </i>
   </energy>
  </scstep>
  <scstep>
   <time name="dav">    4.88    4.88</time>
   <time name="total">    7.92    7.93</time>
   <energy>
    <i name="e_fr_energy">    -37.88929626 </i>
    <i name="e_wo_entrp">    -37.90484141 </i>
    <i name="e_0_energy">    -37.89447798 </i>
   </energy>
  </scstep>
  <scstep>
   <time name="dav">    4.26    4.26</time>
   <time name="total">    7.32    7.33</time>
   <energy>
    <i name="e_fr_energy">    -37.88970285 </i>
    <i name="e_wo_entrp">    -37.90579453 </i>
    <i name="e_0_energy">    -37.89506675 </i>
   </energy>
  </scstep>
  <scstep>
   <time name="dav">    4.14    4.14</time>
   <time name="total">    7.22    7.23</time>
   <energy>
    <i name="e_fr_energy">    -37.88990371 </i>
    <i name="e_wo_entrp">    -37.90663715 </i>
    <i name="e_0_energy">    -37.89548152 </i>
   </energy>
  </scstep>
  <scstep>
   <time name="dav">    4.21    4.22</time>
   <time name="total">    7.32    7.33</time>
   <energy>
    <i name="e_fr_energy">    -37.89008673 </i>
    <i name="e_wo_entrp">    -37.90687402 </i>
    <i name="e_0_energy">    -37.89568249 </i>
   </energy>
  </scstep>
  <scstep>
   <time name="dav">    4.22    4.23</time>
   <time name="total">    7.34    7.35</time>
   <energy>
    <i name="e_fr_energy">    -37.89024846 </i>
    <i name="e_wo_entrp">    -37.90704199 </i>
    <i name="e_0_energy">    -37.89584631 </i>
   </energy>
  </scstep>
  <scstep>
   <time name="dav">    4.21    4.22</time>
   <time name="total">    7.32    7.33</time>
   <energy>
    <i name="e_fr_energy">    -37.89037857 </i>
    <i name="e_wo_entrp">    -37.90719691 </i>
    <i name="e_0_energy">    -37.89598469 </i>
   </energy>
  </scstep>
  <scstep>
   <time name="dav">    4.03    4.04</time>
   <time name="total">    6.41    6.42</time>
   <energy>
    <i name="alphaZ">      4.67081296 </i>
    <i name="ewald">  13060.63915985 </i>
    <i name="hartreedc"> -22106.43500141 </i>
    <i name="XCdc">     60.55019301 </i>
    <i name="pawpsdc">  10184.60683326 </i>
    <i name="pawaedc"> -10350.36495079 </i>
    <i name="eentropy">      0.01678886 </i>
    <i name="bandstr">   -596.53289093 </i>
    <i name="atom">   9704.95859309 </i>
    <i name="e_fr_energy">    -37.89046211 </i>
    <i name="e_wo_entrp">    -37.90725096 </i>
    <i name="e_0_energy">    -37.89605839 </i>
   </energy>
  </scstep>
  <structure>
   <crystal>
    <varray name="basis" >
     <v>      23.86529926       0.00000000       0.00000000 </v>
     <v>       0.00000000      22.31730700       0.00000000 </v>
     <v>       0.00000000       0.00000000      22.77980485 </v>
    </varray>
    <i name="volume">  12132.73386945 </i>
    <varray name="rec_basis" >
     <v>       0.04190184       0.00000000       0.00000000 </v>
     <v>       0.00000000       0.04480827       0.00000000 </v>
     <v>       0.00000000       0.00000000       0.04389853 </v>
    </varray>
   </crystal>
   <varray name="positions" >
    <v>       0.45872843       0.48124295       0.55562917 </v>
    <v>       0.52779307       0.40830428       0.54389520 </v>
    <v>       0.49761083       0.57982231       0.52966687 </v>
    <v>       0.53422919       0.48711366       0.47689810 </v>
    <v>       0.59065915       0.56857735       0.50177082 </v>
    <v>       0.43907875       0.52508858       0.45899653 </v>
    <v>       0.56085573       0.50426281       0.58336662 </v>
    <v>       0.45600817       0.41350289       0.47009062 </v>
    <v>       0.39754531       0.56718037       0.54384652 </v>
    <v>       0.52342036       0.58448376       0.42475603 </v>
   </varray>
  </structure>
  <varray name="forces" >
   <v>       0.04584568       0.03889722      -0.00036211 </v>
   <v>       0.07268435       0.09152967       0.06181440 </v>
   <v>      -0.02786434      -0.06544125       0.02049412 </v>
   <v>      -0.11461380       0.00594199      -0.16242483 </v>
   <v>       0.03796184      -0.07665282       0.10098526 </v>
   <v>       0.19741501      -0.11186920      -0.08981422 </v>
   <v>       0.17789420       0.04663109       0.42853525 </v>
   <v>      -0.13531635      -0.12532738      -0.29759967 </v>
   <v>      -0.19068334       0.15300321       0.26816228 </v>
   <v>      -0.06332325       0.04328747      -0.32979049 </v>
  </varray>
  <energy>
   <i name="e_fr_energy">    -37.89046211 </i>
   <i name="e_wo_entrp">    -37.90725096 </i>
   <i name="e_0_energy">    -37.89605839 </i>
  </energy>
  <time name="totalsc">  187.88  188.15</time>
 </calculation>
 <calculation>
  <scstep>
   <time name="dav">    5.40    5.40</time>
   <time name="total">    8.40    8.41</time>
   <energy>
    <i name="alphaZ">      4.67081296 </i>
    <i name="ewald">  13029.66956665 </i>
    <i name="hartreedc"> -22076.29201926 </i>
    <i name="XCdc">     60.43609276 </i>
    <i name="pawpsdc">  10184.57567014 </i>
    <i name="pawaedc"> -10350.33433895 </i>
    <i name="eentropy">      0.00844369 </i>
    <i name="bandstr">   -595.58454901 </i>
    <i name="atom">   9704.95859309 </i>
    <i name="e_fr_energy">    -37.89172792 </i>
    <i name="e_wo_entrp">    -37.90017161 </i>
    <i name="e_0_energy">    -37.89454248 </i>
   </energy>
  </scstep>
  <scstep>
   <time name="dav">    7.34    7.35</time>
   <time name="total">   10.31   10.32</time>
   <energy>
    <i name="e_fr_energy">    -38.02880442 </i>
    <i name="e_wo_entrp">    -38.03547252 </i>
    <i name="e_0_energy">    -38.03102712 </i>
   </energy>
  </scstep>
  <scstep>
   <time name="dav">    6.50    6.51</time>
   <time name="total">    9.48    9.50</time>
   <energy>
    <i name="e_fr_energy">    -37.92048945 </i>
    <i name="e_wo_entrp">    -37.93484866 </i>
    <i name="e_0_energy">    -37.92527586 </i>
   </energy>
  </scstep>
  <scstep>
   <time name="dav">    6.86    6.86</time>
   <time name="total">    9.86    9.87</time>
   <energy>
    <i name="e_fr_energy">    -37.92427752 </i>
    <i name="e_wo_entrp">    -37.92622084 </i>
    <i name="e_0_energy">    -37.92492529 </i>
   </energy>
  </scstep>
  <scstep>
   <time name="dav">    6.79    6.79</time>
   <time name="total">    9.77    9.78</time>
   <energy>
    <i name="e_fr_energy">    -37.92729463 </i>
    <i name="e_wo_entrp">    -37.94458053 </i>
    <i name="e_0_energy">    -37.93305660 </i>
   </energy>
  </scstep>
  <scstep>
   <time name="dav">    6.52    6.52</time>
   <time name="total">    9.52    9.53</time>
   <energy>
    <i name="e_fr_energy">    -37.92340069 </i>
    <i name="e_wo_entrp">    -37.93062258 </i>
    <i name="e_0_energy">    -37.92580799 </i>
   </energy>
  </scstep>
  <scstep>
   <time name="dav">    7.29    7.30</time>
   <time name="total">   10.28   10.29</time>
   <energy>
    <i name="e_fr_energy">    -37.92189400 </i>
    <i name="e_wo_entrp">    -37.93200533 </i>
    <i name="e_0_energy">    -37.92526444 </i>
   </energy>
  </scstep>
  <scstep>
   <time name="dav">    7.14    7.16</time>
   <time name="total">   10.16   10.18</time>
   <energy>
    <i name="e_fr_energy">    -37.92563474 </i>
    <i name="e_wo_entrp">    -37.93307525 </i>
    <i name="e_0_energy">    -37.92811491 </i>
   </energy>
  </scstep>
  <scstep>
   <time name="dav">    6.81    6.82</time>
   <time name="total">    9.83    9.85</time>
   <energy>
    <i name="e_fr_energy">    -37.92403460 </i>
    <i name="e_wo_entrp">    -37.93510823 </i>
    <i name="e_0_energy">    -37.92772581 </i>
   </energy>
  </scstep>
  <scstep>
   <time name="dav">    6.98    6.99</time>
   <time name="total">   10.01   10.02</time>
   <energy>
    <i name="e_fr_energy">    -37.92494716 </i>
    <i name="e_wo_entrp">    -37.93552540 </i>
    <i name="e_0_energy">    -37.92847324 </i>
   </energy>
  </scstep>
  <scstep>
   <time name="dav">    5.84    5.84</time>
   <time name="total">    8.87    8.88</time>
   <energy>
    <i name="e_fr_energy">    -37.92487300 </i>
    <i name="e_wo_entrp">    -37.93574626 </i>
    <i name="e_0_energy">    -37.92849742 </i>
   </energy>
  </scstep>
  <scstep>
   <time name="dav">    4.67    4.68</time>
   <time name="total">    7.72    7.73</time>
   <energy>
    <i name="e_fr_energy">    -37.92513458 </i>
    <i name="e_wo_entrp">    -37.93488853 </i>
    <i name="e_0_energy">    -37.92838590 </i>
   </energy>
  </scstep>
  <scstep>
   <time name="dav">    4.26    4.26</time>
   <time name="total">    7.30    7.31</time>
   <energy>
    <i name="e_fr_energy">    -37.92534023 </i>
    <i name="e_wo_entrp">    -37.93525499 </i>
    <i name="e_0_energy">    -37.92864515 </i>
   </energy>
  </scstep>
  <scstep>
   <time name="dav">    4.24    4.25</time>
   <time name="total">    7.32    7.33</time>
   <energy>
    <i name="e_fr_energy">    -37.92544043 </i>
    <i name="e_wo_entrp">    -37.93573343 </i>
    <i name="e_0_energy">    -37.92887143 </i>
   </energy>
  </scstep>
  <scstep>
   <time name="dav">    4.26    4.27</time>
   <time name="total">    7.35    7.35</time>
   <energy>
    <i name="e_fr_energy">    -37.92557106 </i>
    <i name="e_wo_entrp">    -37.93600362 </i>
    <i name="e_0_energy">    -37.92904858 </i>
   </energy>
  </scstep>
  <scstep>
   <time name="dav">    4.06    4.07</time>
   <time name="total">    6.43    6.44</time>
   <energy>
    <i name="alphaZ">      4.67081296 </i>
    <i name="ewald">  13029.66956665 </i>
    <i name="hartreedc"> -22076.51531860 </i>
    <i name="XCdc">     60.46025387 </i>
    <i name="pawpsdc">  10166.43002299 </i>
    <i name="pawaedc"> -10331.87300156 </i>
    <i name="eentropy">      0.01052811 </i>
    <i name="bandstr">   -595.73711418 </i>
    <i name="atom">   9704.95859309 </i>
    <i name="e_fr_energy">    -37.92565666 </i>
    <i name="e_wo_entrp">    -37.93618477 </i>
    <i name="e_0_energy">    -37.92916603 </i>
   </energy>
  </scstep>
  <structure>
   <crystal>
    <varray name="basis" >
     <v>      23.86529926       0.00000000       0.00000000 </v>
     <v>       0.00000000      22.31730700       0.00000000 </v>
     <v>       0.00000000       0.00000000      22.77980485 </v>
    </varray>
    <i name="volume">  12132.73386945 </i>
    <varray name="rec_basis" >
     <v>       0.04190184       0.00000000       0.00000000 </v>
     <v>       0.00000000       0.04480827       0.00000000 </v>
     <v>       0.00000000       0.00000000       0.04389853 </v>
    </varray>
   </crystal>
   <varray name="positions" >
    <v>       0.45890120       0.48128672       0.55552247 </v>
    <v>       0.52771809       0.40921540       0.54384705 </v>
    <v>       0.49761062       0.57958590       0.52960513 </v>
    <v>       0.53401114       0.48709943       0.47650509 </v>
    <v>       0.59012434       0.56806445       0.50207746 </v>
    <v>       0.43960227       0.52484484       0.45904046 </v>
    <v>       0.56156282       0.50434834       0.58474688 </v>
    <v>       0.45573417       0.41307986       0.46927426 </v>
    <v>       0.39730371       0.56745023       0.54444842 </v>
    <v>       0.52336060       0.58460379       0.42384926 </v>
   </varray>
  </structure>
  <varray name="forces" >
   <v>       0.02120510       0.07973176      -0.04047653 </v>
   <v>       0.08157182       0.03144485       0.02553549 </v>
   <v>      -0.05993599      -0.08875592      -0.00512082 </v>
   <v>      -0.11943459       0.03518067      -0.08403746 </v>
   <v>       0.05464677      -0.06882654       0.04912367 </v>
   <v>       0.13853656      -0.05713730       0.01387269 </v>
   <v>       0.05761814       0.05236962       0.25624386 </v>
   <v>      -0.06999015      -0.06771148      -0.18145026 </v>
   <v>      -0.07136275       0.06953180       0.15818279 </v>
   <v>      -0.03285490       0.01417256      -0.19187343 </v>
  </varray>
  <energy>
   <i name="e_fr_energy">    -37.92565666 </i>
   <i name="e_wo_entrp">    -37.93618477 </i>
   <i name="e_0_energy">    -37.92916603 </i>
  </energy>
  <time name="totalsc">  151.73  151.94</time>
 </calculation>
 <calculation>
  <scstep>
   <time name="dav">    5.40    5.41</time>
   <time name="total">    8.43    8.44</time>
   <energy>
    <i name="alphaZ">      4.67081296 </i>
    <i name="ewald">  12989.60694877 </i>
    <i name="hartreedc"> -22037.42131490 </i>
    <i name="XCdc">     60.31916289 </i>
    <i name="pawpsdc">  10166.47671214 </i>
    <i name="pawaedc"> -10331.91752800 </i>
    <i name="eentropy">      0.00066106 </i>
    <i name="bandstr">   -594.57934327 </i>
    <i name="atom">   9704.95859309 </i>
    <i name="e_fr_energy">    -37.88529526 </i>
    <i name="e_wo_entrp">    -37.88595632 </i>
    <i name="e_0_energy">    -37.88551561 </i>
   </energy>
  </scstep>
  <scstep>
   <time name="dav">    7.34    7.35</time>
   <time name="total">   10.30   10.31</time>
   <energy>
    <i name="e_fr_energy">    -38.11361578 </i>
    <i name="e_wo_entrp">    -38.12129339 </i>
    <i name="e_0_energy">    -38.11617498 </i>
   </energy>
  </scstep>
  <scstep>
   <time name="dav">    6.65    6.65</time>
   <time name="total">    9.64    9.65</time>
   <energy>
    <i name="e_fr_energy">    -37.94991793 </i>
    <i name="e_wo_entrp">    -37.96236689 </i>
    <i name="e_0_energy">    -37.95406758 </i>
   </energy>
  </scstep>
  <scstep>
   <time name="dav">    7.53    7.64</time>
   <time name="total">   10.50   10.61</time>
   <energy>
    <i name="e_fr_energy">    -37.94076884 </i>
    <i name="e_wo_entrp">    -37.93611916 </i>
    <i name="e_0_energy">    -37.93921895 </i>
   </energy>
  </scstep>
  <scstep>
   <time name="dav">    6.75    6.76</time>
   <time name="total">    9.73    9.75</time>
   <energy>
    <i name="e_fr_energy">    -37.94772460 </i>
    <i name="e_wo_entrp">    -37.96240299 </i>
    <i name="e_0_energy">    -37.95261740 </i>
   </energy>
  </scstep>
  <scstep>
   <time name="dav">    6.39    6.40</time>
   <time name="total">    9.41    9.42</time>
   <energy>
    <i name="e_fr_energy">    -37.93981406 </i>
    <i name="e_wo_entrp">    -37.94381942 </i>
    <i name="e_0_energy">    -37.94114918 </i>
   </energy>
  </scstep>
  <scstep>
   <time name="dav">    6.52    6.53</time>
   <time name="total">    9.53    9.53</time>
   <energy>
    <i name="e_fr_energy">    -37.93799921 </i>
    <i name="e_wo_entrp">    -37.94155186 </i>
    <i name="e_0_energy">    -37.93918343 </i>
   </energy>
  </scstep>
  <scstep>
   <time name="dav">    6.97    6.98</time>
   <time name="total">    9.99   10.00</time>
   <energy>
    <i name="e_fr_energy">    -37.94215188 </i>
    <i name="e_wo_entrp">    -37.94633156 </i>
    <i name="e_0_energy">    -37.94354511 </i>
   </energy>
  </scstep>
  <scstep>
   <time name="dav">    6.21    6.22</time>
   <time name="total">    9.24    9.25</time>
   <energy>
    <i name="e_fr_energy">    -37.94319657 </i>
    <i name="e_wo_entrp">    -37.94807626 </i>
    <i name="e_0_energy">    -37.94482314 </i>
   </energy>
  </scstep>
  <scstep>
   <time name="dav">    6.90    6.92</time>
   <time name="total">    9.94    9.96</time>
   <energy>
    <i name="e_fr_energy">    -37.94150703 </i>
    <i name="e_wo_entrp">    -37.94673004 </i>
    <i name="e_0_energy">    -37.94324803 </i>
   </energy>
  </scstep>
  <scstep>
   <time name="dav">    5.46    5.46</time>
   <time name="total">    8.50    8.51</time>
   <energy>
    <i name="e_fr_energy">    -37.94273504 </i>
    <i name="e_wo_entrp">    -37.94684386 </i>
    <i name="e_0_energy">    -37.94410465 </i>
   </energy>
  </scstep>
  <scstep>
   <time name="dav">    5.07    5.08</time>
   <time name="total">    8.11    8.12</time>
   <energy>
    <i name="e_fr_energy">    -37.94299876 </i>
    <i name="e_wo_entrp">    -37.94840010 </i>
    <i name="e_0_energy">    -37.94479921 </i>
   </energy>
  </scstep>
  <scstep>
   <time name="dav">    4.23    4.23</time>
   <time name="total">    7.27    7.28</time>
   <energy>
    <i name="e_fr_energy">    -37.94274923 </i>
    <i name="e_wo_entrp">    -37.94714737 </i>
    <i name="e_0_energy">    -37.94421527 </i>
   </energy>
  </scstep>
  <scstep>
   <time name="dav">    4.33    4.34</time>
   <time name="total">    7.39    7.40</time>
   <energy>
    <i name="e_fr_energy">    -37.94309204 </i>
    <i name="e_wo_entrp">    -37.94765724 </i>
    <i name="e_0_energy">    -37.94461377 </i>
   </energy>
  </scstep>
  <scstep>
   <time name="dav">    4.14    4.14</time>
   <time name="total">    7.21    7.22</time>
   <energy>
    <i name="e_fr_energy">    -37.94323121 </i>
    <i name="e_wo_entrp">    -37.94799730 </i>
    <i name="e_0_energy">    -37.94481991 </i>
   </energy>
  </scstep>
  <scstep>
   <time name="dav">    4.14    4.14</time>
   <time name="total">    7.23    7.24</time>
   <energy>
    <i name="e_fr_energy">    -37.94335501 </i>
    <i name="e_wo_entrp">    -37.94813739 </i>
    <i name="e_0_energy">    -37.94494914 </i>
   </energy>
  </scstep>
  <scstep>
   <time name="dav">    4.10    4.10</time>
   <time name="total">    7.20    7.21</time>
   <energy>
    <i name="e_fr_energy">    -37.94346046 </i>
    <i name="e_wo_entrp">    -37.94833555 </i>
    <i name="e_0_energy">    -37.94508549 </i>
   </energy>
  </scstep>
  <scstep>
   <time name="dav">    4.13    4.13</time>
   <time name="total">    6.51    6.51</time>
   <energy>
    <i name="alphaZ">      4.67081296 </i>
    <i name="ewald">  12989.60694877 </i>
    <i name="hartreedc"> -22037.61672378 </i>
    <i name="XCdc">     60.34668864 </i>
    <i name="pawpsdc">  10145.10459385 </i>
    <i name="pawaedc"> -10310.16555376 </i>
    <i name="eentropy">      0.00484826 </i>
    <i name="bandstr">   -594.85376178 </i>
    <i name="atom">   9704.95859309 </i>
    <i name="e_fr_energy">    -37.94355375 </i>
    <i name="e_wo_entrp">    -37.94840201 </i>
    <i name="e_0_energy">    -37.94516983 </i>
   </energy>
  </scstep>
  <structure>
   <crystal>
    <varray name="basis" >
     <v>      23.86529926       0.00000000       0.00000000 </v>
     <v>       0.00000000      22.31730700       0.00000000 </v>
     <v>       0.00000000       0.00000000      22.77980485 </v>
    </varray>
    <i name="volume">  12132.73386945 </i>
    <varray name="rec_basis" >
     <v>       0.04190184       0.00000000       0.00000000 </v>
     <v>       0.00000000       0.04480827       0.00000000 </v>
     <v>       0.00000000       0.00000000       0.04389853 </v>
    </varray>
   </crystal>
   <varray name="positions" >
    <v>       0.45912873       0.48134435       0.55538195 </v>
    <v>       0.52761936       0.41041523       0.54378365 </v>
    <v>       0.49761034       0.57927458       0.52952383 </v>
    <v>       0.53372399       0.48708068       0.47598754 </v>
    <v>       0.58942008       0.56738902       0.50248126 </v>
    <v>       0.44029169       0.52452385       0.45909831 </v>
    <v>       0.56249397       0.50446097       0.58656451 </v>
    <v>       0.45537334       0.41252279       0.46819921 </v>
    <v>       0.39698555       0.56780561       0.54524105 </v>
    <v>       0.52328191       0.58476186       0.42265515 </v>
   </varray>
  </structure>
  <varray name="forces" >
   <v>      -0.02016436       0.14298250      -0.07720526 </v>
   <v>       0.10455072      -0.03952585      -0.01963650 </v>
   <v>      -0.10887247      -0.11285766      -0.02192039 </v>
   <v>      -0.11314807       0.05868728      -0.00726539 </v>
   <v>       0.08830066      -0.06561850      -0.01532259 </v>
   <v>       0.06228562       0.00648609       0.12656326 </v>
   <v>      -0.09195728       0.06209397       0.05574324 </v>
   <v>       0.00471646       0.00892791      -0.04252045 </v>
   <v>       0.07901067      -0.03575409       0.02470980 </v>
   <v>      -0.00472195      -0.02542163      -0.02314572 </v>
  </varray>
  <energy>
   <i name="e_fr_energy">    -37.94355375 </i>
   <i name="e_wo_entrp">    -37.94840201 </i>
   <i name="e_0_energy">    -37.94516983 </i>
  </energy>
  <time name="totalsc">  165.27  165.59</time>
 </calculation>
 <calculation>
  <scstep>
   <time name="dav">    5.41    5.42</time>
   <time name="total">    8.47    8.48</time>
   <energy>
    <i name="alphaZ">      4.67081296 </i>
    <i name="ewald">  13012.28256257 </i>
    <i name="hartreedc"> -22059.98008972 </i>
    <i name="XCdc">     60.39227122 </i>
    <i name="pawpsdc">  10145.11710391 </i>
    <i name="pawaedc"> -10310.17783626 </i>
    <i name="eentropy">      0.00013180 </i>
    <i name="bandstr">   -595.20380965 </i>
    <i name="atom">   9704.95859309 </i>
    <i name="e_fr_energy">    -37.94026008 </i>
    <i name="e_wo_entrp">    -37.94039188 </i>
    <i name="e_0_energy">    -37.94030401 </i>
   </energy>
  </scstep>
  <scstep>
   <time name="dav">    7.24    7.25</time>
   <time name="total">   10.23   10.24</time>
   <energy>
    <i name="e_fr_energy">    -37.99088975 </i>
    <i name="e_wo_entrp">    -38.01024011 </i>
    <i name="e_0_energy">    -37.99733987 </i>
   </energy>
  </scstep>
  <scstep>
   <time name="dav">    6.15    6.16</time>
   <time name="total">    9.15    9.16</time>
   <energy>
    <i name="e_fr_energy">    -37.92856287 </i>
    <i name="e_wo_entrp">    -37.92670089 </i>
    <i name="e_0_energy">    -37.92794221 </i>
   </energy>
  </scstep>
  <scstep>
   <time name="dav">    7.12    7.12</time>
   <time name="total">   10.13   10.14</time>
   <energy>
    <i name="e_fr_energy">    -37.95164809 </i>
    <i name="e_wo_entrp">    -37.95020072 </i>
    <i name="e_0_energy">    -37.95116564 </i>
   </energy>
  </scstep>
  <scstep>
   <time name="dav">    6.98    6.98</time>
   <time name="total">    9.99   10.01</time>
   <energy>
    <i name="e_fr_energy">    -37.94799238 </i>
    <i name="e_wo_entrp">    -37.94460700 </i>
    <i name="e_0_energy">    -37.94686392 </i>
   </energy>
  </scstep>
  <scstep>
   <time name="dav">    6.63    6.64</time>
   <time name="total">    9.64    9.65</time>
   <energy>
    <i name="e_fr_energy">    -37.94772409 </i>
    <i name="e_wo_entrp">    -37.94795898 </i>
    <i name="e_0_energy">    -37.94780239 </i>
   </energy>
  </scstep>
  <scstep>
   <time name="dav">    8.57    8.58</time>
   <time name="total">   11.60   11.61</time>
   <energy>
    <i name="e_fr_energy">    -37.94868922 </i>
    <i name="e_wo_entrp">    -37.94617623 </i>
    <i name="e_0_energy">    -37.94785155 </i>
   </energy>
  </scstep>
  <scstep>
   <time name="dav">    6.55    6.56</time>
   <time name="total">    9.57    9.59</time>
   <energy>
    <i name="e_fr_energy">    -37.94925105 </i>
    <i name="e_wo_entrp">    -37.94948702 </i>
    <i name="e_0_energy">    -37.94932971 </i>
   </energy>
  </scstep>
  <scstep>
   <time name="dav">    5.86    5.87</time>
   <time name="total">    8.89    8.90</time>
   <energy>
    <i name="e_fr_energy">    -37.94923464 </i>
    <i name="e_wo_entrp">    -37.94971612 </i>
    <i name="e_0_energy">    -37.94939513 </i>
   </energy>
  </scstep>
  <scstep>
   <time name="dav">    5.60    5.61</time>
   <time name="total">    8.66    8.67</time>
   <energy>
    <i name="e_fr_energy">    -37.94867206 </i>
    <i name="e_wo_entrp">    -37.94719066 </i>
    <i name="e_0_energy">    -37.94817826 </i>
   </energy>
  </scstep>
  <scstep>
   <time name="dav">    4.65    4.65</time>
   <time name="total">    7.69    7.70</time>
   <energy>
    <i name="e_fr_energy">    -37.94967094 </i>
    <i name="e_wo_entrp">    -37.94822016 </i>
    <i name="e_0_energy">    -37.94918735 </i>
   </energy>
  </scstep>
  <scstep>
   <time name="dav">    4.31    4.32</time>
   <time name="total">    7.36    7.37</time>
   <energy>
    <i name="e_fr_energy">    -37.94930300 </i>
    <i name="e_wo_entrp">    -37.94767515 </i>
    <i name="e_0_energy">    -37.94876038 </i>
   </energy>
  </scstep>
  <scstep>
   <time name="dav">    4.20    4.20</time>
   <time name="total">    7.24    7.25</time>
   <energy>
    <i name="e_fr_energy">    -37.94945188 </i>
    <i name="e_wo_entrp">    -37.94791274 </i>
    <i name="e_0_energy">    -37.94893883 </i>
   </energy>
  </scstep>
  <scstep>
   <time name="dav">    4.11    4.12</time>
   <time name="total">    7.17    7.18</time>
   <energy>
    <i name="e_fr_energy">    -37.94961318 </i>
    <i name="e_wo_entrp">    -37.94800679 </i>
    <i name="e_0_energy">    -37.94907772 </i>
   </energy>
  </scstep>
  <scstep>
   <time name="dav">    4.11    4.11</time>
   <time name="total">    6.48    6.49</time>
   <energy>
    <i name="alphaZ">      4.67081296 </i>
    <i name="ewald">  13012.28256257 </i>
    <i name="hartreedc"> -22060.05613091 </i>
    <i name="XCdc">     60.37679926 </i>
    <i name="pawpsdc">  10153.77523780 </i>
    <i name="pawaedc"> -10318.91560620 </i>
    <i name="eentropy">     -0.00168175 </i>
    <i name="bandstr">   -595.04022911 </i>
    <i name="atom">   9704.95859309 </i>
    <i name="e_fr_energy">    -37.94964229 </i>
    <i name="e_wo_entrp">    -37.94796054 </i>
    <i name="e_0_energy">    -37.94908170 </i>
   </energy>
  </scstep>
  <structure>
   <crystal>
    <varray name="basis" >
     <v>      23.86529926       0.00000000       0.00000000 </v>
     <v>       0.00000000      22.31730700       0.00000000 </v>
     <v>       0.00000000       0.00000000      22.77980485 </v>
    </varray>
    <i name="volume">  12132.73386945 </i>
    <varray name="rec_basis" >
     <v>       0.04190184       0.00000000       0.00000000 </v>
     <v>       0.00000000       0.04480827       0.00000000 </v>
     <v>       0.00000000       0.00000000       0.04389853 </v>
    </varray>
   </crystal>
   <varray name="positions" >
    <v>       0.45908857       0.48185245       0.55510060 </v>
    <v>       0.52795102       0.41041358       0.54370893 </v>
    <v>       0.49725320       0.57884318       0.52943922 </v>
    <v>       0.53332008       0.48728439       0.47590349 </v>
    <v>       0.58962930       0.56708174       0.50247471 </v>
    <v>       0.44057470       0.52450996       0.45953983 </v>
    <v>       0.56229865       0.50469163       0.58696358 </v>
    <v>       0.45534762       0.41249051       0.46793036 </v>
    <v>       0.39720839       0.56772077       0.54541646 </v>
    <v>       0.52325744       0.58469074       0.42243928 </v>
   </varray>
  </structure>
  <varray name="forces" >
   <v>       0.03704667      -0.05475846      -0.00549119 </v>
   <v>       0.03232711       0.04922315      -0.04584897 </v>
   <v>       0.06384123       0.00377422      -0.02532002 </v>
   <v>      -0.00459117      -0.00312456      -0.00240978 </v>
   <v>      -0.00847186      -0.07433243      -0.01072410 </v>
   <v>      -0.01308525       0.00437866       0.01161850 </v>
   <v>      -0.09269997       0.04551266       0.01946048 </v>
   <v>       0.02462704      -0.00320533      -0.00189951 </v>
   <v>      -0.06072859       0.03798000       0.06575838 </v>
   <v>       0.02173478      -0.00544791      -0.00514380 </v>
  </varray>
  <energy>
   <i name="e_fr_energy">    -37.94964229 </i>
   <i name="e_wo_entrp">    -37.94796054 </i>
   <i name="e_0_energy">    -37.94908170 </i>
  </energy>
  <time name="totalsc">  141.35  141.55</time>
 </calculation>
 <calculation>
  <scstep>
   <time name="dav">    5.62    5.63</time>
   <time name="total">    8.63    8.64</time>
   <energy>
    <i name="alphaZ">      4.67081296 </i>
    <i name="ewald">  13013.21368593 </i>
    <i name="hartreedc"> -22060.97350032 </i>
    <i name="XCdc">     60.37836463 </i>
    <i name="pawpsdc">  10153.74785306 </i>
    <i name="pawaedc"> -10318.88563173 </i>
    <i name="eentropy">     -0.00186583 </i>
    <i name="bandstr">   -595.05797278 </i>
    <i name="atom">   9704.95859309 </i>
    <i name="e_fr_energy">    -37.94966100 </i>
    <i name="e_wo_entrp">    -37.94779517 </i>
    <i name="e_0_energy">    -37.94903906 </i>
   </energy>
  </scstep>
  <scstep>
   <time name="dav">    3.97    3.98</time>
   <time name="total">    6.31    6.32</time>
   <energy>
    <i name="alphaZ">      4.67081296 </i>
    <i name="ewald">  13013.21368593 </i>
    <i name="hartreedc"> -22060.95060321 </i>
    <i name="XCdc">     60.37751454 </i>
    <i name="pawpsdc">  10153.83523709 </i>
    <i name="pawaedc"> -10318.96391706 </i>
    <i name="eentropy">     -0.00160476 </i>
    <i name="bandstr">   -595.08939279 </i>
    <i name="atom">   9704.95859309 </i>
    <i name="e_fr_energy">    -37.94967422 </i>
    <i name="e_wo_entrp">    -37.94806946 </i>
    <i name="e_0_energy">    -37.94913930 </i>
   </energy>
  </scstep>
  <structure>
   <crystal>
    <varray name="basis" >
     <v>      23.86529926       0.00000000       0.00000000 </v>
     <v>       0.00000000      22.31730700       0.00000000 </v>
     <v>       0.00000000       0.00000000      22.77980485 </v>
    </varray>
    <i name="volume">  12132.73386945 </i>
    <varray name="rec_basis" >
     <v>       0.04190184       0.00000000       0.00000000 </v>
     <v>       0.00000000       0.04480827       0.00000000 </v>
     <v>       0.00000000       0.00000000       0.04389853 </v>
    </varray>
   </crystal>
   <varray name="positions" >
    <v>       0.45908693       0.48187318       0.55508913 </v>
    <v>       0.52796454       0.41041351       0.54370588 </v>
    <v>       0.49723864       0.57882559       0.52943577 </v>
    <v>       0.53330360       0.48729270       0.47590006 </v>
    <v>       0.58963784       0.56706921       0.50247444 </v>
    <v>       0.44058625       0.52450939       0.45955784 </v>
    <v>       0.56229069       0.50470104       0.58697985 </v>
    <v>       0.45534657       0.41248919       0.46791940 </v>
    <v>       0.39721748       0.56771731       0.54542361 </v>
    <v>       0.52325644       0.58468784       0.42243048 </v>
   </varray>
  </structure>
  <varray name="forces" >
   <v>       0.03762360      -0.06576464       0.00516839 </v>
   <v>       0.02952344       0.05763422      -0.04777706 </v>
   <v>       0.07245499       0.01052239      -0.02373260 </v>
   <v>      -0.00244921      -0.00367762      -0.00192728 </v>
   <v>      -0.01839123      -0.07821395      -0.00983391 </v>
   <v>      -0.01546028       0.00401553       0.00251491 </v>
   <v>      -0.08330832       0.03471033      -0.00347348 </v>
   <v>       0.02851122      -0.00038839       0.01388118 </v>
   <v>      -0.07354484       0.04352870       0.05672708 </v>
   <v>       0.02504062      -0.00236656       0.00845278 </v>
  </varray>
  <energy>
   <i name="e_fr_energy">    -37.94967422 </i>
   <i name="e_wo_entrp">    -37.94806946 </i>
   <i name="e_0_energy">    -37.94913930 </i>
  </energy>
  <time name="totalsc">   23.94   23.98</time>
 </calculation>
 <calculation>
  <scstep>
   <time name="dav">    5.39    5.40</time>
   <time name="total">    8.37    8.38</time>
   <energy>
    <i name="alphaZ">      4.67081296 </i>
    <i name="ewald">  13028.51579405 </i>
    <i name="hartreedc"> -22076.04159048 </i>
    <i name="XCdc">     60.40849026 </i>
    <i name="pawpsdc">  10153.86110216 </i>
    <i name="pawaedc"> -10318.99395922 </i>
    <i name="eentropy">     -0.00382392 </i>
    <i name="bandstr">   -595.32418167 </i>
    <i name="atom">   9704.95859309 </i>
    <i name="e_fr_energy">    -37.94876277 </i>
    <i name="e_wo_entrp">    -37.94493885 </i>
    <i name="e_0_energy">    -37.94748813 </i>
   </energy>
  </scstep>
  <scstep>
   <time name="dav">    7.36    7.37</time>
   <time name="total">   10.33   10.35</time>
   <energy>
    <i name="e_fr_energy">    -37.95672972 </i>
    <i name="e_wo_entrp">    -37.96201097 </i>
    <i name="e_0_energy">    -37.95849014 </i>
   </energy>
  </scstep>
  <scstep>
   <time name="dav">    6.44    6.45</time>
   <time name="total">    9.42    9.43</time>
   <energy>
    <i name="e_fr_energy">    -37.95069476 </i>
    <i name="e_wo_entrp">    -37.94541960 </i>
    <i name="e_0_energy">    -37.94893637 </i>
   </energy>
  </scstep>
  <scstep>
   <time name="dav">    6.98    6.98</time>
   <time name="total">    9.97    9.98</time>
   <energy>
    <i name="e_fr_energy">    -37.95308283 </i>
    <i name="e_wo_entrp">    -37.94786040 </i>
    <i name="e_0_energy">    -37.95134202 </i>
   </energy>
  </scstep>
  <scstep>
   <time name="dav">    6.52    6.52</time>
   <time name="total">    9.50    9.51</time>
   <energy>
    <i name="e_fr_energy">    -37.95073832 </i>
    <i name="e_wo_entrp">    -37.94742705 </i>
    <i name="e_0_energy">    -37.94963456 </i>
   </energy>
  </scstep>
  <scstep>
   <time name="dav">    6.13    6.14</time>
   <time name="total">    9.13    9.14</time>
   <energy>
    <i name="e_fr_energy">    -37.95192914 </i>
    <i name="e_wo_entrp">    -37.94932598 </i>
    <i name="e_0_energy">    -37.95106142 </i>
   </energy>
  </scstep>
  <scstep>
   <time name="dav">    5.27    5.28</time>
   <time name="total">    8.27    8.29</time>
   <energy>
    <i name="e_fr_energy">    -37.95176911 </i>
    <i name="e_wo_entrp">    -37.94859455 </i>
    <i name="e_0_energy">    -37.95071093 </i>
   </energy>
  </scstep>
  <scstep>
   <time name="dav">    4.19    4.20</time>
   <time name="total">    7.19    7.21</time>
   <energy>
    <i name="e_fr_energy">    -37.95210516 </i>
    <i name="e_wo_entrp">    -37.94899493 </i>
[...]
       <r>    -1.6240     1.4496    60.0078 </r>
       <r>    -1.5778     0.5490    60.0331 </r>
       <r>    -1.5316     0.0106    60.0336 </r>
       <r>    -1.4855    -0.2054    60.0241 </r>
       <r>    -1.4393    -0.2273    60.0136 </r>
       <r>    -1.3931    -0.1817    60.0052 </r>
       <r>    -1.3469    -0.1507    59.9983 </r>
       <r>    -1.3007    -0.1697    59.9904 </r>
       <r>    -1.2546    -0.2364    59.9795 </r>
       <r>    -1.2084    -0.3078    59.9653 </r>
       <r>    -1.1622    -0.2867    59.9521 </r>
       <r>    -1.1160    -0.0255    59.9509 </r>
       <r>    -1.0698     0.6296    59.9800 </r>
       <r>    -1.0237     1.7512    60.0608 </r>
       <r>    -0.9775     3.2501    60.2109 </r>
       <r>    -0.9313     4.8654    60.4356 </r>
       <r>    -0.8851     6.2569    60.7246 </r>
       <r>    -0.8389     7.1542    61.0549 </r>
       <r>    -0.7928     7.4640    61.3996 </r>
       <r>    -0.7466     7.2690    61.7353 </r>
       <r>    -0.7004     6.7371    62.0464 </r>
       <r>    -0.6542     6.0329    62.3250 </r>
       <r>    -0.6080     5.3013    62.5698 </r>
       <r>    -0.5619     4.7084    62.7873 </r>
       <r>    -0.5157     4.4538    62.9929 </r>
       <r>    -0.4695     4.7049    63.2102 </r>
       <r>    -0.4233     5.4941    63.4639 </r>
       <r>    -0.3771     6.6627    63.7716 </r>
       <r>    -0.3310     7.8901    64.1360 </r>
       <r>    -0.2848     8.7809    64.5415 </r>
       <r>    -0.2386     8.9779    64.9561 </r>
       <r>    -0.1924     8.2873    65.3388 </r>
       <r>    -0.1462     6.7775    65.6518 </r>
       <r>    -0.1001     4.7838    65.8727 </r>
       <r>    -0.0539     2.7796    66.0010 </r>
       <r>    -0.0077     1.1743    66.0553 </r>
       <r>     0.0385     0.1617    66.0627 </r>
       <r>     0.0847    -0.2999    66.0489 </r>
       <r>     0.1308    -0.3911    66.0308 </r>
       <r>     0.1770    -0.3093    66.0165 </r>
       <r>     0.2232    -0.1910    66.0077 </r>
       <r>     0.2694    -0.0986    66.0032 </r>
       <r>     0.3156    -0.0437    66.0012 </r>
       <r>     0.3617    -0.0169    66.0004 </r>
       <r>     0.4079    -0.0058    66.0001 </r>
       <r>     0.4541    -0.0017    66.0000 </r>
       <r>     0.5003    -0.0005    66.0000 </r>
       <r>     0.5465    -0.0001    66.0000 </r>
       <r>     0.5926    -0.0000    66.0000 </r>
       <r>     0.6388    -0.0000    66.0000 </r>
       <r>     0.6850    -0.0000    66.0000 </r>
       <r>     0.7312    -0.0000    66.0000 </r>
       <r>     0.7774    -0.0000    66.0000 </r>
       <r>     0.8235    -0.0000    66.0000 </r>
       <r>     0.8697    -0.0000    66.0000 </r>
       <r>     0.9159    -0.0000    66.0000 </r>
       <r>     0.9621    -0.0000    66.0000 </r>
       <r>     1.0083    -0.0000    66.0000 </r>
       <r>     1.0544    -0.0000    66.0000 </r>
       <r>     1.1006     0.0000    66.0000 </r>
       <r>     1.1468     0.0000    66.0000 </r>
       <r>     1.1930     0.0000    66.0000 </r>
       <r>     1.2392     0.0000    66.0000 </r>
       <r>     1.2853     0.0000    66.0000 </r>
       <r>     1.3315     0.0000    66.0000 </r>
       <r>     1.3777     0.0000    66.0000 </r>
       <r>     1.4239     0.0000    66.0000 </r>
       <r>     1.4701     0.0000    66.0000 </r>
       <r>     1.5162     0.0000    66.0000 </r>
       <r>     1.5624     0.0000    66.0000 </r>
       <r>     1.6086     0.0000    66.0000 </r>
       <r>     1.6548     0.0000    66.0000 </r>
       <r>     1.7009     0.0000    66.0000 </r>
       <r>     1.7471     0.0000    66.0000 </r>
       <r>     1.7933     0.0000    66.0000 </r>
       <r>     1.8395     0.0000    66.0000 </r>
       <r>     1.8857     0.0000    66.0000 </r>
       <r>     1.9318     0.0000    66.0000 </r>
       <r>     1.9780     0.0000    66.0000 </r>
      </set>
      <set comment="spin 2">
       <r>   -11.8759     0.0000     0.0000 </r>
       <r>   -11.8297     0.0000     0.0000 </r>
       <r>   -11.7836     0.0000     0.0000 </r>
       <r>   -11.7374     0.0000     0.0000 </r>
       <r>   -11.6912     0.0000     0.0000 </r>
       <r>   -11.6450     0.0000     0.0000 </r>
       <r>   -11.5989     0.0000     0.0000 </r>
       <r>   -11.5527     0.0000     0.0000 </r>
       <r>   -11.5065     0.0000     0.0000 </r>
       <r>   -11.4603     0.0000     0.0000 </r>
       <r>   -11.4141    -0.0000    -0.0000 </r>
       <r>   -11.3680    -0.0000    -0.0000 </r>
       <r>   -11.3218    -0.0000    -0.0000 </r>
       <r>   -11.2756    -0.0000    -0.0000 </r>
       <r>   -11.2294    -0.0000    -0.0000 </r>
       <r>   -11.1832    -0.0000    -0.0000 </r>
       <r>   -11.1371    -0.0000    -0.0000 </r>
       <r>   -11.0909    -0.0000    -0.0000 </r>
       <r>   -11.0447    -0.0000    -0.0000 </r>
       <r>   -10.9985    -0.0000    -0.0000 </r>
       <r>   -10.9523    -0.0000    -0.0000 </r>
       <r>   -10.9062    -0.0000    -0.0000 </r>
       <r>   -10.8600    -0.0000    -0.0000 </r>
       <r>   -10.8138    -0.0000    -0.0000 </r>
       <r>   -10.7676    -0.0000    -0.0000 </r>
       <r>   -10.7214    -0.0000    -0.0000 </r>
       <r>   -10.6753    -0.0000    -0.0000 </r>
       <r>   -10.6291    -0.0000    -0.0000 </r>
       <r>   -10.5829    -0.0000    -0.0000 </r>
       <r>   -10.5367    -0.0000    -0.0000 </r>
       <r>   -10.4905    -0.0001    -0.0000 </r>
       <r>   -10.4444    -0.0003    -0.0000 </r>
       <r>   -10.3982    -0.0012    -0.0001 </r>
       <r>   -10.3520    -0.0040    -0.0003 </r>
       <r>   -10.3058    -0.0119    -0.0008 </r>
       <r>   -10.2596    -0.0306    -0.0022 </r>
       <r>   -10.2135    -0.0683    -0.0054 </r>
       <r>   -10.1673    -0.1292    -0.0113 </r>
       <r>   -10.1211    -0.1989    -0.0205 </r>
       <r>   -10.0749    -0.2233    -0.0308 </r>
       <r>   -10.0287    -0.0966    -0.0353 </r>
       <r>    -9.9826     0.3136    -0.0208 </r>
       <r>    -9.9364     1.0894     0.0295 </r>
       <r>    -9.8902     2.1628     0.1294 </r>
       <r>    -9.8440     3.2710     0.2804 </r>
       <r>    -9.7978     4.0375     0.4669 </r>
       <r>    -9.7517     4.1602     0.6590 </r>
       <r>    -9.7055     3.5882     0.8247 </r>
       <r>    -9.6593     2.5530     0.9426 </r>
       <r>    -9.6131     1.4296     1.0086 </r>
       <r>    -9.5669     0.5353     1.0333 </r>
       <r>    -9.5208     0.0046     1.0335 </r>
       <r>    -9.4746    -0.2039     1.0241 </r>
       <r>    -9.4284    -0.2165     1.0141 </r>
       <r>    -9.3822    -0.1535     1.0070 </r>
       <r>    -9.3360    -0.0865     1.0030 </r>
       <r>    -9.2899    -0.0409     1.0012 </r>
       <r>    -9.2437    -0.0166     1.0004 </r>
       <r>    -9.1975    -0.0059     1.0001 </r>
       <r>    -9.1513    -0.0018     1.0000 </r>
       <r>    -9.1051    -0.0005     1.0000 </r>
       <r>    -9.0590    -0.0001     1.0000 </r>
       <r>    -9.0128    -0.0000     1.0000 </r>
       <r>    -8.9666    -0.0000     1.0000 </r>
       <r>    -8.9204    -0.0000     1.0000 </r>
       <r>    -8.8742    -0.0000     1.0000 </r>
       <r>    -8.8281    -0.0001     1.0000 </r>
       <r>    -8.7819    -0.0005     1.0000 </r>
       <r>    -8.7357    -0.0019     0.9999 </r>
       <r>    -8.6895    -0.0061     0.9996 </r>
       <r>    -8.6433    -0.0173     0.9988 </r>
       <r>    -8.5972    -0.0427     0.9968 </r>
       <r>    -8.5510    -0.0913     0.9926 </r>
       <r>    -8.5048    -0.1656     0.9850 </r>
       <r>    -8.4586    -0.2448     0.9737 </r>
       <r>    -8.4124    -0.2641     0.9615 </r>
       <r>    -8.3663    -0.1076     0.9565 </r>
       <r>    -8.3201     0.3608     0.9732 </r>
       <r>    -8.2739     1.2276     1.0299 </r>
       <r>    -8.2277     2.4530     1.1431 </r>
       <r>    -8.1815     3.8487     1.3209 </r>
       <r>    -8.1354     5.1334     1.5579 </r>
       <r>    -8.0892     6.0341     1.8366 </r>
       <r>    -8.0430     6.3636     2.1304 </r>
       <r>    -7.9968     6.0487     2.4098 </r>
       <r>    -7.9506     5.1364     2.6470 </r>
       <r>    -7.9045     3.8054     2.8227 </r>
       <r>    -7.8583     2.3629     2.9318 </r>
       <r>    -7.8121     1.1846     2.9865 </r>
       <r>    -7.7659     0.5954     3.0140 </r>
       <r>    -7.7197     0.7372     3.0481 </r>
       <r>    -7.6736     1.4914     3.1169 </r>
       <r>    -7.6274     2.5079     3.2328 </r>
       <r>    -7.5812     3.3642     3.3881 </r>
       <r>    -7.5350     3.7988     3.5635 </r>
       <r>    -7.4888     3.8820     3.7428 </r>
       <r>    -7.4427     3.9754     3.9264 </r>
       <r>    -7.3965     4.4678     4.1327 </r>
       <r>    -7.3503     5.4690     4.3853 </r>
       <r>    -7.3041     6.7065     4.6950 </r>
       <r>    -7.2579     7.7161     5.0513 </r>
       <r>    -7.2118     8.1739     5.4288 </r>
       <r>    -7.1656     8.1013     5.8029 </r>
       <r>    -7.1194     7.7986     6.1630 </r>
       <r>    -7.0732     7.5974     6.5139 </r>
       <r>    -7.0270     7.6488     6.8671 </r>
       <r>    -6.9809     7.8928     7.2316 </r>
       <r>    -6.9347     8.1872     7.6097 </r>
       <r>    -6.8885     8.4577     8.0003 </r>
       <r>    -6.8423     8.7413     8.4039 </r>
       <r>    -6.7961     9.0822     8.8233 </r>
       <r>    -6.7500     9.3735     9.2562 </r>
       <r>    -6.7038     9.3131     9.6863 </r>
       <r>    -6.6576     8.5915    10.0830 </r>
       <r>    -6.6114     7.2253    10.4167 </r>
       <r>    -6.5652     5.7659    10.6830 </r>
       <r>    -6.5191     5.1402    10.9203 </r>
       <r>    -6.4729     6.1616    11.2049 </r>
       <r>    -6.4267     9.0315    11.6220 </r>
       <r>    -6.3805    13.1774    12.2305 </r>
       <r>    -6.3343    17.5187    13.0395 </r>
       <r>    -6.2882    20.9493    14.0069 </r>
       <r>    -6.2420    22.7433    15.0572 </r>
       <r>    -6.1958    22.7220    16.1065 </r>
       <r>    -6.1496    21.1990    17.0855 </r>
       <r>    -6.1034    18.7810    17.9528 </r>
       <r>    -6.0573    16.0943    18.6960 </r>
       <r>    -6.0111    13.5347    19.3211 </r>
       <r>    -5.9649    11.1793    19.8373 </r>
       <r>    -5.9187     8.9328    20.2498 </r>
       <r>    -5.8725     6.8079    20.5642 </r>
       <r>    -5.8264     5.1019    20.7998 </r>
       <r>    -5.7802     4.2930    20.9981 </r>
       <r>    -5.7340     4.7148    21.2158 </r>
       <r>    -5.6878     6.2699    21.5053 </r>
       <r>    -5.6416     8.4255    21.8944 </r>
       <r>    -5.5955    10.5031    22.3795 </r>
       <r>    -5.5493    12.0231    22.9347 </r>
       <r>    -5.5031    12.8541    23.5283 </r>
       <r>    -5.4569    13.1205    24.1342 </r>
       <r>    -5.4107    13.0348    24.7361 </r>
       <r>    -5.3646    12.8106    25.3277 </r>
       <r>    -5.3184    12.6527    25.9120 </r>
       <r>    -5.2722    12.7341    26.5001 </r>
       <r>    -5.2260    13.1412    27.1069 </r>
       <r>    -5.1798    13.8501    27.7465 </r>
       <r>    -5.1337    14.7602    28.4282 </r>
       <r>    -5.0875    15.7233    29.1543 </r>
       <r>    -5.0413    16.5211    29.9172 </r>
       <r>    -4.9951    16.8451    30.6951 </r>
       <r>    -4.9490    16.3757    31.4513 </r>
       <r>    -4.9028    14.9644    32.1424 </r>
       <r>    -4.8566    12.8038    32.7337 </r>
       <r>    -4.8104    10.4525    33.2164 </r>
       <r>    -4.7642     8.6739    33.6169 </r>
       <r>    -4.7181     8.1675    33.9941 </r>
       <r>    -4.6719     9.3219    34.4246 </r>
       <r>    -4.6257    12.0906    34.9829 </r>
       <r>    -4.5795    16.0085    35.7222 </r>
       <r>    -4.5333    20.2945    36.6594 </r>
       <r>    -4.4872    24.0029    37.7679 </r>
       <r>    -4.4410    26.2487    38.9800 </r>
       <r>    -4.3948    26.5222    40.2048 </r>
       <r>    -4.3486    24.9770    41.3582 </r>
       <r>    -4.3024    22.4559    42.3952 </r>
       <r>    -4.2563    20.1214    43.3244 </r>
       <r>    -4.2101    18.8598    44.1954 </r>
       <r>    -4.1639    18.8488    45.0658 </r>
       <r>    -4.1177    19.5833    45.9702 </r>
       <r>    -4.0715    20.2996    46.9076 </r>
       <r>    -4.0254    20.4569    47.8523 </r>
       <r>    -3.9792    19.9562    48.7739 </r>
       <r>    -3.9330    19.0337    49.6529 </r>
       <r>    -3.8868    17.9861    50.4835 </r>
       <r>    -3.8406    16.9342    51.2655 </r>
       <r>    -3.7945    15.7457    51.9926 </r>
       <r>    -3.7483    14.1374    52.6455 </r>
       <r>    -3.7021    11.8932    53.1947 </r>
       <r>    -3.6559     9.0635    53.6133 </r>
       <r>    -3.6097     6.0079    53.8907 </r>
       <r>    -3.5636     3.2394    54.0403 </r>
       <r>    -3.5174     1.1744    54.0945 </r>
       <r>    -3.4712    -0.0411    54.0926 </r>
       <r>    -3.4250    -0.5347    54.0679 </r>
       <r>    -3.3788    -0.5762    54.0413 </r>
       <r>    -3.3327    -0.4267    54.0216 </r>
       <r>    -3.2865    -0.2548    54.0099 </r>
       <r>    -3.2403    -0.1308    54.0038 </r>
       <r>    -3.1941    -0.0651    54.0008 </r>
       <r>    -3.1479    -0.0468    53.9986 </r>
       <r>    -3.1018    -0.0681    53.9955 </r>
       <r>    -3.0556    -0.1273    53.9896 </r>
       <r>    -3.0094    -0.2181    53.9795 </r>
       <r>    -2.9632    -0.3052    53.9655 </r>
       <r>    -2.9170    -0.3002    53.9516 </r>
       <r>    -2.8709    -0.0582    53.9489 </r>
       <r>    -2.8247     0.5798    53.9757 </r>
       <r>    -2.7785     1.6987    54.0541 </r>
       <r>    -2.7323     3.2203    54.2028 </r>
       <r>    -2.6861     4.8835    54.4284 </r>
       <r>    -2.6400     6.3320    54.7208 </r>
       <r>    -2.5938     7.2696    55.0565 </r>
       <r>    -2.5476     7.5831    55.4067 </r>
       <r>    -2.5014     7.3560    55.7464 </r>
       <r>    -2.4552     6.7856    56.0597 </r>
       <r>    -2.4091     6.0902    56.3410 </r>
       <r>    -2.3629     5.4782    56.5939 </r>
       <r>    -2.3167     5.1548    56.8320 </r>
       <r>    -2.2705     5.2830    57.0760 </r>
       <r>    -2.2243     5.8716    57.3471 </r>
       <r>    -2.1782     6.6801    57.6556 </r>
       <r>    -2.1320     7.2664    57.9912 </r>
       <r>    -2.0858     7.1980    58.3236 </r>
       <r>    -2.0396     6.2942    58.6142 </r>
       <r>    -1.9934     4.7269    58.8325 </r>
       <r>    -1.9473     2.9150    58.9671 </r>
       <r>    -1.9011     1.3002    59.0272 </r>
       <r>    -1.8549     0.1655    59.0348 </r>
       <r>    -1.8087    -0.4029    59.0162 </r>
       <r>    -1.7625    -0.4335    58.9962 </r>
       <r>    -1.7164     0.0242    58.9973 </r>
       <r>    -1.6702     0.9089    59.0393 </r>
       <r>    -1.6240     2.0758    59.1351 </r>
       <r>    -1.5778     3.2388    59.2847 </r>
       <r>    -1.5316     4.0258    59.4706 </r>
       <r>    -1.4855     4.1490    59.6622 </r>
       <r>    -1.4393     3.5713    59.8271 </r>
       <r>    -1.3931     2.5327    59.9441 </r>
       <r>    -1.3469     1.4103    60.0092 </r>
       <r>    -1.3007     0.5182    60.0332 </r>
       <r>    -1.2546    -0.0161    60.0324 </r>
       <r>    -1.2084    -0.2439    60.0212 </r>
       <r>    -1.1622    -0.3033    60.0072 </r>
       <r>    -1.1160    -0.3229    59.9922 </r>
       <r>    -1.0698    -0.3634    59.9755 </r>
       <r>    -1.0237    -0.3936    59.9573 </r>
       <r>    -0.9775    -0.2876    59.9440 </r>
       <r>    -0.9313     0.1455    59.9507 </r>
       <r>    -0.8851     1.0812    60.0007 </r>
       <r>    -0.8389     2.5545    60.1186 </r>
       <r>    -0.7928     4.3611    60.3200 </r>
       <r>    -0.7466     6.0756    60.6006 </r>
       <r>    -0.7004     7.2261    60.9343 </r>
       <r>    -0.6542     7.5402    61.2825 </r>
       <r>    -0.6080     7.0963    61.6102 </r>
       <r>    -0.5619     6.2575    61.8992 </r>
       <r>    -0.5157     5.4371    62.1503 </r>
       <r>    -0.4695     4.8786    62.3755 </r>
       <r>    -0.4233     4.6124    62.5885 </r>
       <r>    -0.3771     4.5788    62.8000 </r>
       <r>    -0.3310     4.7667    63.0201 </r>
       <r>    -0.2848     5.2370    63.2620 </r>
       <r>    -0.2386     6.0357    63.5407 </r>
       <r>    -0.1924     7.0890    63.8681 </r>
       <r>    -0.1462     8.1586    64.2448 </r>
       <r>    -0.1001     8.8814    64.6550 </r>
       <r>    -0.0539     8.8928    65.0656 </r>
       <r>    -0.0077     8.0007    65.4351 </r>
       <r>     0.0385     6.3155    65.7268 </r>
       <r>     0.0847     4.2354    65.9223 </r>
       <r>     0.1308     2.2670    66.0270 </r>
       <r>     0.1770     0.7949    66.0637 </r>
       <r>     0.2232    -0.0520    66.0613 </r>
       <r>     0.2694    -0.3767    66.0439 </r>
       <r>     0.3156    -0.3879    66.0260 </r>
       <r>     0.3617    -0.2770    66.0132 </r>
       <r>     0.4079    -0.1593    66.0059 </r>
       <r>     0.4541    -0.0774    66.0023 </r>
       <r>     0.5003    -0.0325    66.0008 </r>
       <r>     0.5465    -0.0120    66.0002 </r>
       <r>     0.5926    -0.0039    66.0001 </r>
       <r>     0.6388    -0.0011    66.0000 </r>
       <r>     0.6850    -0.0003    66.0000 </r>
       <r>     0.7312    -0.0001    66.0000 </r>
       <r>     0.7774    -0.0000    66.0000 </r>
       <r>     0.8235    -0.0000    66.0000 </r>
       <r>     0.8697    -0.0000    66.0000 </r>
       <r>     0.9159    -0.0000    66.0000 </r>
       <r>     0.9621    -0.0000    66.0000 </r>
       <r>     1.0083    -0.0000    66.0000 </r>
       <r>     1.0544    -0.0000    66.0000 </r>
       <r>     1.1006    -0.0000    66.0000 </r>
       <r>     1.1468    -0.0000    66.0000 </r>
       <r>     1.1930    -0.0000    66.0000 </r>
       <r>     1.2392    -0.0000    66.0000 </r>
       <r>     1.2853     0.0000    66.0000 </r>
       <r>     1.3315     0.0000    66.0000 </r>
       <r>     1.3777     0.0000    66.0000 </r>
       <r>     1.4239     0.0000    66.0000 </r>
       <r>     1.4701     0.0000    66.0000 </r>
       <r>     1.5162     0.0000    66.0000 </r>
       <r>     1.5624     0.0000    66.0000 </r>
       <r>     1.6086     0.0000    66.0000 </r>
       <r>     1.6548     0.0000    66.0000 </r>
       <r>     1.7009     0.0000    66.0000 </r>
       <r>     1.7471     0.0000    66.0000 </r>
       <r>     1.7933     0.0000    66.0000 </r>
       <r>     1.8395     0.0000    66.0000 </r>
       <r>     1.8857     0.0000    66.0000 </r>
       <r>     1.9318     0.0000    66.0000 </r>
       <r>     1.9780     0.0000    66.0000 </r>
      </set>
     </set>
    </array>
   </total>
  </dos>
 </calculation>
 <structure name="finalpos" >
  <crystal>
   <varray name="basis" >
    <v>      23.86529926       0.00000000       0.00000000 </v>
    <v>       0.00000000      22.31730700       0.00000000 </v>
    <v>       0.00000000       0.00000000      22.77980485 </v>
   </varray>
   <i name="volume">  12132.73386945 </i>
   <varray name="rec_basis" >
    <v>       0.04190184       0.00000000       0.00000000 </v>
    <v>       0.00000000       0.04480827       0.00000000 </v>
    <v>       0.00000000       0.00000000       0.04389853 </v>
   </varray>
  </crystal>
  <varray name="positions" >
   <v>       0.45883735       0.48087763       0.55392222 </v>
   <v>       0.52967011       0.41156043       0.54314475 </v>
   <v>       0.49749505       0.57896737       0.52801833 </v>
   <v>       0.53307417       0.48713837       0.47485321 </v>
   <v>       0.58983792       0.56500199       0.50273010 </v>
   <v>       0.43990401       0.52506344       0.46053645 </v>
   <v>       0.55982404       0.50622941       0.58819957 </v>
   <v>       0.45568693       0.41199630       0.46756411 </v>
   <v>       0.39779984       0.56804832       0.54791738 </v>
   <v>       0.52379954       0.58469569       0.42203035 </v>
  </varray>
 </structure>
</modeling>
