unknown system                          
            1
    23.865299    0.000000    0.000000
     0.000000   22.317307    0.000000
     0.000000    0.000000   22.779805
   Ni   Pd
     6     4
Direct configuration=     1
   0.45835211  0.48169263  0.55636937
   0.52963928  0.40370423  0.54540952
   0.49710578  0.58020545  0.53048943
   0.53367243  0.48732882  0.47655655
   0.59509367  0.57067842  0.50154707
   0.43900187  0.52462056  0.45697849
   0.55913874  0.50457044  0.58186375
   0.45546682  0.41402850  0.47013888
   0.39577063  0.56826511  0.54473919
   0.52268765  0.58448480  0.42482424
Direct configuration=     2
   0.45850750  0.48150695  0.55606373
   0.52887695  0.40560366  0.54478423
   0.49731432  0.58004725  0.53014978
   0.53390232  0.48723998  0.47669758
   0.59326258  0.56981085  0.50163946
   0.43903361  0.52481381  0.45781177
   0.55984771  0.50444341  0.58248431
   0.45569035  0.41381146  0.47011895
   0.39650342  0.56781720  0.54437059
   0.52299019  0.58448437  0.42479607
Direct configuration=     3
   0.45872843  0.48124295  0.55562917
   0.52779307  0.40830428  0.54389520
   0.49761083  0.57982231  0.52966687
   0.53422919  0.48711366  0.47689810
   0.59065915  0.56857735  0.50177082
   0.43907875  0.52508858  0.45899653
   0.56085573  0.50426281  0.58336662
   0.45600817  0.41350289  0.47009062
   0.39754531  0.56718037  0.54384652
   0.52342036  0.58448376  0.42475603
Direct configuration=     4
   0.45890120  0.48128672  0.55552247
   0.52771809  0.40921540  0.54384705
   0.49761062  0.57958590  0.52960513
   0.53401114  0.48709943  0.47650509
   0.59012434  0.56806445  0.50207746
   0.43960227  0.52484484  0.45904046
   0.56156282  0.50434834  0.58474688
   0.45573417  0.41307986  0.46927426
   0.39730371  0.56745023  0.54444842
   0.52336060  0.58460379  0.42384926
Direct configuration=     5
   0.45912873  0.48134435  0.55538195
   0.52761936  0.41041523  0.54378365
   0.49761034  0.57927458  0.52952383
   0.53372399  0.48708068  0.47598754
   0.58942008  0.56738902  0.50248126
   0.44029169  0.52452385  0.45909831
   0.56249397  0.50446097  0.58656451
   0.45537334  0.41252279  0.46819921
   0.39698555  0.56780561  0.54524105
   0.52328191  0.58476186  0.42265515
Direct configuration=     6
   0.45908857  0.48185245  0.55510060
   0.52795102  0.41041358  0.54370893
   0.49725320  0.57884318  0.52943922
   0.53332008  0.48728439  0.47590349
   0.58962930  0.56708174  0.50247471
   0.44057470  0.52450996  0.45953983
   0.56229865  0.50469163  0.58696358
   0.45534762  0.41249051  0.46793036
   0.39720839  0.56772077  0.54541646
   0.52325744  0.58469074  0.42243928
Direct configuration=     7
   0.45908693  0.48187318  0.55508913
   0.52796454  0.41041351  0.54370588
   0.49723864  0.57882559  0.52943577
   0.53330360  0.48729270  0.47590006
   0.58963784  0.56706921  0.50247444
   0.44058625  0.52450939  0.45955784
   0.56229069  0.50470104  0.58697985
   0.45534657  0.41248919  0.46791940
   0.39721748  0.56771731  0.54542361
   0.52325644  0.58468784  0.42243048
Direct configuration=     8
   0.45919494  0.48184809  0.55499216
   0.52819760  0.41061664  0.54350986
   0.49733241  0.57868665  0.52931901
   0.53313058  0.48736288  0.47585906
   0.58966245  0.56666717  0.50243770
   0.44065068  0.52451792  0.45974683
   0.56193545  0.50491796  0.58713077
   0.45543035  0.41247463  0.46785771
   0.39706527  0.56783660  0.54569176
   0.52332925  0.58465043  0.42237162
Direct configuration=     9
   0.45932825  0.48181712  0.55487247
   0.52848522  0.41086733  0.54326793
   0.49744813  0.57851518  0.52917490
   0.53291704  0.48744948  0.47580846
   0.58969283  0.56617098  0.50239235
   0.44073020  0.52452844  0.45998008
   0.56149703  0.50518568  0.58731702
   0.45553374  0.41245667  0.46778158
   0.39687741  0.56798382  0.54602270
   0.52341911  0.58460426  0.42229898
Direct configuration=    10
   0.45929353  0.48174516  0.55486407
   0.52866441  0.41098919  0.54313226
   0.49745927  0.57856615  0.52911393
   0.53292460  0.48741276  0.47568877
   0.58974999  0.56589912  0.50235545
   0.44063253  0.52459691  0.46009662
   0.56126408  0.50534495  0.58751350
   0.45557427  0.41239630  0.46772704
   0.39688086  0.56801709  0.54620014
   0.52348542  0.58461132  0.42222470
Direct configuration=    11
   0.45918938  0.48152929  0.55483886
   0.52920198  0.41135476  0.54272528
   0.49749269  0.57871909  0.52893101
   0.53294729  0.48730261  0.47532968
   0.58992148  0.56508355  0.50224473
   0.44033951  0.52480230  0.46044622
   0.56056522  0.50582273  0.58810296
   0.45569587  0.41221519  0.46756343
   0.39689122  0.56811693  0.54673246
   0.52368433  0.58463250  0.42200184
Direct configuration=    12
   0.45907218  0.48148005  0.55476747
   0.52924216  0.41133774  0.54278975
   0.49742413  0.57880685  0.52883711
   0.53297836  0.48727109  0.47518290
   0.58993741  0.56510853  0.50227459
   0.44027422  0.52485094  0.46048224
   0.56054686  0.50584511  0.58818027
   0.45568367  0.41222072  0.46757881
   0.39709157  0.56804135  0.54677242
   0.52367840  0.58461657  0.42205091
Direct configuration=    13
   0.45895400  0.48143039  0.55469548
   0.52928268  0.41132059  0.54285476
   0.49735499  0.57889535  0.52874241
   0.53300969  0.48723929  0.47503487
   0.58995348  0.56513373  0.50230470
   0.44020838  0.52489999  0.46051857
   0.56052835  0.50586768  0.58825825
   0.45567137  0.41222630  0.46759431
   0.39729361  0.56796512  0.54681272
   0.52367241  0.58460050  0.42210040
Direct configuration=    14
   0.45892325  0.48124436  0.55455478
   0.52930601  0.41142700  0.54292243
   0.49740822  0.57897100  0.52858113
   0.53303556  0.48717767  0.47494140
   0.58993032  0.56513832  0.50240196
   0.44013214  0.52492191  0.46048410
   0.56042264  0.50590071  0.58825636
   0.45567858  0.41222714  0.46763668
   0.39741405  0.56796404  0.54700033
   0.52367819  0.58460681  0.42213729
Direct configuration=    15
   0.45888247  0.48099761  0.55436816
   0.52933695  0.41156815  0.54301218
   0.49747884  0.57907133  0.52836721
   0.53306987  0.48709593  0.47481743
   0.58989959  0.56514442  0.50253096
   0.44003101  0.52495099  0.46043839
   0.56028244  0.50594451  0.58825386
   0.45568815  0.41222824  0.46769288
   0.39757379  0.56796261  0.54724917
   0.52368586  0.58461517  0.42218622
Direct configuration=    16
   0.45886411  0.48094880  0.55418674
   0.52947249  0.41156501  0.54306611
   0.49748543  0.57902904  0.52822528
   0.53307162  0.48711320  0.47483199
   0.58987450  0.56508647  0.50261197
   0.43997934  0.52499674  0.46047828
   0.56009595  0.50606041  0.58823178
   0.45568765  0.41213388  0.46764049
   0.39766575  0.56799748  0.54752102
   0.52373211  0.58464793  0.42212281
Direct configuration=    17
   0.45883735  0.48087763  0.55392222
   0.52967011  0.41156043  0.54314475
   0.49749505  0.57896737  0.52801833
   0.53307417  0.48713837  0.47485321
   0.58983792  0.56500199  0.50273010
   0.43990401  0.52506344  0.46053645
   0.55982404  0.50622941  0.58819957
   0.45568693  0.41199630  0.46756411
   0.39779984  0.56804832  0.54791738
   0.52379954  0.58469569  0.42203035
