   8   8   0   0
  0.1487762E+04  0.2308070E-08  0.2259730E-08  0.2282012E-08  0.5000000E-15
   1.0000000000000000E-004
  CAR 
 unknown system                          
      2.07086490    -12.56273902  301     -4.54663696      1.00000000
    -12.563  0.0000E+00  0.0000E+00  0.0000E+00  0.0000E+00
    -12.514  0.0000E+00  0.0000E+00  0.0000E+00  0.0000E+00
    -12.465  0.0000E+00  0.0000E+00  0.0000E+00  0.0000E+00
    -12.416  0.0000E+00  0.0000E+00  0.0000E+00  0.0000E+00
    -12.368  0.0000E+00  0.0000E+00  0.0000E+00  0.0000E+00
    -12.319  0.0000E+00  0.0000E+00  0.0000E+00  0.0000E+00
    -12.270  0.0000E+00  0.0000E+00  0.0000E+00  0.0000E+00
    -12.221  0.0000E+00  0.0000E+00  0.0000E+00  0.0000E+00
    -12.173 -0.3408E-29 -0.3408E-29 -0.1663E-30 -0.1663E-30
    -12.124 -0.1545E-27 -0.1545E-27 -0.7703E-29 -0.7703E-29
    -12.075 -0.6332E-26 -0.6332E-26 -0.3166E-27 -0.3166E-27
    -12.026 -0.2301E-24 -0.2301E-24 -0.1154E-25 -0.1154E-25
    -11.977 -0.7410E-23 -0.7410E-23 -0.3730E-24 -0.3730E-24
    -11.929 -0.2115E-21 -0.2115E-21 -0.1069E-22 -0.1069E-22
    -11.880 -0.5352E-20 -0.5352E-20 -0.2718E-21 -0.2718E-21
    -11.831 -0.1200E-18 -0.1200E-18 -0.6124E-20 -0.6124E-20
    -11.782 -0.2383E-17 -0.2383E-17 -0.1224E-18 -0.1224E-18
    -11.734 -0.4077E-16 -0.4077E-16 -0.2111E-17 -0.2111E-17
    -11.685 -0.6323E-15 -0.6323E-15 -0.3295E-16 -0.3295E-16
    -11.636 -0.8690E-14 -0.8690E-14 -0.4569E-15 -0.4569E-15
    -11.587 -0.1057E-12 -0.1057E-12 -0.5611E-14 -0.5611E-14
    -11.538 -0.1136E-11 -0.1136E-11 -0.6101E-13 -0.6101E-13
    -11.490 -0.1079E-10 -0.1079E-10 -0.5871E-12 -0.5871E-12
    -11.441 -0.9044E-10 -0.9044E-10 -0.4999E-11 -0.4999E-11
    -11.392 -0.6690E-09 -0.6690E-09 -0.3763E-10 -0.3763E-10
    -11.343 -0.4361E-08 -0.4361E-08 -0.2503E-09 -0.2503E-09
    -11.294 -0.2501E-07 -0.2501E-07 -0.1470E-08 -0.1470E-08
    -11.246 -0.1261E-06 -0.1261E-06 -0.7619E-08 -0.7619E-08
    -11.197 -0.5568E-06 -0.5568E-06 -0.3478E-07 -0.3478E-07
    -11.148 -0.2149E-05 -0.2149E-05 -0.1396E-06 -0.1396E-06
    -11.099 -0.7213E-05 -0.7213E-05 -0.4914E-06 -0.4914E-06
    -11.051 -0.2093E-04 -0.2093E-04 -0.1512E-05 -0.1512E-05
    -11.002 -0.5192E-04 -0.5192E-04 -0.4045E-05 -0.4045E-05
    -10.953 -0.1082E-03 -0.1082E-03 -0.9321E-05 -0.9321E-05
    -10.904 -0.1824E-03 -0.1824E-03 -0.1822E-04 -0.1822E-04
    -10.855 -0.2259E-03 -0.2259E-03 -0.2923E-04 -0.2923E-04
    -10.807 -0.1275E-03 -0.1275E-03 -0.3545E-04 -0.3545E-04
    -10.758  0.2667E-03  0.2667E-03 -0.2245E-04 -0.2245E-04
    -10.709  0.1064E-02  0.1064E-02  0.2943E-04  0.2943E-04
    -10.660  0.2194E-02  0.2194E-02  0.1365E-03  0.1365E-03
    -10.612  0.3352E-02  0.3352E-02  0.3000E-03  0.3000E-03
    -10.563  0.4094E-02  0.4094E-02  0.4997E-03  0.4997E-03
    -10.514  0.4096E-02  0.4096E-02  0.6995E-03  0.6995E-03
    -10.465  0.3355E-02  0.3355E-02  0.8631E-03  0.8631E-03
    -10.416  0.2198E-02  0.2198E-02  0.9703E-03  0.9703E-03
    -10.368  0.1067E-02  0.1067E-02  0.1022E-02  0.1022E-02
    -10.319  0.2684E-03  0.2684E-03  0.1035E-02  0.1035E-02
    -10.270 -0.1268E-03 -0.1268E-03  0.1029E-02  0.1029E-02
    -10.221 -0.2259E-03 -0.2259E-03  0.1018E-02  0.1018E-02
    -10.173 -0.1826E-03 -0.1826E-03  0.1009E-02  0.1009E-02
    -10.124 -0.1084E-03 -0.1084E-03  0.1004E-02  0.1004E-02
    -10.075 -0.5205E-04 -0.5205E-04  0.1002E-02  0.1002E-02
    -10.026 -0.2099E-04 -0.2099E-04  0.1000E-02  0.1000E-02
     -9.977 -0.7239E-05 -0.7239E-05  0.1000E-02  0.1000E-02
     -9.929 -0.2161E-05 -0.2161E-05  0.1000E-02  0.1000E-02
     -9.880 -0.5838E-06 -0.5838E-06  0.1000E-02  0.1000E-02
     -9.831 -0.2512E-06 -0.2512E-06  0.1000E-02  0.1000E-02
     -9.782 -0.5764E-06 -0.5764E-06  0.1000E-02  0.1000E-02
     -9.734 -0.2138E-05 -0.2138E-05  0.9999E-03  0.9999E-03
     -9.685 -0.7191E-05 -0.7191E-05  0.9995E-03  0.9995E-03
     -9.636 -0.2098E-04 -0.2098E-04  0.9985E-03  0.9985E-03
     -9.587 -0.5255E-04 -0.5255E-04  0.9959E-03  0.9959E-03
     -9.538 -0.1112E-03 -0.1112E-03  0.9905E-03  0.9905E-03
     -9.490 -0.1935E-03 -0.1935E-03  0.9811E-03  0.9811E-03
     -9.441 -0.2582E-03 -0.2582E-03  0.9685E-03  0.9685E-03
     -9.392 -0.2054E-03 -0.2054E-03  0.9584E-03  0.9584E-03
     -9.343  0.1114E-03  0.1114E-03  0.9639E-03  0.9639E-03
     -9.295  0.8148E-03  0.8148E-03  0.1004E-02  0.1004E-02
     -9.246  0.1903E-02  0.1903E-02  0.1096E-02  0.1096E-02
     -9.197  0.3200E-02  0.3200E-02  0.1253E-02  0.1253E-02
     -9.148  0.4434E-02  0.4434E-02  0.1469E-02  0.1469E-02
     -9.099  0.5392E-02  0.5392E-02  0.1732E-02  0.1732E-02
     -9.051  0.6025E-02  0.6025E-02  0.2026E-02  0.2026E-02
     -9.002  0.6406E-02  0.6406E-02  0.2338E-02  0.2338E-02
     -8.953  0.6588E-02  0.6588E-02  0.2660E-02  0.2660E-02
     -8.904  0.6509E-02  0.6509E-02  0.2977E-02  0.2977E-02
     -8.856  0.6062E-02  0.6062E-02  0.3273E-02  0.3273E-02
     -8.807  0.5264E-02  0.5264E-02  0.3530E-02  0.3530E-02
     -8.758  0.4403E-02  0.4403E-02  0.3744E-02  0.3744E-02
     -8.709  0.3969E-02  0.3969E-02  0.3938E-02  0.3938E-02
     -8.660  0.4364E-02  0.4364E-02  0.4151E-02  0.4151E-02
     -8.612  0.5571E-02  0.5571E-02  0.4422E-02  0.4422E-02
     -8.563  0.7094E-02  0.7094E-02  0.4769E-02  0.4769E-02
     -8.514  0.8275E-02  0.8275E-02  0.5172E-02  0.5172E-02
     -8.465  0.8736E-02  0.8736E-02  0.5598E-02  0.5598E-02
     -8.417  0.8572E-02  0.8572E-02  0.6016E-02  0.6016E-02
     -8.368  0.8135E-02  0.8135E-02  0.6413E-02  0.6413E-02
     -8.319  0.7681E-02  0.7681E-02  0.6788E-02  0.6788E-02
     -8.270  0.7225E-02  0.7225E-02  0.7140E-02  0.7140E-02
     -8.221  0.6703E-02  0.6703E-02  0.7467E-02  0.7467E-02
     -8.173  0.6206E-02  0.6206E-02  0.7770E-02  0.7770E-02
     -8.124  0.6028E-02  0.6028E-02  0.8064E-02  0.8064E-02
     -8.075  0.6486E-02  0.6486E-02  0.8380E-02  0.8380E-02
     -8.026  0.7703E-02  0.7703E-02  0.8756E-02  0.8756E-02
     -7.978  0.9525E-02  0.9525E-02  0.9221E-02  0.9221E-02
     -7.929  0.1160E-01  0.1160E-01  0.9786E-02  0.9786E-02
     -7.880  0.1349E-01  0.1349E-01  0.1044E-01  0.1044E-01
     -7.831  0.1479E-01  0.1479E-01  0.1117E-01  0.1117E-01
     -7.782  0.1510E-01  0.1510E-01  0.1190E-01  0.1190E-01
     -7.734  0.1416E-01  0.1416E-01  0.1259E-01  0.1259E-01
     -7.685  0.1203E-01  0.1203E-01  0.1318E-01  0.1318E-01
     -7.636  0.9213E-02  0.9213E-02  0.1363E-01  0.1363E-01
     -7.587  0.6496E-02  0.6496E-02  0.1395E-01  0.1395E-01
     -7.539  0.4590E-02  0.4590E-02  0.1417E-01  0.1417E-01
     -7.490  0.3770E-02  0.3770E-02  0.1435E-01  0.1435E-01
     -7.441  0.3864E-02  0.3864E-02  0.1454E-01  0.1454E-01
     -7.392  0.4542E-02  0.4542E-02  0.1476E-01  0.1476E-01
     -7.343  0.5618E-02  0.5618E-02  0.1504E-01  0.1504E-01
     -7.295  0.7063E-02  0.7063E-02  0.1538E-01  0.1538E-01
     -7.246  0.8813E-02  0.8813E-02  0.1581E-01  0.1581E-01
     -7.197  0.1058E-01  0.1058E-01  0.1633E-01  0.1633E-01
     -7.148  0.1192E-01  0.1192E-01  0.1691E-01  0.1691E-01
     -7.100  0.1240E-01  0.1240E-01  0.1751E-01  0.1751E-01
     -7.051  0.1190E-01  0.1190E-01  0.1810E-01  0.1810E-01
     -7.002  0.1060E-01  0.1060E-01  0.1861E-01  0.1861E-01
     -6.953  0.8948E-02  0.8948E-02  0.1905E-01  0.1905E-01
     -6.904  0.7484E-02  0.7484E-02  0.1941E-01  0.1941E-01
     -6.856  0.6648E-02  0.6648E-02  0.1974E-01  0.1974E-01
     -6.807  0.6652E-02  0.6652E-02  0.2006E-01  0.2006E-01
     -6.758  0.7399E-02  0.7399E-02  0.2042E-01  0.2042E-01
     -6.709  0.8545E-02  0.8545E-02  0.2084E-01  0.2084E-01
     -6.661  0.9717E-02  0.9717E-02  0.2131E-01  0.2131E-01
     -6.612  0.1072E-01  0.1072E-01  0.2184E-01  0.2184E-01
     -6.563  0.1157E-01  0.1157E-01  0.2240E-01  0.2240E-01
     -6.514  0.1225E-01  0.1225E-01  0.2300E-01  0.2300E-01
     -6.465  0.1256E-01  0.1256E-01  0.2361E-01  0.2361E-01
     -6.417  0.1222E-01  0.1222E-01  0.2421E-01  0.2421E-01
     -6.368  0.1120E-01  0.1120E-01  0.2475E-01  0.2475E-01
     -6.319  0.9872E-02  0.9872E-02  0.2524E-01  0.2524E-01
     -6.270  0.8916E-02  0.8916E-02  0.2567E-01  0.2567E-01
     -6.222  0.8873E-02  0.8873E-02  0.2610E-01  0.2610E-01
     -6.173  0.9830E-02  0.9830E-02  0.2658E-01  0.2658E-01
     -6.124  0.1140E-01  0.1140E-01  0.2714E-01  0.2714E-01
     -6.075  0.1302E-01  0.1302E-01  0.2777E-01  0.2777E-01
     -6.026  0.1428E-01  0.1428E-01  0.2847E-01  0.2847E-01
     -5.978  0.1511E-01  0.1511E-01  0.2921E-01  0.2921E-01
     -5.929  0.1564E-01  0.1564E-01  0.2997E-01  0.2997E-01
     -5.880  0.1611E-01  0.1611E-01  0.3076E-01  0.3076E-01
     -5.831  0.1680E-01  0.1680E-01  0.3158E-01  0.3158E-01
     -5.783  0.1800E-01  0.1800E-01  0.3245E-01  0.3245E-01
     -5.734  0.1998E-01  0.1998E-01  0.3343E-01  0.3343E-01
     -5.685  0.2268E-01  0.2268E-01  0.3453E-01  0.3453E-01
     -5.636  0.2557E-01  0.2557E-01  0.3578E-01  0.3578E-01
     -5.587  0.2771E-01  0.2771E-01  0.3713E-01  0.3713E-01
     -5.539  0.2818E-01  0.2818E-01  0.3851E-01  0.3851E-01
     -5.490  0.2652E-01  0.2652E-01  0.3980E-01  0.3980E-01
     -5.441  0.2292E-01  0.2292E-01  0.4092E-01  0.4092E-01
     -5.392  0.1809E-01  0.1809E-01  0.4180E-01  0.4180E-01
     -5.343  0.1289E-01  0.1289E-01  0.4243E-01  0.4243E-01
     -5.295  0.8105E-02  0.8105E-02  0.4283E-01  0.4283E-01
     -5.246  0.4245E-02  0.4245E-02  0.4303E-01  0.4303E-01
     -5.197  0.1553E-02  0.1553E-02  0.4311E-01  0.4311E-01
     -5.148 -0.1172E-04 -0.1172E-04  0.4311E-01  0.4311E-01
     -5.100 -0.7037E-03 -0.7037E-03  0.4307E-01  0.4307E-01
     -5.051 -0.8559E-03 -0.8559E-03  0.4303E-01  0.4303E-01
     -5.002 -0.7261E-03 -0.7261E-03  0.4300E-01  0.4300E-01
     -4.953 -0.4002E-03 -0.4002E-03  0.4298E-01  0.4298E-01
     -4.904  0.1876E-03  0.1876E-03  0.4299E-01  0.4299E-01
     -4.856  0.1118E-02  0.1118E-02  0.4304E-01  0.4304E-01
     -4.807  0.2313E-02  0.2313E-02  0.4315E-01  0.4315E-01
     -4.758  0.3461E-02  0.3461E-02  0.4332E-01  0.4332E-01
     -4.709  0.4134E-02  0.4134E-02  0.4352E-01  0.4352E-01
     -4.661  0.4043E-02  0.4043E-02  0.4372E-01  0.4372E-01
     -4.612  0.3232E-02  0.3232E-02  0.4388E-01  0.4388E-01
     -4.563  0.2056E-02  0.2056E-02  0.4398E-01  0.4398E-01
     -4.514  0.9523E-03  0.9523E-03  0.4403E-01  0.4403E-01
     -4.465  0.2022E-03  0.2022E-03  0.4404E-01  0.4404E-01
     -4.417 -0.1508E-03 -0.1508E-03  0.4403E-01  0.4403E-01
     -4.368 -0.2255E-03 -0.2255E-03  0.4402E-01  0.4402E-01
     -4.319 -0.1743E-03 -0.1743E-03  0.4401E-01  0.4401E-01
     -4.270 -0.1017E-03 -0.1017E-03  0.4400E-01  0.4400E-01
     -4.222 -0.5159E-04 -0.5159E-04  0.4400E-01  0.4400E-01
     -4.173 -0.3225E-04 -0.3225E-04  0.4400E-01  0.4400E-01
     -4.124 -0.4239E-04 -0.4239E-04  0.4400E-01  0.4400E-01
     -4.075 -0.8301E-04 -0.8301E-04  0.4399E-01  0.4399E-01
     -4.026 -0.1512E-03 -0.1512E-03  0.4399E-01  0.4399E-01
     -3.978 -0.2173E-03 -0.2173E-03  0.4398E-01  0.4398E-01
     -3.929 -0.1976E-03 -0.1976E-03  0.4397E-01  0.4397E-01
     -3.880  0.4907E-04  0.4907E-04  0.4397E-01  0.4397E-01
     -3.831  0.6604E-03  0.6604E-03  0.4400E-01  0.4400E-01
     -3.783  0.1648E-02  0.1648E-02  0.4408E-01  0.4408E-01
     -3.734  0.2795E-02  0.2795E-02  0.4422E-01  0.4422E-01
     -3.685  0.3690E-02  0.3690E-02  0.4440E-01  0.4440E-01
     -3.636  0.3956E-02  0.3956E-02  0.4459E-01  0.4459E-01
     -3.587  0.3523E-02  0.3523E-02  0.4476E-01  0.4476E-01
     -3.539  0.2735E-02  0.2735E-02  0.4490E-01  0.4490E-01
     -3.490  0.2153E-02  0.2153E-02  0.4500E-01  0.4500E-01
     -3.441  0.2192E-02  0.2192E-02  0.4511E-01  0.4511E-01
     -3.392  0.2876E-02  0.2876E-02  0.4525E-01  0.4525E-01
     -3.344  0.3883E-02  0.3883E-02  0.4544E-01  0.4544E-01
     -3.295  0.4804E-02  0.4804E-02  0.4567E-01  0.4567E-01
     -3.246  0.5375E-02  0.5375E-02  0.4593E-01  0.4593E-01
     -3.197  0.5510E-02  0.5510E-02  0.4620E-01  0.4620E-01
     -3.148  0.5186E-02  0.5186E-02  0.4646E-01  0.4646E-01
     -3.100  0.4408E-02  0.4408E-02  0.4667E-01  0.4667E-01
     -3.051  0.3298E-02  0.3298E-02  0.4683E-01  0.4683E-01
     -3.002  0.2178E-02  0.2178E-02  0.4694E-01  0.4694E-01
     -2.953  0.1493E-02  0.1493E-02  0.4701E-01  0.4701E-01
     -2.905  0.1552E-02  0.1552E-02  0.4709E-01  0.4709E-01
     -2.856  0.2300E-02  0.2300E-02  0.4720E-01  0.4720E-01
     -2.807  0.3296E-02  0.3296E-02  0.4736E-01  0.4736E-01
     -2.758  0.3951E-02  0.3951E-02  0.4755E-01  0.4755E-01
     -2.709  0.3874E-02  0.3874E-02  0.4774E-01  0.4774E-01
     -2.661  0.3083E-02  0.3083E-02  0.4789E-01  0.4789E-01
     -2.612  0.1934E-02  0.1934E-02  0.4799E-01  0.4799E-01
     -2.563  0.8682E-03  0.8682E-03  0.4803E-01  0.4803E-01
     -2.514  0.1575E-03  0.1575E-03  0.4804E-01  0.4804E-01
     -2.466 -0.1657E-03 -0.1657E-03  0.4803E-01  0.4803E-01
     -2.417 -0.2251E-03 -0.2251E-03  0.4802E-01  0.4802E-01
     -2.368 -0.1708E-03 -0.1708E-03  0.4801E-01  0.4801E-01
     -2.319 -0.1042E-03 -0.1042E-03  0.4800E-01  0.4800E-01
     -2.270 -0.6941E-04 -0.6941E-04  0.4800E-01  0.4800E-01
     -2.222 -0.7831E-04 -0.7831E-04  0.4800E-01  0.4800E-01
     -2.173 -0.1295E-03 -0.1295E-03  0.4799E-01  0.4799E-01
     -2.124 -0.2041E-03 -0.2041E-03  0.4798E-01  0.4798E-01
     -2.075 -0.2431E-03 -0.2431E-03  0.4797E-01  0.4797E-01
     -2.027 -0.1304E-03 -0.1304E-03  0.4796E-01  0.4796E-01
     -1.978  0.2806E-03  0.2806E-03  0.4797E-01  0.4797E-01
     -1.929  0.1080E-02  0.1080E-02  0.4803E-01  0.4803E-01
     -1.880  0.2200E-02  0.2200E-02  0.4813E-01  0.4813E-01
     -1.831  0.3403E-02  0.3403E-02  0.4830E-01  0.4830E-01
     -1.783  0.4402E-02  0.4402E-02  0.4852E-01  0.4852E-01
     -1.734  0.5030E-02  0.5030E-02  0.4876E-01  0.4876E-01
     -1.685  0.5294E-02  0.5294E-02  0.4902E-01  0.4902E-01
     -1.636  0.5257E-02  0.5257E-02  0.4928E-01  0.4928E-01
     -1.588  0.4903E-02  0.4903E-02  0.4951E-01  0.4951E-01
     -1.539  0.4154E-02  0.4154E-02  0.4972E-01  0.4972E-01
     -1.490  0.3034E-02  0.3034E-02  0.4987E-01  0.4987E-01
     -1.441  0.1795E-02  0.1795E-02  0.4995E-01  0.4995E-01
     -1.392  0.8464E-03  0.8464E-03  0.4999E-01  0.4999E-01
     -1.344  0.5583E-03  0.5583E-03  0.5002E-01  0.5002E-01
     -1.295  0.1050E-02  0.1050E-02  0.5007E-01  0.5007E-01
     -1.246  0.2100E-02  0.2100E-02  0.5017E-01  0.5017E-01
     -1.197  0.3211E-02  0.3211E-02  0.5033E-01  0.5033E-01
     -1.149  0.3844E-02  0.3844E-02  0.5052E-01  0.5052E-01
     -1.100  0.3720E-02  0.3720E-02  0.5070E-01  0.5070E-01
     -1.051  0.2999E-02  0.2999E-02  0.5085E-01  0.5085E-01
     -1.002  0.2195E-02  0.2195E-02  0.5095E-01  0.5095E-01
     -0.953  0.1844E-02  0.1844E-02  0.5104E-01  0.5104E-01
     -0.905  0.2161E-02  0.2161E-02  0.5115E-01  0.5115E-01
     -0.856  0.2951E-02  0.2951E-02  0.5129E-01  0.5129E-01
     -0.807  0.3818E-02  0.3818E-02  0.5148E-01  0.5148E-01
     -0.758  0.4505E-02  0.4505E-02  0.5170E-01  0.5170E-01
     -0.710  0.5049E-02  0.5049E-02  0.5195E-01  0.5195E-01
     -0.661  0.5650E-02  0.5650E-02  0.5222E-01  0.5222E-01
     -0.612  0.6399E-02  0.6399E-02  0.5253E-01  0.5253E-01
     -0.563  0.7146E-02  0.7146E-02  0.5288E-01  0.5288E-01
     -0.514  0.7627E-02  0.7627E-02  0.5325E-01  0.5325E-01
     -0.466  0.7671E-02  0.7671E-02  0.5363E-01  0.5363E-01
     -0.417  0.7281E-02  0.7281E-02  0.5398E-01  0.5398E-01
     -0.368  0.6536E-02  0.6536E-02  0.5430E-01  0.5430E-01
     -0.319  0.5481E-02  0.5481E-02  0.5457E-01  0.5457E-01
     -0.271  0.4156E-02  0.4156E-02  0.5477E-01  0.5477E-01
     -0.222  0.2719E-02  0.2719E-02  0.5490E-01  0.5490E-01
     -0.173  0.1496E-02  0.1496E-02  0.5498E-01  0.5498E-01
     -0.124  0.8683E-03  0.8682E-03  0.5502E-01  0.5502E-01
     -0.075  0.1057E-02  0.1057E-02  0.5507E-01  0.5507E-01
     -0.027  0.1949E-02  0.1949E-02  0.5517E-01  0.5517E-01
      0.022  0.3096E-02  0.3096E-02  0.5532E-01  0.5532E-01
      0.071  0.3915E-02  0.3915E-02  0.5551E-01  0.5551E-01
      0.120  0.3995E-02  0.3996E-02  0.5570E-01  0.5570E-01
      0.168  0.3306E-02  0.3307E-02  0.5586E-01  0.5586E-01
      0.217  0.2177E-02  0.2177E-02  0.5597E-01  0.5597E-01
      0.266  0.1058E-02  0.1058E-02  0.5602E-01  0.5602E-01
      0.315  0.2648E-03  0.2650E-03  0.5604E-01  0.5604E-01
      0.364 -0.1280E-03 -0.1279E-03  0.5603E-01  0.5603E-01
      0.412 -0.2260E-03 -0.2260E-03  0.5602E-01  0.5602E-01
      0.461 -0.1824E-03 -0.1824E-03  0.5601E-01  0.5601E-01
      0.510 -0.1082E-03 -0.1082E-03  0.5600E-01  0.5600E-01
      0.559 -0.5191E-04 -0.5192E-04  0.5600E-01  0.5600E-01
      0.608 -0.2092E-04 -0.2093E-04  0.5600E-01  0.5600E-01
      0.656 -0.7211E-05 -0.7213E-05  0.5600E-01  0.5600E-01
      0.705 -0.2148E-05 -0.2149E-05  0.5600E-01  0.5600E-01
      0.754 -0.5566E-06 -0.5568E-06  0.5600E-01  0.5600E-01
      0.803 -0.1260E-06 -0.1261E-06  0.5600E-01  0.5600E-01
      0.851 -0.2500E-07 -0.2501E-07  0.5600E-01  0.5600E-01
      0.900 -0.4359E-08 -0.4361E-08  0.5600E-01  0.5600E-01
      0.949 -0.6686E-09 -0.6690E-09  0.5600E-01  0.5600E-01
      0.998 -0.9039E-10 -0.9044E-10  0.5600E-01  0.5600E-01
      1.047 -0.1078E-10 -0.1079E-10  0.5600E-01  0.5600E-01
      1.095 -0.1135E-11 -0.1136E-11  0.5600E-01  0.5600E-01
      1.144 -0.1056E-12 -0.1057E-12  0.5600E-01  0.5600E-01
      1.193 -0.8685E-14 -0.8690E-14  0.5600E-01  0.5600E-01
      1.242 -0.6282E-15 -0.6282E-15  0.5600E-01  0.5600E-01
      1.290 -0.4097E-16 -0.4097E-16  0.5600E-01  0.5600E-01
      1.339 -0.4552E-17 -0.4552E-17  0.5600E-01  0.5600E-01
      1.388  0.0000E+00  0.0000E+00  0.5600E-01  0.5600E-01
      1.437  0.0000E+00  0.0000E+00  0.5600E-01  0.5600E-01
      1.486  0.0000E+00  0.0000E+00  0.5600E-01  0.5600E-01
      1.534  0.0000E+00  0.0000E+00  0.5600E-01  0.5600E-01
      1.583  0.0000E+00  0.0000E+00  0.5600E-01  0.5600E-01
      1.632  0.0000E+00  0.0000E+00  0.5600E-01  0.5600E-01
      1.681  0.0000E+00  0.0000E+00  0.5600E-01  0.5600E-01
      1.729  0.0000E+00  0.0000E+00  0.5600E-01  0.5600E-01
      1.778  0.0000E+00  0.0000E+00  0.5600E-01  0.5600E-01
      1.827  0.0000E+00  0.0000E+00  0.5600E-01  0.5600E-01
      1.876  0.0000E+00  0.0000E+00  0.5600E-01  0.5600E-01
      1.925  0.0000E+00  0.0000E+00  0.5600E-01  0.5600E-01
      1.973  0.0000E+00  0.0000E+00  0.5600E-01  0.5600E-01
      2.022  0.0000E+00  0.0000E+00  0.5600E-01  0.5600E-01
      2.071  0.0000E+00  0.0000E+00  0.5600E-01  0.5600E-01
