    8    8 1000    2
  0.1487762E+04  0.2308070E-08  0.2259730E-08  0.2282012E-08  0.5000000E-15
   1.0000000000000000E-004
  CAR 
 unknown system                          
     88      1     56
 
  0.1262379E-14  0.1262379E-14  0.1262379E-14  0.1000000E+01
    1      -10.562739    -10.562739   1.000000   1.000000
    2       -9.147721     -9.147721   1.000000   1.000000
    3       -8.973693     -8.973693   1.000000   1.000000
    4       -8.825648     -8.825648   1.000000   1.000000
    5       -8.562033     -8.562033   1.000000   1.000000
    6       -8.509982     -8.509982   1.000000   1.000000
    7       -8.345430     -8.345430   1.000000   1.000000
    8       -8.232603     -8.232603   1.000000   1.000000
    9       -8.052548     -8.052548   1.000000   1.000000
   10       -7.922924     -7.922924   1.000000   1.000000
   11       -7.896550     -7.896550   1.000000   1.000000
   12       -7.782340     -7.782340   1.000000   1.000000
   13       -7.752461     -7.752461   1.000000   1.000000
   14       -7.687556     -7.687556   1.000000   1.000000
   15       -7.447247     -7.447247   1.000000   1.000000
   16       -7.265717     -7.265717   1.000000   1.000000
   17       -7.170599     -7.170599   1.000000   1.000000
   18       -7.106491     -7.106491   1.000000   1.000000
   19       -7.031901     -7.031901   1.000000   1.000000
   20       -6.898602     -6.898602   1.000000   1.000000
   21       -6.714933     -6.714933   1.000000   1.000000
   22       -6.670509     -6.670509   1.000000   1.000000
   23       -6.539741     -6.539741   1.000000   1.000000
   24       -6.452679     -6.452679   1.000000   1.000000
   25       -6.427810     -6.427810   1.000000   1.000000
   26       -6.301866     -6.301866   1.000000   1.000000
   27       -6.132560     -6.132560   1.000000   1.000000
   28       -6.123110     -6.123110   1.000000   1.000000
   29       -6.027651     -6.027651   1.000000   1.000000
   30       -5.953249     -5.953249   1.000000   1.000000
   31       -5.903242     -5.903242   1.000000   1.000000
   32       -5.841660     -5.841660   1.000000   1.000000
   33       -5.763735     -5.763735   1.000000   1.000000
   34       -5.754126     -5.754126   1.000000   1.000000
   35       -5.634787     -5.634787   1.000000   1.000000
   36       -5.630261     -5.630261   1.000000   1.000000
   37       -5.622224     -5.622224   1.000000   1.000000
   38       -5.577160     -5.577160   1.000000   1.000000
   39       -5.545566     -5.545566   1.000000   1.000000
   40       -5.496753     -5.496753   1.000000   1.000000
   41       -5.485963     -5.485963   1.000000   1.000000
   42       -5.420444     -5.420444   1.000000   1.000000
   43       -5.347713     -5.347713   1.000000   1.000000
   44       -4.715013     -4.715013   1.000000   1.000000
   45       -3.664306     -3.664306  -0.000000  -0.000000
   46       -3.329910     -3.329910  -0.000000  -0.000000
   47       -3.137214     -3.137214  -0.000000  -0.000000
   48       -2.767751     -2.767751  -0.000000  -0.000000
   49       -1.791864     -1.791864  -0.000000  -0.000000
   50       -1.585670     -1.585669  -0.000000  -0.000000
   51       -1.156655     -1.156654  -0.000000  -0.000000
   52       -0.810958     -0.810957  -0.000000  -0.000000
   53       -0.602312     -0.602311  -0.000000  -0.000000
   54       -0.492065     -0.492064  -0.000000  -0.000000
   55       -0.329080     -0.329079  -0.000000  -0.000000
   56        0.070852      0.070865  -0.000000  -0.000000
