       N       E                     dE             d eps       ncg     rms          rms(c)
DAV:   1     0.677328366254E+03    0.67733E+03   -0.13230E+04   224   0.703E+02
DAV:   2     0.346098767945E+03   -0.33123E+03   -0.30303E+03   320   0.131E+02
DAV:   3     0.115714061991E+03   -0.23038E+03   -0.22006E+03   384   0.127E+02
DAV:   4     0.806934614446E+01   -0.10764E+03   -0.10271E+03   408   0.983E+01
DAV:   5    -0.174439487880E+02   -0.25513E+02   -0.22878E+02   368   0.516E+01    0.217E+01
DAV:   6    -0.575765207864E+01    0.11686E+02   -0.78649E+01   320   0.821E+01    0.110E+01
DAV:   7    -0.661983508428E+01   -0.86218E+00   -0.15054E+01   280   0.942E+01    0.702E+00
DAV:   8    -0.822728391074E+01   -0.16074E+01   -0.33312E+00   304   0.442E+01    0.332E+00
DAV:   9    -0.999160267632E+01   -0.17643E+01   -0.17816E+00   304   0.372E+01    0.190E+00
DAV:  10    -0.109066700894E+02   -0.91507E+00   -0.53037E-01   320   0.160E+01    0.144E+00
DAV:  11    -0.113646932217E+02   -0.45802E+00   -0.15485E-01   304   0.339E+00    0.140E+00
DAV:  12    -0.119301156869E+02   -0.56542E+00   -0.90340E-02   312   0.335E+00    0.139E+00
DAV:  13    -0.131697200439E+02   -0.12396E+01   -0.42587E-01   280   0.420E+00    0.105E+00
DAV:  14    -0.148432513919E+02   -0.16735E+01   -0.79814E-01   288   0.481E+00    0.925E-01
DAV:  15    -0.153926006500E+02   -0.54935E+00   -0.13299E-01   320   0.359E+00    0.658E-01
DAV:  16    -0.164237511519E+02   -0.10312E+01   -0.30268E-01   272   0.177E+00    0.471E-01
DAV:  17    -0.169278149928E+02   -0.50406E+00   -0.10471E-01   264   0.929E-01    0.361E-01
DAV:  18    -0.173983671979E+02   -0.47055E+00   -0.10512E-01   240   0.915E-01    0.202E-01
DAV:  19    -0.176206922085E+02   -0.22233E+00   -0.18583E-02   328   0.633E-01    0.152E-01
DAV:  20    -0.177964723836E+02   -0.17578E+00   -0.78228E-03   288   0.425E-01    0.923E-02
DAV:  21    -0.178767434958E+02   -0.80271E-01   -0.22499E-03   280   0.451E-01    0.684E-02
DAV:  22    -0.179246131984E+02   -0.47870E-01   -0.96997E-04   192   0.448E-01    0.478E-02
DAV:  23    -0.179528380913E+02   -0.28225E-01   -0.39367E-04   168   0.316E-01    0.255E-02
DAV:  24    -0.179668587039E+02   -0.14021E-01   -0.24756E-04   176   0.193E-01    0.154E-02
DAV:  25    -0.179728094130E+02   -0.59507E-02   -0.24670E-04   184   0.133E-01    0.119E-02
DAV:  26    -0.179745258308E+02   -0.17164E-02   -0.78293E-05   160   0.873E-02    0.723E-03
DAV:  27    -0.179750255944E+02   -0.49976E-03   -0.61384E-05   152   0.609E-02    0.702E-03
DAV:  28    -0.179753738844E+02   -0.34829E-03   -0.30816E-05   176   0.562E-02    0.597E-03
DAV:  29    -0.179756616188E+02   -0.28773E-03   -0.16064E-05   144   0.386E-02    0.293E-03
DAV:  30    -0.179762301578E+02   -0.56854E-03   -0.14373E-05   152   0.302E-02    0.349E-03
DAV:  31    -0.179765035024E+02   -0.27334E-03   -0.73457E-06   160   0.322E-02    0.222E-03
DAV:  32    -0.179766411673E+02   -0.13766E-03   -0.38884E-06   136   0.163E-02    0.131E-03
DAV:  33    -0.179767227457E+02   -0.81578E-04   -0.22337E-06   136   0.134E-02
   1 F= -.17976723E+02 E0= -.17980704E+02  d E =-.179767E+02  mag=     0.0003
       N       E                     dE             d eps       ncg     rms          rms(c)
DAV:   1    -0.176789200075E+02    0.29772E+00   -0.20363E+02   224   0.518E+01    0.309E+00
DAV:   2    -0.183879119885E+02   -0.70899E+00   -0.75141E+00   328   0.240E+01    0.262E+00
DAV:   3    -0.183366914715E+02    0.51221E-01   -0.40714E-01   288   0.130E+01    0.154E+00
DAV:   4    -0.183318141649E+02    0.48773E-02   -0.99885E-02   328   0.816E+00    0.942E-01
DAV:   5    -0.183317568680E+02    0.57297E-04   -0.70664E-02   296   0.945E+00    0.387E-01
DAV:   6    -0.183288845407E+02    0.28723E-02   -0.17207E-02   272   0.504E+00    0.138E-01
DAV:   7    -0.183285929151E+02    0.29163E-03   -0.47861E-03   352   0.117E+00    0.950E-02
DAV:   8    -0.183285203177E+02    0.72597E-04   -0.85135E-04   224   0.804E-01
   2 F= -.18328520E+02 E0= -.18332670E+02  d E =-.351798E+00  mag=     0.0001
       N       E                     dE             d eps       ncg     rms          rms(c)
DAV:   1    -0.182982385716E+02    0.30354E-01   -0.17350E+01   224   0.145E+01    0.740E-01
DAV:   2    -0.183454570683E+02   -0.47218E-01   -0.50096E-01   320   0.684E+00    0.562E-01
DAV:   3    -0.183430489857E+02    0.24081E-02   -0.26256E-02   304   0.413E+00    0.353E-01
DAV:   4    -0.183427225144E+02    0.32647E-03   -0.68005E-03   304   0.226E+00    0.202E-01
DAV:   5    -0.183428373851E+02   -0.11487E-03   -0.33290E-03   304   0.211E+00    0.108E-01
DAV:   6    -0.183426548569E+02    0.18253E-03   -0.91660E-04   224   0.114E+00    0.367E-02
DAV:   7    -0.183426506544E+02    0.42025E-05   -0.33332E-04   184   0.250E-01
   3 F= -.18342651E+02 E0= -.18346896E+02  d E =-.365928E+00  mag=     0.0001
       N       E                     dE             d eps       ncg     rms          rms(c)
DAV:   1    -0.183495602763E+02   -0.69054E-02   -0.15578E+01   240   0.156E+01    0.440E-01
DAV:   2    -0.183887322279E+02   -0.39172E-01   -0.43387E-01   336   0.699E+00    0.547E-01
DAV:   3    -0.183844502998E+02    0.42819E-02   -0.24301E-02   288   0.352E+00    0.220E-01
DAV:   4    -0.183843083836E+02    0.14192E-03   -0.38283E-03   336   0.978E-01    0.162E-01
DAV:   5    -0.183841785658E+02    0.12982E-03   -0.72932E-04   240   0.766E-01    0.131E-01
DAV:   6    -0.183841449033E+02    0.33663E-04   -0.15775E-03   320   0.447E-01    0.611E-02
DAV:   7    -0.183841087963E+02    0.36107E-04   -0.30014E-04   224   0.423E-01
   4 F= -.18384109E+02 E0= -.18388199E+02  d E =-.414581E-01  mag=     0.0000
       N       E                     dE             d eps       ncg     rms          rms(c)
DAV:   1    -0.180506703240E+02    0.33347E+00   -0.14174E+02   240   0.501E+01    0.128E+00
DAV:   2    -0.184795959279E+02   -0.42893E+00   -0.45531E+00   336   0.180E+01    0.124E+00
DAV:   3    -0.184580930833E+02    0.21503E-01   -0.14025E-01   288   0.873E+00    0.601E-01
DAV:   4    -0.184563191313E+02    0.17740E-02   -0.22733E-02   288   0.277E+00    0.492E-01
DAV:   5    -0.184543876413E+02    0.19315E-02   -0.76260E-03   336   0.227E+00    0.367E-01
DAV:   6    -0.184528507905E+02    0.15369E-02   -0.10956E-02   384   0.148E+00    0.118E-01
DAV:   7    -0.184528034132E+02    0.47377E-04   -0.18569E-03   272   0.120E+00    0.576E-02
DAV:   8    -0.184528649705E+02   -0.61557E-04   -0.76987E-04   208   0.684E-01
   5 F= -.18452865E+02 E0= -.18456781E+02  d E =-.110214E+00  mag=     0.0000
       N       E                     dE             d eps       ncg     rms          rms(c)
DAV:   1    -0.184027854786E+02    0.50018E-01   -0.23272E+01   240   0.192E+01    0.530E-01
DAV:   2    -0.184641243896E+02   -0.61339E-01   -0.66963E-01   336   0.827E+00    0.619E-01
DAV:   3    -0.184585913437E+02    0.55330E-02   -0.32597E-02   288   0.410E+00    0.255E-01
DAV:   4    -0.184583327924E+02    0.25855E-03   -0.48493E-03   320   0.112E+00    0.197E-01
DAV:   5    -0.184580927839E+02    0.24001E-03   -0.11138E-03   304   0.933E-01    0.157E-01
DAV:   6    -0.184579448979E+02    0.14789E-03   -0.22035E-03   336   0.538E-01    0.650E-02
DAV:   7    -0.184579104268E+02    0.34471E-04   -0.38654E-04   224   0.492E-01
   6 F= -.18457910E+02 E0= -.18461803E+02  d E =-.115260E+00  mag=     0.0000
       N       E                     dE             d eps       ncg     rms          rms(c)
DAV:   1    -0.184368814757E+02    0.21063E-01   -0.22850E+01   224   0.183E+01    0.519E-01
DAV:   2    -0.184993088221E+02   -0.62427E-01   -0.67908E-01   352   0.861E+00    0.694E-01
DAV:   3    -0.184929198667E+02    0.63890E-02   -0.34141E-02   304   0.365E+00    0.302E-01
DAV:   4    -0.184924233067E+02    0.49656E-03   -0.46541E-03   320   0.111E+00    0.220E-01
DAV:   5    -0.184920891570E+02    0.33415E-03   -0.19323E-03   288   0.132E+00    0.164E-01
DAV:   6    -0.184919178959E+02    0.17126E-03   -0.23957E-03   368   0.757E-01    0.524E-02
DAV:   7    -0.184919276325E+02   -0.97367E-05   -0.36928E-04   208   0.485E-01
   7 F= -.18491928E+02 E0= -.18495809E+02  d E =-.340172E-01  mag=     0.0000
       N       E                     dE             d eps       ncg     rms          rms(c)
DAV:   1    -0.180709082559E+02    0.42101E+00   -0.14993E+02   224   0.493E+01    0.131E+00
DAV:   2    -0.185587376922E+02   -0.48783E+00   -0.51284E+00   352   0.193E+01    0.139E+00
DAV:   3    -0.185336185679E+02    0.25119E-01   -0.16097E-01   320   0.825E+00    0.686E-01
DAV:   4    -0.185309112921E+02    0.27073E-02   -0.21385E-02   304   0.258E+00    0.554E-01
DAV:   5    -0.185282392135E+02    0.26721E-02   -0.12197E-02   336   0.310E+00    0.387E-01
DAV:   6    -0.185268071408E+02    0.14321E-02   -0.12988E-02   384   0.214E+00    0.112E-01
DAV:   7    -0.185268997893E+02   -0.92648E-04   -0.25548E-03   320   0.124E+00    0.824E-02
DAV:   8    -0.185268472050E+02    0.52584E-04   -0.87078E-04   256   0.774E-01
   8 F= -.18526847E+02 E0= -.18530717E+02  d E =-.689368E-01  mag=     0.0000
       N       E                     dE             d eps       ncg     rms          rms(c)
DAV:   1    -0.185208401301E+02    0.60597E-02   -0.11330E+01   224   0.126E+01    0.326E-01
DAV:   2    -0.185477726293E+02   -0.26932E-01   -0.28975E-01   320   0.543E+00    0.405E-01
DAV:   3    -0.185456605828E+02    0.21120E-02   -0.13411E-02   272   0.255E+00    0.195E-01
DAV:   4    -0.185454723261E+02    0.18826E-03   -0.22120E-03   336   0.746E-01    0.141E-01
DAV:   5    -0.185453454338E+02    0.12689E-03   -0.74692E-04   240   0.861E-01    0.992E-02
DAV:   6    -0.185453438625E+02    0.15713E-05   -0.13568E-03   304   0.552E-01    0.344E-02
DAV:   7    -0.185453346598E+02    0.92026E-05   -0.14102E-04   160   0.318E-01
   9 F= -.18545335E+02 E0= -.18549203E+02  d E =-.184875E-01  mag=     0.0000
       N       E                     dE             d eps       ncg     rms          rms(c)
DAV:   1    -0.183254669717E+02    0.21988E+00   -0.90103E+01   224   0.366E+01    0.964E-01
DAV:   2    -0.185838355307E+02   -0.25837E+00   -0.27476E+00   320   0.148E+01    0.109E+00
DAV:   3    -0.185681258666E+02    0.15710E-01   -0.91842E-02   304   0.655E+00    0.539E-01
DAV:   4    -0.185665891094E+02    0.15368E-02   -0.15558E-02   304   0.210E+00    0.418E-01
DAV:   5    -0.185651481923E+02    0.14409E-02   -0.74956E-03   320   0.241E+00    0.281E-01
DAV:   6    -0.185644798024E+02    0.66839E-03   -0.74965E-03   336   0.137E+00    0.727E-02
DAV:   7    -0.185645192175E+02   -0.39415E-04   -0.13664E-03   272   0.705E-01    0.642E-02
DAV:   8    -0.185644931432E+02    0.26074E-04   -0.35179E-04   176   0.470E-01
  10 F= -.18564493E+02 E0= -.18568359E+02  d E =-.376459E-01  mag=     0.0000
       N       E                     dE             d eps       ncg     rms          rms(c)
DAV:   1    -0.185412252104E+02    0.23294E-01   -0.16206E+01   224   0.145E+01    0.411E-01
DAV:   2    -0.185810919519E+02   -0.39867E-01   -0.41988E-01   352   0.585E+00    0.419E-01
DAV:   3    -0.185787779477E+02    0.23140E-02   -0.18096E-02   288   0.305E+00    0.204E-01
DAV:   4    -0.185785364615E+02    0.24149E-03   -0.31930E-03   320   0.112E+00    0.161E-01
DAV:   5    -0.185783555170E+02    0.18094E-03   -0.97567E-04   288   0.945E-01    0.108E-01
DAV:   6    -0.185783632121E+02   -0.76950E-05   -0.16329E-03   336   0.552E-01    0.368E-02
DAV:   7    -0.185783494639E+02    0.13748E-04   -0.19605E-04   176   0.397E-01
  11 F= -.18578349E+02 E0= -.18582215E+02  d E =-.138563E-01  mag=     0.0000
       N       E                     dE             d eps       ncg     rms          rms(c)
DAV:   1    -0.185172020920E+02    0.61161E-01   -0.28406E+01   224   0.193E+01    0.572E-01
DAV:   2    -0.185889621398E+02   -0.71760E-01   -0.75830E-01   352   0.768E+00    0.567E-01
DAV:   3    -0.185845771615E+02    0.43850E-02   -0.32667E-02   288   0.375E+00    0.269E-01
DAV:   4    -0.185840842622E+02    0.49290E-03   -0.46821E-03   320   0.118E+00    0.209E-01
DAV:   5    -0.185838112671E+02    0.27300E-03   -0.23841E-03   320   0.149E+00    0.137E-01
DAV:   6    -0.185837026628E+02    0.10860E-03   -0.20566E-03   336   0.110E+00    0.393E-02
DAV:   7    -0.185836964533E+02    0.62095E-05   -0.29323E-04   160   0.424E-01
  12 F= -.18583696E+02 E0= -.18587562E+02  d E =-.192033E-01  mag=     0.0000
       N       E                     dE             d eps       ncg     rms          rms(c)
DAV:   1    -0.185701709223E+02    0.13532E-01   -0.10133E+01   224   0.118E+01    0.328E-01
DAV:   2    -0.185950449157E+02   -0.24874E-01   -0.26896E-01   336   0.569E+00    0.391E-01
DAV:   3    -0.185930830207E+02    0.19619E-02   -0.14633E-02   256   0.272E+00    0.183E-01
DAV:   4    -0.185929370882E+02    0.14593E-03   -0.23854E-03   288   0.735E-01    0.130E-01
DAV:   5    -0.185928279862E+02    0.10910E-03   -0.69171E-04   208   0.811E-01    0.101E-01
DAV:   6    -0.185928046518E+02    0.23334E-04   -0.12243E-03   304   0.443E-01    0.377E-02
DAV:   7    -0.185928065062E+02   -0.18544E-05   -0.28387E-04   176   0.319E-01
  13 F= -.18592807E+02 E0= -.18596672E+02  d E =-.911005E-02  mag=     0.0000
       N       E                     dE             d eps       ncg     rms          rms(c)
DAV:   1    -0.185297979513E+02    0.63007E-01   -0.26958E+01   224   0.194E+01    0.553E-01
DAV:   2    -0.186040793702E+02   -0.74281E-01   -0.79566E-01   352   0.902E+00    0.655E-01
DAV:   3    -0.185982232723E+02    0.58561E-02   -0.35545E-02   288   0.390E+00    0.301E-01
DAV:   4    -0.185976743753E+02    0.54890E-03   -0.53730E-03   320   0.863E-01    0.211E-01
DAV:   5    -0.185974107627E+02    0.26361E-03   -0.22972E-03   304   0.151E+00    0.171E-01
DAV:   6    -0.185971181587E+02    0.29260E-03   -0.21388E-03   384   0.104E+00    0.542E-02
DAV:   7    -0.185971334215E+02   -0.15263E-04   -0.56305E-04   224   0.441E-01
  14 F= -.18597133E+02 E0= -.18600999E+02  d E =-.134370E-01  mag=     0.0000
       N       E                     dE             d eps       ncg     rms          rms(c)
DAV:   1    -0.185682045858E+02    0.28914E-01   -0.15544E+01   240   0.155E+01    0.385E-01
DAV:   2    -0.186082119668E+02   -0.40007E-01   -0.42248E-01   320   0.648E+00    0.452E-01
DAV:   3    -0.186054898638E+02    0.27221E-02   -0.15456E-02   272   0.297E+00    0.225E-01
DAV:   4    -0.186052055209E+02    0.28434E-03   -0.32010E-03   304   0.838E-01    0.160E-01
DAV:   5    -0.186050393375E+02    0.16618E-03   -0.13701E-03   272   0.113E+00    0.117E-01
DAV:   6    -0.186049700114E+02    0.69326E-04   -0.12517E-03   352   0.521E-01    0.327E-02
DAV:   7    -0.186049921692E+02   -0.22158E-04   -0.28111E-04   192   0.336E-01
  15 F= -.18604992E+02 E0= -.18608857E+02  d E =-.785875E-02  mag=     0.0000
       N       E                     dE             d eps       ncg     rms          rms(c)
DAV:   1    -0.185979210316E+02    0.70490E-02   -0.37497E+00   240   0.757E+00    0.179E-01
DAV:   2    -0.186063422180E+02   -0.84212E-02   -0.89333E-02   320   0.304E+00    0.215E-01
DAV:   3    -0.186057566883E+02    0.58553E-03   -0.37115E-03   256   0.145E+00    0.106E-01
DAV:   4    -0.186057114748E+02    0.45214E-04   -0.73963E-04   256   0.447E-01
  16 F= -.18605711E+02 E0= -.18609577E+02  d E =-.857805E-02  mag=     0.0000
       N       E                     dE             d eps       ncg     rms          rms(c)
DAV:   1    -0.185991117666E+02    0.66449E-02   -0.50506E+00   224   0.873E+00    0.224E-01
DAV:   2    -0.186105866051E+02   -0.11475E-01   -0.12000E-01   352   0.308E+00    0.222E-01
DAV:   3    -0.186099674742E+02    0.61913E-03   -0.44921E-03   304   0.157E+00    0.119E-01
DAV:   4    -0.186098920219E+02    0.75452E-04   -0.77241E-04   224   0.638E-01
  17 F= -.18609892E+02 E0= -.18613757E+02  d E =-.418055E-02  mag=     0.0000
       N       E                     dE             d eps       ncg     rms          rms(c)
DAV:   1    -0.186077841879E+02    0.21833E-02   -0.10565E+00   240   0.404E+00    0.120E-01
DAV:   2    -0.186105080677E+02   -0.27239E-02   -0.28168E-02   320   0.140E+00    0.114E-01
DAV:   3    -0.186103808067E+02    0.12726E-03   -0.87253E-04   272   0.945E-01    0.671E-02
DAV:   4    -0.186103731894E+02    0.76173E-05   -0.14295E-04   128   0.364E-01
  18 F= -.18610373E+02 E0= -.18614239E+02  d E =-.466171E-02  mag=     0.0000
       N       E                     dE             d eps       ncg     rms          rms(c)
DAV:   1    -0.186077846378E+02    0.25962E-02   -0.24275E+00   240   0.633E+00    0.144E-01
DAV:   2    -0.186126758860E+02   -0.48912E-02   -0.52801E-02   336   0.242E+00    0.182E-01
DAV:   3    -0.186122644757E+02    0.41141E-03   -0.28388E-03   240   0.131E+00    0.772E-02
DAV:   4    -0.186122671666E+02   -0.26909E-05   -0.52956E-04   256   0.401E-01
  19 F= -.18612267E+02 E0= -.18616132E+02  d E =-.189398E-02  mag=     0.0000
       N       E                     dE             d eps       ncg     rms          rms(c)
DAV:   1    -0.186117255544E+02    0.53892E-03   -0.39613E-01   240   0.258E+00    0.654E-02
DAV:   2    -0.186125528505E+02   -0.82730E-03   -0.87199E-03   320   0.972E-01    0.755E-02
DAV:   3    -0.186124780140E+02    0.74836E-04   -0.35185E-04   208   0.608E-01
  20 F= -.18612478E+02 E0= -.18616343E+02  d E =-.210482E-02  mag=     0.0000
       N       E                     dE             d eps       ncg     rms          rms(c)
DAV:   1    -0.186110954637E+02    0.14574E-02   -0.14164E+00   240   0.487E+00    0.100E-01
DAV:   2    -0.186136263725E+02   -0.25309E-02   -0.26709E-02   336   0.151E+00    0.116E-01
DAV:   3    -0.186134658737E+02    0.16050E-03   -0.97454E-04   240   0.754E-01    0.620E-02
DAV:   4    -0.186134515221E+02    0.14352E-04   -0.17120E-04   144   0.310E-01
  21 F= -.18613452E+02 E0= -.18617317E+02  d E =-.973508E-03  mag=     0.0000
       N       E                     dE             d eps       ncg     rms          rms(c)
DAV:   1    -0.186131736445E+02    0.29223E-03   -0.22049E-01   240   0.196E+00    0.488E-02
DAV:   2    -0.186136522850E+02   -0.47864E-03   -0.49716E-03   336   0.678E-01    0.565E-02
DAV:   3    -0.186136096445E+02    0.42640E-04   -0.14792E-04   160   0.431E-01
  22 F= -.18613610E+02 E0= -.18617475E+02  d E =-.113163E-02  mag=     0.0000
       N       E                     dE             d eps       ncg     rms          rms(c)
DAV:   1    -0.186121821333E+02    0.14702E-02   -0.11935E+00   240   0.445E+00    0.903E-02
DAV:   2    -0.186143109498E+02   -0.21288E-02   -0.22749E-02   336   0.142E+00    0.105E-01
DAV:   3    -0.186141652510E+02    0.14570E-03   -0.90331E-04   240   0.598E-01    0.519E-02
DAV:   4    -0.186141528540E+02    0.12397E-04   -0.77179E-05   128   0.123E-01
  23 F= -.18614153E+02 E0= -.18618018E+02  d E =-.543210E-03  mag=     0.0000
       N       E                     dE             d eps       ncg     rms          rms(c)
DAV:   1    -0.186141777431E+02   -0.12492E-04   -0.11815E-03   320   0.382E-01    0.279E-02
DAV:   2    -0.186141809776E+02   -0.32344E-05   -0.22173E-04   192   0.604E-01
  24 F= -.18614181E+02 E0= -.18618046E+02  d E =-.571333E-03  mag=     0.0000
