 vasp.6.1.2 22Jul20 (build Aug  2 2021 21:04:21) gamma-only                      
 executed on             LinuxPGI date 2021.12.22  13:54:31
 running on   16 total cores
 distrk:  each k-point on   16 cores,    1 groups
 distr:  one band on NCORE=   8 cores,    2 groups


--------------------------------------------------------------------------------------------------------


 INCAR:
 POTCAR:    PAW_PBE Au 04Oct2007                  
 POTCAR:    PAW_PBE Cu 22Jun2005                  
 -----------------------------------------------------------------------------
|                                                                             |
|           W    W    AA    RRRRR   N    N  II  N    N   GGGG   !!!           |
|           W    W   A  A   R    R  NN   N  II  NN   N  G    G  !!!           |
|           W    W  A    A  R    R  N N  N  II  N N  N  G       !!!           |
|           W WW W  AAAAAA  RRRRR   N  N N  II  N  N N  G  GGG   !            |
|           WW  WW  A    A  R   R   N   NN  II  N   NN  G    G                |
|           W    W  A    A  R    R  N    N  II  N    N   GGGG   !!!           |
|                                                                             |
|     You use a magnetic or noncollinear calculation, but did not specify     |
|     the initial magnetic moment with the MAGMOM tag. Note that a            |
|     default of 1 will be used for all atoms. This ferromagnetic setup       |
|     may break the symmetry of the crystal, in particular it may rule        |
|     out finding an antiferromagnetic solution. Thence, we recommend         |
|     setting the initial magnetic moment manually or verifying carefully     |
|     that this magnetic setup is desired.                                    |
|                                                                             |
 -----------------------------------------------------------------------------

 POTCAR:    PAW_PBE Au 04Oct2007                  
   SHA256 =  d0044ae04e2bdce24051b198fc5c053d722a5bc6fe3c3b100514a13fc5d2db88 Au/POTCAR             
   COPYR  = (c) Copyright 04Oct2007 Georg Kresse                                                    
   COPYR  = This file is part of the software VASP. Any use, copying, and all other rights are regul
   COPYR  = If you do not have a valid VASP license, you may not use, copy or distribute this file. 
   VRHFIN =Au: s1d10                                                                                
   LEXCH  = PE                                                                                      
   EATOM  =   926.0867 eV,   68.0654 Ry                                                             
                                                                                                    
   TITEL  = PAW_PBE Au 04Oct2007                                                                    
   LULTRA =        F    use ultrasoft PP ?                                                          
   IUNSCR =        1    unscreen: 0-lin 1-nonlin 2-no                                               
   RPACOR =    2.330    partial core radius                                                         
   POMASS =  196.966; ZVAL   =   11.000    mass and valenz                                          
   RCORE  =    2.500    outmost cutoff radius                                                       
   RWIGS  =    2.840; RWIGS  =    1.503    wigner-seitz radius (au A)                               
   ENMAX  =  229.943; ENMIN  =  172.457 eV                                                          
   ICORE  =        3    local potential                                                             
   LCOR   =        T    correct aug charges                                                         
   LPAW   =        T    paw PP                                                                      
   EAUG   =  356.670                                                                                
   DEXC   =    0.000                                                                                
   RMAX   =    2.562    core radius for proj-oper                                                   
   RAUG   =    1.300    factor for augmentation sphere                                              
   RDEP   =    2.598    radius for radial grids                                                     
   RDEPT  =    2.193    core radius for aug-charge                                                  
                                                                                                    
   Atomic configuration                                                                             
   16 entries                                                                                       
     n  l   j            E        occ.                                                              
     1  0  0.50    -80748.5001   2.0000                                                             
     2  0  0.50    -14244.7466   2.0000                                                             
     2  1  1.50    -12310.9591   6.0000                                                             
     3  0  0.50     -3362.1768   2.0000                                                             
     3  1  1.50     -2801.5463   6.0000                                                             
     3  2  2.50     -2203.8206  10.0000                                                             
     4  0  0.50      -729.8168   2.0000                                                             
     4  1  1.50      -546.0527   6.0000                                                             
     4  2  2.50      -325.7302  10.0000                                                             
     4  3  3.50       -81.1472  14.0000                                                             
     5  0  0.50      -108.3201   2.0000                                                             
     5  1  1.50       -59.7479   6.0000                                                             
     5  2  2.50        -6.8783  10.0000                                                             
     6  0  0.50        -5.7602   1.0000                                                             
     6  1  1.50        -6.8029   0.0000                                                             
     5  3  2.50        -1.3606   0.0000                                                             
   Description                                                                                      
     l       E           TYP  RCUT    TYP  RCUT                                                     
     2     -6.8782861     23  2.500                                                                 
     2     -8.2388687     23  2.500                                                                 
     0     -5.7601759     23  2.500                                                                 
     0     -0.8493231     23  2.500                                                                 
     1     -2.7211652     23  2.500                                                                 
     1     27.2116520     23  2.500                                                                 
     3     -1.3605826     23  2.500                                                                 
  local pseudopotential read in
  partial core-charges read in
  partial kinetic energy density read in
  atomic valenz-charges read in
  non local Contribution for L=            2  read in
    real space projection operators read in
  non local Contribution for L=            2  read in
    real space projection operators read in
  non local Contribution for L=            0  read in
    real space projection operators read in
  non local Contribution for L=            0  read in
    real space projection operators read in
  non local Contribution for L=            1  read in
    real space projection operators read in
  non local Contribution for L=            1  read in
    real space projection operators read in
    PAW grid and wavefunctions read in
 
   number of l-projection  operators is LMAX  =            6
   number of lm-projection operators is LMMAX =           18
 
 POTCAR:    PAW_PBE Cu 22Jun2005                  
   SHA256 =  0e71e558f37a4e8407882b4609ceaae59938afaad9ced71dfe8490308a0ab630 Cu/POTCAR             
   COPYR  = (c) Copyright 22Jun2005 Georg Kresse                                                    
   COPYR  = This file is part of the software VASP. Any use, copying, and all other rights are regul
   COPYR  = If you do not have a valid VASP license, you may not use, copy or distribute this file. 
   VRHFIN =Cu: d10 p1                                                                               
   LEXCH  = PE                                                                                      
   EATOM  =  1390.9808 eV,  102.2342 Ry                                                             
                                                                                                    
   TITEL  = PAW_PBE Cu 22Jun2005                                                                    
   LULTRA =        F    use ultrasoft PP ?                                                          
   IUNSCR =        1    unscreen: 0-lin 1-nonlin 2-no                                               
   RPACOR =    2.000    partial core radius                                                         
   POMASS =   63.546; ZVAL   =   11.000    mass and valenz                                          
   RCORE  =    2.300    outmost cutoff radius                                                       
   RWIGS  =    2.200; RWIGS  =    1.164    wigner-seitz radius (au A)                               
   ENMAX  =  295.446; ENMIN  =  221.585 eV                                                          
   ICORE  =        3    local potential                                                             
   LCOR   =        T    correct aug charges                                                         
   LPAW   =        T    paw PP                                                                      
   EAUG   =  586.980                                                                                
   DEXC   =    0.000                                                                                
   RMAX   =    2.344    core radius for proj-oper                                                   
   RAUG   =    1.300    factor for augmentation sphere                                              
   RDEP   =    2.302    radius for radial grids                                                     
   RDEPT  =    1.771    core radius for aug-charge                                                  
                                                                                                    
   Atomic configuration                                                                             
    9 entries                                                                                       
     n  l   j            E        occ.                                                              
     1  0  0.50     -8850.2468   2.0000                                                             
     2  0  0.50     -1062.3498   2.0000                                                             
     2  1  1.50      -916.8226   6.0000                                                             
     3  0  0.50      -114.6929   2.0000                                                             
     3  1  1.50       -72.1325   6.0000                                                             
     3  2  2.50        -5.0394  10.0000                                                             
     4  0  0.50        -4.6097   1.0000                                                             
     4  1  0.50        -4.0817   0.0000                                                             
     4  3  2.50        -1.3606   0.0000                                                             
   Description                                                                                      
     l       E           TYP  RCUT    TYP  RCUT                                                     
     2     -5.0393973     23  2.200                                                                 
     2     10.8846608     23  2.200                                                                 
     0     -4.6097109     23  2.200                                                                 
     0      8.2520465     23  2.200                                                                 
     1     -2.7211652     23  2.200                                                                 
     1     21.7055443     23  2.200                                                                 
     3      2.7211652     23  2.300                                                                 
  local pseudopotential read in
  partial core-charges read in
  partial kinetic energy density read in
  atomic valenz-charges read in
  non local Contribution for L=            2  read in
    real space projection operators read in
  non local Contribution for L=            2  read in
    real space projection operators read in
  non local Contribution for L=            0  read in
    real space projection operators read in
  non local Contribution for L=            0  read in
    real space projection operators read in
  non local Contribution for L=            1  read in
    real space projection operators read in
  non local Contribution for L=            1  read in
    real space projection operators read in
    PAW grid and wavefunctions read in
 
   number of l-projection  operators is LMAX  =            6
   number of lm-projection operators is LMMAX =           18
 
  PAW_PBE Au 04Oct2007                  :
 energy of atom  1       EATOM= -926.0867
 kinetic energy error for atom=    0.0062 (will be added to EATOM!!)
  PAW_PBE Cu 22Jun2005                  :
 energy of atom  2       EATOM=-1390.9808
 kinetic energy error for atom=    0.0232 (will be added to EATOM!!)
 
 
 POSCAR: Au Cu
  positions in cartesian coordinates
  No initial velocities read in
 exchange correlation table for  LEXCH =        8
   RHO(1)=    0.500       N(1)  =     2000
   RHO(2)=  100.500       N(2)  =     4000
 


--------------------------------------------------------------------------------------------------------


 ion  position               nearest neighbor table
   1  0.441  0.468  0.416-   5 2.53   8 2.53   6 2.54   3 2.54
   2  0.596  0.464  0.505-   5 2.56   3 2.57   4 2.57   6 2.58
   3  0.550  0.456  0.403-   1 2.54   6 2.57   2 2.57   5 2.59
   4  0.515  0.477  0.582-   7 2.46   6 2.56   2 2.57   8 2.58   5 2.59
   5  0.508  0.528  0.480-   7 2.49   8 2.53   1 2.53   2 2.56   3 2.59   4 2.59   6 2.68
   6  0.498  0.411  0.492-   8 2.52   1 2.54   4 2.56   3 2.57   2 2.58   5 2.68
   7  0.460  0.570  0.569-   8 2.46   4 2.46   5 2.49
   8  0.419  0.481  0.524-   7 2.46   6 2.52   5 2.53   1 2.53   4 2.58
 

IMPORTANT INFORMATION: All symmetrisations will be switched off!
NOSYMM: (Re-)initialisation of all symmetry stuff for point group C_1.


----------------------------------------------------------------------------------------

                                     Primitive cell                                     

  volume of cell :   11902.0924

  direct lattice vectors                    reciprocal lattice vectors
    23.080699743  0.000000000  0.000000000     0.043326243  0.000000000  0.000000000
     0.000000000 22.597295967  0.000000000     0.000000000  0.044253082  0.000000000
     0.000000000  0.000000000 22.820117217     0.000000000  0.000000000  0.043820984

  length of vectors
    23.080699743 22.597295967 22.820117217     0.043326243  0.044253082  0.043820984

  position of ions in fractional coordinates (direct lattice)
     0.440862636  0.468030130  0.416064902
     0.595909336  0.464488413  0.505439824
     0.549541423  0.456177156  0.403365339
     0.514913038  0.477172837  0.581734160
     0.507807956  0.528465821  0.480448121
     0.498055933  0.410908012  0.492411286
     0.460250962  0.569939937  0.569101591
     0.418641467  0.480781683  0.523993563

  ion indices of the primitive-cell ions
   primitive index   ion index
                 1           1
                 2           2
                 3           3
                 4           4
                 5           5
                 6           6
                 7           7
                 8           8

----------------------------------------------------------------------------------------

 
 
 KPOINTS: KPOINTS created by Atomic Simulation Env

Automatic generation of k-mesh.
Space group operators:
 irot       det(A)        alpha          n_x          n_y          n_z        tau_x        tau_y        tau_z
    1     1.000000     0.000000     1.000000     0.000000     0.000000     0.000000     0.000000     0.000000
 
 Subroutine IBZKPT returns following result:
 ===========================================
 
 Found      1 irreducible k-points:
 
 Following reciprocal coordinates:
            Coordinates               Weight
  0.000000  0.000000  0.000000      1.000000
 
 Following cartesian coordinates:
            Coordinates               Weight
  0.000000  0.000000  0.000000      1.000000
 


--------------------------------------------------------------------------------------------------------




 Dimension of arrays:
   k-points           NKPTS =      1   k-points in BZ     NKDIM =      1   number of bands    NBANDS=     56
   number of dos      NEDOS =    301   number of ions     NIONS =      8
   non local maximal  LDIM  =      6   non local SUM 2l+1 LMDIM =     18
   total plane-waves  NPLWV = ******
   max r-space proj   IRMAX =      1   max aug-charges    IRDMAX=   7933
   dimension x,y,z NGX =   120 NGY =  112 NGZ =  112
   dimension x,y,z NGXF=   240 NGYF=  224 NGZF=  224
   support grid    NGXF=   240 NGYF=  224 NGZF=  224
   ions per type =               4   4
   NGX,Y,Z   is equivalent  to a cutoff of   8.64,  8.24,  8.16 a.u.
   NGXF,Y,Z  is equivalent  to a cutoff of  17.29, 16.48, 16.32 a.u.

 SYSTEM =  unknown system                          
 POSCAR =  Au Cu                                   

 Startparameter for this run:
   NWRITE =      2    write-flag & timer
   PREC   = normal    normal or accurate (medium, high low for compatibility)
   ISTART =      0    job   : 0-new  1-cont  2-samecut
   ICHARG =      2    charge: 1-file 2-atom 10-const
   ISPIN  =      2    spin polarized calculation?
   LNONCOLLINEAR =      F non collinear calculations
   LSORBIT =      F    spin-orbit coupling
   INIWAV =      1    electr: 0-lowe 1-rand  2-diag
   LASPH  =      F    aspherical Exc in radial PAW
   METAGGA=      F    non-selfconsistent MetaGGA calc.

 Electronic Relaxation 1
   ENCUT  =  400.0 eV  29.40 Ry    5.42 a.u.  37.64 36.85 37.21*2*pi/ulx,y,z
   ENINI  =  400.0     initial cutoff
   ENAUG  =  587.0 eV  augmentation charge cutoff
   NELM   =     60;   NELMIN=  2; NELMDL=  0     # of ELM steps 
   EDIFF  = 0.1E-03   stopping-criterion for ELM
   LREAL  =      F    real-space projection
   NLSPLINE    = F    spline interpolate recip. space projectors
   LCOMPAT=      F    compatible to vasp.4.4
   GGA_COMPAT  = T    GGA compatible to vasp.4.4-vasp.4.6
   LMAXPAW     = -100 max onsite density
   LMAXMIX     =    2 max onsite mixed and CHGCAR
   VOSKOWN=      0    Vosko Wilk Nusair interpolation
   ROPT   =    0.00000   0.00000
 Ionic relaxation
   EDIFFG = 0.1E-02   stopping-criterion for IOM
   NSW    =   1000    number of steps for IOM
   NBLOCK =      1;   KBLOCK =   1000    inner block; outer block 
   IBRION =      2    ionic relax: 0-MD 1-quasi-New 2-CG
   NFREE  =      1    steps in history (QN), initial steepest desc. (CG)
   ISIF   =      0    stress and relaxation
   IWAVPR =     11    prediction:  0-non 1-charg 2-wave 3-comb
   ISYM   =      0    0-nonsym 1-usesym 2-fastsym
   LCORR  =      T    Harris-Foulkes like correction to forces

   POTIM  = 0.5000    time-step for ionic-motion
   TEIN   =    0.0    initial temperature
   TEBEG  =    0.0;   TEEND  =   0.0 temperature during run
   SMASS  =  -3.00    Nose mass-parameter (am)
   estimated Nose-frequenzy (Omega)   =  0.10E-29 period in steps = 0.13E+47 mass=  -0.122E-25a.u.
   SCALEE = 1.0000    scale energy and forces
   NPACO  =    256;   APACO  = 16.0  distance and # of slots for P.C.
   PSTRESS=    0.0 pullay stress

  Mass of Ions in am
   POMASS = 196.97 63.55
  Ionic Valenz
   ZVAL   =  11.00 11.00
  Atomic Wigner-Seitz radii
   RWIGS  =  -1.00 -1.00
  virtual crystal weights 
   VCA    =   1.00  1.00
   NELECT =      88.0000    total number of electrons
   NUPDOWN=      -1.0000    fix difference up-down

 DOS related values:
   EMIN   =  10.00;   EMAX   =-10.00  energy-range for DOS
   EFERMI =   0.00
   ISMEAR =     1;   SIGMA  =   0.20  broadening in eV -4-tet -1-fermi 0-gaus

 Electronic relaxation 2 (details)
   IALGO  =     38    algorithm
   LDIAG  =      T    sub-space diagonalisation (order eigenvalues)
   LSUBROT=      F    optimize rotation matrix (better conditioning)
   TURBO    =      0    0=normal 1=particle mesh
   IRESTART =      0    0=no restart 2=restart with 2 vectors
   NREBOOT  =      0    no. of reboots
   NMIN     =      0    reboot dimension
   EREF     =   0.00    reference energy to select bands
   IMIX   =      4    mixing-type and parameters
     AMIX     =   0.40;   BMIX     =  1.00
     AMIX_MAG =   1.60;   BMIX_MAG =  1.00
     AMIN     =   0.10
     WC   =   100.;   INIMIX=   1;  MIXPRE=   1;  MAXMIX= -45

 Intra band minimization:
   WEIMIN = 0.0010     energy-eigenvalue tresh-hold
   EBREAK =  0.45E-06  absolut break condition
   DEPER  =   0.30     relativ break condition  

   TIME   =   0.40     timestep for ELM

  volume/ion in A,a.u.               =    1487.76     10039.91
  Fermi-wavevector in a.u.,A,eV,Ry     =   0.318929  0.602689  1.383930  0.101716
  Thomas-Fermi vector in A             =   1.204207
 
 Write flags
   LWAVE        =      F    write WAVECAR
   LDOWNSAMPLE  =      F    k-point downsampling of WAVECAR
   LCHARG       =      F    write CHGCAR
   LVTOT        =      F    write LOCPOT, total local potential
   LVHAR        =      F    write LOCPOT, Hartree potential only
   LELF         =      F    write electronic localiz. function (ELF)
   LORBIT       =      0    0 simple, 1 ext, 2 COOP (PROOUT), +10 PAW based schemes


 Dipole corrections
   LMONO  =      F    monopole corrections only (constant potential shift)
   LDIPOL =      F    correct potential (dipole corrections)
   IDIPOL =      0    1-x, 2-y, 3-z, 4-all directions 
   EPSILON=  1.0000000 bulk dielectric constant

 Exchange correlation treatment:
   GGA     =    PE    GGA type
   LEXCH   =     8    internal setting for exchange type
   VOSKOWN=      0    Vosko Wilk Nusair interpolation
   LHFCALC =     F    Hartree Fock is set to
   LHFONE  =     F    Hartree Fock one center treatment
   AEXX    =    0.0000 exact exchange contribution

 Linear response parameters
   LEPSILON=     F    determine dielectric tensor
   LRPA    =     F    only Hartree local field effects (RPA)
   LNABLA  =     F    use nabla operator in PAW spheres
   LVEL    =     F    velocity operator in full k-point grid
   LINTERFAST=   F  fast interpolation
   KINTER  =     0    interpolate to denser k-point grid
   CSHIFT  =0.1000    complex shift for real part using Kramers Kronig
   OMEGAMAX=  -1.0    maximum frequency
   DEG_THRESHOLD= 0.2000000E-02 threshold for treating states as degnerate
   RTIME   =   -0.100 relaxation time in fs
  (WPLASMAI=    0.000 imaginary part of plasma frequency in eV, 0.658/RTIME)
   DFIELD  = 0.0000000 0.0000000 0.0000000 field for delta impulse in time
 
 Orbital magnetization related:
   ORBITALMAG=     F  switch on orbital magnetization
   LCHIMAG   =     F  perturbation theory with respect to B field
   DQ        =  0.001000  dq finite difference perturbation B field
   LLRAUG    =     F  two centre corrections for induced B field



--------------------------------------------------------------------------------------------------------


 conjugate gradient relaxation of ions
 charge density and potential will be updated during run
 spin polarized calculation
 Variant of blocked Davidson
 Davidson routine will perform the subspace rotation
 perform sub-space diagonalisation
    after iterative eigenvector-optimisation
 modified Broyden-mixing scheme, WC =      100.0
 initial mixing is a Kerker type mixing with AMIX =  0.4000 and BMIX =      1.0000
 Hartree-type preconditioning will be used
 using additional bands            12
 reciprocal scheme for non local part
 use partial core corrections
 calculate Harris-corrections to forces 
   (improved forces if not selfconsistent)
 use gradient corrections 
 use of overlap-Matrix (Vanderbilt PP)
 Methfessel and Paxton  Order N= 1 SIGMA  =   0.20


--------------------------------------------------------------------------------------------------------


  energy-cutoff  :      400.00
  volume of cell :    11902.09
      direct lattice vectors                 reciprocal lattice vectors
    23.080699743  0.000000000  0.000000000     0.043326243  0.000000000  0.000000000
     0.000000000 22.597295967  0.000000000     0.000000000  0.044253082  0.000000000
     0.000000000  0.000000000 22.820117217     0.000000000  0.000000000  0.043820984

  length of vectors
    23.080699743 22.597295967 22.820117217     0.043326243  0.044253082  0.043820984


 
 k-points in units of 2pi/SCALE and weight: KPOINTS created by Atomic Simulation Env
   0.00000000  0.00000000  0.00000000       1.000
 
 k-points in reciprocal lattice and weights: KPOINTS created by Atomic Simulation Env
   0.00000000  0.00000000  0.00000000       1.000
 
 position of ions in fractional coordinates (direct lattice) 
   0.44086264  0.46803013  0.41606490
   0.59590934  0.46448841  0.50543982
   0.54954142  0.45617716  0.40336534
   0.51491304  0.47717284  0.58173416
   0.50780796  0.52846582  0.48044812
   0.49805593  0.41090801  0.49241129
   0.46025096  0.56993994  0.56910159
   0.41864147  0.48078168  0.52399356
 
 position of ions in cartesian coordinates  (Angst):
  10.17541814 10.57621537  9.49464983
  13.75400446 10.49618215 11.53419603
  12.68380059 10.30837020  9.20484431
  11.88455321 10.78281582 13.27524171
  11.72056295 11.94189857 10.96388244
  11.49547944  9.28540996 11.23688327
  10.62291426 12.87910143 12.98696502
   9.66253799 10.86436599 11.95759454
 


--------------------------------------------------------------------------------------------------------


 use parallel FFT for orbitals z direction half grid
 k-point   1 :   0.0000 0.0000 0.0000  plane waves:  108117

 maximum and minimum number of plane-waves per node :     13523    13510

 maximum number of plane-waves:    108117
 maximum index in each direction: 
   IXMAX=   37   IYMAX=   36   IZMAX=   37
   IXMIN=  -37   IYMIN=  -36   IZMIN=    0


 parallel 3D FFT for wavefunctions:
    minimum data exchange during FFTs selected (reduces bandwidth)
 parallel 3D FFT for charge:
    minimum data exchange during FFTs selected (reduces bandwidth)


 total amount of memory used by VASP MPI-rank0   153068. kBytes
=======================================================================

   base      :      30000. kBytes
   nonl-proj :       5625. kBytes
   fftplans  :      29556. kBytes
   grid      :      75747. kBytes
   one-center:         15. kBytes
   wavefun   :      12125. kBytes
 
     INWAV:  cpu time    0.0000: real time    0.0000
 Broyden mixing: mesh for mixing (old mesh)
   NGX = 75   NGY = 73   NGZ = 75
  (NGX  =240   NGY  =224   NGZ  =224)
  gives a total of 410625 points

 initial charge density was supplied:
 charge density of overlapping atoms calculated
 number of electron      88.0000000 magnetization       8.0000000
 keeping initial charge density in first step


--------------------------------------------------------------------------------------------------------


 Maximum index for augmentation-charges           519 (set IRDMAX)


--------------------------------------------------------------------------------------------------------


 First call to EWALD:  gamma=   0.078
 Maximum number of real-space cells 3x 3x 3
 Maximum number of reciprocal cells 3x 3x 3

    FEWALD:  cpu time    0.0009: real time    0.0009


--------------------------------------- Iteration      1(   1)  ---------------------------------------


    POTLOK:  cpu time    2.1922: real time    2.1973
    SETDIJ:  cpu time    0.0317: real time    0.0317
     EDDAV:  cpu time    5.4050: real time    5.4112
       DOS:  cpu time    0.0013: real time    0.0013
    --------------------------------------------
      LOOP:  cpu time    7.6303: real time    7.6416

 eigenvalue-minimisations  :   224
 total energy-change (2. order) : 0.6773284E+03  (-0.1323039E+04)
 number of electron      88.0000000 magnetization       8.0000000
 augmentation part       88.0000000 magnetization       8.0000000

 Free energy of the ion-electron system (eV)
  ---------------------------------------------------
  alpha Z        PSCENC =         5.09792471
  Ewald energy   TEWEN  =      9854.09004129
  -Hartree energ DENC   =    -18456.27580574
  -exchange      EXHF   =         0.00000000
  -V(xc)+E(xc)   XCENC  =       239.11416823
  PAW double counting   =      8408.47588452    -8739.43322972
  entropy T*S    EENTRO =         0.02819710
  eigenvalues    EBANDS =        98.07854999
  atomic energy  EATOM  =      9268.15263587
  Solvation  Ediel_sol  =         0.00000000
  ---------------------------------------------------
  free energy    TOTEN  =       677.32836625 eV

  energy without entropy =      677.30016916  energy(sigma->0) =      677.31896722


--------------------------------------------------------------------------------------------------------




--------------------------------------- Iteration      1(   2)  ---------------------------------------


     EDDAV:  cpu time    7.8740: real time    8.1627
       DOS:  cpu time    0.0024: real time    0.0024
    --------------------------------------------
      LOOP:  cpu time    7.8764: real time    8.1651

 eigenvalue-minimisations  :   320
 total energy-change (2. order) :-0.3312296E+03  (-0.3030326E+03)
 number of electron      88.0000000 magnetization       8.0000000
 augmentation part       88.0000000 magnetization       8.0000000

 Free energy of the ion-electron system (eV)
  ---------------------------------------------------
  alpha Z        PSCENC =         5.09792471
  Ewald energy   TEWEN  =      9854.09004129
  -Hartree energ DENC   =    -18456.27580574
  -exchange      EXHF   =         0.00000000
  -V(xc)+E(xc)   XCENC  =       239.11416823
  PAW double counting   =      8408.47588452    -8739.43322972
  entropy T*S    EENTRO =         0.04206672
  eigenvalues    EBANDS =      -233.16491794
  atomic energy  EATOM  =      9268.15263587
  Solvation  Ediel_sol  =         0.00000000
  ---------------------------------------------------
  free energy    TOTEN  =       346.09876794 eV

  energy without entropy =      346.05670123  energy(sigma->0) =      346.08474571


--------------------------------------------------------------------------------------------------------




--------------------------------------- Iteration      1(   3)  ---------------------------------------


     EDDAV:  cpu time    8.2521: real time    8.2595
       DOS:  cpu time    0.0105: real time    0.0105
    --------------------------------------------
      LOOP:  cpu time    8.2626: real time    8.2700

 eigenvalue-minimisations  :   384
 total energy-change (2. order) :-0.2303847E+03  (-0.2200555E+03)
 number of electron      88.0000000 magnetization       8.0000000
 augmentation part       88.0000000 magnetization       8.0000000

 Free energy of the ion-electron system (eV)
  ---------------------------------------------------
  alpha Z        PSCENC =         5.09792471
  Ewald energy   TEWEN  =      9854.09004129
  -Hartree energ DENC   =    -18456.27580574
  -exchange      EXHF   =         0.00000000
  -V(xc)+E(xc)   XCENC  =       239.11416823
  PAW double counting   =      8408.47588452    -8739.43322972
  entropy T*S    EENTRO =        -0.03290807
  eigenvalues    EBANDS =      -463.47464910
  atomic energy  EATOM  =      9268.15263587
  Solvation  Ediel_sol  =         0.00000000
  ---------------------------------------------------
  free energy    TOTEN  =       115.71406199 eV

  energy without entropy =      115.74697006  energy(sigma->0) =      115.72503135


--------------------------------------------------------------------------------------------------------




--------------------------------------- Iteration      1(   4)  ---------------------------------------


     EDDAV:  cpu time    9.1295: real time    9.1376
       DOS:  cpu time    0.0088: real time    0.0088
    --------------------------------------------
      LOOP:  cpu time    9.1383: real time    9.1464

 eigenvalue-minimisations  :   408
 total energy-change (2. order) :-0.1076447E+03  (-0.1027092E+03)
 number of electron      88.0000000 magnetization       8.0000000
 augmentation part       88.0000000 magnetization       8.0000000

 Free energy of the ion-electron system (eV)
  ---------------------------------------------------
  alpha Z        PSCENC =         5.09792471
  Ewald energy   TEWEN  =      9854.09004129
  -Hartree energ DENC   =    -18456.27580574
  -exchange      EXHF   =         0.00000000
  -V(xc)+E(xc)   XCENC  =       239.11416823
  PAW double counting   =      8408.47588452    -8739.43322972
  entropy T*S    EENTRO =        -0.02505540
  eigenvalues    EBANDS =      -571.12721762
  atomic energy  EATOM  =      9268.15263587
  Solvation  Ediel_sol  =         0.00000000
  ---------------------------------------------------
  free energy    TOTEN  =         8.06934614 eV

  energy without entropy =        8.09440155  energy(sigma->0) =        8.07769795


--------------------------------------------------------------------------------------------------------




--------------------------------------- Iteration      1(   5)  ---------------------------------------


     EDDAV:  cpu time    8.4417: real time    8.4504
       DOS:  cpu time    0.0093: real time    0.0093
    CHARGE:  cpu time    0.6307: real time    0.6310
    MIXING:  cpu time    0.0602: real time    0.0604
    --------------------------------------------
      LOOP:  cpu time    9.1418: real time    9.1511

 eigenvalue-minimisations  :   368
 total energy-change (2. order) :-0.2551329E+02  (-0.2287766E+02)
 number of electron      87.9999911 magnetization       7.1182964
 augmentation part       42.7830058 magnetization       7.5947949

 Broyden mixing:
  rms(total) = 0.21673E+01    rms(broyden)= 0.21672E+01
  rms(prec ) = 0.22020E+01
  weight for this iteration     100.00

 Free energy of the ion-electron system (eV)
  ---------------------------------------------------
  alpha Z        PSCENC =         5.09792471
  Ewald energy   TEWEN  =      9854.09004129
  -Hartree energ DENC   =    -18456.27580574
  -exchange      EXHF   =         0.00000000
  -V(xc)+E(xc)   XCENC  =       239.11416823
  PAW double counting   =      8408.47588452    -8739.43322972
  entropy T*S    EENTRO =         0.02402495
  eigenvalues    EBANDS =      -596.68959290
  atomic energy  EATOM  =      9268.15263587
  Solvation  Ediel_sol  =         0.00000000
  ---------------------------------------------------
  free energy    TOTEN  =       -17.44394879 eV

  energy without entropy =      -17.46797374  energy(sigma->0) =      -17.45195710


--------------------------------------------------------------------------------------------------------




--------------------------------------- Iteration      1(   6)  ---------------------------------------


    POTLOK:  cpu time    2.2375: real time    2.2390
    SETDIJ:  cpu time    0.0323: real time    0.0323
     EDDAV:  cpu time    7.3230: real time    7.3302
       DOS:  cpu time    0.0038: real time    0.0038
    CHARGE:  cpu time    0.6161: real time    0.6188
    MIXING:  cpu time    0.0613: real time    0.0614
    --------------------------------------------
      LOOP:  cpu time   10.2741: real time   10.2854

 eigenvalue-minimisations  :   320
 total energy-change (2. order) : 0.1168630E+02  (-0.7864927E+01)
 number of electron      87.9999898 magnetization       6.6464804
 augmentation part       45.4016970 magnetization       4.0512142

 Broyden mixing:
  rms(total) = 0.10990E+01    rms(broyden)= 0.10989E+01
  rms(prec ) = 0.11326E+01
  weight for this iteration     100.00

 eigenvalues of (default mixing * dielectric matrix)
  average eigenvalue GAMMA=   0.8628
  0.8628

 Free energy of the ion-electron system (eV)
  ---------------------------------------------------
  alpha Z        PSCENC =         5.09792471
  Ewald energy   TEWEN  =      9854.09004129
  -Hartree energ DENC   =    -18368.87316301
  -exchange      EXHF   =         0.00000000
  -V(xc)+E(xc)   XCENC  =       244.22948191
  PAW double counting   =      8669.14173783    -8992.47005593
  entropy T*S    EENTRO =        -0.00158562
  eigenvalues    EBANDS =      -685.12466913
  atomic energy  EATOM  =      9268.15263587
  Solvation  Ediel_sol  =         0.00000000
  ---------------------------------------------------
  free energy    TOTEN  =        -5.75765208 eV

  energy without entropy =       -5.75606645  energy(sigma->0) =       -5.75712354


--------------------------------------------------------------------------------------------------------




--------------------------------------- Iteration      1(   7)  ---------------------------------------


    POTLOK:  cpu time    2.2368: real time    2.2386
    SETDIJ:  cpu time    0.0324: real time    0.0324
     EDDAV:  cpu time    6.6412: real time    6.6470
       DOS:  cpu time    0.0023: real time    0.0023
    CHARGE:  cpu time    0.7271: real time    0.7281
    MIXING:  cpu time    0.0917: real time    0.0919
    --------------------------------------------
      LOOP:  cpu time    9.7315: real time    9.7402

 eigenvalue-minimisations  :   280
 total energy-change (2. order) :-0.8621830E+00  (-0.1505424E+01)
 number of electron      87.9999905 magnetization       5.9865710
 augmentation part       44.0100803 magnetization       3.3900756

 Broyden mixing:
  rms(total) = 0.70216E+00    rms(broyden)= 0.70201E+00
  rms(prec ) = 0.71708E+00
  weight for this iteration     100.00

 eigenvalues of (default mixing * dielectric matrix)
  average eigenvalue GAMMA=   0.9474
  1.2342  0.6606

 Free energy of the ion-electron system (eV)
  ---------------------------------------------------
  alpha Z        PSCENC =         5.09792471
  Ewald energy   TEWEN  =      9854.09004129
  -Hartree energ DENC   =    -18431.60104507
  -exchange      EXHF   =         0.00000000
  -V(xc)+E(xc)   XCENC  =       245.05353938
  PAW double counting   =      8891.88339857    -9235.65506766
  entropy T*S    EENTRO =         0.00267207
  eigenvalues    EBANDS =      -603.64393425
  atomic energy  EATOM  =      9268.15263587
  Solvation  Ediel_sol  =         0.00000000
  ---------------------------------------------------
  free energy    TOTEN  =        -6.61983508 eV

  energy without entropy =       -6.62250716  energy(sigma->0) =       -6.62072577


--------------------------------------------------------------------------------------------------------




--------------------------------------- Iteration      1(   8)  ---------------------------------------


    POTLOK:  cpu time    2.5922: real time    2.5961
    SETDIJ:  cpu time    0.0389: real time    0.0389
     EDDAV:  cpu time    7.6444: real time    7.6534
       DOS:  cpu time    0.0076: real time    0.0076
    CHARGE:  cpu time    0.7108: real time    0.7114
    MIXING:  cpu time    0.0686: real time    0.0687
    --------------------------------------------
      LOOP:  cpu time   11.0625: real time   11.0760

 eigenvalue-minimisations  :   304
 total energy-change (2. order) :-0.1607449E+01  (-0.3331183E+00)
 number of electron      87.9999901 magnetization       5.4560780
 augmentation part       44.3456990 magnetization       2.9806399

 Broyden mixing:
  rms(total) = 0.33166E+00    rms(broyden)= 0.33156E+00
  rms(prec ) = 0.34303E+00
  weight for this iteration     100.00

 eigenvalues of (default mixing * dielectric matrix)
  average eigenvalue GAMMA=   1.0550
  1.7503  0.8551  0.5597

 Free energy of the ion-electron system (eV)
  ---------------------------------------------------
  alpha Z        PSCENC =         5.09792471
  Ewald energy   TEWEN  =      9854.09004129
  -Hartree energ DENC   =    -18425.73786693
  -exchange      EXHF   =         0.00000000
  -V(xc)+E(xc)   XCENC  =       243.03205098
  PAW double counting   =      9095.44822999    -9438.99999705
  entropy T*S    EENTRO =         0.00609505
  eigenvalues    EBANDS =      -609.31639783
  atomic energy  EATOM  =      9268.15263587
  Solvation  Ediel_sol  =         0.00000000
  ---------------------------------------------------
  free energy    TOTEN  =        -8.22728391 eV

  energy without entropy =       -8.23337896  energy(sigma->0) =       -8.22931560


--------------------------------------------------------------------------------------------------------




--------------------------------------- Iteration      1(   9)  ---------------------------------------


    POTLOK:  cpu time    2.2349: real time    2.2378
    SETDIJ:  cpu time    0.0330: real time    0.0330
     EDDAV:  cpu time    6.8988: real time    6.9061
       DOS:  cpu time    0.0045: real time    0.0045
    CHARGE:  cpu time    0.6646: real time    0.6650
    MIXING:  cpu time    0.0732: real time    0.0734
    --------------------------------------------
      LOOP:  cpu time    9.9090: real time    9.9198

 eigenvalue-minimisations  :   304
 total energy-change (2. order) :-0.1764319E+01  (-0.1781622E+00)
 number of electron      87.9999903 magnetization       5.0394932
 augmentation part       44.3992523 magnetization       3.1369398

 Broyden mixing:
  rms(total) = 0.19025E+00    rms(broyden)= 0.19018E+00
  rms(prec ) = 0.19886E+00
  weight for this iteration     100.00

 eigenvalues of (default mixing * dielectric matrix)
  average eigenvalue GAMMA=   1.0476
  2.0537  0.9756  0.6418  0.5193

 Free energy of the ion-electron system (eV)
  ---------------------------------------------------
  alpha Z        PSCENC =         5.09792471
  Ewald energy   TEWEN  =      9854.09004129
  -Hartree energ DENC   =    -18428.49249129
  -exchange      EXHF   =         0.00000000
  -V(xc)+E(xc)   XCENC  =       241.51360104
  PAW double counting   =      9182.15595507    -9526.69250487
  entropy T*S    EENTRO =        -0.03337374
  eigenvalues    EBANDS =      -605.78339076
  atomic energy  EATOM  =      9268.15263587
  Solvation  Ediel_sol  =         0.00000000
  ---------------------------------------------------
  free energy    TOTEN  =        -9.99160268 eV

  energy without entropy =       -9.95822894  energy(sigma->0) =       -9.98047810


--------------------------------------------------------------------------------------------------------




--------------------------------------- Iteration      1(  10)  ---------------------------------------


    POTLOK:  cpu time    2.2329: real time    2.2360
    SETDIJ:  cpu time    0.0333: real time    0.0333
     EDDAV:  cpu time    7.5127: real time    7.5231
       DOS:  cpu time    0.0006: real time    0.0006
    CHARGE:  cpu time    0.6581: real time    0.6586
    MIXING:  cpu time    0.0798: real time    0.0799
    --------------------------------------------
      LOOP:  cpu time   10.5173: real time   10.5314

 eigenvalue-minimisations  :   320
 total energy-change (2. order) :-0.9150674E+00  (-0.5303696E-01)
 number of electron      87.9999903 magnetization       4.7458575
 augmentation part       44.3773741 magnetization       3.3710722

 Broyden mixing:
  rms(total) = 0.14390E+00    rms(broyden)= 0.14385E+00
  rms(prec ) = 0.14803E+00
  weight for this iteration     100.00

 eigenvalues of (default mixing * dielectric matrix)
  average eigenvalue GAMMA=   0.9990
  2.1611  0.8737  0.8737  0.5432  0.5432

 Free energy of the ion-electron system (eV)
  ---------------------------------------------------
  alpha Z        PSCENC =         5.09792471
  Ewald energy   TEWEN  =      9854.09004129
  -Hartree energ DENC   =    -18431.63535979
  -exchange      EXHF   =         0.00000000
  -V(xc)+E(xc)   XCENC  =       240.85368466
  PAW double counting   =      9206.23871296    -9551.93082326
  entropy T*S    EENTRO =        -0.04362796
  eigenvalues    EBANDS =      -601.72985857
  atomic energy  EATOM  =      9268.15263587
  Solvation  Ediel_sol  =         0.00000000
  ---------------------------------------------------
  free energy    TOTEN  =       -10.90667009 eV

  energy without entropy =      -10.86304213  energy(sigma->0) =      -10.89212744


--------------------------------------------------------------------------------------------------------




--------------------------------------- Iteration      1(  11)  ---------------------------------------


    POTLOK:  cpu time    2.2297: real time    2.2356
    SETDIJ:  cpu time    0.0366: real time    0.0366
     EDDAV:  cpu time    6.8880: real time    6.8942
       DOS:  cpu time    0.0064: real time    0.0064
    CHARGE:  cpu time    0.6553: real time    0.6559
    MIXING:  cpu time    0.0881: real time    0.0881
    --------------------------------------------
      LOOP:  cpu time    9.9040: real time    9.9168

 eigenvalue-minimisations  :   304
 total energy-change (2. order) :-0.4580231E+00  (-0.1548504E-01)
 number of electron      87.9999904 magnetization       4.4271638
 augmentation part       44.3672469 magnetization       3.3444465

 Broyden mixing:
  rms(total) = 0.13976E+00    rms(broyden)= 0.13974E+00
  rms(prec ) = 0.14345E+00
  weight for this iteration     100.00

 eigenvalues of (default mixing * dielectric matrix)
  average eigenvalue GAMMA=   0.9499
  2.2121  0.9435  0.8537  0.4978  0.5961  0.5961

 Free energy of the ion-electron system (eV)
  ---------------------------------------------------
  alpha Z        PSCENC =         5.09792471
  Ewald energy   TEWEN  =      9854.09004129
  -Hartree energ DENC   =    -18433.26180880
  -exchange      EXHF   =         0.00000000
  -V(xc)+E(xc)   XCENC  =       240.52496534
  PAW double counting   =      9210.14884832    -9556.09194405
  entropy T*S    EENTRO =        -0.04178848
  eigenvalues    EBANDS =      -599.98356742
  atomic energy  EATOM  =      9268.15263587
  Solvation  Ediel_sol  =         0.00000000
  ---------------------------------------------------
  free energy    TOTEN  =       -11.36469322 eV

  energy without entropy =      -11.32290474  energy(sigma->0) =      -11.35076373


--------------------------------------------------------------------------------------------------------




--------------------------------------- Iteration      1(  12)  ---------------------------------------


    POTLOK:  cpu time    2.2436: real time    2.2453
    SETDIJ:  cpu time    0.0329: real time    0.0329
     EDDAV:  cpu time    7.0121: real time    7.0198
       DOS:  cpu time    0.0057: real time    0.0057
    CHARGE:  cpu time    0.6481: real time    0.6487
    MIXING:  cpu time    0.0875: real time    0.0875
    --------------------------------------------
      LOOP:  cpu time   10.0298: real time   10.0400

 eigenvalue-minimisations  :   312
 total energy-change (2. order) :-0.5654225E+00  (-0.9033989E-02)
 number of electron      87.9999903 magnetization       3.5723028
 augmentation part       44.3817198 magnetization       2.8239750

 Broyden mixing:
  rms(total) = 0.13857E+00    rms(broyden)= 0.13855E+00
  rms(prec ) = 0.14282E+00
  weight for this iteration     100.00

 eigenvalues of (default mixing * dielectric matrix)
  average eigenvalue GAMMA=   1.0972
  2.1838  1.4361  1.4361  0.9554  0.6574  0.5056  0.5056

 Free energy of the ion-electron system (eV)
  ---------------------------------------------------
  alpha Z        PSCENC =         5.09792471
  Ewald energy   TEWEN  =      9854.09004129
  -Hartree energ DENC   =    -18434.10385863
  -exchange      EXHF   =         0.00000000
  -V(xc)+E(xc)   XCENC  =       240.08727209
  PAW double counting   =      9209.06733099    -9554.88036709
  entropy T*S    EENTRO =        -0.02938832
  eigenvalues    EBANDS =      -599.41170660
  atomic energy  EATOM  =      9268.15263587
  Solvation  Ediel_sol  =         0.00000000
  ---------------------------------------------------
  free energy    TOTEN  =       -11.93011569 eV

  energy without entropy =      -11.90072737  energy(sigma->0) =      -11.92031958


--------------------------------------------------------------------------------------------------------




--------------------------------------- Iteration      1(  13)  ---------------------------------------


    POTLOK:  cpu time    2.2481: real time    2.2561
    SETDIJ:  cpu time    0.0335: real time    0.0335
     EDDAV:  cpu time    6.5865: real time    6.6052
       DOS:  cpu time    0.0059: real time    0.0059
    CHARGE:  cpu time    0.6321: real time    0.6326
    MIXING:  cpu time    0.0979: real time    0.0979
    --------------------------------------------
      LOOP:  cpu time    9.6040: real time    9.6312

 eigenvalue-minimisations  :   280
 total energy-change (2. order) :-0.1239604E+01  (-0.4258718E-01)
 number of electron      87.9999904 magnetization       2.2872934
 augmentation part       44.3934334 magnetization       2.0195191

 Broyden mixing:
  rms(total) = 0.10547E+00    rms(broyden)= 0.10542E+00
  rms(prec ) = 0.10819E+00
  weight for this iteration     100.00

 eigenvalues of (default mixing * dielectric matrix)
  average eigenvalue GAMMA=   1.2337
  2.5578  2.5578  1.4442  1.0492  0.6460  0.6460  0.5080  0.4607

 Free energy of the ion-electron system (eV)
  ---------------------------------------------------
  alpha Z        PSCENC =         5.09792471
  Ewald energy   TEWEN  =      9854.09004129
  -Hartree energ DENC   =    -18436.71634158
  -exchange      EXHF   =         0.00000000
  -V(xc)+E(xc)   XCENC  =       239.12640262
  PAW double counting   =      9200.76168616    -9546.24859016
  entropy T*S    EENTRO =         0.01056403
  eigenvalues    EBANDS =      -597.44404299
  atomic energy  EATOM  =      9268.15263587
  Solvation  Ediel_sol  =         0.00000000
  ---------------------------------------------------
  free energy    TOTEN  =       -13.16972004 eV

  energy without entropy =      -13.18028407  energy(sigma->0) =      -13.17324139


--------------------------------------------------------------------------------------------------------




--------------------------------------- Iteration      1(  14)  ---------------------------------------


    POTLOK:  cpu time    2.2443: real time    2.2463
    SETDIJ:  cpu time    0.0369: real time    0.0370
     EDDAV:  cpu time    6.5652: real time    6.5718
       DOS:  cpu time    0.0034: real time    0.0034
    CHARGE:  cpu time    0.6141: real time    0.6146
    MIXING:  cpu time    0.1000: real time    0.1001
    --------------------------------------------
      LOOP:  cpu time    9.5639: real time    9.5732

 eigenvalue-minimisations  :   288
 total energy-change (2. order) :-0.1673531E+01  (-0.7981423E-01)
 number of electron      87.9999904 magnetization       2.4927380
 augmentation part       44.3673434 magnetization       2.3668019

 Broyden mixing:
  rms(total) = 0.92476E-01    rms(broyden)= 0.92464E-01
  rms(prec ) = 0.95518E-01
  weight for this iteration     100.00

 eigenvalues of (default mixing * dielectric matrix)
  average eigenvalue GAMMA=   1.1048
  2.0546  2.0546  1.5135  1.5135  0.6393  0.6393  0.5078  0.5104  0.5104

 Free energy of the ion-electron system (eV)
  ---------------------------------------------------
  alpha Z        PSCENC =         5.09792471
  Ewald energy   TEWEN  =      9854.09004129
  -Hartree energ DENC   =    -18439.66728497
  -exchange      EXHF   =         0.00000000
  -V(xc)+E(xc)   XCENC  =       237.85156565
  PAW double counting   =      9185.98772224    -9531.22587789
  entropy T*S    EENTRO =         0.02102977
  eigenvalues    EBANDS =      -595.15100807
  atomic energy  EATOM  =      9268.15263587
  Solvation  Ediel_sol  =         0.00000000
  ---------------------------------------------------
  free energy    TOTEN  =       -14.84325139 eV

  energy without entropy =      -14.86428116  energy(sigma->0) =      -14.85026132


--------------------------------------------------------------------------------------------------------




--------------------------------------- Iteration      1(  15)  ---------------------------------------


    POTLOK:  cpu time    2.2285: real time    2.2409
    SETDIJ:  cpu time    0.0321: real time    0.0323
     EDDAV:  cpu time    7.9761: real time    7.9872
       DOS:  cpu time    0.0074: real time    0.0074
    CHARGE:  cpu time    0.6327: real time    0.6330
    MIXING:  cpu time    0.1123: real time    0.1124
    --------------------------------------------
      LOOP:  cpu time   10.9892: real time   11.0133

 eigenvalue-minimisations  :   320
 total energy-change (2. order) :-0.5493493E+00  (-0.1329929E-01)
 number of electron      87.9999904 magnetization       1.8052233
 augmentation part       44.3885285 magnetization       1.7153961

 Broyden mixing:
  rms(total) = 0.65811E-01    rms(broyden)= 0.65807E-01
  rms(prec ) = 0.67032E-01
  weight for this iteration     100.00

 eigenvalues of (default mixing * dielectric matrix)
  average eigenvalue GAMMA=   1.2324
  2.7549  2.7549  1.5814  1.5814  0.7436  0.7436  0.6078  0.6078  0.5128  0.4355

 Free energy of the ion-electron system (eV)
  ---------------------------------------------------
  alpha Z        PSCENC =         5.09792471
  Ewald energy   TEWEN  =      9854.09004129
  -Hartree energ DENC   =    -18436.35146483
  -exchange      EXHF   =         0.00000000
  -V(xc)+E(xc)   XCENC  =       237.37294224
  PAW double counting   =      9186.31280630    -9531.53039844
  entropy T*S    EENTRO =         0.02107579
  eigenvalues    EBANDS =      -598.55816358
  atomic energy  EATOM  =      9268.15263587
  Solvation  Ediel_sol  =         0.00000000
  ---------------------------------------------------
  free energy    TOTEN  =       -15.39260065 eV

  energy without entropy =      -15.41367644  energy(sigma->0) =      -15.39962591


--------------------------------------------------------------------------------------------------------




--------------------------------------- Iteration      1(  16)  ---------------------------------------


    POTLOK:  cpu time    2.4309: real time    2.4351
    SETDIJ:  cpu time    0.0415: real time    0.0415
     EDDAV:  cpu time    7.3647: real time    7.3715
       DOS:  cpu time    0.0119: real time    0.0119
    CHARGE:  cpu time    0.6300: real time    0.6306
    MIXING:  cpu time    0.1273: real time    0.1275
    --------------------------------------------
      LOOP:  cpu time   10.6063: real time   10.6182

 eigenvalue-minimisations  :   272
 total energy-change (2. order) :-0.1031151E+01  (-0.3026777E-01)
 number of electron      87.9999904 magnetization       1.4705021
 augmentation part       44.4099330 magnetization       1.3492201

 Broyden mixing:
  rms(total) = 0.47052E-01    rms(broyden)= 0.47045E-01
  rms(prec ) = 0.48169E-01
  weight for this iteration     100.00

 eigenvalues of (default mixing * dielectric matrix)
  average eigenvalue GAMMA=   1.2625
  3.7025  1.9093  1.9093  1.8521  0.8537  0.8537  0.6767  0.6767  0.5057  0.5057
  0.4417

 Free energy of the ion-electron system (eV)
  ---------------------------------------------------
  alpha Z        PSCENC =         5.09792471
  Ewald energy   TEWEN  =      9854.09004129
  -Hartree energ DENC   =    -18432.97732185
  -exchange      EXHF   =         0.00000000
  -V(xc)+E(xc)   XCENC  =       236.46461076
  PAW double counting   =      9176.22258758    -9521.28496440
  entropy T*S    EENTRO =         0.01433518
  eigenvalues    EBANDS =      -602.20360030
  atomic energy  EATOM  =      9268.15263587
  Solvation  Ediel_sol  =         0.00000000
  ---------------------------------------------------
  free energy    TOTEN  =       -16.42375115 eV

  energy without entropy =      -16.43808634  energy(sigma->0) =      -16.42852955


--------------------------------------------------------------------------------------------------------




--------------------------------------- Iteration      1(  17)  ---------------------------------------


    POTLOK:  cpu time    2.4365: real time    2.4383
    SETDIJ:  cpu time    0.0413: real time    0.0413
     EDDAV:  cpu time    7.1955: real time    7.2020
       DOS:  cpu time    0.0075: real time    0.0076
    CHARGE:  cpu time    0.6061: real time    0.6064
    MIXING:  cpu time    0.1255: real time    0.1256
    --------------------------------------------
      LOOP:  cpu time   10.4124: real time   10.4212

 eigenvalue-minimisations  :   264
 total energy-change (2. order) :-0.5040638E+00  (-0.1047108E-01)
 number of electron      87.9999904 magnetization       0.7960564
 augmentation part       44.4032242 magnetization       0.6883598

 Broyden mixing:
  rms(total) = 0.36084E-01    rms(broyden)= 0.36082E-01
  rms(prec ) = 0.37474E-01
  weight for this iteration     100.00

 eigenvalues of (default mixing * dielectric matrix)
  average eigenvalue GAMMA=   1.3793
  4.5516  2.2518  2.2518  1.5200  1.5200  0.8537  0.8537  0.6335  0.6335  0.5243
  0.5243  0.4334

 Free energy of the ion-electron system (eV)
  ---------------------------------------------------
  alpha Z        PSCENC =         5.09792471
  Ewald energy   TEWEN  =      9854.09004129
  -Hartree energ DENC   =    -18430.91868361
  -exchange      EXHF   =         0.00000000
  -V(xc)+E(xc)   XCENC  =       236.01976459
  PAW double counting   =      9175.61910528    -9520.85825150
  entropy T*S    EENTRO =         0.01373439
  eigenvalues    EBANDS =      -604.14408602
  atomic energy  EATOM  =      9268.15263587
  Solvation  Ediel_sol  =         0.00000000
  ---------------------------------------------------
  free energy    TOTEN  =       -16.92781499 eV

  energy without entropy =      -16.94154939  energy(sigma->0) =      -16.93239312


--------------------------------------------------------------------------------------------------------




--------------------------------------- Iteration      1(  18)  ---------------------------------------


    POTLOK:  cpu time    2.2354: real time    2.2382
    SETDIJ:  cpu time    0.0325: real time    0.0326
     EDDAV:  cpu time    5.9075: real time    5.9176
       DOS:  cpu time    0.0105: real time    0.0105
    CHARGE:  cpu time    0.6676: real time    0.6683
    MIXING:  cpu time    0.1315: real time    0.1315
    --------------------------------------------
      LOOP:  cpu time    8.9850: real time    8.9987

 eigenvalue-minimisations  :   240
 total energy-change (2. order) :-0.4705522E+00  (-0.1051237E-01)
 number of electron      87.9999904 magnetization       0.4933307
 augmentation part       44.4058525 magnetization       0.4358284

 Broyden mixing:
  rms(total) = 0.20192E-01    rms(broyden)= 0.20191E-01
  rms(prec ) = 0.21325E-01
  weight for this iteration     100.00

 eigenvalues of (default mixing * dielectric matrix)
  average eigenvalue GAMMA=   1.4396
  5.6604  2.2216  2.2216  1.7107  1.7107  0.8446  0.8446  0.7275  0.6560  0.6560
  0.5132  0.5132  0.4352

 Free energy of the ion-electron system (eV)
  ---------------------------------------------------
  alpha Z        PSCENC =         5.09792471
  Ewald energy   TEWEN  =      9854.09004129
  -Hartree energ DENC   =    -18426.79950102
  -exchange      EXHF   =         0.00000000
  -V(xc)+E(xc)   XCENC  =       235.53511347
  PAW double counting   =      9164.94040910    -9510.13994212
  entropy T*S    EENTRO =         0.01248384
  eigenvalues    EBANDS =      -608.28753234
  atomic energy  EATOM  =      9268.15263587
  Solvation  Ediel_sol  =         0.00000000
  ---------------------------------------------------
  free energy    TOTEN  =       -17.39836720 eV

  energy without entropy =      -17.41085103  energy(sigma->0) =      -17.40252848


--------------------------------------------------------------------------------------------------------




--------------------------------------- Iteration      1(  19)  ---------------------------------------


    POTLOK:  cpu time    2.2532: real time    2.2612
    SETDIJ:  cpu time    0.0333: real time    0.0333
     EDDAV:  cpu time    8.0805: real time    8.0887
       DOS:  cpu time    0.0150: real time    0.0150
    CHARGE:  cpu time    0.6791: real time    0.6796
    MIXING:  cpu time    0.1560: real time    0.1563
    --------------------------------------------
      LOOP:  cpu time   11.2171: real time   11.2340

 eigenvalue-minimisations  :   328
 total energy-change (2. order) :-0.2223250E+00  (-0.1858333E-02)
 number of electron      87.9999904 magnetization       0.2865396
 augmentation part       44.4088402 magnetization       0.2664298

 Broyden mixing:
  rms(total) = 0.15184E-01    rms(broyden)= 0.15182E-01
  rms(prec ) = 0.16462E-01
  weight for this iteration     100.00

 eigenvalues of (default mixing * dielectric matrix)
  average eigenvalue GAMMA=   1.4932
  6.4584  2.3393  2.3393  1.6691  1.6691  1.0852  1.0852  0.8268  0.6749  0.6749
  0.5987  0.5248  0.5248  0.4341

 Free energy of the ion-electron system (eV)
  ---------------------------------------------------
  alpha Z        PSCENC =         5.09792471
  Ewald energy   TEWEN  =      9854.09004129
  -Hartree energ DENC   =    -18424.84304166
  -exchange      EXHF   =         0.00000000
  -V(xc)+E(xc)   XCENC  =       235.29242724
  PAW double counting   =      9162.32799090    -9507.51309910
  entropy T*S    EENTRO =         0.01208252
  eigenvalues    EBANDS =      -610.23765399
  atomic energy  EATOM  =      9268.15263587
  Solvation  Ediel_sol  =         0.00000000
  ---------------------------------------------------
  free energy    TOTEN  =       -17.62069221 eV

  energy without entropy =      -17.63277473  energy(sigma->0) =      -17.62471972


--------------------------------------------------------------------------------------------------------




--------------------------------------- Iteration      1(  20)  ---------------------------------------


    POTLOK:  cpu time    2.4500: real time    2.4562
    SETDIJ:  cpu time    0.0362: real time    0.0362
     EDDAV:  cpu time    7.1823: real time    7.1892
       DOS:  cpu time    0.0073: real time    0.0073
    CHARGE:  cpu time    0.6573: real time    0.6579
    MIXING:  cpu time    0.1490: real time    0.1491
    --------------------------------------------
      LOOP:  cpu time   10.4821: real time   10.4958

 eigenvalue-minimisations  :   288
 total energy-change (2. order) :-0.1757802E+00  (-0.7822771E-03)
 number of electron      87.9999904 magnetization       0.2001839
 augmentation part       44.4111359 magnetization       0.1939557

 Broyden mixing:
  rms(total) = 0.92260E-02    rms(broyden)= 0.92244E-02
  rms(prec ) = 0.10056E-01
  weight for this iteration     100.00

 eigenvalues of (default mixing * dielectric matrix)
  average eigenvalue GAMMA=   1.5322
  6.7831  2.8034  2.8034  1.5471  1.5471  1.5491  0.8891  0.8215  0.8215  0.6683
  0.6683  0.4345  0.5212  0.5212  0.6048

 Free energy of the ion-electron system (eV)
  ---------------------------------------------------
  alpha Z        PSCENC =         5.09792471
  Ewald energy   TEWEN  =      9854.09004129
  -Hartree energ DENC   =    -18422.70518187
  -exchange      EXHF   =         0.00000000
  -V(xc)+E(xc)   XCENC  =       235.09955845
  PAW double counting   =      9164.08495174    -9509.31579556
  entropy T*S    EENTRO =         0.01195290
  eigenvalues    EBANDS =      -612.31255992
  atomic energy  EATOM  =      9268.15263587
  Solvation  Ediel_sol  =         0.00000000
  ---------------------------------------------------
  free energy    TOTEN  =       -17.79647238 eV

  energy without entropy =      -17.80842528  energy(sigma->0) =      -17.80045668


--------------------------------------------------------------------------------------------------------




--------------------------------------- Iteration      1(  21)  ---------------------------------------


    POTLOK:  cpu time    2.2218: real time    2.2293
    SETDIJ:  cpu time    0.0361: real time    0.0361
     EDDAV:  cpu time    6.4408: real time    6.4497
       DOS:  cpu time    0.0025: real time    0.0025
    CHARGE:  cpu time    0.6637: real time    0.6641
    MIXING:  cpu time    0.1716: real time    0.1718
    --------------------------------------------
      LOOP:  cpu time    9.5365: real time    9.5536

 eigenvalue-minimisations  :   280
 total energy-change (2. order) :-0.8027111E-01  (-0.2249871E-03)
 number of electron      87.9999904 magnetization       0.1164505
 augmentation part       44.4108338 magnetization       0.1063275

 Broyden mixing:
  rms(total) = 0.68418E-02    rms(broyden)= 0.68411E-02
  rms(prec ) = 0.75744E-02
  weight for this iteration     100.00

 eigenvalues of (default mixing * dielectric matrix)
  average eigenvalue GAMMA=   1.5915
  7.7114  2.7050  2.5262  2.5262  1.5565  1.5565  0.9742  0.9742  0.7577  0.7577
  0.4346  0.5180  0.5180  0.6491  0.6491  0.6495

 Free energy of the ion-electron system (eV)
  ---------------------------------------------------
  alpha Z        PSCENC =         5.09792471
  Ewald energy   TEWEN  =      9854.09004129
  -Hartree energ DENC   =    -18421.42390959
  -exchange      EXHF   =         0.00000000
  -V(xc)+E(xc)   XCENC  =       235.01043166
  PAW double counting   =      9166.55839966    -9511.80643402
  entropy T*S    EENTRO =         0.01191852
  eigenvalues    EBANDS =      -613.56775160
  atomic energy  EATOM  =      9268.15263587
  Solvation  Ediel_sol  =         0.00000000
  ---------------------------------------------------
  free energy    TOTEN  =       -17.87674350 eV

  energy without entropy =      -17.88866201  energy(sigma->0) =      -17.88071634


--------------------------------------------------------------------------------------------------------




--------------------------------------- Iteration      1(  22)  ---------------------------------------


    POTLOK:  cpu time    2.5000: real time    2.5026
    SETDIJ:  cpu time    0.0424: real time    0.0425
     EDDAV:  cpu time    5.5571: real time    5.5625
       DOS:  cpu time    0.0043: real time    0.0043
    CHARGE:  cpu time    0.5635: real time    0.5638
    MIXING:  cpu time    0.1687: real time    0.1688
    --------------------------------------------
      LOOP:  cpu time    8.8361: real time    8.8444

 eigenvalue-minimisations  :   192
 total energy-change (2. order) :-0.4786970E-01  (-0.9699675E-04)
 number of electron      87.9999904 magnetization       0.0615921
 augmentation part       44.4115404 magnetization       0.0558023

 Broyden mixing:
  rms(total) = 0.47798E-02    rms(broyden)= 0.47794E-02
  rms(prec ) = 0.53387E-02
  weight for this iteration     100.00

 eigenvalues of (default mixing * dielectric matrix)
  average eigenvalue GAMMA=   1.6094
  8.2476  3.2410  2.5152  2.5152  1.5282  1.5282  0.9498  0.9498  0.9389  0.9389
  0.6655  0.6655  0.6471  0.4345  0.5197  0.5197  0.5550

 Free energy of the ion-electron system (eV)
  ---------------------------------------------------
  alpha Z        PSCENC =         5.09792471
  Ewald energy   TEWEN  =      9854.09004129
  -Hartree energ DENC   =    -18420.57537830
  -exchange      EXHF   =         0.00000000
  -V(xc)+E(xc)   XCENC  =       234.95360610
  PAW double counting   =      9167.25581527    -9512.46759798
  entropy T*S    EENTRO =         0.01192098
  eigenvalues    EBANDS =      -614.44358114
  atomic energy  EATOM  =      9268.15263587
  Solvation  Ediel_sol  =         0.00000000
  ---------------------------------------------------
  free energy    TOTEN  =       -17.92461320 eV

  energy without entropy =      -17.93653418  energy(sigma->0) =      -17.92858686


--------------------------------------------------------------------------------------------------------




--------------------------------------- Iteration      1(  23)  ---------------------------------------


    POTLOK:  cpu time    2.2315: real time    2.2349
    SETDIJ:  cpu time    0.0319: real time    0.0320
     EDDAV:  cpu time    4.5007: real time    4.5050
       DOS:  cpu time    0.0034: real time    0.0034
    CHARGE:  cpu time    0.6530: real time    0.6535
    MIXING:  cpu time    0.1815: real time    0.1816
    --------------------------------------------
      LOOP:  cpu time    7.6020: real time    7.6104

 eigenvalue-minimisations  :   168
 total energy-change (2. order) :-0.2822489E-01  (-0.3936733E-04)
 number of electron      87.9999904 magnetization       0.0295146
 augmentation part       44.4121060 magnetization       0.0264384

 Broyden mixing:
  rms(total) = 0.25472E-02    rms(broyden)= 0.25467E-02
  rms(prec ) = 0.30416E-02
  weight for this iteration     100.00

 eigenvalues of (default mixing * dielectric matrix)
  average eigenvalue GAMMA=   1.6132
  8.5330  3.5462  2.4442  2.4442  1.4923  1.4923  1.6356  0.9900  0.9900  0.7643
  0.7091  0.7091  0.6494  0.6494  0.4346  0.5188  0.5188  0.5163

 Free energy of the ion-electron system (eV)
  ---------------------------------------------------
  alpha Z        PSCENC =         5.09792471
  Ewald energy   TEWEN  =      9854.09004129
  -Hartree energ DENC   =    -18420.05970383
  -exchange      EXHF   =         0.00000000
  -V(xc)+E(xc)   XCENC  =       234.92048544
  PAW double counting   =      9168.16427780    -9513.35814621
  entropy T*S    EENTRO =         0.01193312
  eigenvalues    EBANDS =      -614.97228629
  atomic energy  EATOM  =      9268.15263587
  Solvation  Ediel_sol  =         0.00000000
  ---------------------------------------------------
  free energy    TOTEN  =       -17.95283809 eV

  energy without entropy =      -17.96477121  energy(sigma->0) =      -17.95681580


--------------------------------------------------------------------------------------------------------




--------------------------------------- Iteration      1(  24)  ---------------------------------------


    POTLOK:  cpu time    2.2177: real time    2.2198
    SETDIJ:  cpu time    0.0322: real time    0.0322
     EDDAV:  cpu time    4.8529: real time    4.8579
       DOS:  cpu time    0.0014: real time    0.0014
    CHARGE:  cpu time    0.6657: real time    0.6663
    MIXING:  cpu time    0.2239: real time    0.2240
    --------------------------------------------
      LOOP:  cpu time    7.9938: real time    8.0016

 eigenvalue-minimisations  :   176
 total energy-change (2. order) :-0.1402061E-01  (-0.2475610E-04)
 number of electron      87.9999904 magnetization       0.0118310
 augmentation part       44.4112495 magnetization       0.0103455

 Broyden mixing:
  rms(total) = 0.15418E-02    rms(broyden)= 0.15415E-02
  rms(prec ) = 0.19797E-02
  weight for this iteration     100.00

 eigenvalues of (default mixing * dielectric matrix)
  average eigenvalue GAMMA=   1.6373
  8.8195  4.0929  2.5063  2.5063  1.9752  1.4935  1.4935  0.9812  0.9812  0.9440
  0.7857  0.6783  0.6783  0.6625  0.5809  0.5194  0.5194  0.4345  0.4557

 Free energy of the ion-electron system (eV)
  ---------------------------------------------------
  alpha Z        PSCENC =         5.09792471
  Ewald energy   TEWEN  =      9854.09004129
  -Hartree energ DENC   =    -18419.72223314
  -exchange      EXHF   =         0.00000000
  -V(xc)+E(xc)   XCENC  =       234.90498294
  PAW double counting   =      9168.75885363    -9513.95601627
  entropy T*S    EENTRO =         0.01194493
  eigenvalues    EBANDS =      -615.30499267
  atomic energy  EATOM  =      9268.15263587
  Solvation  Ediel_sol  =         0.00000000
  ---------------------------------------------------
  free energy    TOTEN  =       -17.96685870 eV

  energy without entropy =      -17.97880363  energy(sigma->0) =      -17.97084035


--------------------------------------------------------------------------------------------------------




--------------------------------------- Iteration      1(  25)  ---------------------------------------


    POTLOK:  cpu time    2.3616: real time    2.3635
    SETDIJ:  cpu time    0.0329: real time    0.0329
     EDDAV:  cpu time    5.2711: real time    5.2837
       DOS:  cpu time    0.0128: real time    0.0128
    CHARGE:  cpu time    0.7020: real time    0.7024
    MIXING:  cpu time    0.2276: real time    0.2281
    --------------------------------------------
      LOOP:  cpu time    8.6080: real time    8.6233

 eigenvalue-minimisations  :   184
 total energy-change (2. order) :-0.5950709E-02  (-0.2467021E-04)
 number of electron      87.9999904 magnetization       0.0099325
 augmentation part       44.4117573 magnetization       0.0096212

 Broyden mixing:
  rms(total) = 0.11919E-02    rms(broyden)= 0.11917E-02
  rms(prec ) = 0.15267E-02
  weight for this iteration     100.00

 eigenvalues of (default mixing * dielectric matrix)
  average eigenvalue GAMMA=   1.6215
  8.9185  4.2032  2.6374  2.6374  1.9182  1.5099  1.5099  1.0057  1.0057  1.0207
  0.8063  0.8063  0.6658  0.6658  0.6093  0.6093  0.5179  0.5179  0.4351  0.4292

 Free energy of the ion-electron system (eV)
  ---------------------------------------------------
  alpha Z        PSCENC =         5.09792471
  Ewald energy   TEWEN  =      9854.09004129
  -Hartree energ DENC   =    -18419.37268511
  -exchange      EXHF   =         0.00000000
  -V(xc)+E(xc)   XCENC  =       234.89722857
  PAW double counting   =      9168.58578809    -9513.77990216
  entropy T*S    EENTRO =         0.01194923
  eigenvalues    EBANDS =      -615.65578991
  atomic energy  EATOM  =      9268.15263587
  Solvation  Ediel_sol  =         0.00000000
  ---------------------------------------------------
  free energy    TOTEN  =       -17.97280941 eV

  energy without entropy =      -17.98475865  energy(sigma->0) =      -17.97679249


--------------------------------------------------------------------------------------------------------




--------------------------------------- Iteration      1(  26)  ---------------------------------------


    POTLOK:  cpu time    2.4634: real time    2.4654
    SETDIJ:  cpu time    0.0381: real time    0.0382
     EDDAV:  cpu time    4.5441: real time    4.5484
       DOS:  cpu time    0.0042: real time    0.0042
    CHARGE:  cpu time    0.5918: real time    0.5921
    MIXING:  cpu time    0.2229: real time    0.2232
    --------------------------------------------
      LOOP:  cpu time    7.8644: real time    7.8714

 eigenvalue-minimisations  :   160
 total energy-change (2. order) :-0.1716418E-02  (-0.7829307E-05)
 number of electron      87.9999904 magnetization       0.0101594
 augmentation part       44.4115285 magnetization       0.0093761

 Broyden mixing:
  rms(total) = 0.72336E-03    rms(broyden)= 0.72323E-03
  rms(prec ) = 0.10127E-02
  weight for this iteration     100.00

 eigenvalues of (default mixing * dielectric matrix)
  average eigenvalue GAMMA=   1.6343
  8.9373  4.5935  2.5639  2.5639  2.3480  1.4840  1.4840  1.4805  0.9841  0.9841
  0.9942  0.7587  0.7587  0.6629  0.6629  0.5877  0.5877  0.5181  0.5181  0.4346
  0.4129

 Free energy of the ion-electron system (eV)
  ---------------------------------------------------
  alpha Z        PSCENC =         5.09792471
  Ewald energy   TEWEN  =      9854.09004129
  -Hartree energ DENC   =    -18419.15409085
  -exchange      EXHF   =         0.00000000
  -V(xc)+E(xc)   XCENC  =       234.89513156
  PAW double counting   =      9168.47928303    -9513.67920782
  entropy T*S    EENTRO =         0.01194557
  eigenvalues    EBANDS =      -615.86818918
  atomic energy  EATOM  =      9268.15263587
  Solvation  Ediel_sol  =         0.00000000
  ---------------------------------------------------
  free energy    TOTEN  =       -17.97452583 eV

  energy without entropy =      -17.98647140  energy(sigma->0) =      -17.97850769


--------------------------------------------------------------------------------------------------------




--------------------------------------- Iteration      1(  27)  ---------------------------------------


    POTLOK:  cpu time    2.1840: real time    2.1867
    SETDIJ:  cpu time    0.0322: real time    0.0322
     EDDAV:  cpu time    4.8134: real time    4.8179
       DOS:  cpu time    0.0021: real time    0.0021
    CHARGE:  cpu time    0.6877: real time    0.6921
    MIXING:  cpu time    0.2644: real time    0.2647
    --------------------------------------------
      LOOP:  cpu time    7.9839: real time    7.9958

 eigenvalue-minimisations  :   152
 total energy-change (2. order) :-0.4997636E-03  (-0.6138401E-05)
 number of electron      87.9999904 magnetization       0.0057307
 augmentation part       44.4118602 magnetization       0.0040350

 Broyden mixing:
  rms(total) = 0.70153E-03    rms(broyden)= 0.70142E-03
  rms(prec ) = 0.85401E-03
  weight for this iteration     100.00

 eigenvalues of (default mixing * dielectric matrix)
  average eigenvalue GAMMA=   1.6307
  8.9971  4.6771  2.9020  2.5009  2.5009  1.4897  1.4897  1.5559  1.0757  0.9917
  0.9917  0.8281  0.8281  0.6705  0.6705  0.6193  0.6193  0.5875  0.5177  0.5177
  0.4346  0.4102

 Free energy of the ion-electron system (eV)
  ---------------------------------------------------
  alpha Z        PSCENC =         5.09792471
  Ewald energy   TEWEN  =      9854.09004129
  -Hartree energ DENC   =    -18418.90454254
  -exchange      EXHF   =         0.00000000
  -V(xc)+E(xc)   XCENC  =       234.89379642
  PAW double counting   =      9168.47213951    -9513.67791637
  entropy T*S    EENTRO =         0.01193985
  eigenvalues    EBANDS =      -616.11104434
  atomic energy  EATOM  =      9268.15263587
  Solvation  Ediel_sol  =         0.00000000
  ---------------------------------------------------
  free energy    TOTEN  =       -17.97502559 eV

  energy without entropy =      -17.98696545  energy(sigma->0) =      -17.97900555


--------------------------------------------------------------------------------------------------------




--------------------------------------- Iteration      1(  28)  ---------------------------------------


    POTLOK:  cpu time    2.4361: real time    2.4386
    SETDIJ:  cpu time    0.0327: real time    0.0327
     EDDAV:  cpu time    4.6497: real time    4.6540
       DOS:  cpu time    0.0037: real time    0.0037
    CHARGE:  cpu time    0.6685: real time    0.6690
    MIXING:  cpu time    0.2471: real time    0.2473
    --------------------------------------------
      LOOP:  cpu time    8.0378: real time    8.0452

 eigenvalue-minimisations  :   176
 total energy-change (2. order) :-0.3482900E-03  (-0.3081569E-05)
 number of electron      87.9999904 magnetization       0.0030044
 augmentation part       44.4118473 magnetization       0.0019568

 Broyden mixing:
  rms(total) = 0.59724E-03    rms(broyden)= 0.59718E-03
  rms(prec ) = 0.70016E-03
  weight for this iteration     100.00

 eigenvalues of (default mixing * dielectric matrix)
[...]
  -Hartree energ DENC   =    -18102.62330037
  -exchange      EXHF   =         0.00000000
  -V(xc)+E(xc)   XCENC  =       234.11016489
  PAW double counting   =      8996.13889376    -9339.81272796
  entropy T*S    EENTRO =         0.01159598
  eigenvalues    EBANDS =      -604.55979139
  atomic energy  EATOM  =      9268.15263587
  Solvation  Ediel_sol  =         0.00000000
  ---------------------------------------------------
  free energy    TOTEN  =       -18.61417774 eV

  energy without entropy =      -18.62577372  energy(sigma->0) =      -18.61804307


--------------------------------------------------------------------------------------------------------




--------------------------------------- Iteration     24(   2)  ---------------------------------------


    POTLOK:  cpu time    3.1958: real time    3.2040
    SETDIJ:  cpu time    0.0284: real time    0.0284
     EDDAV:  cpu time    4.9109: real time    4.9410
       DOS:  cpu time    0.0006: real time    0.0006
    --------------------------------------------
      LOOP:  cpu time    8.1357: real time    8.1740

 eigenvalue-minimisations  :   192
 total energy-change (2. order) :-0.3234447E-05  (-0.2217328E-04)
 number of electron      88.0000110 magnetization       0.0000000
 augmentation part       44.4432191 magnetization      -0.0000000

 Free energy of the ion-electron system (eV)
  ---------------------------------------------------
  alpha Z        PSCENC =         5.09792471
  Ewald energy   TEWEN  =      9524.87042678
  -Hartree energ DENC   =    -18102.65161819
  -exchange      EXHF   =         0.00000000
  -V(xc)+E(xc)   XCENC  =       234.11170472
  PAW double counting   =      8996.16118592    -9339.85296148
  entropy T*S    EENTRO =         0.01159598
  eigenvalues    EBANDS =      -604.51507529
  atomic energy  EATOM  =      9268.15263587
  Solvation  Ediel_sol  =         0.00000000
  ---------------------------------------------------
  free energy    TOTEN  =       -18.61418098 eV

  energy without entropy =      -18.62577696  energy(sigma->0) =      -18.61804630


--------------------------------------------------------------------------------------------------------




 average (electrostatic) potential at core
  the test charge radii are     1.2098  0.9430
  (the norm of the test charge is              1.0000)
       1 -76.8940       2 -76.8917       3 -76.7683       4 -77.1559       5 -74.7645
       6 -74.6712       7 -74.5790       8 -74.7490
 
 
 
 E-fermi :  -4.5466     XC(G=0):  -0.3115     alpha+bet : -0.1331


 spin component 1

 k-point     1 :       0.0000    0.0000    0.0000
  band No.  band energies     occupation 
      1     -10.5627      1.00000
      2      -9.1477      1.00000
      3      -8.9737      1.00000
      4      -8.8256      1.00000
      5      -8.5620      1.00000
      6      -8.5100      1.00000
      7      -8.3454      1.00000
      8      -8.2326      1.00000
      9      -8.0525      1.00000
     10      -7.9229      1.00000
     11      -7.8966      1.00000
     12      -7.7823      1.00000
     13      -7.7525      1.00000
     14      -7.6876      1.00000
     15      -7.4472      1.00000
     16      -7.2657      1.00000
     17      -7.1706      1.00000
     18      -7.1065      1.00000
     19      -7.0319      1.00000
     20      -6.8986      1.00000
     21      -6.7149      1.00000
     22      -6.6705      1.00000
     23      -6.5397      1.00000
     24      -6.4527      1.00000
     25      -6.4278      1.00000
     26      -6.3019      1.00000
     27      -6.1326      1.00000
     28      -6.1231      1.00000
     29      -6.0277      1.00000
     30      -5.9532      1.00000
     31      -5.9032      1.00000
     32      -5.8417      1.00000
     33      -5.7637      1.00000
     34      -5.7541      1.00000
     35      -5.6348      1.00000
     36      -5.6303      1.00000
     37      -5.6222      1.00000
     38      -5.5772      1.00000
     39      -5.5456      1.00000
     40      -5.4968      1.00000
     41      -5.4860      1.00000
     42      -5.4204      1.00000
     43      -5.3477      1.00000
     44      -4.7150      1.00000
     45      -3.6643     -0.00000
     46      -3.3299     -0.00000
     47      -3.1372     -0.00000
     48      -2.7678     -0.00000
     49      -1.7919     -0.00000
     50      -1.5857     -0.00000
     51      -1.1567     -0.00000
     52      -0.8110     -0.00000
     53      -0.6023     -0.00000
     54      -0.4921     -0.00000
     55      -0.3291     -0.00000
     56       0.0709     -0.00000

 spin component 2

 k-point     1 :       0.0000    0.0000    0.0000
  band No.  band energies     occupation 
      1     -10.5627      1.00000
      2      -9.1477      1.00000
      3      -8.9737      1.00000
      4      -8.8256      1.00000
      5      -8.5620      1.00000
      6      -8.5100      1.00000
      7      -8.3454      1.00000
      8      -8.2326      1.00000
      9      -8.0525      1.00000
     10      -7.9229      1.00000
     11      -7.8966      1.00000
     12      -7.7823      1.00000
     13      -7.7525      1.00000
     14      -7.6876      1.00000
     15      -7.4472      1.00000
     16      -7.2657      1.00000
     17      -7.1706      1.00000
     18      -7.1065      1.00000
     19      -7.0319      1.00000
     20      -6.8986      1.00000
     21      -6.7149      1.00000
     22      -6.6705      1.00000
     23      -6.5397      1.00000
     24      -6.4527      1.00000
     25      -6.4278      1.00000
     26      -6.3019      1.00000
     27      -6.1326      1.00000
     28      -6.1231      1.00000
     29      -6.0277      1.00000
     30      -5.9532      1.00000
     31      -5.9032      1.00000
     32      -5.8417      1.00000
     33      -5.7637      1.00000
     34      -5.7541      1.00000
     35      -5.6348      1.00000
     36      -5.6303      1.00000
     37      -5.6222      1.00000
     38      -5.5772      1.00000
     39      -5.5456      1.00000
     40      -5.4968      1.00000
     41      -5.4860      1.00000
     42      -5.4204      1.00000
     43      -5.3477      1.00000
     44      -4.7150      1.00000
     45      -3.6643     -0.00000
     46      -3.3299     -0.00000
     47      -3.1372     -0.00000
     48      -2.7678     -0.00000
     49      -1.7919     -0.00000
     50      -1.5857     -0.00000
     51      -1.1567     -0.00000
     52      -0.8110     -0.00000
     53      -0.6023     -0.00000
     54      -0.4921     -0.00000
     55      -0.3291     -0.00000
     56       0.0709     -0.00000


--------------------------------------------------------------------------------------------------------


 soft charge-density along one line, spin component            1
         0         1         2         3         4         5         6         7         8         9
 total charge-density along one line
 
 soft charge-density along one line, spin component            2
         0         1         2         3         4         5         6         7         8         9
 total charge-density along one line
 
 pseudopotential strength for first ion, spin component:            1
 -9.252  -0.015  -0.012  -0.001  -0.000  -9.373  -0.015  -0.012
 -0.015  -9.288  -0.009   0.019   0.009  -0.015  -9.408  -0.009
 -0.012  -0.009  -9.306  -0.005   0.010  -0.012  -0.009  -9.426
 -0.001   0.019  -0.005  -9.306  -0.011  -0.001   0.018  -0.005
 -0.000   0.009   0.010  -0.011  -9.248  -0.000   0.009   0.009
 -9.373  -0.015  -0.012  -0.001  -0.000  -9.478  -0.015  -0.012
 -0.015  -9.408  -0.009   0.018   0.009  -0.015  -9.512  -0.008
 -0.012  -0.009  -9.426  -0.005   0.009  -0.012  -0.008  -9.530
 -0.001   0.018  -0.005  -9.426  -0.011  -0.001   0.018  -0.005
 -0.000   0.009   0.009  -0.011  -9.369  -0.000   0.008   0.009
 -0.006   0.002   0.016   0.006   0.007  -0.006   0.002   0.016
 -0.009   0.003   0.022   0.009   0.011  -0.009   0.003   0.023
 -0.012  -0.025  -0.001  -0.000  -0.002  -0.012  -0.025  -0.001
 -0.000   0.002  -0.028  -0.011   0.001  -0.000   0.002  -0.027
  0.001  -0.000   0.007  -0.024  -0.011   0.001  -0.000   0.007
 -0.014  -0.029  -0.001  -0.000  -0.002  -0.013  -0.028  -0.001
 -0.000   0.003  -0.031  -0.012   0.001   0.000   0.003  -0.031
  0.002  -0.000   0.008  -0.027  -0.012   0.002   0.000   0.008
 pseudopotential strength for first ion, spin component:            2
 -9.252  -0.015  -0.012  -0.001  -0.000  -9.373  -0.015  -0.012
 -0.015  -9.288  -0.009   0.019   0.009  -0.015  -9.408  -0.009
 -0.012  -0.009  -9.306  -0.005   0.010  -0.012  -0.009  -9.426
 -0.001   0.019  -0.005  -9.306  -0.011  -0.001   0.018  -0.005
 -0.000   0.009   0.010  -0.011  -9.248  -0.000   0.009   0.009
 -9.373  -0.015  -0.012  -0.001  -0.000  -9.478  -0.015  -0.012
 -0.015  -9.408  -0.009   0.018   0.009  -0.015  -9.512  -0.008
 -0.012  -0.009  -9.426  -0.005   0.009  -0.012  -0.008  -9.530
 -0.001   0.018  -0.005  -9.426  -0.011  -0.001   0.018  -0.005
 -0.000   0.009   0.009  -0.011  -9.369  -0.000   0.008   0.009
 -0.006   0.002   0.016   0.006   0.007  -0.006   0.002   0.016
 -0.009   0.003   0.022   0.009   0.011  -0.009   0.003   0.023
 -0.012  -0.025  -0.001  -0.000  -0.002  -0.012  -0.025  -0.001
 -0.000   0.002  -0.028  -0.011   0.001  -0.000   0.002  -0.027
  0.001  -0.000   0.007  -0.024  -0.011   0.001  -0.000   0.007
 -0.014  -0.029  -0.001  -0.000  -0.002  -0.013  -0.028  -0.001
 -0.000   0.003  -0.031  -0.012   0.001   0.000   0.003  -0.031
  0.002  -0.000   0.008  -0.027  -0.012   0.002   0.000   0.008
 total augmentation occupancy for first ion, spin component:            1
  2.785   0.129  -0.180   0.070   0.085  -0.740  -0.205   0.184  -0.013  -0.085   0.115   0.049  -0.089   0.023  -0.064  -0.009
  0.129   2.706  -0.031   0.192  -0.015  -0.205  -0.783  -0.055  -0.067   0.069  -0.109   0.078  -0.086  -0.038  -0.019  -0.024
 -0.180  -0.031   3.370   0.332  -0.385   0.184  -0.055  -1.424  -0.305   0.399  -0.605   0.051   0.034  -0.205   0.120  -0.000
  0.070   0.192   0.332   2.918   0.160  -0.013  -0.067  -0.305  -1.061  -0.162  -0.386   0.137   0.004  -0.144  -0.064  -0.002
  0.085  -0.015  -0.385   0.160   3.106  -0.085   0.070   0.400  -0.163  -0.993  -0.458   0.142   0.004   0.031  -0.189  -0.003
 -0.740  -0.205   0.184  -0.013  -0.085   0.659   0.270  -0.187  -0.037   0.083  -0.097  -0.055   0.113  -0.037   0.052  -0.003
 -0.205  -0.783  -0.055  -0.067   0.070   0.270   0.805   0.125  -0.043  -0.112   0.102  -0.067   0.141   0.045  -0.008  -0.004
  0.184  -0.055  -1.424  -0.305   0.400  -0.187   0.125   1.435   0.283  -0.410   0.544  -0.052  -0.020   0.264  -0.122  -0.001
 -0.013  -0.067  -0.305  -1.061  -0.163  -0.037  -0.043   0.283   1.142   0.172   0.366  -0.129  -0.023   0.158   0.118   0.002
 -0.085   0.069   0.399  -0.162  -0.993   0.083  -0.112  -0.410   0.172   0.858   0.415  -0.144  -0.006  -0.027   0.199   0.001
  0.115  -0.109  -0.605  -0.386  -0.458  -0.097   0.102   0.544   0.366   0.415   2.058  -0.287   0.020   0.231   0.160  -0.001
  0.049   0.078   0.051   0.137   0.142  -0.055  -0.067  -0.052  -0.129  -0.144  -0.287   0.081  -0.019  -0.039  -0.056   0.000
 -0.089  -0.086   0.034   0.004   0.004   0.113   0.141  -0.020  -0.023  -0.006   0.020  -0.019   0.040  -0.000   0.007  -0.002
  0.023  -0.038  -0.205  -0.144   0.031  -0.037   0.045   0.264   0.158  -0.027   0.231  -0.039  -0.000   0.074  -0.002  -0.000
 -0.064  -0.019   0.120  -0.064  -0.189   0.052  -0.008  -0.122   0.118   0.199   0.160  -0.056   0.007  -0.002   0.072   0.000
 -0.009  -0.024  -0.000  -0.002  -0.003  -0.003  -0.004  -0.001   0.002   0.001  -0.001   0.000  -0.002  -0.000   0.000   0.000
 -0.001   0.004  -0.022  -0.004   0.003   0.002  -0.002  -0.008  -0.006  -0.001  -0.014   0.002  -0.000  -0.004  -0.001  -0.000
  0.002  -0.001   0.005  -0.020  -0.005  -0.001   0.002   0.002  -0.005  -0.006  -0.010   0.002   0.000  -0.001  -0.003   0.000
 total augmentation occupancy for first ion, spin component:            2
  0.000   0.000   0.000   0.000  -0.000  -0.000  -0.000  -0.000  -0.000   0.000  -0.000   0.000  -0.000  -0.000   0.000  -0.000
  0.000  -0.000  -0.000   0.000   0.000  -0.000   0.000   0.000  -0.000  -0.000  -0.000   0.000  -0.000   0.000  -0.000   0.000
  0.000  -0.000   0.000   0.000   0.000  -0.000   0.000  -0.000  -0.000  -0.000   0.000  -0.000   0.000   0.000   0.000  -0.000
  0.000   0.000   0.000  -0.000   0.000  -0.000  -0.000  -0.000   0.000  -0.000   0.000  -0.000   0.000  -0.000  -0.000  -0.000
 -0.000   0.000   0.000   0.000  -0.000  -0.000  -0.000  -0.000  -0.000   0.000  -0.000  -0.000   0.000  -0.000  -0.000  -0.000
 -0.000  -0.000  -0.000  -0.000  -0.000   0.000   0.000   0.000   0.000  -0.000   0.000  -0.000   0.000   0.000  -0.000   0.000
 -0.000   0.000   0.000  -0.000  -0.000   0.000  -0.000  -0.000   0.000   0.000   0.000  -0.000   0.000  -0.000   0.000  -0.000
 -0.000   0.000  -0.000  -0.000  -0.000   0.000  -0.000  -0.000   0.000   0.000  -0.000   0.000  -0.000  -0.000   0.000   0.000
 -0.000  -0.000  -0.000   0.000  -0.000   0.000   0.000   0.000   0.000   0.000   0.000  -0.000  -0.000   0.000   0.000   0.000
  0.000  -0.000  -0.000  -0.000   0.000  -0.000   0.000   0.000   0.000  -0.000   0.000   0.000  -0.000   0.000   0.000   0.000
 -0.000  -0.000   0.000   0.000  -0.000   0.000   0.000  -0.000   0.000   0.000  -0.000   0.000  -0.000  -0.000   0.000   0.000
  0.000   0.000  -0.000  -0.000  -0.000  -0.000  -0.000   0.000  -0.000   0.000   0.000  -0.000  -0.000  -0.000   0.000  -0.000
 -0.000  -0.000   0.000   0.000   0.000   0.000   0.000  -0.000  -0.000  -0.000  -0.000  -0.000   0.000   0.000  -0.000  -0.000
 -0.000   0.000   0.000  -0.000  -0.000   0.000  -0.000  -0.000   0.000   0.000  -0.000  -0.000   0.000   0.000   0.000  -0.000
  0.000  -0.000   0.000  -0.000  -0.000  -0.000   0.000   0.000   0.000   0.000   0.000   0.000  -0.000   0.000  -0.000   0.000
 -0.000   0.000  -0.000  -0.000  -0.000   0.000  -0.000   0.000   0.000   0.000   0.000  -0.000  -0.000  -0.000   0.000   0.000
  0.000  -0.000  -0.000   0.000   0.000  -0.000   0.000   0.000  -0.000  -0.000  -0.000   0.000  -0.000  -0.000  -0.000   0.000
 -0.000  -0.000  -0.000   0.000   0.000   0.000   0.000  -0.000  -0.000  -0.000  -0.000  -0.000   0.000  -0.000   0.000   0.000


------------------------ aborting loop because EDIFF is reached ----------------------------------------


    CHARGE:  cpu time    0.6453: real time    0.6584
    FORLOC:  cpu time    0.0513: real time    0.0513
    FORNL :  cpu time    1.1923: real time    1.2098
    FORCOR:  cpu time    2.3599: real time    2.3892
    FORHAR:  cpu time    0.3169: real time    0.3214
    MIXING:  cpu time    0.0513: real time    0.0553
    OFIELD:  cpu time    0.0000: real time    0.0000

 VOLUME and BASIS-vectors are now :
 -----------------------------------------------------------------------------
  energy-cutoff  :      400.00
  volume of cell :    11902.09
      direct lattice vectors                 reciprocal lattice vectors
    23.080699743  0.000000000  0.000000000     0.043326243  0.000000000  0.000000000
     0.000000000 22.597295967  0.000000000     0.000000000  0.044253082  0.000000000
     0.000000000  0.000000000 22.820117217     0.000000000  0.000000000  0.043820984

  length of vectors
    23.080699743 22.597295967 22.820117217     0.043326243  0.044253082  0.043820984


 FORCES acting on ions
    electron-ion (+dipol)            ewald-force                    non-local-force                 convergence-correction
 -----------------------------------------------------------------------------------------------
   0.616E+03 0.213E+03 0.725E+03   -.614E+03 -.213E+03 -.719E+03   -.201E+01 0.407E+00 -.595E+01   -.230E-01 0.145E-01 -.161E-01
   -.933E+03 0.201E+03 -.150E+03   0.928E+03 -.201E+03 0.149E+03   0.505E+01 0.204E+00 0.562E+00   0.213E-01 0.312E-01 0.107E-01
   -.441E+03 -.569E+01 0.832E+03   0.439E+03 0.724E+01 -.828E+03   0.122E+01 -.157E+01 -.442E+01   0.916E-02 0.277E-01 -.491E-02
   -.207E+03 0.174E+03 -.964E+03   0.205E+03 -.174E+03 0.960E+03   0.119E+01 0.165E+00 0.422E+01   -.333E-02 0.341E-01 0.174E-01
   -.257E+03 -.740E+03 0.305E+03   0.256E+03 0.740E+03 -.304E+03   0.137E+01 -.870E-01 -.871E+00   0.133E-01 0.547E-01 0.297E-01
   0.107E+02 0.972E+03 -.118E+02   -.122E+02 -.968E+03 0.132E+02   0.149E+01 -.479E+01 -.137E+01   -.182E-01 0.257E-01 0.288E-01
   0.235E+03 -.858E+03 -.491E+03   -.233E+03 0.849E+03 0.485E+03   -.154E+01 0.922E+01 0.609E+01   -.178E-01 0.392E-01 -.204E-02
   0.976E+03 0.405E+02 -.246E+03   -.968E+03 -.397E+02 0.244E+03   -.701E+01 -.848E+00 0.274E+01   0.103E-01 0.352E-01 0.243E-02
 -----------------------------------------------------------------------------------------------
   0.261E+00 -.296E+01 -.106E+01   -.114E-12 0.284E-13 0.284E-13   -.247E+00 0.270E+01 0.998E+00   -.833E-02 0.262E+00 0.660E-01
 
 
 POSITION                                       TOTAL-FORCE (eV/Angst)
 -----------------------------------------------------------------------------------
      9.95075     10.20139      9.53938         0.021864      0.002732     -0.011671
     13.81588     10.24325     11.58848        -0.015583     -0.011177     -0.014530
     12.74604     10.73374      9.09405        -0.024506      0.004434      0.014359
     11.80205     10.71541     13.40016         0.005405      0.018161      0.014109
     11.77789     11.91669     11.03530         0.014351     -0.018359     -0.010932
     11.50221      9.33060     11.25310        -0.003184     -0.012842     -0.005039
     10.68504     12.99401     12.84568        -0.008076      0.020960      0.003104
      9.71940     10.99927     11.89810         0.009730     -0.003908      0.010600
 -----------------------------------------------------------------------------------
    total drift:                                0.005418      0.006391      0.002278


--------------------------------------------------------------------------------------------------------



  FREE ENERGIE OF THE ION-ELECTRON SYSTEM (eV)
  ---------------------------------------------------
  free  energy   TOTEN  =       -18.61418098 eV

  energy  without entropy=      -18.62577696  energy(sigma->0) =      -18.61804630
 
 d Force = 0.1519557E-05[ 0.251E-05, 0.526E-06]  d Energy = 0.2812353E-04-0.266E-04
 d Force =-0.4655763E-01[-0.465E-01,-0.466E-01]  d Ewald  =-0.4655763E-01 0.281E-09


--------------------------------------------------------------------------------------------------------


    POTLOK:  cpu time    2.5131: real time    2.5375


--------------------------------------------------------------------------------------------------------




--------------------------------------------------------------------------------------------------------


  
 reached required accuracy - stopping structural energy minimisation
     LOOP+:  cpu time   26.2096: real time   26.4278
    4ORBIT:  cpu time    0.0000: real time    0.0000

 total amount of memory used by VASP MPI-rank0   153068. kBytes
=======================================================================

   base      :      30000. kBytes
   nonl-proj :       5625. kBytes
   fftplans  :      29556. kBytes
   grid      :      75747. kBytes
   one-center:         15. kBytes
   wavefun   :      12125. kBytes
 
  
  
 General timing and accounting informations for this job:
 ========================================================
  
                  Total CPU time used (sec):     1817.155
                            User time (sec):     1792.357
                          System time (sec):       24.798
                         Elapsed time (sec):     1828.728
  
                   Maximum memory used (kb):      294396.
                   Average memory used (kb):           0.
  
                          Minor page faults:      4436067
                          Major page faults:        81564
                 Voluntary context switches:         8359
