unknown system                          
            1
    23.080700    0.000000    0.000000
     0.000000   22.597296    0.000000
     0.000000    0.000000   22.820117
   Au   Cu
     4     4
Direct configuration=     1
   0.44086264  0.46803013  0.41606490
   0.59590934  0.46448841  0.50543982
   0.54954142  0.45617716  0.40336534
   0.51491304  0.47717284  0.58173416
   0.50780796  0.52846582  0.48044812
   0.49805593  0.41090801  0.49241129
   0.46025096  0.56993994  0.56910159
   0.41864147  0.48078168  0.52399356
Direct configuration=     2
   0.43685359  0.46781237  0.41567677
   0.59930547  0.46390530  0.50612897
   0.55231291  0.45644752  0.40014531
   0.51373700  0.47629830  0.58406063
   0.50732951  0.52954873  0.48098521
   0.49733660  0.41035549  0.49326844
   0.45997003  0.57079265  0.56830972
   0.41913763  0.48080362  0.52398374
Direct configuration=     3
   0.43567780  0.46774851  0.41556294
   0.60030151  0.46373428  0.50633108
   0.55312576  0.45652682  0.39920092
   0.51339209  0.47604182  0.58474295
   0.50718918  0.52986633  0.48114273
   0.49712563  0.41019345  0.49351983
   0.45988764  0.57104274  0.56807748
   0.41928315  0.48081005  0.52398085
Direct configuration=     4
   0.43524090  0.46717014  0.41591332
   0.60026971  0.46328135  0.50634193
   0.55319054  0.45742688  0.39923839
   0.51320904  0.47523924  0.58515665
   0.50719973  0.52925860  0.48122549
   0.49722185  0.41104836  0.49345865
   0.45976912  0.57157182  0.56729376
   0.41988186  0.48096760  0.52393060
Direct configuration=     5
   0.43393020  0.46543503  0.41696445
   0.60017434  0.46192257  0.50637446
   0.55338491  0.46012707  0.39935081
   0.51265989  0.47283150  0.58639773
   0.50723136  0.52743541  0.48147379
   0.49751050  0.41361308  0.49327510
   0.45941355  0.57315908  0.56494260
   0.42167799  0.48144024  0.52377985
Direct configuration=     6
   0.43339586  0.46472767  0.41739298
   0.60013546  0.46136862  0.50638772
   0.55346415  0.46122787  0.39939664
   0.51243602  0.47184992  0.58690369
   0.50724426  0.52669214  0.48157501
   0.49762818  0.41465866  0.49320028
   0.45926860  0.57380617  0.56398408
   0.42241023  0.48163293  0.52371839
Direct configuration=     7
   0.43280698  0.46372380  0.41719240
   0.60002377  0.46076466  0.50668989
   0.55332745  0.46259314  0.39935595
   0.51232376  0.47137601  0.58771285
   0.50758607  0.52636222  0.48168506
   0.49810313  0.41491528  0.49274702
   0.45946698  0.57400568  0.56294563
   0.42234460  0.48222320  0.52423000
Direct configuration=     8
   0.43130492  0.46116323  0.41668078
   0.59973891  0.45922415  0.50746062
   0.55297878  0.46607551  0.39925217
   0.51203743  0.47016721  0.58977676
   0.50845795  0.52552071  0.48196576
   0.49931457  0.41556983  0.49159090
   0.45997299  0.57451458  0.56029686
   0.42217720  0.48372879  0.52553495
Direct configuration=     9
   0.43118895  0.46031727  0.41713359
   0.59968500  0.45887497  0.50802032
   0.55281902  0.46705185  0.39900520
   0.51194245  0.47030355  0.58959002
   0.50865606  0.52590992  0.48215234
   0.49922052  0.41518728  0.49132270
   0.46057574  0.57458885  0.56004011
   0.42189501  0.48373029  0.52529450
Direct configuration=    10
   0.43086256  0.45793628  0.41840805
   0.59953326  0.45789220  0.50959562
   0.55236938  0.46979983  0.39831011
   0.51167511  0.47068730  0.58906443
   0.50921368  0.52700539  0.48267749
   0.49895581  0.41411058  0.49056783
   0.46227221  0.57479790  0.55931749
   0.42110075  0.48373450  0.52461777
Direct configuration=    11
   0.43068358  0.45690419  0.41869841
   0.59904866  0.45737643  0.50980175
   0.55220531  0.47104255  0.39858379
   0.51132819  0.47110996  0.58836717
   0.50962632  0.52694474  0.48253129
   0.49919527  0.41385198  0.49068511
   0.46283890  0.57489219  0.55953321
   0.42105653  0.48384195  0.52435803
Direct configuration=    12
   0.43044668  0.45553813  0.41908273
   0.59840725  0.45669376  0.51007459
   0.55198815  0.47268738  0.39894603
   0.51086901  0.47166937  0.58744430
   0.51017249  0.52686447  0.48233779
   0.49951222  0.41350970  0.49084035
   0.46358896  0.57501700  0.55981874
   0.42099799  0.48398418  0.52401426
Direct configuration=    13
   0.43026708  0.45471075  0.41890038
   0.59853382  0.45608881  0.50973778
   0.55212289  0.47334417  0.39892296
   0.51040214  0.47232041  0.58733811
   0.51001359  0.52690080  0.48252019
   0.49966823  0.41321985  0.49105902
   0.46383891  0.57497709  0.56031822
   0.42113609  0.48440212  0.52376214
Direct configuration=    14
   0.42997400  0.45336060  0.41860282
   0.59874036  0.45510165  0.50918816
   0.55234275  0.47441593  0.39888532
   0.50964030  0.47338279  0.58716482
   0.50975430  0.52696008  0.48281782
   0.49992281  0.41274686  0.49141584
   0.46424679  0.57491196  0.56113328
   0.42136144  0.48508412  0.52335072
Direct configuration=    15
   0.43016054  0.45235165  0.41863719
   0.59888927  0.45434761  0.50873332
   0.55247348  0.47494393  0.39874382
   0.50982192  0.47390316  0.58743567
   0.50954057  0.52691028  0.48292719
   0.49974697  0.41260641  0.49152320
   0.46417341  0.57529640  0.56212269
   0.42117660  0.48560454  0.52243570
Direct configuration=    16
   0.43025216  0.45185605  0.41865408
   0.59896242  0.45397723  0.50850990
   0.55253769  0.47520329  0.39867432
   0.50991113  0.47415877  0.58756872
   0.50943558  0.52688582  0.48298091
   0.49966059  0.41253742  0.49157594
   0.46413737  0.57548524  0.56260869
   0.42108581  0.48586017  0.52198623
Direct configuration=    17
   0.43054994  0.45149134  0.41845845
   0.59860853  0.45374638  0.50845428
   0.55250989  0.47522235  0.39859971
   0.51049898  0.47403740  0.58726406
   0.50947391  0.52685164  0.48317644
   0.49950835  0.41275531  0.49190015
   0.46384400  0.57556434  0.56294250
   0.42098915  0.48629523  0.52176320
Direct configuration=    18
   0.43068613  0.45132454  0.41836898
   0.59844668  0.45364080  0.50842884
   0.55249717  0.47523107  0.39856559
   0.51076783  0.47398189  0.58712473
   0.50949145  0.52683600  0.48326587
   0.49943872  0.41285497  0.49204843
   0.46370983  0.57560051  0.56309517
   0.42094494  0.48649421  0.52166120
Direct configuration=    19
   0.43092328  0.45119331  0.41822123
   0.59861173  0.45356038  0.50830440
   0.55242523  0.47517660  0.39853904
   0.51101235  0.47400297  0.58709844
   0.50965166  0.52700263  0.48337005
   0.49897036  0.41288937  0.49225478
   0.46344330  0.57533643  0.56308116
   0.42094485  0.48680231  0.52168968
Direct configuration=    20
   0.43101905  0.45114031  0.41816157
   0.59867837  0.45352791  0.50825415
   0.55239618  0.47515460  0.39852833
   0.51111109  0.47401149  0.58708782
   0.50971635  0.52706992  0.48341212
   0.49878123  0.41290326  0.49233811
   0.46333567  0.57522979  0.56307550
   0.42094482  0.48692672  0.52170118
Direct configuration=    21
   0.43104624  0.45126370  0.41808336
   0.59863859  0.45344523  0.50803828
   0.55232215  0.47511868  0.39862690
   0.51123958  0.47404624  0.58713742
   0.51004480  0.52717447  0.48337305
   0.49858912  0.41291720  0.49268294
   0.46314750  0.57510798  0.56302982
   0.42095478  0.48689048  0.52158702
Direct configuration=    22
   0.43105695  0.45131231  0.41805254
   0.59862292  0.45341267  0.50795325
   0.55229299  0.47510454  0.39866573
   0.51129019  0.47405993  0.58715695
   0.51017417  0.52721566  0.48335766
   0.49851345  0.41292270  0.49281877
   0.46307338  0.57506000  0.56301182
   0.42095870  0.48687620  0.52154205
Direct configuration=    23
   0.43112696  0.45143948  0.41802582
   0.59859092  0.45329822  0.50782207
   0.55223962  0.47500387  0.39851416
   0.51133740  0.47418676  0.58720675
   0.51028890  0.52734692  0.48357208
   0.49835168  0.41290808  0.49311450
   0.46294607  0.57502574  0.56291301
   0.42110121  0.48675492  0.52139040
Direct configuration=    24
   0.43112877  0.45144276  0.41802513
   0.59859010  0.45329526  0.50781868
   0.55223824  0.47500127  0.39851025
   0.51133861  0.47419004  0.58720804
   0.51029186  0.52735031  0.48357761
   0.49834750  0.41290770  0.49312214
   0.46294278  0.57502486  0.56291046
   0.42110489  0.48675179  0.52138648
