  10  10   0   0
  0.1190727E+04  0.2108006E-08  0.2229418E-08  0.2533663E-08  0.5000000E-15
   1.0000000000000000E-004
  CAR 
 unknown system                          
      1.88795463    -11.83568725  301     -4.08209240      1.00000000
    -11.836  0.0000E+00  0.0000E+00  0.0000E+00  0.0000E+00
    -11.790  0.0000E+00  0.0000E+00  0.0000E+00  0.0000E+00
    -11.744  0.0000E+00  0.0000E+00  0.0000E+00  0.0000E+00
    -11.698  0.0000E+00  0.0000E+00  0.0000E+00  0.0000E+00
    -11.653  0.0000E+00  0.0000E+00  0.0000E+00  0.0000E+00
    -11.607  0.0000E+00  0.0000E+00  0.0000E+00  0.0000E+00
    -11.561  0.0000E+00  0.0000E+00  0.0000E+00  0.0000E+00
    -11.515  0.0000E+00  0.0000E+00  0.0000E+00  0.0000E+00
    -11.470 -0.5156E-30  0.0000E+00 -0.2359E-31  0.0000E+00
    -11.424 -0.1946E-28  0.0000E+00 -0.9137E-30  0.0000E+00
    -11.378 -0.6763E-27 -0.4390E-29 -0.3185E-28 -0.2008E-30
    -11.332 -0.2114E-25 -0.1556E-27 -0.9991E-27 -0.7317E-29
    -11.287 -0.5946E-24 -0.5083E-26 -0.2820E-25 -0.2399E-27
    -11.241 -0.1504E-22 -0.1494E-24 -0.7162E-24 -0.7075E-26
    -11.195 -0.3421E-21 -0.3951E-23 -0.1636E-22 -0.1878E-24
    -11.150 -0.6995E-20 -0.9393E-22 -0.3364E-21 -0.4485E-23
    -11.104 -0.1286E-18 -0.2008E-20 -0.6220E-20 -0.9636E-22
    -11.058 -0.2126E-17 -0.3860E-19 -0.1035E-18 -0.1862E-20
    -11.012 -0.3036E-16 -0.6671E-18 -0.1492E-17 -0.3238E-19
    -10.967 -0.4079E-15 -0.1036E-16 -0.2015E-16 -0.5063E-18
    -10.921 -0.4880E-14 -0.1397E-15 -0.2434E-15 -0.6898E-17
    -10.875 -0.5238E-13 -0.1754E-14 -0.2639E-14 -0.8715E-16
    -10.829 -0.5044E-12 -0.1969E-13 -0.2571E-13 -0.9878E-15
    -10.784 -0.4357E-11 -0.1984E-12 -0.2250E-12 -0.1006E-13
    -10.738 -0.3373E-10 -0.1793E-11 -0.1768E-11 -0.9211E-13
    -10.692 -0.2340E-09 -0.1454E-10 -0.1247E-10 -0.7571E-12
    -10.646 -0.1453E-08 -0.1056E-09 -0.7894E-10 -0.5587E-11
    -10.601 -0.8068E-08 -0.6868E-09 -0.4480E-09 -0.3701E-10
    -10.555 -0.4002E-07 -0.3996E-08 -0.2279E-08 -0.2198E-09
    -10.509 -0.1770E-06 -0.2078E-07 -0.1037E-07 -0.1171E-08
    -10.463 -0.6966E-06 -0.9644E-07 -0.4224E-07 -0.5582E-08
    -10.418 -0.2434E-05 -0.3987E-06 -0.1536E-06 -0.2382E-07
    -10.372 -0.7516E-05 -0.1464E-05 -0.4974E-06 -0.9081E-07
    -10.326 -0.2041E-04 -0.4765E-05 -0.1431E-05 -0.3088E-06
    -10.280 -0.4832E-04 -0.1366E-04 -0.3641E-05 -0.9339E-06
    -10.235 -0.9827E-04 -0.3430E-04 -0.8137E-05 -0.2503E-05
    -10.189 -0.1671E-03 -0.7450E-04 -0.1578E-04 -0.5911E-05
    -10.143 -0.2228E-03 -0.1372E-03 -0.2597E-04 -0.1219E-04
    -10.097 -0.1864E-03 -0.2050E-03 -0.3450E-04 -0.2156E-04
    -10.052  0.6468E-04 -0.2200E-03 -0.3154E-04 -0.3163E-04
    -10.006  0.6469E-03 -0.7488E-04 -0.1949E-05 -0.3505E-04
     -9.960  0.1579E-02  0.3587E-03  0.7028E-04 -0.1864E-04
     -9.914  0.2702E-02  0.1153E-02  0.1939E-03  0.3409E-04
     -9.869  0.3690E-02  0.2228E-02  0.3627E-03  0.1360E-03
     -9.823  0.4183E-02  0.3318E-02  0.5540E-03  0.2878E-03
     -9.777  0.3985E-02  0.4056E-02  0.7364E-03  0.4733E-03
     -9.731  0.3176E-02  0.4154E-02  0.8817E-03  0.6633E-03
     -9.686  0.2066E-02  0.3572E-02  0.9762E-03  0.8267E-03
     -9.640  0.1019E-02  0.2542E-02  0.1023E-02  0.9430E-03
     -9.594  0.2757E-03  0.1429E-02  0.1035E-02  0.1008E-02
     -9.548 -0.1102E-03  0.5417E-03  0.1030E-02  0.1033E-02
     -9.503 -0.2247E-03  0.1103E-04  0.1020E-02  0.1034E-02
     -9.457 -0.1967E-03 -0.2015E-03  0.1011E-02  0.1024E-02
     -9.411 -0.1272E-03 -0.2181E-03  0.1005E-02  0.1014E-02
     -9.365 -0.6737E-04 -0.1569E-03  0.1002E-02  0.1007E-02
     -9.320 -0.3036E-04 -0.8975E-04  0.1001E-02  0.1003E-02
     -9.274 -0.1186E-04 -0.4313E-04  0.1000E-02  0.1001E-02
     -9.228 -0.4070E-05 -0.1786E-04  0.1000E-02  0.1000E-02
     -9.182 -0.1271E-05 -0.6454E-05  0.1000E-02  0.1000E-02
     -9.137 -0.5229E-06 -0.2053E-05  0.1000E-02  0.1000E-02
     -9.091 -0.8392E-06 -0.5778E-06  0.1000E-02  0.1000E-02
     -9.045 -0.2660E-05 -0.1451E-06  0.9998E-03  0.1000E-02
     -8.999 -0.8126E-05 -0.3629E-07  0.9995E-03  0.1000E-02
     -8.954 -0.2198E-04 -0.2804E-07  0.9985E-03  0.1000E-02
     -8.908 -0.5199E-04 -0.1014E-06  0.9961E-03  0.1000E-02
     -8.862 -0.1061E-03 -0.4135E-06  0.9912E-03  0.1000E-02
     -8.816 -0.1829E-03 -0.1514E-05  0.9829E-03  0.9999E-03
     -8.771 -0.2535E-03 -0.4910E-05  0.9713E-03  0.9997E-03
     -8.725 -0.2431E-03 -0.1404E-04  0.9601E-03  0.9990E-03
     -8.679 -0.3236E-04 -0.3517E-04  0.9587E-03  0.9974E-03
     -8.634  0.5037E-03 -0.7625E-04  0.9817E-03  0.9939E-03
     -8.588  0.1423E-02 -0.1404E-03  0.1047E-02  0.9875E-03
     -8.542  0.2652E-02 -0.2109E-03  0.1168E-02  0.9779E-03
     -8.496  0.3986E-02 -0.2318E-03  0.1350E-02  0.9673E-03
     -8.451  0.5157E-02 -0.1006E-03  0.1586E-02  0.9627E-03
     -8.405  0.5934E-02  0.3030E-03  0.1858E-02  0.9765E-03
     -8.359  0.6174E-02  0.1044E-02  0.2140E-02  0.1024E-02
     -8.313  0.5821E-02  0.2056E-02  0.2407E-02  0.1118E-02
     -8.268  0.4912E-02  0.3122E-02  0.2631E-02  0.1261E-02
     -8.222  0.3605E-02  0.3979E-02  0.2796E-02  0.1443E-02
     -8.176  0.2207E-02  0.4476E-02  0.2897E-02  0.1648E-02
     -8.130  0.1137E-02  0.4655E-02  0.2949E-02  0.1861E-02
     -8.085  0.8080E-03  0.4684E-02  0.2986E-02  0.2075E-02
     -8.039  0.1470E-02  0.4670E-02  0.3053E-02  0.2289E-02
     -7.993  0.3088E-02  0.4551E-02  0.3195E-02  0.2497E-02
     -7.947  0.5310E-02  0.4154E-02  0.3438E-02  0.2687E-02
     -7.902  0.7552E-02  0.3376E-02  0.3783E-02  0.2841E-02
     -7.856  0.9193E-02  0.2301E-02  0.4204E-02  0.2947E-02
     -7.810  0.9833E-02  0.1166E-02  0.4653E-02  0.3000E-02
     -7.764  0.9504E-02  0.2197E-03  0.5088E-02  0.3010E-02
     -7.719  0.8708E-02 -0.3777E-03  0.5487E-02  0.2993E-02
     -7.673  0.8214E-02 -0.5439E-03  0.5862E-02  0.2968E-02
     -7.627  0.8674E-02 -0.2101E-03  0.6259E-02  0.2958E-02
     -7.581  0.1027E-01  0.6987E-03  0.6729E-02  0.2990E-02
     -7.536  0.1258E-01  0.2184E-02  0.7304E-02  0.3090E-02
     -7.490  0.1482E-01  0.4058E-02  0.7982E-02  0.3276E-02
     -7.444  0.1616E-01  0.5904E-02  0.8721E-02  0.3546E-02
     -7.398  0.1614E-01  0.7220E-02  0.9460E-02  0.3876E-02
     -7.353  0.1479E-01  0.7664E-02  0.1014E-01  0.4227E-02
     -7.307  0.1253E-01  0.7257E-02  0.1071E-01  0.4559E-02
     -7.261  0.9994E-02  0.6373E-02  0.1117E-01  0.4850E-02
     -7.215  0.7820E-02  0.5530E-02  0.1152E-01  0.5103E-02
     -7.170  0.6467E-02  0.5132E-02  0.1182E-01  0.5338E-02
     -7.124  0.6097E-02  0.5340E-02  0.1210E-01  0.5582E-02
     -7.078  0.6514E-02  0.6090E-02  0.1240E-01  0.5861E-02
     -7.032  0.7245E-02  0.7191E-02  0.1273E-01  0.6190E-02
     -6.987  0.7779E-02  0.8406E-02  0.1308E-01  0.6574E-02
     -6.941  0.7871E-02  0.9530E-02  0.1344E-01  0.7010E-02
     -6.895  0.7676E-02  0.1045E-01  0.1380E-01  0.7488E-02
     -6.849  0.7605E-02  0.1115E-01  0.1414E-01  0.7998E-02
     -6.804  0.8007E-02  0.1165E-01  0.1451E-01  0.8531E-02
     -6.758  0.8941E-02  0.1193E-01  0.1492E-01  0.9077E-02
     -6.712  0.1020E-01  0.1197E-01  0.1539E-01  0.9624E-02
     -6.666  0.1151E-01  0.1175E-01  0.1591E-01  0.1016E-01
     -6.621  0.1274E-01  0.1138E-01  0.1649E-01  0.1068E-01
     -6.575  0.1393E-01  0.1100E-01  0.1713E-01  0.1119E-01
     -6.529  0.1517E-01  0.1062E-01  0.1783E-01  0.1167E-01
     -6.483  0.1647E-01  0.1017E-01  0.1858E-01  0.1214E-01
     -6.438  0.1765E-01  0.9569E-02  0.1939E-01  0.1257E-01
     -6.392  0.1846E-01  0.8865E-02  0.2023E-01  0.1298E-01
     -6.346  0.1865E-01  0.8269E-02  0.2108E-01  0.1336E-01
     -6.300  0.1812E-01  0.8081E-02  0.2191E-01  0.1373E-01
     -6.255  0.1692E-01  0.8544E-02  0.2269E-01  0.1412E-01
     -6.209  0.1524E-01  0.9738E-02  0.2338E-01  0.1456E-01
     -6.163  0.1336E-01  0.1155E-01  0.2400E-01  0.1509E-01
     -6.118  0.1168E-01  0.1370E-01  0.2453E-01  0.1572E-01
     -6.072  0.1058E-01  0.1583E-01  0.2501E-01  0.1644E-01
     -6.026  0.1023E-01  0.1761E-01  0.2548E-01  0.1725E-01
     -5.980  0.1046E-01  0.1875E-01  0.2596E-01  0.1811E-01
     -5.935  0.1082E-01  0.1910E-01  0.2646E-01  0.1898E-01
     -5.889  0.1087E-01  0.1865E-01  0.2695E-01  0.1983E-01
     -5.843  0.1052E-01  0.1748E-01  0.2743E-01  0.2063E-01
     -5.797  0.1003E-01  0.1579E-01  0.2789E-01  0.2135E-01
     -5.752  0.9826E-02  0.1384E-01  0.2834E-01  0.2199E-01
     -5.706  0.1017E-01  0.1197E-01  0.2881E-01  0.2254E-01
     -5.660  0.1106E-01  0.1051E-01  0.2931E-01  0.2302E-01
     -5.614  0.1233E-01  0.9678E-02  0.2988E-01  0.2346E-01
     -5.569  0.1391E-01  0.9589E-02  0.3051E-01  0.2390E-01
     -5.523  0.1585E-01  0.1017E-01  0.3124E-01  0.2436E-01
     -5.477  0.1818E-01  0.1122E-01  0.3207E-01  0.2488E-01
     -5.431  0.2073E-01  0.1239E-01  0.3302E-01  0.2544E-01
     -5.386  0.2307E-01  0.1331E-01  0.3407E-01  0.2605E-01
     -5.340  0.2478E-01  0.1360E-01  0.3521E-01  0.2667E-01
     -5.294  0.2574E-01  0.1307E-01  0.3639E-01  0.2727E-01
     -5.248  0.2625E-01  0.1180E-01  0.3759E-01  0.2781E-01
     -5.203  0.2680E-01  0.1017E-01  0.3881E-01  0.2828E-01
     -5.157  0.2763E-01  0.8785E-02  0.4008E-01  0.2868E-01
     -5.111  0.2863E-01  0.8245E-02  0.4139E-01  0.2906E-01
     -5.065  0.2945E-01  0.8858E-02  0.4273E-01  0.2946E-01
     -5.020  0.2978E-01  0.1051E-01  0.4410E-01  0.2994E-01
     -4.974  0.2954E-01  0.1277E-01  0.4545E-01  0.3053E-01
     -4.928  0.2861E-01  0.1503E-01  0.4676E-01  0.3121E-01
     -4.882  0.2683E-01  0.1681E-01  0.4798E-01  0.3198E-01
     -4.837  0.2402E-01  0.1779E-01  0.4908E-01  0.3280E-01
     -4.791  0.2039E-01  0.1791E-01  0.5002E-01  0.3362E-01
     -4.745  0.1654E-01  0.1740E-01  0.5077E-01  0.3441E-01
     -4.699  0.1318E-01  0.1673E-01  0.5138E-01  0.3518E-01
     -4.654  0.1067E-01  0.1640E-01  0.5186E-01  0.3593E-01
     -4.608  0.8775E-02  0.1677E-01  0.5226E-01  0.3669E-01
     -4.562  0.7020E-02  0.1778E-01  0.5259E-01  0.3751E-01
     -4.516  0.5092E-02  0.1904E-01  0.5282E-01  0.3838E-01
     -4.471  0.3112E-02  0.1999E-01  0.5296E-01  0.3929E-01
     -4.425  0.1521E-02  0.2016E-01  0.5303E-01  0.4022E-01
     -4.379  0.7480E-03  0.1937E-01  0.5306E-01  0.4110E-01
     -4.333  0.9362E-03  0.1791E-01  0.5311E-01  0.4192E-01
     -4.288  0.1854E-02  0.1636E-01  0.5319E-01  0.4267E-01
     -4.242  0.3001E-02  0.1538E-01  0.5333E-01  0.4337E-01
     -4.196  0.3829E-02  0.1542E-01  0.5350E-01  0.4408E-01
     -4.150  0.3979E-02  0.1647E-01  0.5369E-01  0.4483E-01
     -4.105  0.3415E-02  0.1809E-01  0.5384E-01  0.4566E-01
     -4.059  0.2398E-02  0.1964E-01  0.5395E-01  0.4656E-01
     -4.013  0.1314E-02  0.2054E-01  0.5401E-01  0.4750E-01
     -3.967  0.4669E-03  0.2057E-01  0.5403E-01  0.4844E-01
     -3.922 -0.2476E-04  0.1986E-01  0.5403E-01  0.4935E-01
     -3.876 -0.2102E-03  0.1877E-01  0.5402E-01  0.5021E-01
     -3.830 -0.2138E-03  0.1759E-01  0.5401E-01  0.5101E-01
     -3.784 -0.1495E-03  0.1638E-01  0.5401E-01  0.5176E-01
     -3.739 -0.8385E-04  0.1492E-01  0.5400E-01  0.5244E-01
     -3.693 -0.3977E-04  0.1289E-01  0.5400E-01  0.5303E-01
     -3.647 -0.1675E-04  0.1021E-01  0.5400E-01  0.5350E-01
     -3.602 -0.7862E-05  0.7108E-02  0.5400E-01  0.5382E-01
     -3.556 -0.8509E-05  0.4114E-02  0.5400E-01  0.5401E-01
     -3.510 -0.1944E-04  0.1730E-02  0.5400E-01  0.5409E-01
     -3.464 -0.4718E-04  0.2138E-03  0.5400E-01  0.5410E-01
     -3.419 -0.1019E-03 -0.4878E-03  0.5399E-01  0.5408E-01
     -3.373 -0.1892E-03 -0.6321E-03  0.5398E-01  0.5405E-01
     -3.327 -0.2912E-03 -0.5103E-03  0.5397E-01  0.5403E-01
     -3.281 -0.3415E-03 -0.3340E-03  0.5395E-01  0.5401E-01
     -3.236 -0.2089E-03 -0.2099E-03  0.5394E-01  0.5400E-01
     -3.190  0.2799E-03 -0.1704E-03  0.5396E-01  0.5399E-01
     -3.144  0.1262E-02 -0.2098E-03  0.5402E-01  0.5399E-01
     -3.098  0.2724E-02 -0.2960E-03  0.5414E-01  0.5397E-01
     -3.053  0.4433E-02 -0.3544E-03  0.5434E-01  0.5396E-01
     -3.007  0.5979E-02 -0.2490E-03  0.5462E-01  0.5394E-01
     -2.961  0.6967E-02  0.2060E-03  0.5493E-01  0.5395E-01
     -2.915  0.7247E-02  0.1173E-02  0.5527E-01  0.5401E-01
     -2.870  0.7034E-02  0.2673E-02  0.5559E-01  0.5413E-01
     -2.824  0.6789E-02  0.4480E-02  0.5590E-01  0.5433E-01
     -2.778  0.6903E-02  0.6138E-02  0.5621E-01  0.5462E-01
     -2.732  0.7402E-02  0.7131E-02  0.5655E-01  0.5494E-01
     -2.687  0.7901E-02  0.7144E-02  0.5691E-01  0.5527E-01
     -2.641  0.7851E-02  0.6285E-02  0.5727E-01  0.5556E-01
     -2.595  0.6928E-02  0.5083E-02  0.5759E-01  0.5579E-01
     -2.549  0.5240E-02  0.4245E-02  0.5783E-01  0.5598E-01
     -2.504  0.3251E-02  0.4276E-02  0.5798E-01  0.5618E-01
     -2.458  0.1484E-02  0.5190E-02  0.5805E-01  0.5642E-01
     -2.412  0.2570E-03  0.6481E-02  0.5806E-01  0.5671E-01
     -2.366 -0.3952E-03  0.7406E-02  0.5804E-01  0.5705E-01
     -2.321 -0.6163E-03  0.7386E-02  0.5801E-01  0.5739E-01
     -2.275 -0.5585E-03  0.6302E-02  0.5799E-01  0.5768E-01
     -2.229 -0.2722E-03  0.4498E-02  0.5797E-01  0.5788E-01
     -2.183  0.2891E-03  0.2546E-02  0.5799E-01  0.5800E-01
     -2.138  0.1165E-02  0.9351E-03  0.5804E-01  0.5804E-01
     -2.092  0.2264E-02 -0.9314E-04  0.5814E-01  0.5804E-01
     -2.046  0.3310E-02 -0.5260E-03  0.5830E-01  0.5801E-01
     -2.000  0.3943E-02 -0.4439E-03  0.5848E-01  0.5799E-01
     -1.955  0.3919E-02  0.8499E-04  0.5866E-01  0.5800E-01
     -1.909  0.3285E-02  0.9999E-03  0.5881E-01  0.5804E-01
     -1.863  0.2403E-02  0.2160E-02  0.5892E-01  0.5814E-01
     -1.817  0.1770E-02  0.3281E-02  0.5900E-01  0.5829E-01
     -1.772  0.1740E-02  0.3998E-02  0.5908E-01  0.5847E-01
     -1.726  0.2331E-02  0.4035E-02  0.5918E-01  0.5866E-01
     -1.680  0.3210E-02  0.3371E-02  0.5933E-01  0.5881E-01
     -1.634  0.3883E-02  0.2287E-02  0.5951E-01  0.5892E-01
     -1.589  0.3966E-02  0.1235E-02  0.5969E-01  0.5897E-01
     -1.543  0.3380E-02  0.6472E-03  0.5984E-01  0.5900E-01
     -1.497  0.2346E-02  0.7571E-03  0.5995E-01  0.5904E-01
     -1.451  0.1224E-02  0.1518E-02  0.6001E-01  0.5911E-01
     -1.406  0.3089E-03  0.2614E-02  0.6002E-01  0.5923E-01
     -1.360 -0.2705E-03  0.3580E-02  0.6001E-01  0.5939E-01
     -1.314 -0.5118E-03  0.3989E-02  0.5999E-01  0.5957E-01
     -1.268 -0.4325E-03  0.3660E-02  0.5997E-01  0.5974E-01
     -1.223  0.1198E-05  0.2749E-02  0.5997E-01  0.5987E-01
     -1.177  0.8535E-03  0.1677E-02  0.6000E-01  0.5994E-01
     -1.131  0.2124E-02  0.9335E-03  0.6010E-01  0.5999E-01
     -1.086  0.3662E-02  0.8542E-03  0.6027E-01  0.6003E-01
     -1.040  0.5155E-02  0.1503E-02  0.6050E-01  0.6009E-01
     -0.994  0.6238E-02  0.2673E-02  0.6079E-01  0.6022E-01
     -0.948  0.6651E-02  0.4002E-02  0.6109E-01  0.6040E-01
     -0.903  0.6387E-02  0.5121E-02  0.6139E-01  0.6063E-01
     -0.857  0.5725E-02  0.5789E-02  0.6165E-01  0.6090E-01
     -0.811  0.5121E-02  0.5942E-02  0.6188E-01  0.6117E-01
     -0.765  0.4975E-02  0.5694E-02  0.6211E-01  0.6143E-01
     -0.720  0.5404E-02  0.5284E-02  0.6236E-01  0.6167E-01
     -0.674  0.6161E-02  0.5008E-02  0.6264E-01  0.6190E-01
     -0.628  0.6793E-02  0.5091E-02  0.6295E-01  0.6213E-01
     -0.582  0.6945E-02  0.5559E-02  0.6327E-01  0.6239E-01
     -0.537  0.6617E-02  0.6183E-02  0.6357E-01  0.6267E-01
     -0.491  0.6158E-02  0.6584E-02  0.6385E-01  0.6297E-01
     -0.445  0.6013E-02  0.6468E-02  0.6413E-01  0.6327E-01
     -0.399  0.6377E-02  0.5846E-02  0.6442E-01  0.6354E-01
     -0.354  0.7027E-02  0.5083E-02  0.6474E-01  0.6377E-01
     -0.308  0.7452E-02  0.4708E-02  0.6508E-01  0.6398E-01
     -0.262  0.7175E-02  0.5077E-02  0.6541E-01  0.6422E-01
     -0.216  0.6056E-02  0.6099E-02  0.6569E-01  0.6450E-01
     -0.171  0.4352E-02  0.7228E-02  0.6589E-01  0.6483E-01
     -0.125  0.2545E-02  0.7764E-02  0.6600E-01  0.6518E-01
     -0.079  0.1071E-02  0.7259E-02  0.6605E-01  0.6551E-01
     -0.033  0.1394E-03  0.5773E-02  0.6606E-01  0.6578E-01
      0.012 -0.2819E-03  0.3790E-02  0.6604E-01  0.6595E-01
      0.058 -0.3621E-03  0.1915E-02  0.6603E-01  0.6604E-01
      0.104 -0.2848E-03  0.5631E-03  0.6602E-01  0.6606E-01
      0.150 -0.1755E-03 -0.1616E-03  0.6601E-01  0.6606E-01
      0.195 -0.9060E-04 -0.3973E-03  0.6600E-01  0.6604E-01
      0.241 -0.4029E-04 -0.3648E-03  0.6600E-01  0.6602E-01
      0.287 -0.1566E-04 -0.2447E-03  0.6600E-01  0.6601E-01
      0.333 -0.5363E-05 -0.1343E-03  0.6600E-01  0.6600E-01
      0.378 -0.1627E-05 -0.6276E-04  0.6600E-01  0.6600E-01
      0.424 -0.4386E-06 -0.2548E-04  0.6600E-01  0.6600E-01
      0.470 -0.1054E-06 -0.9085E-05  0.6600E-01  0.6600E-01
      0.516 -0.2260E-07 -0.2863E-05  0.6600E-01  0.6600E-01
      0.561 -0.4332E-08 -0.8013E-06  0.6600E-01  0.6600E-01
      0.607 -0.7431E-09 -0.1997E-06  0.6600E-01  0.6600E-01
      0.653 -0.1141E-09 -0.4441E-07  0.6600E-01  0.6600E-01
      0.699 -0.1571E-10 -0.8828E-08  0.6600E-01  0.6600E-01
      0.744 -0.1940E-11 -0.1571E-08  0.6600E-01  0.6600E-01
      0.790 -0.2149E-12 -0.2503E-09  0.6600E-01  0.6600E-01
      0.836 -0.2135E-13 -0.3575E-10  0.6600E-01  0.6600E-01
      0.882 -0.1908E-14 -0.4581E-11  0.6600E-01  0.6600E-01
      0.927 -0.1553E-15 -0.5268E-12  0.6600E-01  0.6600E-01
      0.973 -0.9708E-17 -0.5438E-13  0.6600E-01  0.6600E-01
      1.019  0.0000E+00 -0.5038E-14  0.6600E-01  0.6600E-01
      1.065  0.0000E+00 -0.4223E-15  0.6600E-01  0.6600E-01
      1.110  0.0000E+00 -0.3398E-16  0.6600E-01  0.6600E-01
      1.156  0.0000E+00  0.0000E+00  0.6600E-01  0.6600E-01
      1.202  0.0000E+00  0.0000E+00  0.6600E-01  0.6600E-01
      1.248  0.0000E+00  0.0000E+00  0.6600E-01  0.6600E-01
      1.293  0.0000E+00  0.0000E+00  0.6600E-01  0.6600E-01
      1.339  0.0000E+00  0.0000E+00  0.6600E-01  0.6600E-01
      1.385  0.0000E+00  0.0000E+00  0.6600E-01  0.6600E-01
      1.430  0.0000E+00  0.0000E+00  0.6600E-01  0.6600E-01
      1.476  0.0000E+00  0.0000E+00  0.6600E-01  0.6600E-01
      1.522  0.0000E+00  0.0000E+00  0.6600E-01  0.6600E-01
      1.568  0.0000E+00  0.0000E+00  0.6600E-01  0.6600E-01
      1.613  0.0000E+00  0.0000E+00  0.6600E-01  0.6600E-01
      1.659  0.0000E+00  0.0000E+00  0.6600E-01  0.6600E-01
      1.705  0.0000E+00  0.0000E+00  0.6600E-01  0.6600E-01
      1.751  0.0000E+00  0.0000E+00  0.6600E-01  0.6600E-01
      1.796  0.0000E+00  0.0000E+00  0.6600E-01  0.6600E-01
      1.842  0.0000E+00  0.0000E+00  0.6600E-01  0.6600E-01
      1.888  0.0000E+00  0.0000E+00  0.6600E-01  0.6600E-01
