   10   10 1000    2
  0.1190727E+04  0.2108006E-08  0.2229418E-08  0.2533663E-08  0.5000000E-15
   1.0000000000000000E-004
  CAR 
 unknown system                          
    100      1     66
 
  0.1262379E-14  0.1262379E-14  0.1262379E-14  0.1000000E+01
    1       -9.835687     -9.770830   1.000000   1.000000
    2       -8.466287     -8.216688   1.000000   1.000000
    3       -8.298212     -7.984505   1.000000   1.000000
    4       -7.917313     -7.429873   1.000000   1.000000
    5       -7.829307     -7.345877   1.000000   1.000000
    6       -7.753503     -7.138867   1.000000   1.000000
    7       -7.567250     -6.967909   1.000000   1.000000
    8       -7.501889     -6.922448   1.000000   1.000000
    9       -7.473829     -6.773407   1.000000   1.000000
   10       -7.381670     -6.746532   1.000000   1.000000
   11       -7.364421     -6.643764   1.000000   1.000000
   12       -7.222605     -6.527874   1.000000   1.000000
   13       -7.025124     -6.465222   1.000000   1.000000
   14       -6.973671     -6.334169   1.000000   1.000000
   15       -6.782447     -6.204826   1.000000   1.000000
   16       -6.712464     -6.119100   1.000000   1.000000
   17       -6.607207     -6.072462   1.000000   1.000000
   18       -6.567775     -5.987796   1.000000   1.000000
   19       -6.462367     -5.978382   1.000000   1.000000
   20       -6.432155     -5.915184   1.000000   1.000000
   21       -6.373727     -5.834669   1.000000   1.000000
   22       -6.345737     -5.814253   1.000000   1.000000
   23       -6.249197     -5.714517   1.000000   1.000000
   24       -6.216558     -5.607386   1.000000   1.000000
   25       -6.139462     -5.498093   1.000000   1.000000
   26       -5.997475     -5.417578   1.000000   1.000000
   27       -5.919029     -5.352055   1.000000   1.000000
   28       -5.874308     -5.284843   1.000000   1.000000
   29       -5.716019     -5.206297   1.000000   1.000000
   30       -5.647402     -5.016301   1.000000   1.000000
   31       -5.578106     -4.996501   1.000000   1.000000
   32       -5.506883     -4.894785   1.000000   1.000000
   33       -5.437235     -4.850148   1.000000   1.000000
   34       -5.394283     -4.804820   1.000000   1.000002
   35       -5.360632     -4.760250   1.000000   1.000009
   36       -5.344684     -4.687360   1.000000   1.000081
   37       -5.304521     -4.602837   1.000000   1.000720
   38       -5.269428     -4.545221   1.000000   1.002535
   39       -5.215213     -4.522090   1.000000   1.003976
   40       -5.148995     -4.432203   1.000000   1.016402
   41       -5.124721     -4.426945   1.000000   1.017503
   42       -5.093858     -4.380845   1.000000   1.027929
   43       -5.083009     -4.310071   1.000000   1.034216
   44       -5.066854     -4.234086   1.000000   0.979085
   45       -5.020480     -4.147819   1.000000   0.762163
   46       -4.959928     -4.098973   1.000000   0.571145
   47       -4.901489     -4.064673   1.000000   0.426601
   48       -4.895641     -4.002083   1.000000   0.189620
   49       -4.862262     -3.990360   1.000000   0.153445
   50       -4.851999     -3.898301   1.000000  -0.014545
   51       -4.801268     -3.882791   1.000002  -0.024761
   52       -4.633170     -3.778616   1.000343  -0.026870
   53       -4.603999     -3.725651   1.000700  -0.015125
   54       -4.194621     -3.679965   0.902546  -0.007723
   55       -3.012202     -2.777074  -0.000000  -0.000000
   56       -2.907709     -2.680024  -0.000000  -0.000000
   57       -2.701555     -2.408243  -0.000000  -0.000000
   58       -2.636880     -2.329401  -0.000000  -0.000000
   59       -1.997880     -1.766548  -0.000000  -0.000000
   60       -1.632956     -1.333473  -0.000000  -0.000000
   61       -1.034131     -0.927865  -0.000000  -0.000000
   62       -0.901982     -0.762592  -0.000000  -0.000000
   63       -0.673240     -0.547203  -0.000000  -0.000000
   64       -0.571706     -0.426341  -0.000000  -0.000000
   65       -0.357360     -0.174360  -0.000000  -0.000000
   66       -0.266967     -0.112045  -0.000000  -0.000000
