       N       E                     dE             d eps       ncg     rms          rms(c)
DAV:   1     0.703660547079E+03    0.70366E+03   -0.16239E+04   280   0.691E+02
DAV:   2     0.247282897890E+03   -0.45638E+03   -0.42356E+03   488   0.123E+02
DAV:   3     0.240364685754E+02   -0.22325E+03   -0.20842E+03   376   0.122E+02
DAV:   4    -0.371474960199E+02   -0.61184E+02   -0.50116E+02   408   0.577E+01
DAV:   5    -0.440401683303E+02   -0.68927E+01   -0.66402E+01   296   0.268E+01    0.266E+01
DAV:   6    -0.567216085162E+02   -0.12681E+02   -0.93330E+01   284   0.160E+02    0.525E+01
DAV:   7    -0.393645770779E+02    0.17357E+02   -0.62737E+01   330   0.756E+01    0.284E+01
DAV:   8    -0.387550544284E+02    0.60952E+00   -0.30368E+01   342   0.789E+01    0.305E+01
DAV:   9    -0.407486915628E+02   -0.19936E+01   -0.32623E+01   356   0.668E+01    0.453E+01
DAV:  10    -0.371826793716E+02    0.35660E+01   -0.27816E+01   356   0.488E+01    0.255E+01
DAV:  11    -0.364043016048E+02    0.77838E+00   -0.91040E+00   356   0.343E+01    0.182E+01
DAV:  12    -0.354928154825E+02    0.91149E+00   -0.42235E+00   364   0.309E+01    0.177E+01
DAV:  13    -0.357915528999E+02   -0.29874E+00   -0.47731E+00   318   0.258E+01    0.247E+01
DAV:  14    -0.353052828837E+02    0.48627E+00   -0.33159E+00   310   0.167E+01    0.115E+01
DAV:  15    -0.353110600710E+02   -0.57772E-02   -0.11577E+00   384   0.139E+01    0.109E+01
DAV:  16    -0.352629273214E+02    0.48133E-01   -0.57510E-01   376   0.989E+00    0.649E+00
DAV:  17    -0.355282429613E+02   -0.26532E+00   -0.21010E-01   316   0.499E+00    0.447E+00
DAV:  18    -0.361436779725E+02   -0.61544E+00   -0.34807E-01   338   0.537E+00    0.427E+00
DAV:  19    -0.365020757869E+02   -0.35840E+00   -0.18743E-01   372   0.478E+00    0.206E+00
DAV:  20    -0.366473827862E+02   -0.14531E+00   -0.35612E-02   302   0.191E+00    0.183E+00
DAV:  21    -0.369171582747E+02   -0.26978E+00   -0.49137E-02   342   0.241E+00    0.145E+00
DAV:  22    -0.370856101347E+02   -0.16845E+00   -0.23381E-02   348   0.128E+00    0.141E+00
DAV:  23    -0.372269644324E+02   -0.14135E+00   -0.11903E-02   324   0.121E+00    0.700E-01
DAV:  24    -0.373516205108E+02   -0.12466E+00   -0.70601E-03   332   0.744E-01    0.427E-01
DAV:  25    -0.374343597625E+02   -0.82739E-01   -0.19901E-03   346   0.455E-01    0.348E-01
DAV:  26    -0.375259751216E+02   -0.91615E-01   -0.19594E-03   284   0.289E-01    0.308E-01
DAV:  27    -0.376066229237E+02   -0.80648E-01   -0.15962E-03   256   0.233E-01    0.274E-01
DAV:  28    -0.376851990749E+02   -0.78576E-01   -0.14802E-03   282   0.256E-01    0.124E-01
DAV:  29    -0.377455233411E+02   -0.60324E-01   -0.92846E-04   250   0.153E-01    0.795E-02
DAV:  30    -0.378053341133E+02   -0.59811E-01   -0.12523E-03   258   0.161E-01    0.123E-01
DAV:  31    -0.378333191369E+02   -0.27985E-01   -0.31636E-04   220   0.114E-01    0.829E-02
DAV:  32    -0.378553837160E+02   -0.22065E-01   -0.24944E-04   220   0.588E-02    0.786E-02
DAV:  33    -0.378760226766E+02   -0.20639E-01   -0.27868E-04   220   0.592E-02    0.533E-02
DAV:  34    -0.378915756780E+02   -0.15553E-01   -0.21666E-04   212   0.608E-02    0.356E-02
DAV:  35    -0.378985646344E+02   -0.69890E-02   -0.11654E-04   198   0.447E-02    0.229E-02
DAV:  36    -0.379022054079E+02   -0.36408E-02   -0.61960E-05   178   0.296E-02    0.168E-02
DAV:  37    -0.379052174937E+02   -0.30121E-02   -0.66767E-05   196   0.368E-02    0.137E-02
DAV:  38    -0.379067107240E+02   -0.14932E-02   -0.35653E-05   174   0.227E-02    0.105E-02
DAV:  39    -0.379080099623E+02   -0.12992E-02   -0.30123E-05   170   0.193E-02    0.685E-03
DAV:  40    -0.379087807640E+02   -0.77080E-03   -0.17207E-05   180   0.164E-02    0.655E-03
DAV:  41    -0.379096543564E+02   -0.87359E-03   -0.20340E-05   170   0.133E-02    0.116E-02
DAV:  42    -0.379102422214E+02   -0.58787E-03   -0.17132E-05   180   0.166E-02    0.580E-03
DAV:  43    -0.379107384928E+02   -0.49627E-03   -0.14941E-05   180   0.114E-02    0.385E-03
DAV:  44    -0.379111014623E+02   -0.36297E-03   -0.10419E-05   180   0.104E-02    0.351E-03
DAV:  45    -0.379113109503E+02   -0.20949E-03   -0.73722E-06   182   0.103E-02    0.340E-03
DAV:  46    -0.379113997437E+02   -0.88793E-04   -0.35595E-06   156   0.740E-03
   1 F= -.37911400E+02 E0= -.37901078E+02  d E =-.379114E+02  mag=     7.8034
       N       E                     dE             d eps       ncg     rms          rms(c)
DAV:   1    -0.379116528129E+02   -0.34186E-03   -0.76425E-02   274   0.102E+00    0.942E-02
DAV:   2    -0.379118700680E+02   -0.21726E-03   -0.19900E-03   386   0.516E-01    0.423E-01
DAV:   3    -0.379114593497E+02    0.41072E-03   -0.21867E-03   276   0.637E-01    0.237E-01
DAV:   4    -0.379118118500E+02   -0.35250E-03   -0.77132E-04   204   0.428E-01    0.297E-01
DAV:   5    -0.379115504902E+02    0.26136E-03   -0.40539E-04   180   0.346E-01    0.670E-02
DAV:   6    -0.379117546112E+02   -0.20412E-03   -0.81111E-05   160   0.157E-01    0.554E-02
DAV:   7    -0.379117983415E+02   -0.43730E-04   -0.52408E-05   152   0.128E-01
   2 F= -.37911798E+02 E0= -.37901351E+02  d E =-.398598E-03  mag=     7.8027
       N       E                     dE             d eps       ncg     rms          rms(c)
DAV:   1    -0.379117906233E+02   -0.36012E-04   -0.65472E-02   264   0.951E-01    0.864E-02
DAV:   2    -0.379118572286E+02   -0.66605E-04   -0.11674E-03   364   0.361E-01    0.281E-01
DAV:   3    -0.379118053812E+02    0.51847E-04   -0.11249E-03   268   0.524E-01    0.278E-01
DAV:   4    -0.379118381380E+02   -0.32757E-04   -0.82295E-04   188   0.397E-01
   3 F= -.37911838E+02 E0= -.37901803E+02  d E =-.438394E-03  mag=     7.8026
