 vasp.6.1.2 22Jul20 (build Aug  2 2021 21:04:21) gamma-only                      
 executed on             LinuxPGI date 2021.12.22  21:18:46
 running on   16 total cores
 distrk:  each k-point on   16 cores,    1 groups
 distr:  one band on NCORE=   8 cores,    2 groups


--------------------------------------------------------------------------------------------------------


 INCAR:
 POTCAR:    PAW_PBE Ni 02Aug2007                  
 POTCAR:    PAW_PBE Pd 04Jan2005                  
 -----------------------------------------------------------------------------
|                                                                             |
|           W    W    AA    RRRRR   N    N  II  N    N   GGGG   !!!           |
|           W    W   A  A   R    R  NN   N  II  NN   N  G    G  !!!           |
|           W    W  A    A  R    R  N N  N  II  N N  N  G       !!!           |
|           W WW W  AAAAAA  RRRRR   N  N N  II  N  N N  G  GGG   !            |
|           WW  WW  A    A  R   R   N   NN  II  N   NN  G    G                |
|           W    W  A    A  R    R  N    N  II  N    N   GGGG   !!!           |
|                                                                             |
|     You use a magnetic or noncollinear calculation, but did not specify     |
|     the initial magnetic moment with the MAGMOM tag. Note that a            |
|     default of 1 will be used for all atoms. This ferromagnetic setup       |
|     may break the symmetry of the crystal, in particular it may rule        |
|     out finding an antiferromagnetic solution. Thence, we recommend         |
|     setting the initial magnetic moment manually or verifying carefully     |
|     that this magnetic setup is desired.                                    |
|                                                                             |
 -----------------------------------------------------------------------------

 POTCAR:    PAW_PBE Ni 02Aug2007                  
   SHA256 =  0534bc51ca8003dfef23f56753fef9fdd3e22eac8d719fccacb59f3e6b7a69c7 Ni/POTCAR             
   COPYR  = (c) Copyright 02Aug2007 Georg Kresse                                                    
   COPYR  = This file is part of the software VASP. Any use, copying, and all other rights are regul
   COPYR  = If you do not have a valid VASP license, you may not use, copy or distribute this file. 
   VRHFIN =Ni:                                                                                      
   LEXCH  = PE                                                                                      
   EATOM  =  1077.6739 eV,   79.2068 Ry                                                             
                                                                                                    
   TITEL  = PAW_PBE Ni 02Aug2007                                                                    
   LULTRA =        F    use ultrasoft PP ?                                                          
   IUNSCR =        1    unscreen: 0-lin 1-nonlin 2-no                                               
   RPACOR =    2.000    partial core radius                                                         
   POMASS =   58.690; ZVAL   =   10.000    mass and valenz                                          
   RCORE  =    2.300    outmost cutoff radius                                                       
   RWIGS  =    2.430; RWIGS  =    1.286    wigner-seitz radius (au A)                               
   ENMAX  =  269.532; ENMIN  =  202.149 eV                                                          
   RCLOC  =    1.201    cutoff for local pot                                                        
   LCOR   =        T    correct aug charges                                                         
   LPAW   =        T    paw PP                                                                      
   EAUG   =  544.565                                                                                
   DEXC   =    0.000                                                                                
   RMAX   =    2.357    core radius for proj-oper                                                   
   RAUG   =    1.300    factor for augmentation sphere                                              
   RDEP   =    2.390    radius for radial grids                                                     
   RDEPT  =    1.838    core radius for aug-charge                                                  
                                                                                                    
   Atomic configuration                                                                             
    9 entries                                                                                       
     n  l   j            E        occ.                                                              
     1  0  0.50     -8206.4253   2.0000                                                             
     2  0  0.50      -976.1748   2.0000                                                             
     2  1  1.50      -839.0571   6.0000                                                             
     3  0  0.50      -105.9991   2.0000                                                             
     3  1  1.50       -66.4603   6.0000                                                             
     3  2  2.50        -4.6458   9.0000                                                             
     4  0  0.50        -4.4926   1.0000                                                             
     4  1  1.50        -4.0817   0.0000                                                             
     4  3  2.50        -1.3606   0.0000                                                             
   Description                                                                                      
     l       E           TYP  RCUT    TYP  RCUT                                                     
     2     -4.6457903     23  2.300                                                                 
     2     -6.0063729     23  2.300                                                                 
     0     -4.4925590     23  2.300                                                                 
     0      5.0102601     23  2.300                                                                 
     1     -2.7211652     23  2.300                                                                 
     1     16.5183231     23  2.300                                                                 
  local pseudopotential read in
  partial core-charges read in
  partial kinetic energy density read in
  atomic valenz-charges read in
  non local Contribution for L=            2  read in
    real space projection operators read in
  non local Contribution for L=            2  read in
    real space projection operators read in
  non local Contribution for L=            0  read in
    real space projection operators read in
  non local Contribution for L=            0  read in
    real space projection operators read in
  non local Contribution for L=            1  read in
    real space projection operators read in
  non local Contribution for L=            1  read in
    real space projection operators read in
    PAW grid and wavefunctions read in
 
   number of l-projection  operators is LMAX  =            6
   number of lm-projection operators is LMMAX =           18
 
 POTCAR:    PAW_PBE Pd 04Jan2005                  
   SHA256 =  dd6f6f02930356371984e2b707ff5e456046761dc76b07c1eba30abd15eb3c39 Pd/POTCAR             
   COPYR  = (c) Copyright 04Jan2005 Georg Kresse                                                    
   COPYR  = This file is part of the software VASP. Any use, copying, and all other rights are regul
   COPYR  = If you do not have a valid VASP license, you may not use, copy or distribute this file. 
   VRHFIN =Pd : s1 d9                                                                               
   LEXCH  = PE                                                                                      
   EATOM  =   809.7530 eV,   59.5152 Ry                                                             
                                                                                                    
   TITEL  = PAW_PBE Pd 04Jan2005                                                                    
   LULTRA =        F    use ultrasoft PP ?                                                          
   IUNSCR =        1    unscreen: 0-lin 1-nonlin 2-no                                               
   RPACOR =    2.000    partial core radius                                                         
   POMASS =  106.420; ZVAL   =   10.000    mass and valenz                                          
   RCORE  =    2.600    outmost cutoff radius                                                       
   RWIGS  =    2.710; RWIGS  =    1.434    wigner-seitz radius (au A)                               
   ENMAX  =  250.925; ENMIN  =  188.194 eV                                                          
   ICORE  =        3    local potential                                                             
   LCOR   =        T    correct aug charges                                                         
   LPAW   =        T    paw PP                                                                      
   EAUG   =  416.230                                                                                
   DEXC   =    0.000                                                                                
   RMAX   =    2.653    core radius for proj-oper                                                   
   RAUG   =    1.300    factor for augmentation sphere                                              
   RDEP   =    2.734    radius for radial grids                                                     
   RDEPT  =    2.103    core radius for aug-charge                                                  
                                                                                                    
   Atomic configuration                                                                             
   12 entries                                                                                       
     n  l   j            E        occ.                                                              
     1  0  0.50    -24164.6631   2.0000                                                             
     2  0  0.50     -3530.9218   2.0000                                                             
     2  1  1.50     -3165.6822   6.0000                                                             
     3  0  0.50      -639.4577   2.0000                                                             
     3  1  1.50      -519.4532   6.0000                                                             
     3  2  2.50      -328.9757  10.0000                                                             
     4  0  0.50       -88.7014   2.0000                                                             
     4  1  1.50       -54.4540   6.0000                                                             
     4  2  2.50        -6.6878   9.0000                                                             
     5  0  0.50        -4.3543   1.0000                                                             
     5  1  0.50        -1.3606   0.0000                                                             
     4  3  2.50        -1.3606   0.0000                                                             
   Description                                                                                      
     l       E           TYP  RCUT    TYP  RCUT                                                     
     2     -6.6878251     23  2.400                                                                 
     2     -8.0484077     23  2.400                                                                 
     0     -4.3542939     23  2.400                                                                 
     0      4.3406793     23  2.400                                                                 
     1     -4.0817478     23  2.600                                                                 
     1     15.8380318     23  2.600                                                                 
     3     -4.0817478     23  2.400                                                                 
  local pseudopotential read in
  partial core-charges read in
  partial kinetic energy density read in
  atomic valenz-charges read in
  non local Contribution for L=            2  read in
    real space projection operators read in
  non local Contribution for L=            2  read in
    real space projection operators read in
  non local Contribution for L=            0  read in
    real space projection operators read in
  non local Contribution for L=            0  read in
    real space projection operators read in
  non local Contribution for L=            1  read in
    real space projection operators read in
  non local Contribution for L=            1  read in
    real space projection operators read in
    PAW grid and wavefunctions read in
 
   number of l-projection  operators is LMAX  =            6
   number of lm-projection operators is LMMAX =           18
 
  PAW_PBE Ni 02Aug2007                  :
 energy of atom  1       EATOM=-1077.6739
 kinetic energy error for atom=    0.0101 (will be added to EATOM!!)
  PAW_PBE Pd 04Jan2005                  :
 energy of atom  2       EATOM= -809.7530
 kinetic energy error for atom=    0.0091 (will be added to EATOM!!)
 
 
 POSCAR: Ni Pd
  positions in cartesian coordinates
  No initial velocities read in
 exchange correlation table for  LEXCH =        8
   RHO(1)=    0.500       N(1)  =     2000
   RHO(2)=  100.500       N(2)  =     4000
 


--------------------------------------------------------------------------------------------------------


 ion  position               nearest neighbor table
   1  0.547  0.540  0.517-   4 2.33   2 2.34   6 2.37   3 2.39   7 2.50   8 2.51   9 2.52
   2  0.575  0.496  0.436-   3 2.29   4 2.34   1 2.34   8 2.49  10 2.49
   3  0.523  0.586  0.434-   2 2.29   4 2.37   1 2.39   7 2.53
   4  0.469  0.499  0.463-   1 2.33   2 2.34   5 2.35   6 2.35   3 2.37  10 2.52   7 2.53
   5  0.400  0.498  0.536-   6 2.34   4 2.35   9 2.45   7 2.48
   6  0.498  0.448  0.540-   5 2.34   4 2.35   1 2.37   9 2.46  10 2.47   8 2.49
   7  0.445  0.597  0.509-   5 2.48   1 2.50   4 2.53   3 2.53   9 2.76
   8  0.613  0.446  0.518-   6 2.49   2 2.49   1 2.51  10 2.68
   9  0.479  0.535  0.599-   5 2.45   6 2.46   1 2.52   7 2.76
  10  0.523  0.399  0.456-   6 2.47   2 2.49   4 2.52   8 2.68
 

IMPORTANT INFORMATION: All symmetrisations will be switched off!
NOSYMM: (Re-)initialisation of all symmetry stuff for point group C_1.


----------------------------------------------------------------------------------------

                                     Primitive cell                                     

  volume of cell :   11907.2696

  direct lattice vectors                    reciprocal lattice vectors
    21.080059166  0.000000000  0.000000000     0.047438197  0.000000000  0.000000000
     0.000000000 22.294181948  0.000000000     0.000000000  0.044854752  0.000000000
     0.000000000  0.000000000 25.336628331     0.000000000  0.000000000  0.039468551

  length of vectors
    21.080059166 22.294181948 25.336628331     0.047438197  0.044854752  0.039468551

  position of ions in fractional coordinates (direct lattice)
     0.546624915  0.540102959  0.516752753
     0.575041319  0.496430428  0.436225455
     0.522928126  0.586318161  0.433821159
     0.468801904  0.499067518  0.462572782
     0.400246035  0.498190115  0.535588805
     0.497659295  0.448300011  0.540386517
     0.444728913  0.596781886  0.509076699
     0.612693634  0.446440304  0.518327254
     0.479078994  0.534837787  0.598805433
     0.523134528  0.398585474  0.455876460

  ion indices of the primitive-cell ions
   primitive index   ion index
                 1           1
                 2           2
                 3           3
                 4           4
                 5           5
                 6           6
                 7           7
                 8           8
                 9           9
                10          10

----------------------------------------------------------------------------------------

 
 
 KPOINTS: KPOINTS created by Atomic Simulation Env

Automatic generation of k-mesh.
Space group operators:
 irot       det(A)        alpha          n_x          n_y          n_z        tau_x        tau_y        tau_z
    1     1.000000     0.000000     1.000000     0.000000     0.000000     0.000000     0.000000     0.000000
 
 Subroutine IBZKPT returns following result:
 ===========================================
 
 Found      1 irreducible k-points:
 
 Following reciprocal coordinates:
            Coordinates               Weight
  0.000000  0.000000  0.000000      1.000000
 
 Following cartesian coordinates:
            Coordinates               Weight
  0.000000  0.000000  0.000000      1.000000
 


--------------------------------------------------------------------------------------------------------




 Dimension of arrays:
   k-points           NKPTS =      1   k-points in BZ     NKDIM =      1   number of bands    NBANDS=     66
   number of dos      NEDOS =    301   number of ions     NIONS =     10
   non local maximal  LDIM  =      6   non local SUM 2l+1 LMDIM =     18
   total plane-waves  NPLWV = ******
   max r-space proj   IRMAX =      1   max aug-charges    IRDMAX=   6408
   dimension x,y,z NGX =   108 NGY =  112 NGZ =  126
   dimension x,y,z NGXF=   216 NGYF=  224 NGZF=  252
   support grid    NGXF=   216 NGYF=  224 NGZF=  252
   ions per type =               6   4
   NGX,Y,Z   is equivalent  to a cutoff of   8.52,  8.35,  8.27 a.u.
   NGXF,Y,Z  is equivalent  to a cutoff of  17.03, 16.70, 16.53 a.u.

 SYSTEM =  unknown system                          
 POSCAR =  Ni Pd                                   

 Startparameter for this run:
   NWRITE =      2    write-flag & timer
   PREC   = normal    normal or accurate (medium, high low for compatibility)
   ISTART =      0    job   : 0-new  1-cont  2-samecut
   ICHARG =      2    charge: 1-file 2-atom 10-const
   ISPIN  =      2    spin polarized calculation?
   LNONCOLLINEAR =      F non collinear calculations
   LSORBIT =      F    spin-orbit coupling
   INIWAV =      1    electr: 0-lowe 1-rand  2-diag
   LASPH  =      F    aspherical Exc in radial PAW
   METAGGA=      F    non-selfconsistent MetaGGA calc.

 Electronic Relaxation 1
   ENCUT  =  400.0 eV  29.40 Ry    5.42 a.u.  34.38 36.36 41.32*2*pi/ulx,y,z
   ENINI  =  400.0     initial cutoff
   ENAUG  =  544.6 eV  augmentation charge cutoff
   NELM   =     60;   NELMIN=  2; NELMDL=  0     # of ELM steps 
   EDIFF  = 0.1E-03   stopping-criterion for ELM
   LREAL  =      F    real-space projection
   NLSPLINE    = F    spline interpolate recip. space projectors
   LCOMPAT=      F    compatible to vasp.4.4
   GGA_COMPAT  = T    GGA compatible to vasp.4.4-vasp.4.6
   LMAXPAW     = -100 max onsite density
   LMAXMIX     =    2 max onsite mixed and CHGCAR
   VOSKOWN=      0    Vosko Wilk Nusair interpolation
   ROPT   =    0.00000   0.00000
 Ionic relaxation
   EDIFFG = 0.1E-02   stopping-criterion for IOM
   NSW    =   1000    number of steps for IOM
   NBLOCK =      1;   KBLOCK =   1000    inner block; outer block 
   IBRION =      2    ionic relax: 0-MD 1-quasi-New 2-CG
   NFREE  =      1    steps in history (QN), initial steepest desc. (CG)
   ISIF   =      0    stress and relaxation
   IWAVPR =     11    prediction:  0-non 1-charg 2-wave 3-comb
   ISYM   =      0    0-nonsym 1-usesym 2-fastsym
   LCORR  =      T    Harris-Foulkes like correction to forces

   POTIM  = 0.5000    time-step for ionic-motion
   TEIN   =    0.0    initial temperature
   TEBEG  =    0.0;   TEEND  =   0.0 temperature during run
   SMASS  =  -3.00    Nose mass-parameter (am)
   estimated Nose-frequenzy (Omega)   =  0.10E-29 period in steps = 0.13E+47 mass=  -0.102E-25a.u.
   SCALEE = 1.0000    scale energy and forces
   NPACO  =    256;   APACO  = 16.0  distance and # of slots for P.C.
   PSTRESS=    0.0 pullay stress

  Mass of Ions in am
   POMASS =  58.69106.42
  Ionic Valenz
   ZVAL   =  10.00 10.00
  Atomic Wigner-Seitz radii
   RWIGS  =  -1.00 -1.00
  virtual crystal weights 
   VCA    =   1.00  1.00
   NELECT =     100.0000    total number of electrons
   NUPDOWN=      -1.0000    fix difference up-down

 DOS related values:
   EMIN   =  10.00;   EMAX   =-10.00  energy-range for DOS
   EFERMI =   0.00
   ISMEAR =     1;   SIGMA  =   0.20  broadening in eV -4-tet -1-fermi 0-gaus

 Electronic relaxation 2 (details)
   IALGO  =     38    algorithm
   LDIAG  =      T    sub-space diagonalisation (order eigenvalues)
   LSUBROT=      F    optimize rotation matrix (better conditioning)
   TURBO    =      0    0=normal 1=particle mesh
   IRESTART =      0    0=no restart 2=restart with 2 vectors
   NREBOOT  =      0    no. of reboots
   NMIN     =      0    reboot dimension
   EREF     =   0.00    reference energy to select bands
   IMIX   =      4    mixing-type and parameters
     AMIX     =   0.40;   BMIX     =  1.00
     AMIX_MAG =   1.60;   BMIX_MAG =  1.00
     AMIN     =   0.10
     WC   =   100.;   INIMIX=   1;  MIXPRE=   1;  MAXMIX= -45

 Intra band minimization:
   WEIMIN = 0.0010     energy-eigenvalue tresh-hold
   EBREAK =  0.38E-06  absolut break condition
   DEPER  =   0.30     relativ break condition  

   TIME   =   0.40     timestep for ELM

  volume/ion in A,a.u.               =    1190.73      8035.42
  Fermi-wavevector in a.u.,A,eV,Ry     =   0.332765  0.628834  1.506606  0.110732
  Thomas-Fermi vector in A             =   1.230050
 
 Write flags
   LWAVE        =      F    write WAVECAR
   LDOWNSAMPLE  =      F    k-point downsampling of WAVECAR
   LCHARG       =      F    write CHGCAR
   LVTOT        =      F    write LOCPOT, total local potential
   LVHAR        =      F    write LOCPOT, Hartree potential only
   LELF         =      F    write electronic localiz. function (ELF)
   LORBIT       =      0    0 simple, 1 ext, 2 COOP (PROOUT), +10 PAW based schemes


 Dipole corrections
   LMONO  =      F    monopole corrections only (constant potential shift)
   LDIPOL =      F    correct potential (dipole corrections)
   IDIPOL =      0    1-x, 2-y, 3-z, 4-all directions 
   EPSILON=  1.0000000 bulk dielectric constant

 Exchange correlation treatment:
   GGA     =    PE    GGA type
   LEXCH   =     8    internal setting for exchange type
   VOSKOWN=      0    Vosko Wilk Nusair interpolation
   LHFCALC =     F    Hartree Fock is set to
   LHFONE  =     F    Hartree Fock one center treatment
   AEXX    =    0.0000 exact exchange contribution

 Linear response parameters
   LEPSILON=     F    determine dielectric tensor
   LRPA    =     F    only Hartree local field effects (RPA)
   LNABLA  =     F    use nabla operator in PAW spheres
   LVEL    =     F    velocity operator in full k-point grid
   LINTERFAST=   F  fast interpolation
   KINTER  =     0    interpolate to denser k-point grid
   CSHIFT  =0.1000    complex shift for real part using Kramers Kronig
   OMEGAMAX=  -1.0    maximum frequency
   DEG_THRESHOLD= 0.2000000E-02 threshold for treating states as degnerate
   RTIME   =   -0.100 relaxation time in fs
  (WPLASMAI=    0.000 imaginary part of plasma frequency in eV, 0.658/RTIME)
   DFIELD  = 0.0000000 0.0000000 0.0000000 field for delta impulse in time
 
 Orbital magnetization related:
   ORBITALMAG=     F  switch on orbital magnetization
   LCHIMAG   =     F  perturbation theory with respect to B field
   DQ        =  0.001000  dq finite difference perturbation B field
   LLRAUG    =     F  two centre corrections for induced B field



--------------------------------------------------------------------------------------------------------


 conjugate gradient relaxation of ions
 charge density and potential will be updated during run
 spin polarized calculation
 Variant of blocked Davidson
 Davidson routine will perform the subspace rotation
 perform sub-space diagonalisation
    after iterative eigenvector-optimisation
 modified Broyden-mixing scheme, WC =      100.0
 initial mixing is a Kerker type mixing with AMIX =  0.4000 and BMIX =      1.0000
 Hartree-type preconditioning will be used
 using additional bands            16
 reciprocal scheme for non local part
 use partial core corrections
 calculate Harris-corrections to forces 
   (improved forces if not selfconsistent)
 use gradient corrections 
 use of overlap-Matrix (Vanderbilt PP)
 Methfessel and Paxton  Order N= 1 SIGMA  =   0.20


--------------------------------------------------------------------------------------------------------


  energy-cutoff  :      400.00
  volume of cell :    11907.27
      direct lattice vectors                 reciprocal lattice vectors
    21.080059166  0.000000000  0.000000000     0.047438197  0.000000000  0.000000000
     0.000000000 22.294181948  0.000000000     0.000000000  0.044854752  0.000000000
     0.000000000  0.000000000 25.336628331     0.000000000  0.000000000  0.039468551

  length of vectors
    21.080059166 22.294181948 25.336628331     0.047438197  0.044854752  0.039468551


 
 k-points in units of 2pi/SCALE and weight: KPOINTS created by Atomic Simulation Env
   0.00000000  0.00000000  0.00000000       1.000
 
 k-points in reciprocal lattice and weights: KPOINTS created by Atomic Simulation Env
   0.00000000  0.00000000  0.00000000       1.000
 
 position of ions in fractional coordinates (direct lattice) 
   0.54662491  0.54010296  0.51675275
   0.57504132  0.49643043  0.43622545
   0.52292813  0.58631816  0.43382116
   0.46880190  0.49906752  0.46257278
   0.40024603  0.49819011  0.53558881
   0.49765929  0.44830001  0.54038652
   0.44472891  0.59678189  0.50907670
   0.61269363  0.44644030  0.51832725
   0.47907899  0.53483779  0.59880543
   0.52313453  0.39858547  0.45587646
 
 position of ions in cartesian coordinates  (Angst):
  11.52288555 12.04115365 13.09277245
  12.12190503 11.06751029 11.05248221
  11.02335585 13.07148375 10.99156546
   9.88237187 11.12630204 11.72003466
   8.43721010 11.10674106 13.57001449
  10.49068737  9.99448201 13.69157234
   9.37491181 13.30476396 12.89828712
  12.91561805  9.95302137 13.13266498
  10.09901355 11.92377093 15.17171069
  11.02770681  8.88613707 11.55037244
 


--------------------------------------------------------------------------------------------------------


 use parallel FFT for orbitals z direction half grid
 k-point   1 :   0.0000 0.0000 0.0000  plane waves:  108168

 maximum and minimum number of plane-waves per node :     13525    13518

 maximum number of plane-waves:    108168
 maximum index in each direction: 
   IXMAX=   34   IYMAX=   36   IZMAX=   41
   IXMIN=  -34   IYMIN=  -36   IZMIN=    0


 parallel 3D FFT for wavefunctions:
    minimum data exchange during FFTs selected (reduces bandwidth)
 parallel 3D FFT for charge:
    minimum data exchange during FFTs selected (reduces bandwidth)


 total amount of memory used by VASP MPI-rank0   160554. kBytes
=======================================================================

   base      :      30000. kBytes
   nonl-proj :       6056. kBytes
   fftplans  :      30693. kBytes
   grid      :      79478. kBytes
   one-center:         31. kBytes
   wavefun   :      14296. kBytes
 
     INWAV:  cpu time    0.0000: real time    0.0000
 Broyden mixing: mesh for mixing (old mesh)
   NGX = 69   NGY = 73   NGZ = 83
  (NGX  =216   NGY  =224   NGZ  =252)
  gives a total of 418071 points

 initial charge density was supplied:
 charge density of overlapping atoms calculated
 number of electron     100.0000000 magnetization      10.0000000
 keeping initial charge density in first step


--------------------------------------------------------------------------------------------------------


 Maximum index for augmentation-charges           408 (set IRDMAX)


--------------------------------------------------------------------------------------------------------


 First call to EWALD:  gamma=   0.078
 Maximum number of real-space cells 3x 3x 3
 Maximum number of reciprocal cells 3x 3x 3

    FEWALD:  cpu time    0.0012: real time    0.0012


--------------------------------------- Iteration      1(   1)  ---------------------------------------


    POTLOK:  cpu time    2.5693: real time    2.5775
    SETDIJ:  cpu time    0.0260: real time    0.0261
     EDDAV:  cpu time    6.9847: real time    6.9911
       DOS:  cpu time    0.0076: real time    0.0076
    --------------------------------------------
      LOOP:  cpu time    9.5876: real time    9.6023

 eigenvalue-minimisations  :   280
 total energy-change (2. order) : 0.7036605E+03  (-0.1623940E+04)
 number of electron     100.0000000 magnetization      10.0000000
 augmentation part      100.0000000 magnetization      10.0000000

 Free energy of the ion-electron system (eV)
  ---------------------------------------------------
  alpha Z        PSCENC =         4.75925485
  Ewald energy   TEWEN  =     13074.81756665
  -Hartree energ DENC   =    -22045.88001194
  -exchange      EXHF   =         0.00000000
  -V(xc)+E(xc)   XCENC  =        63.23598077
  PAW double counting   =      9003.59075477    -9155.75339974
  entropy T*S    EENTRO =        -0.01631332
  eigenvalues    EBANDS =        53.94812196
  atomic energy  EATOM  =      9704.95859309
  Solvation  Ediel_sol  =         0.00000000
  ---------------------------------------------------
  free energy    TOTEN  =       703.66054708 eV

  energy without entropy =      703.67686040  energy(sigma->0) =      703.66598485


--------------------------------------------------------------------------------------------------------




--------------------------------------- Iteration      1(   2)  ---------------------------------------


     EDDAV:  cpu time   10.9326: real time   10.9470
       DOS:  cpu time    0.0079: real time    0.0079
    --------------------------------------------
      LOOP:  cpu time   10.9405: real time   10.9548

 eigenvalue-minimisations  :   488
 total energy-change (2. order) :-0.4563776E+03  (-0.4235569E+03)
 number of electron     100.0000000 magnetization      10.0000000
 augmentation part      100.0000000 magnetization      10.0000000

 Free energy of the ion-electron system (eV)
  ---------------------------------------------------
  alpha Z        PSCENC =         4.75925485
  Ewald energy   TEWEN  =     13074.81756665
  -Hartree energ DENC   =    -22045.88001194
  -exchange      EXHF   =         0.00000000
  -V(xc)+E(xc)   XCENC  =        63.23598077
  PAW double counting   =      9003.59075477    -9155.75339974
  entropy T*S    EENTRO =         0.05910934
  eigenvalues    EBANDS =      -402.50494989
  atomic energy  EATOM  =      9704.95859309
  Solvation  Ediel_sol  =         0.00000000
  ---------------------------------------------------
  free energy    TOTEN  =       247.28289789 eV

  energy without entropy =      247.22378855  energy(sigma->0) =      247.26319478


--------------------------------------------------------------------------------------------------------




--------------------------------------- Iteration      1(   3)  ---------------------------------------


     EDDAV:  cpu time    8.7812: real time    8.7894
       DOS:  cpu time    0.0080: real time    0.0080
    --------------------------------------------
      LOOP:  cpu time    8.7892: real time    8.7974

 eigenvalue-minimisations  :   376
 total energy-change (2. order) :-0.2232464E+03  (-0.2084162E+03)
 number of electron     100.0000000 magnetization      10.0000000
 augmentation part      100.0000000 magnetization      10.0000000

 Free energy of the ion-electron system (eV)
  ---------------------------------------------------
  alpha Z        PSCENC =         4.75925485
  Ewald energy   TEWEN  =     13074.81756665
  -Hartree energ DENC   =    -22045.88001194
  -exchange      EXHF   =         0.00000000
  -V(xc)+E(xc)   XCENC  =        63.23598077
  PAW double counting   =      9003.59075477    -9155.75339974
  entropy T*S    EENTRO =        -0.01200513
  eigenvalues    EBANDS =      -625.68026473
  atomic energy  EATOM  =      9704.95859309
  Solvation  Ediel_sol  =         0.00000000
  ---------------------------------------------------
  free energy    TOTEN  =        24.03646858 eV

  energy without entropy =       24.04847371  energy(sigma->0) =       24.04047029


--------------------------------------------------------------------------------------------------------




--------------------------------------- Iteration      1(   4)  ---------------------------------------


     EDDAV:  cpu time    9.4061: real time    9.4198
       DOS:  cpu time    0.0008: real time    0.0008
    --------------------------------------------
      LOOP:  cpu time    9.4068: real time    9.4206

 eigenvalue-minimisations  :   408
 total energy-change (2. order) :-0.6118396E+02  (-0.5011554E+02)
 number of electron     100.0000000 magnetization      10.0000000
 augmentation part      100.0000000 magnetization      10.0000000

 Free energy of the ion-electron system (eV)
  ---------------------------------------------------
  alpha Z        PSCENC =         4.75925485
  Ewald energy   TEWEN  =     13074.81756665
  -Hartree energ DENC   =    -22045.88001194
  -exchange      EXHF   =         0.00000000
  -V(xc)+E(xc)   XCENC  =        63.23598077
  PAW double counting   =      9003.59075477    -9155.75339974
  entropy T*S    EENTRO =        -0.01865075
  eigenvalues    EBANDS =      -686.85758371
  atomic energy  EATOM  =      9704.95859309
  Solvation  Ediel_sol  =         0.00000000
  ---------------------------------------------------
  free energy    TOTEN  =       -37.14749602 eV

  energy without entropy =      -37.12884527  energy(sigma->0) =      -37.14127910


--------------------------------------------------------------------------------------------------------




--------------------------------------- Iteration      1(   5)  ---------------------------------------


     EDDAV:  cpu time    7.2542: real time    7.2632
       DOS:  cpu time    0.0021: real time    0.0021
    CHARGE:  cpu time    0.7488: real time    0.7495
    MIXING:  cpu time    0.0561: real time    0.0561
    --------------------------------------------
      LOOP:  cpu time    8.0612: real time    8.0709

 eigenvalue-minimisations  :   296
 total energy-change (2. order) :-0.6892672E+01  (-0.6640233E+01)
 number of electron     100.0000035 magnetization       9.8165854
 augmentation part       52.1875873 magnetization       7.9276889

 Broyden mixing:
  rms(total) = 0.26551E+01    rms(broyden)= 0.26543E+01
  rms(prec ) = 0.27620E+01
  weight for this iteration     100.00

 Free energy of the ion-electron system (eV)
  ---------------------------------------------------
  alpha Z        PSCENC =         4.75925485
  Ewald energy   TEWEN  =     13074.81756665
  -Hartree energ DENC   =    -22045.88001194
  -exchange      EXHF   =         0.00000000
  -V(xc)+E(xc)   XCENC  =        63.23598077
  PAW double counting   =      9003.59075477    -9155.75339974
  entropy T*S    EENTRO =        -0.02245095
  eigenvalues    EBANDS =      -693.74645582
  atomic energy  EATOM  =      9704.95859309
  Solvation  Ediel_sol  =         0.00000000
  ---------------------------------------------------
  free energy    TOTEN  =       -44.04016833 eV

  energy without entropy =      -44.01771738  energy(sigma->0) =      -44.03268468


--------------------------------------------------------------------------------------------------------




--------------------------------------- Iteration      1(   6)  ---------------------------------------


    POTLOK:  cpu time    2.6325: real time    2.6356
    SETDIJ:  cpu time    0.0281: real time    0.0281
     EDDAV:  cpu time    7.1557: real time    7.1625
       DOS:  cpu time    0.0073: real time    0.0073
    CHARGE:  cpu time    0.7169: real time    0.7175
    MIXING:  cpu time    0.0460: real time    0.0460
    --------------------------------------------
      LOOP:  cpu time   10.5865: real time   10.5971

 eigenvalue-minimisations  :   284
 total energy-change (2. order) :-0.1268144E+02  (-0.9333005E+01)
 number of electron     100.0000038 magnetization       9.6099701
 augmentation part       56.6220523 magnetization       8.9715743

 Broyden mixing:
  rms(total) = 0.52496E+01    rms(broyden)= 0.52492E+01
  rms(prec ) = 0.55327E+01
  weight for this iteration     100.00

 eigenvalues of (default mixing * dielectric matrix)
  average eigenvalue GAMMA=   0.2949
  0.2949

 Free energy of the ion-electron system (eV)
  ---------------------------------------------------
  alpha Z        PSCENC =         4.75925485
  Ewald energy   TEWEN  =     13074.81756665
  -Hartree energ DENC   =    -21972.28300745
  -exchange      EXHF   =         0.00000000
  -V(xc)+E(xc)   XCENC  =        59.89919992
  PAW double counting   =      9484.67696581    -9612.33148364
  entropy T*S    EENTRO =        -0.01971951
  eigenvalues    EBANDS =      -801.19897824
  atomic energy  EATOM  =      9704.95859309
  Solvation  Ediel_sol  =         0.00000000
  ---------------------------------------------------
  free energy    TOTEN  =       -56.72160852 eV

  energy without entropy =      -56.70188900  energy(sigma->0) =      -56.71503534


--------------------------------------------------------------------------------------------------------




--------------------------------------- Iteration      1(   7)  ---------------------------------------


    POTLOK:  cpu time    2.5492: real time    2.5545
    SETDIJ:  cpu time    0.0273: real time    0.0273
     EDDAV:  cpu time    7.9076: real time    7.9175
       DOS:  cpu time    0.0072: real time    0.0072
    CHARGE:  cpu time    0.7406: real time    0.7414
    MIXING:  cpu time    0.0566: real time    0.0567
    --------------------------------------------
      LOOP:  cpu time   11.2885: real time   11.3046

 eigenvalue-minimisations  :   330
 total energy-change (2. order) : 0.1735703E+02  (-0.6273688E+01)
 number of electron     100.0000051 magnetization       9.5770825
 augmentation part       54.7756226 magnetization       7.1942701

 Broyden mixing:
  rms(total) = 0.28423E+01    rms(broyden)= 0.28419E+01
  rms(prec ) = 0.29775E+01
  weight for this iteration     100.00

 eigenvalues of (default mixing * dielectric matrix)
  average eigenvalue GAMMA=   0.2441
  0.2441  0.2441

 Free energy of the ion-electron system (eV)
  ---------------------------------------------------
  alpha Z        PSCENC =         4.75925485
  Ewald energy   TEWEN  =     13074.81756665
  -Hartree energ DENC   =    -22032.07336782
  -exchange      EXHF   =         0.00000000
  -V(xc)+E(xc)   XCENC  =        61.21237517
  PAW double counting   =      9640.48400026    -9791.28976652
  entropy T*S    EENTRO =        -0.03739988
  eigenvalues    EBANDS =      -702.19583287
  atomic energy  EATOM  =      9704.95859309
  Solvation  Ediel_sol  =         0.00000000
  ---------------------------------------------------
  free energy    TOTEN  =       -39.36457708 eV

  energy without entropy =      -39.32717720  energy(sigma->0) =      -39.35211045


--------------------------------------------------------------------------------------------------------




--------------------------------------- Iteration      1(   8)  ---------------------------------------


    POTLOK:  cpu time    2.5935: real time    2.6010
    SETDIJ:  cpu time    0.0286: real time    0.0286
     EDDAV:  cpu time    8.1114: real time    8.1241
       DOS:  cpu time    0.0079: real time    0.0079
    CHARGE:  cpu time    0.7465: real time    0.7473
    MIXING:  cpu time    0.0519: real time    0.0520
    --------------------------------------------
      LOOP:  cpu time   11.5398: real time   11.5608

 eigenvalue-minimisations  :   342
 total energy-change (2. order) : 0.6095226E+00  (-0.3036769E+01)
 number of electron     100.0000038 magnetization       9.4547846
 augmentation part       55.2942980 magnetization       7.3286092

 Broyden mixing:
  rms(total) = 0.30523E+01    rms(broyden)= 0.30516E+01
  rms(prec ) = 0.31950E+01
  weight for this iteration     100.00

 eigenvalues of (default mixing * dielectric matrix)
  average eigenvalue GAMMA=   0.3276
  0.5745  0.2434  0.1650

 Free energy of the ion-electron system (eV)
  ---------------------------------------------------
  alpha Z        PSCENC =         4.75925485
  Ewald energy   TEWEN  =     13074.81756665
  -Hartree energ DENC   =    -22031.08708282
  -exchange      EXHF   =         0.00000000
  -V(xc)+E(xc)   XCENC  =        61.30626165
  PAW double counting   =      9706.62701506    -9857.10723072
  entropy T*S    EENTRO =        -0.04427151
  eigenvalues    EBANDS =      -702.98516068
  atomic energy  EATOM  =      9704.95859309
  Solvation  Ediel_sol  =         0.00000000
  ---------------------------------------------------
  free energy    TOTEN  =       -38.75505443 eV

  energy without entropy =      -38.71078292  energy(sigma->0) =      -38.74029726


--------------------------------------------------------------------------------------------------------




--------------------------------------- Iteration      1(   9)  ---------------------------------------


    POTLOK:  cpu time    2.5812: real time    2.5885
    SETDIJ:  cpu time    0.0285: real time    0.0285
     EDDAV:  cpu time    8.3924: real time    8.4058
       DOS:  cpu time    0.0069: real time    0.0070
    CHARGE:  cpu time    0.7331: real time    0.7339
    MIXING:  cpu time    0.0559: real time    0.0559
    --------------------------------------------
      LOOP:  cpu time   11.7980: real time   11.8196

 eigenvalue-minimisations  :   356
 total energy-change (2. order) :-0.1993637E+01  (-0.3262282E+01)
 number of electron      99.9999994 magnetization       9.3446318
 augmentation part       54.4538229 magnetization       7.7866784

 Broyden mixing:
  rms(total) = 0.45293E+01    rms(broyden)= 0.45290E+01
  rms(prec ) = 0.48696E+01
  weight for this iteration     100.00

 eigenvalues of (default mixing * dielectric matrix)
  average eigenvalue GAMMA=   0.3539
  0.8706  0.2653  0.1398  0.1398

 Free energy of the ion-electron system (eV)
  ---------------------------------------------------
  alpha Z        PSCENC =         4.75925485
  Ewald energy   TEWEN  =     13074.81756665
  -Hartree energ DENC   =    -22065.36431018
  -exchange      EXHF   =         0.00000000
  -V(xc)+E(xc)   XCENC  =        62.40994733
  PAW double counting   =      9878.61335553   -10036.16498521
  entropy T*S    EENTRO =        -0.03987468
  eigenvalues    EBANDS =      -664.73823895
  atomic energy  EATOM  =      9704.95859309
  Solvation  Ediel_sol  =         0.00000000
  ---------------------------------------------------
  free energy    TOTEN  =       -40.74869156 eV

  energy without entropy =      -40.70881689  energy(sigma->0) =      -40.73540000


--------------------------------------------------------------------------------------------------------




--------------------------------------- Iteration      1(  10)  ---------------------------------------


    POTLOK:  cpu time    2.5626: real time    2.5671
    SETDIJ:  cpu time    0.0287: real time    0.0287
     EDDAV:  cpu time    8.3843: real time    8.3925
       DOS:  cpu time    0.0071: real time    0.0071
    CHARGE:  cpu time    0.7442: real time    0.7450
    MIXING:  cpu time    0.0649: real time    0.0650
    --------------------------------------------
      LOOP:  cpu time   11.7917: real time   11.8053

 eigenvalue-minimisations  :   356
 total energy-change (2. order) : 0.3566012E+01  (-0.2781592E+01)
 number of electron     100.0000041 magnetization       9.3062283
 augmentation part       54.4161695 magnetization       7.1376162

 Broyden mixing:
  rms(total) = 0.25507E+01    rms(broyden)= 0.25499E+01
  rms(prec ) = 0.27159E+01
  weight for this iteration     100.00

 eigenvalues of (default mixing * dielectric matrix)
  average eigenvalue GAMMA=   0.3078
  0.8871  0.2861  0.1462  0.1462  0.0733

 Free energy of the ion-electron system (eV)
  ---------------------------------------------------
  alpha Z        PSCENC =         4.75925485
  Ewald energy   TEWEN  =     13074.81756665
  -Hartree energ DENC   =    -22078.73953335
  -exchange      EXHF   =         0.00000000
  -V(xc)+E(xc)   XCENC  =        62.81310266
  PAW double counting   =      9970.30049266   -10130.58361349
  entropy T*S    EENTRO =        -0.04855375
  eigenvalues    EBANDS =      -645.45998869
  atomic energy  EATOM  =      9704.95859309
  Solvation  Ediel_sol  =         0.00000000
  ---------------------------------------------------
  free energy    TOTEN  =       -37.18267937 eV

  energy without entropy =      -37.13412562  energy(sigma->0) =      -37.16649479


--------------------------------------------------------------------------------------------------------




--------------------------------------- Iteration      1(  11)  ---------------------------------------


    POTLOK:  cpu time    2.5847: real time    2.5922
    SETDIJ:  cpu time    0.0282: real time    0.0282
     EDDAV:  cpu time    8.3243: real time    8.3328
       DOS:  cpu time    0.0084: real time    0.0084
    CHARGE:  cpu time    0.7336: real time    0.7343
    MIXING:  cpu time    0.0742: real time    0.0742
    --------------------------------------------
      LOOP:  cpu time   11.7534: real time   11.7701

 eigenvalue-minimisations  :   356
 total energy-change (2. order) : 0.7783778E+00  (-0.9103959E+00)
 number of electron     100.0000053 magnetization       9.1929891
 augmentation part       54.4132214 magnetization       7.1203660

 Broyden mixing:
  rms(total) = 0.18167E+01    rms(broyden)= 0.18161E+01
  rms(prec ) = 0.19148E+01
  weight for this iteration     100.00

 eigenvalues of (default mixing * dielectric matrix)
  average eigenvalue GAMMA=   0.3438
  0.9954  0.4929  0.2374  0.1273  0.1048  0.1048

 Free energy of the ion-electron system (eV)
  ---------------------------------------------------
  alpha Z        PSCENC =         4.75925485
  Ewald energy   TEWEN  =     13074.81756665
  -Hartree energ DENC   =    -22080.59997218
  -exchange      EXHF   =         0.00000000
  -V(xc)+E(xc)   XCENC  =        62.74896623
  PAW double counting   =      9999.59179746   -10160.36675902
  entropy T*S    EENTRO =        -0.07932027
  eigenvalues    EBANDS =      -642.23442842
  atomic energy  EATOM  =      9704.95859309
  Solvation  Ediel_sol  =         0.00000000
  ---------------------------------------------------
  free energy    TOTEN  =       -36.40430160 eV

  energy without entropy =      -36.32498133  energy(sigma->0) =      -36.37786151


--------------------------------------------------------------------------------------------------------




--------------------------------------- Iteration      1(  12)  ---------------------------------------


    POTLOK:  cpu time    2.5700: real time    2.5771
    SETDIJ:  cpu time    0.0285: real time    0.0286
     EDDAV:  cpu time    8.4103: real time    8.4192
       DOS:  cpu time    0.0080: real time    0.0080
    CHARGE:  cpu time    0.7702: real time    0.7709
    MIXING:  cpu time    0.0719: real time    0.0720
    --------------------------------------------
      LOOP:  cpu time   11.8589: real time   11.8757

 eigenvalue-minimisations  :   364
 total energy-change (2. order) : 0.9114861E+00  (-0.4223483E+00)
 number of electron     100.0000036 magnetization       9.1401832
 augmentation part       54.4444658 magnetization       6.9835269

 Broyden mixing:
  rms(total) = 0.17662E+01    rms(broyden)= 0.17656E+01
  rms(prec ) = 0.18854E+01
  weight for this iteration     100.00

 eigenvalues of (default mixing * dielectric matrix)
  average eigenvalue GAMMA=   0.3323
  1.0693  0.5155  0.2340  0.1821  0.1220  0.1220  0.0815

 Free energy of the ion-electron system (eV)
  ---------------------------------------------------
  alpha Z        PSCENC =         4.75925485
  Ewald energy   TEWEN  =     13074.81756665
  -Hartree energ DENC   =    -22086.79721130
  -exchange      EXHF   =         0.00000000
  -V(xc)+E(xc)   XCENC  =        62.82951062
  PAW double counting   =     10070.63930364   -10233.04223459
  entropy T*S    EENTRO =        -0.01967491
  eigenvalues    EBANDS =      -633.63792353
  atomic energy  EATOM  =      9704.95859309
  Solvation  Ediel_sol  =         0.00000000
  ---------------------------------------------------
  free energy    TOTEN  =       -35.49281548 eV

  energy without entropy =      -35.47314058  energy(sigma->0) =      -35.48625718


--------------------------------------------------------------------------------------------------------




--------------------------------------- Iteration      1(  13)  ---------------------------------------


    POTLOK:  cpu time    2.5865: real time    2.5979
    SETDIJ:  cpu time    0.0284: real time    0.0285
     EDDAV:  cpu time    7.6985: real time    7.7063
       DOS:  cpu time    0.0084: real time    0.0084
    CHARGE:  cpu time    0.7322: real time    0.7329
    MIXING:  cpu time    0.0746: real time    0.0746
    --------------------------------------------
      LOOP:  cpu time   11.1287: real time   11.1486

 eigenvalue-minimisations  :   318
 total energy-change (2. order) :-0.2987374E+00  (-0.4773136E+00)
 number of electron     100.0000060 magnetization       9.0164142
 augmentation part       54.3629468 magnetization       6.6639539

 Broyden mixing:
  rms(total) = 0.24733E+01    rms(broyden)= 0.24727E+01
  rms(prec ) = 0.26031E+01
  weight for this iteration     100.00

 eigenvalues of (default mixing * dielectric matrix)
  average eigenvalue GAMMA=   0.3712
  1.2699  0.5651  0.4935  0.2449  0.1212  0.1212  0.0966  0.0575

 Free energy of the ion-electron system (eV)
  ---------------------------------------------------
  alpha Z        PSCENC =         4.75925485
  Ewald energy   TEWEN  =     13074.81756665
  -Hartree energ DENC   =    -22089.64429563
  -exchange      EXHF   =         0.00000000
  -V(xc)+E(xc)   XCENC  =        62.86320520
  PAW double counting   =     10094.75439457   -10257.77371205
  entropy T*S    EENTRO =        -0.00899775
  eigenvalues    EBANDS =      -630.51756182
  atomic energy  EATOM  =      9704.95859309
  Solvation  Ediel_sol  =         0.00000000
  ---------------------------------------------------
  free energy    TOTEN  =       -35.79155290 eV

  energy without entropy =      -35.78255515  energy(sigma->0) =      -35.78855365


--------------------------------------------------------------------------------------------------------




--------------------------------------- Iteration      1(  14)  ---------------------------------------


    POTLOK:  cpu time    2.5583: real time    2.5666
    SETDIJ:  cpu time    0.0281: real time    0.0281
     EDDAV:  cpu time    7.5923: real time    7.6002
       DOS:  cpu time    0.0075: real time    0.0075
    CHARGE:  cpu time    0.7596: real time    0.7603
    MIXING:  cpu time    0.0956: real time    0.0957
    --------------------------------------------
      LOOP:  cpu time   11.0414: real time   11.0584

 eigenvalue-minimisations  :   310
 total energy-change (2. order) : 0.4862700E+00  (-0.3315877E+00)
 number of electron     100.0000045 magnetization       8.9674573
 augmentation part       54.5282723 magnetization       6.9014228

 Broyden mixing:
  rms(total) = 0.11535E+01    rms(broyden)= 0.11526E+01
  rms(prec ) = 0.12255E+01
  weight for this iteration     100.00

 eigenvalues of (default mixing * dielectric matrix)
  average eigenvalue GAMMA=   0.3675
  1.3092  0.5758  0.5758  0.2283  0.2283  0.1158  0.1158  0.1015  0.0571

 Free energy of the ion-electron system (eV)
  ---------------------------------------------------
  alpha Z        PSCENC =         4.75925485
  Ewald energy   TEWEN  =     13074.81756665
  -Hartree energ DENC   =    -22094.39425490
  -exchange      EXHF   =         0.00000000
  -V(xc)+E(xc)   XCENC  =        62.71364990
  PAW double counting   =     10142.13776575   -10306.01564916
  entropy T*S    EENTRO =        -0.02805957
  eigenvalues    EBANDS =      -624.25414949
  atomic energy  EATOM  =      9704.95859309
  Solvation  Ediel_sol  =         0.00000000
  ---------------------------------------------------
  free energy    TOTEN  =       -35.30528288 eV

  energy without entropy =      -35.27722331  energy(sigma->0) =      -35.29592969


--------------------------------------------------------------------------------------------------------




--------------------------------------- Iteration      1(  15)  ---------------------------------------


    POTLOK:  cpu time    2.5800: real time    2.5959
    SETDIJ:  cpu time    0.0276: real time    0.0277
     EDDAV:  cpu time    8.7496: real time    8.7604
       DOS:  cpu time    0.0081: real time    0.0081
    CHARGE:  cpu time    0.7604: real time    0.7610
    MIXING:  cpu time    0.0927: real time    0.0928
    --------------------------------------------
      LOOP:  cpu time   12.2183: real time   12.2458

 eigenvalue-minimisations  :   384
 total energy-change (2. order) :-0.5777187E-02  (-0.1157732E+00)
 number of electron     100.0000046 magnetization       8.9342913
 augmentation part       54.4157475 magnetization       6.7538000

 Broyden mixing:
  rms(total) = 0.10935E+01    rms(broyden)= 0.10933E+01
  rms(prec ) = 0.11563E+01
  weight for this iteration     100.00

 eigenvalues of (default mixing * dielectric matrix)
  average eigenvalue GAMMA=   0.3627
  1.3523  0.6236  0.6236  0.2656  0.2656  0.1188  0.1188  0.1009  0.1009  0.0571

 Free energy of the ion-electron system (eV)
  ---------------------------------------------------
  alpha Z        PSCENC =         4.75925485
  Ewald energy   TEWEN  =     13074.81756665
  -Hartree energ DENC   =    -22097.81597076
  -exchange      EXHF   =         0.00000000
  -V(xc)+E(xc)   XCENC  =        62.64438358
  PAW double counting   =     10152.77014291   -10317.18269171
  entropy T*S    EENTRO =        -0.01700385
  eigenvalues    EBANDS =      -620.24533483
  atomic energy  EATOM  =      9704.95859309
  Solvation  Ediel_sol  =         0.00000000
  ---------------------------------------------------
  free energy    TOTEN  =       -35.31106007 eV

  energy without entropy =      -35.29405622  energy(sigma->0) =      -35.30539212


--------------------------------------------------------------------------------------------------------




--------------------------------------- Iteration      1(  16)  ---------------------------------------


    POTLOK:  cpu time    2.5994: real time    2.6022
    SETDIJ:  cpu time    0.0280: real time    0.0280
     EDDAV:  cpu time    8.6841: real time    8.6935
       DOS:  cpu time    0.0023: real time    0.0023
    CHARGE:  cpu time    0.7251: real time    0.7257
    MIXING:  cpu time    0.0975: real time    0.0976
    --------------------------------------------
      LOOP:  cpu time   12.1363: real time   12.1493

 eigenvalue-minimisations  :   376
 total energy-change (2. order) : 0.4813275E-01  (-0.5750981E-01)
 number of electron     100.0000042 magnetization       8.9345261
 augmentation part       54.3013604 magnetization       6.7275047

 Broyden mixing:
  rms(total) = 0.64895E+00    rms(broyden)= 0.64879E+00
  rms(prec ) = 0.67614E+00
  weight for this iteration     100.00

 eigenvalues of (default mixing * dielectric matrix)
  average eigenvalue GAMMA=   0.3746
  1.4123  0.5554  0.5554  0.4369  0.4369  0.2343  0.1180  0.1180  0.1000  0.0969
  0.0571

 Free energy of the ion-electron system (eV)
  ---------------------------------------------------
  alpha Z        PSCENC =         4.75925485
  Ewald energy   TEWEN  =     13074.81756665
  -Hartree energ DENC   =    -22100.37084807
  -exchange      EXHF   =         0.00000000
  -V(xc)+E(xc)   XCENC  =        62.59381132
  PAW double counting   =     10158.62952891   -10323.37084654
  entropy T*S    EENTRO =        -0.02703057
  eigenvalues    EBANDS =      -617.25295695
  atomic energy  EATOM  =      9704.95859309
  Solvation  Ediel_sol  =         0.00000000
  ---------------------------------------------------
  free energy    TOTEN  =       -35.26292732 eV

  energy without entropy =      -35.23589675  energy(sigma->0) =      -35.25391713


--------------------------------------------------------------------------------------------------------




--------------------------------------- Iteration      1(  17)  ---------------------------------------


    POTLOK:  cpu time    2.5762: real time    2.5834
    SETDIJ:  cpu time    0.0280: real time    0.0280
     EDDAV:  cpu time    7.6109: real time    7.6211
       DOS:  cpu time    0.0019: real time    0.0019
    CHARGE:  cpu time    0.7108: real time    0.7115
    MIXING:  cpu time    0.1044: real time    0.1045
    --------------------------------------------
      LOOP:  cpu time   11.0323: real time   11.0504

 eigenvalue-minimisations  :   316
 total energy-change (2. order) :-0.2653156E+00  (-0.2100957E-01)
 number of electron     100.0000043 magnetization       8.8509521
 augmentation part       54.3573839 magnetization       6.7295052

 Broyden mixing:
  rms(total) = 0.44713E+00    rms(broyden)= 0.44695E+00
  rms(prec ) = 0.46938E+00
  weight for this iteration     100.00

 eigenvalues of (default mixing * dielectric matrix)
  average eigenvalue GAMMA=   0.4558
  1.5255  0.8885  0.8885  0.4746  0.4746  0.4844  0.2424  0.1179  0.1179  0.0991
  0.0991  0.0571

 Free energy of the ion-electron system (eV)
  ---------------------------------------------------
  alpha Z        PSCENC =         4.75925485
  Ewald energy   TEWEN  =     13074.81756665
  -Hartree energ DENC   =    -22098.37133386
  -exchange      EXHF   =         0.00000000
  -V(xc)+E(xc)   XCENC  =        62.31475290
  PAW double counting   =     10158.04101828   -10322.58641171
  entropy T*S    EENTRO =        -0.03355779
  eigenvalues    EBANDS =      -619.42812536
  atomic energy  EATOM  =      9704.95859309
  Solvation  Ediel_sol  =         0.00000000
  ---------------------------------------------------
  free energy    TOTEN  =       -35.52824296 eV

  energy without entropy =      -35.49468517  energy(sigma->0) =      -35.51705703


--------------------------------------------------------------------------------------------------------




--------------------------------------- Iteration      1(  18)  ---------------------------------------


    POTLOK:  cpu time    2.5608: real time    2.5662
    SETDIJ:  cpu time    0.0270: real time    0.0271
     EDDAV:  cpu time    8.1316: real time    8.1404
       DOS:  cpu time    0.0051: real time    0.0051
    CHARGE:  cpu time    0.7423: real time    0.7429
    MIXING:  cpu time    0.1149: real time    0.1150
    --------------------------------------------
      LOOP:  cpu time   11.5818: real time   11.5967

 eigenvalue-minimisations  :   338
 total energy-change (2. order) :-0.6154350E+00  (-0.3480725E-01)
 number of electron     100.0000043 magnetization       8.7264403
 augmentation part       54.5148389 magnetization       6.7958997

 Broyden mixing:
  rms(total) = 0.42735E+00    rms(broyden)= 0.42703E+00
  rms(prec ) = 0.45215E+00
  weight for this iteration     100.00

 eigenvalues of (default mixing * dielectric matrix)
  average eigenvalue GAMMA=   0.4880
  1.4572  1.0271  0.7845  0.7845  0.6751  0.4416  0.4416  0.2417  0.1179  0.1179
  0.0991  0.0991  0.0571

 Free energy of the ion-electron system (eV)
  ---------------------------------------------------
  alpha Z        PSCENC =         4.75925485
  Ewald energy   TEWEN  =     13074.81756665
  -Hartree energ DENC   =    -22098.55768218
  -exchange      EXHF   =         0.00000000
  -V(xc)+E(xc)   XCENC  =        61.78155783
  PAW double counting   =     10160.05743791   -10324.25633441
  entropy T*S    EENTRO =        -0.03324163
  eigenvalues    EBANDS =      -619.67083007
  atomic energy  EATOM  =      9704.95859309
  Solvation  Ediel_sol  =         0.00000000
  ---------------------------------------------------
  free energy    TOTEN  =       -36.14367797 eV

  energy without entropy =      -36.11043634  energy(sigma->0) =      -36.13259743


--------------------------------------------------------------------------------------------------------




--------------------------------------- Iteration      1(  19)  ---------------------------------------


    POTLOK:  cpu time    2.6108: real time    2.6130
    SETDIJ:  cpu time    0.0296: real time    0.0296
     EDDAV:  cpu time    8.7071: real time    8.7175
       DOS:  cpu time    0.0052: real time    0.0052
    CHARGE:  cpu time    0.7392: real time    0.7398
    MIXING:  cpu time    0.1189: real time    0.1190
    --------------------------------------------
      LOOP:  cpu time   12.2108: real time   12.2242

 eigenvalue-minimisations  :   372
 total energy-change (2. order) :-0.3583978E+00  (-0.1874262E-01)
 number of electron     100.0000039 magnetization       8.6915052
 augmentation part       54.4444660 magnetization       6.7301439

 Broyden mixing:
  rms(total) = 0.20584E+00    rms(broyden)= 0.20527E+00
  rms(prec ) = 0.21190E+00
  weight for this iteration     100.00

 eigenvalues of (default mixing * dielectric matrix)
  average eigenvalue GAMMA=   0.4861
  1.4245  0.8496  0.8496  0.8199  0.8199  0.4500  0.4500  0.4087  0.2420  0.1179
  0.1179  0.0991  0.0991  0.0571

 Free energy of the ion-electron system (eV)
  ---------------------------------------------------
  alpha Z        PSCENC =         4.75925485
  Ewald energy   TEWEN  =     13074.81756665
  -Hartree energ DENC   =    -22104.14652962
  -exchange      EXHF   =         0.00000000
  -V(xc)+E(xc)   XCENC  =        61.55314611
  PAW double counting   =     10160.68227844   -10325.15049012
  entropy T*S    EENTRO =        -0.03505895
  eigenvalues    EBANDS =      -613.94083624
  atomic energy  EATOM  =      9704.95859309
  Solvation  Ediel_sol  =         0.00000000
  ---------------------------------------------------
  free energy    TOTEN  =       -36.50207579 eV

  energy without entropy =      -36.46701684  energy(sigma->0) =      -36.49038947


--------------------------------------------------------------------------------------------------------




--------------------------------------- Iteration      1(  20)  ---------------------------------------


    POTLOK:  cpu time    2.5704: real time    2.5858
    SETDIJ:  cpu time    0.0282: real time    0.0282
     EDDAV:  cpu time    7.4280: real time    7.4388
       DOS:  cpu time    0.0048: real time    0.0048
    CHARGE:  cpu time    0.7598: real time    0.7605
    MIXING:  cpu time    0.1389: real time    0.1390
    --------------------------------------------
      LOOP:  cpu time   10.9300: real time   10.9570

 eigenvalue-minimisations  :   302
 total energy-change (2. order) :-0.1453070E+00  (-0.3561181E-02)
 number of electron     100.0000038 magnetization       8.6130023
 augmentation part       54.4390098 magnetization       6.6762996

 Broyden mixing:
  rms(total) = 0.18291E+00    rms(broyden)= 0.18280E+00
  rms(prec ) = 0.19066E+00
  weight for this iteration     100.00

 eigenvalues of (default mixing * dielectric matrix)
  average eigenvalue GAMMA=   0.5683
  1.5366  1.3212  1.3212  0.7351  0.7351  0.5966  0.5966  0.4747  0.4747  0.2419
  0.1179  0.1179  0.0991  0.0991  0.0571

 Free energy of the ion-electron system (eV)
  ---------------------------------------------------
  alpha Z        PSCENC =         4.75925485
  Ewald energy   TEWEN  =     13074.81756665
  -Hartree energ DENC   =    -22105.50610572
  -exchange      EXHF   =         0.00000000
  -V(xc)+E(xc)   XCENC  =        61.45103832
  PAW double counting   =     10159.57647314   -10324.11737444
  entropy T*S    EENTRO =        -0.03524223
  eigenvalues    EBANDS =      -612.55158644
  atomic energy  EATOM  =      9704.95859309
  Solvation  Ediel_sol  =         0.00000000
  ---------------------------------------------------
  free energy    TOTEN  =       -36.64738279 eV

  energy without entropy =      -36.61214055  energy(sigma->0) =      -36.63563538


--------------------------------------------------------------------------------------------------------




--------------------------------------- Iteration      1(  21)  ---------------------------------------


    POTLOK:  cpu time    2.5669: real time    2.5753
    SETDIJ:  cpu time    0.0280: real time    0.0280
     EDDAV:  cpu time    8.1677: real time    8.1782
       DOS:  cpu time    0.0128: real time    0.0129
    CHARGE:  cpu time    0.7309: real time    0.7316
    MIXING:  cpu time    0.1464: real time    0.1466
    --------------------------------------------
      LOOP:  cpu time   11.6529: real time   11.6726

 eigenvalue-minimisations  :   342
 total energy-change (2. order) :-0.2697755E+00  (-0.4913705E-02)
 number of electron     100.0000039 magnetization       8.5367269
 augmentation part       54.4381983 magnetization       6.6502470

 Broyden mixing:
  rms(total) = 0.14536E+00    rms(broyden)= 0.14530E+00
  rms(prec ) = 0.14994E+00
  weight for this iteration     100.00

 eigenvalues of (default mixing * dielectric matrix)
  average eigenvalue GAMMA=   0.5797
  1.9739  0.9004  0.9004  0.9902  0.9902  0.6875  0.6875  0.4646  0.4646  0.4831
  0.2419  0.1179  0.1179  0.0991  0.0991  0.0571

 Free energy of the ion-electron system (eV)
  ---------------------------------------------------
  alpha Z        PSCENC =         4.75925485
  Ewald energy   TEWEN  =     13074.81756665
  -Hartree energ DENC   =    -22108.24635799
  -exchange      EXHF   =         0.00000000
  -V(xc)+E(xc)   XCENC  =        61.25204183
  PAW double counting   =     10157.34356650   -10321.96260208
  entropy T*S    EENTRO =        -0.02845865
  eigenvalues    EBANDS =      -609.81076247
  atomic energy  EATOM  =      9704.95859309
  Solvation  Ediel_sol  =         0.00000000
  ---------------------------------------------------
  free energy    TOTEN  =       -36.91715827 eV

  energy without entropy =      -36.88869963  energy(sigma->0) =      -36.90767206


--------------------------------------------------------------------------------------------------------




--------------------------------------- Iteration      1(  22)  ---------------------------------------


    POTLOK:  cpu time    2.5754: real time    2.5833
    SETDIJ:  cpu time    0.0283: real time    0.0283
     EDDAV:  cpu time    8.1592: real time    8.1742
       DOS:  cpu time    0.0124: real time    0.0124
    CHARGE:  cpu time    0.7169: real time    0.7176
    MIXING:  cpu time    0.1558: real time    0.1559
    --------------------------------------------
      LOOP:  cpu time   11.6479: real time   11.6717

 eigenvalue-minimisations  :   348
 total energy-change (2. order) :-0.1684519E+00  (-0.2338112E-02)
 number of electron     100.0000039 magnetization       8.4571864
 augmentation part       54.4566232 magnetization       6.5874536

 Broyden mixing:
  rms(total) = 0.14125E+00    rms(broyden)= 0.14121E+00
  rms(prec ) = 0.14631E+00
  weight for this iteration     100.00

 eigenvalues of (default mixing * dielectric matrix)
  average eigenvalue GAMMA=   0.6335
  2.3188  1.4185  1.0956  1.0956  0.6590  0.6590  0.6937  0.6937  0.4662  0.4662
  0.4696  0.2419  0.1179  0.1179  0.0991  0.0991  0.0571

 Free energy of the ion-electron system (eV)
  ---------------------------------------------------
  alpha Z        PSCENC =         4.75925485
  Ewald energy   TEWEN  =     13074.81756665
  -Hartree energ DENC   =    -22110.73827627
  -exchange      EXHF   =         0.00000000
  -V(xc)+E(xc)   XCENC  =        61.11111647
  PAW double counting   =     10157.26863086   -10321.91875978
  entropy T*S    EENTRO =        -0.03158216
  eigenvalues    EBANDS =      -607.31215383
  atomic energy  EATOM  =      9704.95859309
  Solvation  Ediel_sol  =         0.00000000
  ---------------------------------------------------
  free energy    TOTEN  =       -37.08561013 eV

  energy without entropy =      -37.05402797  energy(sigma->0) =      -37.07508275


--------------------------------------------------------------------------------------------------------




--------------------------------------- Iteration      1(  23)  ---------------------------------------


    POTLOK:  cpu time    2.5672: real time    2.5727
    SETDIJ:  cpu time    0.0287: real time    0.0287
     EDDAV:  cpu time    7.7018: real time    7.7090
       DOS:  cpu time    0.0123: real time    0.0124
    CHARGE:  cpu time    0.7268: real time    0.7274
    MIXING:  cpu time    0.1648: real time    0.1649
    --------------------------------------------
      LOOP:  cpu time   11.2015: real time   11.2151

 eigenvalue-minimisations  :   324
 total energy-change (2. order) :-0.1413543E+00  (-0.1190270E-02)
 number of electron     100.0000039 magnetization       8.3906482
 augmentation part       54.4345757 magnetization       6.5001595

 Broyden mixing:
  rms(total) = 0.69978E-01    rms(broyden)= 0.69956E-01
  rms(prec ) = 0.73309E-01
  weight for this iteration     100.00

 eigenvalues of (default mixing * dielectric matrix)
  average eigenvalue GAMMA=   0.6677
  2.4465  1.5912  1.1723  1.1723  0.6794  0.6794  0.7747  0.7747  0.6107  0.4634
  0.4634  0.4571  0.2419  0.1179  0.1179  0.0991  0.0991  0.0571

 Free energy of the ion-electron system (eV)
  ---------------------------------------------------
  alpha Z        PSCENC =         4.75925485
  Ewald energy   TEWEN  =     13074.81756665
  -Hartree energ DENC   =    -22113.66873411
  -exchange      EXHF   =         0.00000000
  -V(xc)+E(xc)   XCENC  =        61.00476821
  PAW double counting   =     10156.04305012   -10320.82482835
  entropy T*S    EENTRO =        -0.03283516
  eigenvalues    EBANDS =      -604.28379972
  atomic energy  EATOM  =      9704.95859309
  Solvation  Ediel_sol  =         0.00000000
  ---------------------------------------------------
  free energy    TOTEN  =       -37.22696443 eV

  energy without entropy =      -37.19412927  energy(sigma->0) =      -37.21601938


--------------------------------------------------------------------------------------------------------




--------------------------------------- Iteration      1(  24)  ---------------------------------------


    POTLOK:  cpu time    2.5528: real time    2.5582
    SETDIJ:  cpu time    0.0274: real time    0.0274
     EDDAV:  cpu time    7.8938: real time    7.9036
       DOS:  cpu time    0.0126: real time    0.0126
    CHARGE:  cpu time    0.7457: real time    0.7465
    MIXING:  cpu time    0.1848: real time    0.1850
    --------------------------------------------
      LOOP:  cpu time   11.4170: real time   11.4332

 eigenvalue-minimisations  :   332
 total energy-change (2. order) :-0.1246561E+00  (-0.7060111E-03)
 number of electron     100.0000039 magnetization       8.3421027
 augmentation part       54.4263762 magnetization       6.4449431

 Broyden mixing:
  rms(total) = 0.42673E-01    rms(broyden)= 0.42636E-01
  rms(prec ) = 0.45166E-01
  weight for this iteration     100.00

 eigenvalues of (default mixing * dielectric matrix)
  average eigenvalue GAMMA=   0.6875
  2.5131  1.6456  1.2140  1.2140  0.8843  0.8843  0.6759  0.6759  0.6163  0.6163
  0.4652  0.4652  0.4601  0.2419  0.1179  0.1179  0.0991  0.0991  0.0571

 Free energy of the ion-electron system (eV)
  ---------------------------------------------------
  alpha Z        PSCENC =         4.75925485
  Ewald energy   TEWEN  =     13074.81756665
  -Hartree energ DENC   =    -22115.44691956
  -exchange      EXHF   =         0.00000000
  -V(xc)+E(xc)   XCENC  =        60.89336016
  PAW double counting   =     10153.03881027   -10317.83812964
  entropy T*S    EENTRO =        -0.03287401
  eigenvalues    EBANDS =      -602.50128232
  atomic energy  EATOM  =      9704.95859309
  Solvation  Ediel_sol  =         0.00000000
  ---------------------------------------------------
  free energy    TOTEN  =       -37.35162051 eV

  energy without entropy =      -37.31874650  energy(sigma->0) =      -37.34066251


--------------------------------------------------------------------------------------------------------




--------------------------------------- Iteration      1(  25)  ---------------------------------------


    POTLOK:  cpu time    2.5584: real time    2.5641
    SETDIJ:  cpu time    0.0286: real time    0.0286
     EDDAV:  cpu time    8.0981: real time    8.1059
       DOS:  cpu time    0.0120: real time    0.0120
    CHARGE:  cpu time    0.7394: real time    0.7401
    MIXING:  cpu time    0.1932: real time    0.1935
    --------------------------------------------
      LOOP:  cpu time   11.6297: real time   11.6442

 eigenvalue-minimisations  :   346
 total energy-change (2. order) :-0.8273925E-01  (-0.1990062E-03)
 number of electron     100.0000039 magnetization       8.2885656
 augmentation part       54.4235556 magnetization       6.3893628

 Broyden mixing:
  rms(total) = 0.34800E-01    rms(broyden)= 0.34773E-01
  rms(prec ) = 0.36948E-01
  weight for this iteration     100.00

 eigenvalues of (default mixing * dielectric matrix)
  average eigenvalue GAMMA=   0.7092
  2.5829  1.8403  1.1788  1.1788  1.0146  1.0146  0.6752  0.6752  0.6785  0.6785
  0.4640  0.4640  0.5428  0.4632  0.2419  0.1179  0.1179  0.0991  0.0991  0.0571

 Free energy of the ion-electron system (eV)
  ---------------------------------------------------
  alpha Z        PSCENC =         4.75925485
  Ewald energy   TEWEN  =     13074.81756665
  -Hartree energ DENC   =    -22116.52046718
  -exchange      EXHF   =         0.00000000
  -V(xc)+E(xc)   XCENC  =        60.81638263
  PAW double counting   =     10151.17288011   -10315.95931641
  entropy T*S    EENTRO =        -0.03327107
  eigenvalues    EBANDS =      -601.44598243
  atomic energy  EATOM  =      9704.95859309
  Solvation  Ediel_sol  =         0.00000000
  ---------------------------------------------------
  free energy    TOTEN  =       -37.43435976 eV

  energy without entropy =      -37.40108869  energy(sigma->0) =      -37.42326941


--------------------------------------------------------------------------------------------------------




--------------------------------------- Iteration      1(  26)  ---------------------------------------


    POTLOK:  cpu time    2.5712: real time    2.5749
    SETDIJ:  cpu time    0.0277: real time    0.0277
     EDDAV:  cpu time    7.0881: real time    7.0971
       DOS:  cpu time    0.0092: real time    0.0092
    CHARGE:  cpu time    0.7287: real time    0.7293
    MIXING:  cpu time    0.1945: real time    0.1947
    --------------------------------------------
      LOOP:  cpu time   10.6194: real time   10.6330

 eigenvalue-minimisations  :   284
 total energy-change (2. order) :-0.9161536E-01  (-0.1959406E-03)
 number of electron     100.0000039 magnetization       8.2362909
 augmentation part       54.4241955 magnetization       6.3426325

 Broyden mixing:
  rms(total) = 0.30785E-01    rms(broyden)= 0.30766E-01
  rms(prec ) = 0.32481E-01
  weight for this iteration     100.00

 eigenvalues of (default mixing * dielectric matrix)
  average eigenvalue GAMMA=   0.7200
  2.6741  2.0057  1.1705  1.1705  1.0404  1.0404  0.6830  0.6830  0.7322  0.7322
  0.4633  0.4633  0.5754  0.4931  0.4601  0.2419  0.1179  0.1179  0.0991  0.0991
  0.0571

 Free energy of the ion-electron system (eV)
  ---------------------------------------------------
  alpha Z        PSCENC =         4.75925485
  Ewald energy   TEWEN  =     13074.81756665
  -Hartree energ DENC   =    -22117.56151248
  -exchange      EXHF   =         0.00000000
  -V(xc)+E(xc)   XCENC  =        60.73488437
  PAW double counting   =     10148.76158665   -10313.52283827
  entropy T*S    EENTRO =        -0.03332890
  eigenvalues    EBANDS =      -600.44018108
  atomic energy  EATOM  =      9704.95859309
  Solvation  Ediel_sol  =         0.00000000
  ---------------------------------------------------
  free energy    TOTEN  =       -37.52597512 eV

  energy without entropy =      -37.49264622  energy(sigma->0) =      -37.51486549


--------------------------------------------------------------------------------------------------------




--------------------------------------- Iteration      1(  27)  ---------------------------------------


    POTLOK:  cpu time    2.5678: real time    2.5732
    SETDIJ:  cpu time    0.0299: real time    0.0299
     EDDAV:  cpu time    6.4599: real time    6.4657
       DOS:  cpu time    0.0088: real time    0.0088
    CHARGE:  cpu time    0.7101: real time    0.7131
    MIXING:  cpu time    0.2127: real time    0.2129
    --------------------------------------------
      LOOP:  cpu time    9.9892: real time   10.0037

 eigenvalue-minimisations  :   256
 total energy-change (2. order) :-0.8064780E-01  (-0.1596243E-03)
 number of electron     100.0000039 magnetization       8.1777076
 augmentation part       54.4200743 magnetization       6.2878199

 Broyden mixing:
  rms(total) = 0.27443E-01    rms(broyden)= 0.27424E-01
  rms(prec ) = 0.28753E-01
  weight for this iteration     100.00

 eigenvalues of (default mixing * dielectric matrix)
  average eigenvalue GAMMA=   0.7408
  2.6308  2.3064  1.2189  1.2189  0.9810  0.9810  0.8403  0.8403  0.6815  0.6815
  0.7765  0.5787  0.4643  0.4643  0.4600  0.4404  0.2419  0.1179  0.1179  0.0991
  0.0991  0.0571

 Free energy of the ion-electron system (eV)
  ---------------------------------------------------
  alpha Z        PSCENC =         4.75925485
  Ewald energy   TEWEN  =     13074.81756665
  -Hartree energ DENC   =    -22118.57215201
  -exchange      EXHF   =         0.00000000
  -V(xc)+E(xc)   XCENC  =        60.66575268
  PAW double counting   =     10146.70860109   -10311.46121847
  entropy T*S    EENTRO =        -0.03212221
  eigenvalues    EBANDS =      -599.45089859
  atomic energy  EATOM  =      9704.95859309
  Solvation  Ediel_sol  =         0.00000000
  ---------------------------------------------------
  free energy    TOTEN  =       -37.60662292 eV

  energy without entropy =      -37.57450071  energy(sigma->0) =      -37.59591552


--------------------------------------------------------------------------------------------------------




--------------------------------------- Iteration      1(  28)  ---------------------------------------


    POTLOK:  cpu time    2.5810: real time    2.5840
    SETDIJ:  cpu time    0.0282: real time    0.0282
     EDDAV:  cpu time    7.0844: real time    7.0906
       DOS:  cpu time    0.0021: real time    0.0021
    CHARGE:  cpu time    0.7422: real time    0.7429
    MIXING:  cpu time    0.2271: real time    0.2273
    --------------------------------------------
      LOOP:  cpu time   10.6650: real time   10.6752

 eigenvalue-minimisations  :   282
 total energy-change (2. order) :-0.7857615E-01  (-0.1480157E-03)
 number of electron     100.0000039 magnetization       8.1209382
 augmentation part       54.4208675 magnetization       6.2393251

 Broyden mixing:
  rms(total) = 0.12448E-01    rms(broyden)= 0.12416E-01
  rms(prec ) = 0.13204E-01
  weight for this iteration     100.00

 eigenvalues of (default mixing * dielectric matrix)
  average eigenvalue GAMMA=   0.7823
[...]
 total energy-change (2. order) :-0.3275679E-04  (-0.8229530E-04)
 number of electron     100.0000062 magnetization       7.8026123
 augmentation part       54.4230739 magnetization       5.9574670

 Free energy of the ion-electron system (eV)
  ---------------------------------------------------
  alpha Z        PSCENC =         4.75925485
  Ewald energy   TEWEN  =     13069.61737208
  -Hartree energ DENC   =    -22117.59893610
  -exchange      EXHF   =         0.00000000
  -V(xc)+E(xc)   XCENC  =        60.37678289
  PAW double counting   =     10140.94981608   -10305.66817770
  entropy T*S    EENTRO =        -0.03010425
  eigenvalues    EBANDS =      -595.27643907
  atomic energy  EATOM  =      9704.95859309
  Solvation  Ediel_sol  =         0.00000000
  ---------------------------------------------------
  free energy    TOTEN  =       -37.91183814 eV

  energy without entropy =      -37.88173389  energy(sigma->0) =      -37.90180339


--------------------------------------------------------------------------------------------------------




 average (electrostatic) potential at core
  the test charge radii are     0.9791  1.1199
  (the norm of the test charge is              1.0000)
       1 -95.5083       2 -95.2088       3 -95.0492       4 -95.5264       5 -95.1596
       6 -95.2624       7 -83.7081       8 -83.6483       9 -83.6107      10 -83.6730
 
 
 
 E-fermi :  -4.0821     XC(G=0):  -0.3268     alpha+bet : -0.1730


 spin component 1

 k-point     1 :       0.0000    0.0000    0.0000
  band No.  band energies     occupation 
      1      -9.8357      1.00000
      2      -8.4663      1.00000
      3      -8.2982      1.00000
      4      -7.9173      1.00000
      5      -7.8293      1.00000
      6      -7.7535      1.00000
      7      -7.5672      1.00000
      8      -7.5019      1.00000
      9      -7.4738      1.00000
     10      -7.3817      1.00000
     11      -7.3644      1.00000
     12      -7.2226      1.00000
     13      -7.0251      1.00000
     14      -6.9737      1.00000
     15      -6.7824      1.00000
     16      -6.7125      1.00000
     17      -6.6072      1.00000
     18      -6.5678      1.00000
     19      -6.4624      1.00000
     20      -6.4322      1.00000
     21      -6.3737      1.00000
     22      -6.3457      1.00000
     23      -6.2492      1.00000
     24      -6.2166      1.00000
     25      -6.1395      1.00000
     26      -5.9975      1.00000
     27      -5.9190      1.00000
     28      -5.8743      1.00000
     29      -5.7160      1.00000
     30      -5.6474      1.00000
     31      -5.5781      1.00000
     32      -5.5069      1.00000
     33      -5.4372      1.00000
     34      -5.3943      1.00000
     35      -5.3606      1.00000
     36      -5.3447      1.00000
     37      -5.3045      1.00000
     38      -5.2694      1.00000
     39      -5.2152      1.00000
     40      -5.1490      1.00000
     41      -5.1247      1.00000
     42      -5.0939      1.00000
     43      -5.0830      1.00000
     44      -5.0669      1.00000
     45      -5.0205      1.00000
     46      -4.9599      1.00000
     47      -4.9015      1.00000
     48      -4.8956      1.00000
     49      -4.8623      1.00000
     50      -4.8520      1.00000
     51      -4.8013      1.00000
     52      -4.6332      1.00034
     53      -4.6040      1.00070
     54      -4.1946      0.90255
     55      -3.0122     -0.00000
     56      -2.9077     -0.00000
     57      -2.7016     -0.00000
     58      -2.6369     -0.00000
     59      -1.9979     -0.00000
     60      -1.6330     -0.00000
     61      -1.0341     -0.00000
     62      -0.9020     -0.00000
     63      -0.6732     -0.00000
     64      -0.5717     -0.00000
     65      -0.3574     -0.00000
     66      -0.2670     -0.00000

 spin component 2

 k-point     1 :       0.0000    0.0000    0.0000
  band No.  band energies     occupation 
      1      -9.7708      1.00000
      2      -8.2167      1.00000
      3      -7.9845      1.00000
      4      -7.4299      1.00000
      5      -7.3459      1.00000
      6      -7.1389      1.00000
      7      -6.9679      1.00000
      8      -6.9224      1.00000
      9      -6.7734      1.00000
     10      -6.7465      1.00000
     11      -6.6438      1.00000
     12      -6.5279      1.00000
     13      -6.4652      1.00000
     14      -6.3342      1.00000
     15      -6.2048      1.00000
     16      -6.1191      1.00000
     17      -6.0725      1.00000
     18      -5.9878      1.00000
     19      -5.9784      1.00000
     20      -5.9152      1.00000
     21      -5.8347      1.00000
     22      -5.8143      1.00000
     23      -5.7145      1.00000
     24      -5.6074      1.00000
     25      -5.4981      1.00000
     26      -5.4176      1.00000
     27      -5.3521      1.00000
     28      -5.2848      1.00000
     29      -5.2063      1.00000
     30      -5.0163      1.00000
     31      -4.9965      1.00000
     32      -4.8948      1.00000
     33      -4.8501      1.00000
     34      -4.8048      1.00000
     35      -4.7603      1.00001
     36      -4.6874      1.00008
     37      -4.6028      1.00072
     38      -4.5452      1.00254
     39      -4.5221      1.00398
     40      -4.4322      1.01640
     41      -4.4269      1.01750
     42      -4.3808      1.02793
     43      -4.3101      1.03422
     44      -4.2341      0.97908
     45      -4.1478      0.76216
     46      -4.0990      0.57115
     47      -4.0647      0.42660
     48      -4.0021      0.18962
     49      -3.9904      0.15345
     50      -3.8983     -0.01454
     51      -3.8828     -0.02476
     52      -3.7786     -0.02687
     53      -3.7257     -0.01512
     54      -3.6800     -0.00772
     55      -2.7771     -0.00000
     56      -2.6800     -0.00000
     57      -2.4082     -0.00000
     58      -2.3294     -0.00000
     59      -1.7665     -0.00000
     60      -1.3335     -0.00000
     61      -0.9279     -0.00000
     62      -0.7626     -0.00000
     63      -0.5472     -0.00000
     64      -0.4263     -0.00000
     65      -0.1744     -0.00000
     66      -0.1120     -0.00000


--------------------------------------------------------------------------------------------------------


 soft charge-density along one line, spin component            1
         0         1         2         3         4         5         6         7         8         9
 total charge-density along one line
 
 soft charge-density along one line, spin component            2
         0         1         2         3         4         5         6         7         8         9
 total charge-density along one line
 
 pseudopotential strength for first ion, spin component:            1
-10.489  -0.008  -0.053  -0.095   0.014 -10.750  -0.008  -0.050
 -0.008 -10.440  -0.004   0.007  -0.117  -0.008 -10.702  -0.004
 -0.053  -0.004 -10.338   0.103  -0.010  -0.050  -0.004 -10.605
 -0.095   0.007   0.103 -10.400  -0.035  -0.091   0.007   0.098
  0.014  -0.117  -0.010  -0.035 -10.232   0.013  -0.112  -0.010
-10.750  -0.008  -0.050  -0.091   0.013 -10.956  -0.008  -0.047
 -0.008 -10.702  -0.004   0.007  -0.112  -0.008 -10.910  -0.004
 -0.050  -0.004 -10.605   0.098  -0.010  -0.047  -0.004 -10.817
 -0.091   0.007   0.098 -10.664  -0.034  -0.087   0.006   0.094
  0.013  -0.112  -0.010  -0.034 -10.503   0.013  -0.107  -0.009
 -0.013  -0.005   0.003  -0.006  -0.004  -0.013  -0.005   0.003
 -0.024  -0.009   0.006  -0.011  -0.008  -0.023  -0.009   0.006
  0.007  -0.004  -0.003  -0.002  -0.008   0.006  -0.004  -0.003
 -0.002   0.005  -0.002   0.008  -0.001  -0.002   0.005  -0.003
  0.003  -0.002  -0.005  -0.006   0.011   0.002  -0.002  -0.005
  0.006  -0.006  -0.003  -0.003  -0.009   0.005  -0.006  -0.002
 -0.003   0.005  -0.004   0.008  -0.002  -0.002   0.004  -0.004
  0.001  -0.003  -0.005  -0.009   0.011   0.001  -0.002  -0.005
 pseudopotential strength for first ion, spin component:            2
 -9.435   0.012  -0.013   0.061  -0.003  -9.744   0.012  -0.012
  0.012  -9.488   0.002   0.022   0.046   0.012  -9.795   0.002
 -0.013   0.002  -9.549  -0.037  -0.013  -0.012   0.002  -9.853
  0.061   0.022  -0.037  -9.487   0.023   0.059   0.021  -0.036
 -0.003   0.046  -0.013   0.023  -9.551  -0.002   0.044  -0.012
 -9.744   0.012  -0.012   0.059  -0.002  -9.996   0.011  -0.012
  0.012  -9.795   0.002   0.021   0.044   0.011 -10.045   0.002
 -0.012   0.002  -9.853  -0.036  -0.012  -0.012   0.002 -10.102
  0.059   0.021  -0.036  -9.794   0.022   0.057   0.020  -0.035
 -0.002   0.044  -0.012   0.022  -9.855  -0.002   0.043  -0.012
 -0.006  -0.002   0.003  -0.002  -0.001  -0.005  -0.002   0.003
 -0.010  -0.004   0.005  -0.003  -0.002  -0.009  -0.004   0.006
  0.013   0.000  -0.005   0.001  -0.008   0.012  -0.000  -0.005
  0.001   0.009  -0.001   0.013   0.000   0.001   0.008  -0.002
  0.010   0.001  -0.007   0.000   0.013   0.009   0.001  -0.007
  0.015  -0.001  -0.006   0.001  -0.009   0.014  -0.001  -0.005
  0.001   0.010  -0.002   0.015   0.000   0.001   0.009  -0.003
  0.011   0.001  -0.008   0.000   0.015   0.010   0.001  -0.008
 total augmentation occupancy for first ion, spin component:            1
  2.843   0.033  -0.182  -0.242   0.113  -1.292  -0.038   0.043   0.065  -0.053   0.229   0.038   0.133  -0.064   0.108  -0.003
  0.033   3.022  -0.063  -0.084  -0.524  -0.036  -1.302   0.019   0.070   0.252   0.024   0.030   0.111   0.130  -0.062  -0.005
 -0.182  -0.063   3.385   0.577  -0.010   0.039   0.020  -1.567  -0.283  -0.009  -0.189   0.000  -0.120   0.202  -0.064   0.004
 -0.242  -0.084   0.577   3.171  -0.114   0.063   0.071  -0.282  -1.436   0.034   0.017   0.039  -0.063   0.248   0.054   0.006
  0.113  -0.524  -0.010  -0.114   3.803  -0.054   0.253  -0.011   0.034  -1.622  -0.010   0.007  -0.224  -0.031   0.227   0.012
 -1.292  -0.036   0.039   0.063  -0.054   1.367   0.029   0.050   0.015   0.009  -0.249  -0.009  -0.172   0.046  -0.154   0.015
 -0.038  -1.302   0.020   0.071   0.253   0.029   1.289   0.019  -0.066  -0.101  -0.044  -0.017  -0.136  -0.149   0.046   0.012
  0.043   0.019  -1.567  -0.282  -0.011   0.050   0.019   1.544   0.104   0.028   0.201  -0.011   0.132  -0.219   0.074  -0.011
  0.065   0.070  -0.283  -1.436   0.034   0.015  -0.066   0.104   1.425   0.011  -0.057  -0.021   0.048  -0.274  -0.101  -0.006
 -0.053   0.252  -0.009   0.034  -1.622   0.009  -0.101   0.028   0.011   1.344  -0.009  -0.004   0.222   0.019  -0.230  -0.021
  0.229   0.024  -0.189   0.017  -0.010  -0.249  -0.044   0.201  -0.057  -0.009   2.018  -0.224  -0.169  -0.151  -0.199   0.029
  0.038   0.030   0.000   0.039   0.007  -0.009  -0.017  -0.011  -0.021  -0.004  -0.224   0.035   0.031   0.030   0.038  -0.004
  0.133   0.111  -0.120  -0.063  -0.224  -0.172  -0.136   0.132   0.048   0.222  -0.169   0.031   0.224  -0.015  -0.043  -0.022
 -0.064   0.130   0.202   0.248  -0.031   0.046  -0.149  -0.219  -0.274   0.019  -0.151   0.030  -0.015   0.256  -0.018   0.000
  0.108  -0.062  -0.064   0.054   0.227  -0.154   0.046   0.074  -0.101  -0.230  -0.199   0.038  -0.043  -0.018   0.215   0.002
 -0.003  -0.005   0.004   0.006   0.012   0.015   0.012  -0.011  -0.006  -0.021   0.029  -0.004  -0.022   0.000   0.002   0.002
  0.007  -0.006  -0.016  -0.012   0.002  -0.006   0.015   0.023   0.026  -0.001   0.025  -0.004   0.000  -0.024   0.000   0.000
 -0.000   0.006   0.000  -0.002  -0.010   0.012  -0.005  -0.007   0.009   0.022   0.036  -0.005   0.002   0.000  -0.022   0.000
 total augmentation occupancy for first ion, spin component:            2
  1.678  -0.048   0.168   0.402  -0.089  -0.819   0.053  -0.096  -0.186   0.052   0.063   0.033   0.033   0.027   0.049   0.005
 -0.048   1.505   0.054  -0.054   0.542   0.051  -0.769  -0.036   0.055  -0.280   0.035   0.017   0.014   0.013   0.022   0.003
  0.168   0.054   0.965  -0.465  -0.003  -0.090  -0.035  -0.481   0.237   0.002  -0.008  -0.010  -0.005  -0.017  -0.009  -0.002
  0.402  -0.054  -0.465   1.309   0.153  -0.183   0.053   0.236  -0.652  -0.069   0.068   0.028   0.022   0.030   0.040   0.001
 -0.089   0.542  -0.003   0.153   0.635   0.052  -0.281   0.006  -0.072  -0.331   0.007   0.004   0.014   0.014   0.005  -0.003
 -0.819   0.051  -0.090  -0.183   0.052   0.300  -0.039   0.044   0.076  -0.027  -0.034  -0.020  -0.008  -0.011  -0.016  -0.003
  0.053  -0.769  -0.035   0.053  -0.281  -0.039   0.300   0.022  -0.042   0.132  -0.016  -0.008   0.001  -0.002  -0.009  -0.001
 -0.096  -0.036  -0.481   0.236   0.006   0.044   0.022   0.149  -0.105  -0.007  -0.002   0.007  -0.002   0.018   0.001   0.002
 -0.186   0.055   0.237  -0.652  -0.072   0.076  -0.042  -0.105   0.233   0.031  -0.034  -0.014  -0.009  -0.011  -0.011   0.000
  0.052  -0.280   0.002  -0.069  -0.331  -0.027   0.132  -0.007   0.031   0.105   0.002  -0.001  -0.010  -0.006   0.001   0.003
  0.063   0.035  -0.008   0.068   0.007  -0.034  -0.016  -0.002  -0.034   0.002  -0.110   0.058   0.022   0.033   0.030  -0.002
  0.033   0.017  -0.010   0.028   0.004  -0.020  -0.008   0.007  -0.014  -0.001   0.058  -0.007  -0.002  -0.000  -0.002   0.001
  0.033   0.014  -0.005   0.022   0.014  -0.008   0.001  -0.002  -0.009  -0.010   0.022  -0.002  -0.010   0.003   0.004   0.002
  0.027   0.013  -0.017   0.030   0.014  -0.011  -0.002   0.018  -0.011  -0.006   0.033  -0.000   0.003  -0.008   0.008  -0.000
  0.049   0.022  -0.009   0.040   0.005  -0.016  -0.009   0.001  -0.011   0.001   0.030  -0.002   0.004   0.008  -0.004  -0.001
  0.005   0.003  -0.002   0.001  -0.003  -0.003  -0.001   0.002   0.000   0.003  -0.002   0.001   0.002  -0.000  -0.001  -0.000
  0.000   0.004   0.002   0.006   0.000   0.000  -0.002  -0.002  -0.004   0.000  -0.002   0.001  -0.000   0.003  -0.000   0.000
  0.004   0.001  -0.002   0.004   0.005  -0.002   0.000   0.001  -0.002  -0.003  -0.003   0.001  -0.001  -0.000   0.002   0.000


------------------------ aborting loop because EDIFF is reached ----------------------------------------


    CHARGE:  cpu time    0.7336: real time    0.7343
    FORLOC:  cpu time    0.0890: real time    0.0891
    FORNL :  cpu time    2.7222: real time    2.7249
    FORCOR:  cpu time    2.4781: real time    2.4804
    FORHAR:  cpu time    0.3342: real time    0.3345
    MIXING:  cpu time    0.0486: real time    0.0487
    OFIELD:  cpu time    0.0000: real time    0.0000

 VOLUME and BASIS-vectors are now :
 -----------------------------------------------------------------------------
  energy-cutoff  :      400.00
  volume of cell :    11907.27
      direct lattice vectors                 reciprocal lattice vectors
    21.080059166  0.000000000  0.000000000     0.047438197  0.000000000  0.000000000
     0.000000000 22.294181948  0.000000000     0.000000000  0.044854752  0.000000000
     0.000000000  0.000000000 25.336628331     0.000000000  0.000000000  0.039468551

  length of vectors
    21.080059166 22.294181948 25.336628331     0.047438197  0.044854752  0.039468551


 FORCES acting on ions
    electron-ion (+dipol)            ewald-force                    non-local-force                 convergence-correction
 -----------------------------------------------------------------------------------------------
   -.622E+03 -.548E+03 -.399E+03   0.621E+03 0.548E+03 0.399E+03   0.127E+01 0.905E+00 0.184E+00   -.435E+00 -.125E+00 0.139E+00
   -.691E+03 0.693E+02 0.785E+03   0.688E+03 -.691E+02 -.781E+03   0.330E+01 -.118E+00 -.402E+01   -.302E+00 -.229E-01 -.424E-02
   -.125E+03 -.796E+03 0.704E+03   0.124E+03 0.790E+03 -.699E+03   0.863E+00 0.581E+01 -.484E+01   -.286E+00 0.298E-01 -.306E-01
   0.628E+03 0.161E+03 0.671E+03   -.627E+03 -.161E+03 -.670E+03   -.941E+00 -.158E-01 -.105E+01   -.485E+00 -.215E+00 0.219E+00
   0.999E+03 0.175E+03 -.263E+03   -.992E+03 -.173E+03 0.262E+03   -.752E+01 -.240E+01 0.765E+00   0.102E+00 -.126E+00 -.690E-01
   0.947E+02 0.754E+03 -.597E+03   -.935E+02 -.752E+03 0.595E+03   -.707E+00 -.228E+01 0.188E+01   -.456E+00 -.138E-01 0.361E-02
   0.507E+03 -.876E+03 -.665E+02   -.503E+03 0.870E+03 0.656E+02   -.323E+01 0.601E+01 0.852E+00   -.225E+00 -.260E+00 -.121E-01
   -.863E+03 0.414E+03 -.302E+03   0.857E+03 -.411E+03 0.299E+03   0.657E+01 -.260E+01 0.315E+01   -.136E+00 -.177E+00 0.182E+00
   0.608E+02 -.262E+03 -.974E+03   -.612E+02 0.260E+03 0.967E+03   0.681E+00 0.234E+01 0.738E+01   -.249E+00 -.212E+00 -.126E+00
   0.150E+02 0.909E+03 0.441E+03   -.137E+02 -.902E+03 -.437E+03   -.962E+00 -.698E+01 -.343E+01   -.322E+00 0.390E-01 0.155E+00
 -----------------------------------------------------------------------------------------------
   0.352E+01 0.445E+00 -.132E+01   0.153E-12 0.114E-12 0.227E-12   -.685E+00 0.660E+00 0.878E+00   -.279E+01 -.108E+01 0.456E+00
 
 
 POSITION                                       TOTAL-FORCE (eV/Angst)
 -----------------------------------------------------------------------------------
     11.52329     12.04220     13.09415        -0.006891     -0.003332     -0.001059
     12.12110     11.07054     11.05299         0.009370      0.010542      0.004615
     11.02550     13.07142     10.99032         0.002863     -0.000005      0.000157
      9.88173     11.12210     11.71854         0.000444     -0.003508      0.017741
      8.43795     11.10664     13.57231         0.003949      0.003677      0.004520
     10.48946      9.99421     13.69269         0.006178     -0.001461     -0.012239
      9.37429     13.30539     12.89775         0.000633     -0.017957     -0.015851
     12.91708      9.95213     13.13328        -0.012819      0.002655     -0.003334
     10.09858     11.92317     15.17069         0.000252      0.007094      0.013904
     11.02668      8.88756     11.54875        -0.003980      0.002294     -0.008454
 -----------------------------------------------------------------------------------
    total drift:                                0.041589      0.022499      0.013625


--------------------------------------------------------------------------------------------------------



  FREE ENERGIE OF THE ION-ELECTRON SYSTEM (eV)
  ---------------------------------------------------
  free  energy   TOTEN  =       -37.91183814 eV

  energy  without entropy=      -37.88173389  energy(sigma->0) =      -37.90180339
 
 d Force = 0.7014338E-04[-0.905E-05, 0.149E-03]  d Energy = 0.3979647E-04 0.303E-04
 d Force = 0.2497738E+01[ 0.250E+01, 0.250E+01]  d Ewald  = 0.2497738E+01-0.272E-06


--------------------------------------------------------------------------------------------------------


    POTLOK:  cpu time    2.5981: real time    2.6034


--------------------------------------------------------------------------------------------------------




--------------------------------------------------------------------------------------------------------


  
 reached required accuracy - stopping structural energy minimisation
     LOOP+:  cpu time   48.9103: real time   48.9805
    4ORBIT:  cpu time    0.0000: real time    0.0000

 total amount of memory used by VASP MPI-rank0   160554. kBytes
=======================================================================

   base      :      30000. kBytes
   nonl-proj :       6056. kBytes
   fftplans  :      30693. kBytes
   grid      :      79478. kBytes
   one-center:         31. kBytes
   wavefun   :      14296. kBytes
 
  
  
 General timing and accounting informations for this job:
 ========================================================
  
                  Total CPU time used (sec):      614.677
                            User time (sec):      607.974
                          System time (sec):        6.703
                         Elapsed time (sec):      619.023
  
                   Maximum memory used (kb):      342208.
                   Average memory used (kb):           0.
  
                          Minor page faults:      1819989
                          Major page faults:        17667
                 Voluntary context switches:         3967
