<?xml version="1.0" encoding="ISO-8859-1"?>
<modeling>
 <generator>
  <i name="program" type="string">vasp </i>
  <i name="version" type="string">6.1.2  </i>
  <i name="subversion" type="string">22Jul20 (build Aug  2 2021 21:04:21) gamma-only                       parallel </i>
  <i name="platform" type="string">LinuxPGI </i>
  <i name="date" type="string">2021 12 22 </i>
  <i name="time" type="string">21:18:46 </i>
 </generator>
 <incar>
  <i type="int" name="ISPIN">     2</i>
  <i type="int" name="IBRION">     2</i>
  <i type="int" name="NSW">  1000</i>
  <i type="int" name="ISIF">     0</i>
  <i type="int" name="ISYM">     0</i>
  <i name="ENCUT">    400.00000000</i>
  <i type="logical" name="LREAL"> F  </i>
  <i type="int" name="ISMEAR">     1</i>
  <i name="SIGMA">      0.20000000</i>
  <i type="logical" name="LWAVE"> F  </i>
  <i type="logical" name="LCHARG"> F  </i>
  <i type="int" name="KPAR">     1</i>
  <i type="int" name="NCORE">     8</i>
  <i type="string" name="GGA"> PE</i>
  <i type="int" name="ISPIN">     2</i>
 </incar>
 <structure name="primitive_cell" >
  <crystal>
   <varray name="basis" >
    <v>      21.08005917       0.00000000       0.00000000 </v>
    <v>       0.00000000      22.29418195       0.00000000 </v>
    <v>       0.00000000       0.00000000      25.33662833 </v>
   </varray>
   <i name="volume">  11907.26961362 </i>
   <varray name="rec_basis" >
    <v>       0.04743820       0.00000000       0.00000000 </v>
    <v>       0.00000000       0.04485475       0.00000000 </v>
    <v>       0.00000000       0.00000000       0.03946855 </v>
   </varray>
  </crystal>
  <varray name="positions" >
   <v>       0.54662491       0.54010296       0.51675275 </v>
   <v>       0.57504132       0.49643043       0.43622545 </v>
   <v>       0.52292813       0.58631816       0.43382116 </v>
   <v>       0.46880190       0.49906752       0.46257278 </v>
   <v>       0.40024603       0.49819011       0.53558881 </v>
   <v>       0.49765929       0.44830001       0.54038652 </v>
   <v>       0.44472891       0.59678189       0.50907670 </v>
   <v>       0.61269363       0.44644030       0.51832725 </v>
   <v>       0.47907899       0.53483779       0.59880543 </v>
   <v>       0.52313453       0.39858547       0.45587646 </v>
  </varray>
 </structure>
 <varray name="primitive_index" >
  <v type="int" >        1 </v>
  <v type="int" >        2 </v>
  <v type="int" >        3 </v>
  <v type="int" >        4 </v>
  <v type="int" >        5 </v>
  <v type="int" >        6 </v>
  <v type="int" >        7 </v>
  <v type="int" >        8 </v>
  <v type="int" >        9 </v>
  <v type="int" >       10 </v>
 </varray>
 <kpoints>
  <generation param="Gamma">
   <v type="int" name="divisions">       1        1        1 </v>
   <v name="usershift">      0.00000000       0.00000000       0.00000000 </v>
   <v name="genvec1">      1.00000000       0.00000000       0.00000000 </v>
   <v name="genvec2">      0.00000000       1.00000000       0.00000000 </v>
   <v name="genvec3">      0.00000000       0.00000000       1.00000000 </v>
   <v name="shift">      0.00000000       0.00000000       0.00000000 </v>
  </generation>
  <varray name="kpointlist" >
   <v>       0.00000000       0.00000000       0.00000000 </v>
  </varray>
  <varray name="weights" >
   <v>       1.00000000 </v>
  </varray>
 </kpoints>
 <parameters>
  <separator name="general" >
   <i type="string" name="SYSTEM">unknown system</i>
   <i type="logical" name="LCOMPAT"> F  </i>
  </separator>
  <separator name="electronic" >
   <i type="string" name="PREC">normal</i>
   <i name="ENMAX">    400.00000000</i>
   <i name="ENAUG">    544.56500000</i>
   <i name="EDIFF">      0.00010000</i>
   <i type="int" name="IALGO">    38</i>
   <i type="int" name="IWAVPR">    11</i>
   <i type="int" name="NBANDS">    66</i>
   <i type="int" name="NBANDSLOW">    -1</i>
   <i type="int" name="NBANDSHIGH">    -1</i>
   <i name="NELECT">    100.00000000</i>
   <i type="int" name="TURBO">     0</i>
   <i type="int" name="IRESTART">     0</i>
   <i type="int" name="NREBOOT">     0</i>
   <i type="int" name="NMIN">     0</i>
   <i name="EREF">      0.00000000</i>
   <separator name="electronic smearing" >
    <i type="int" name="ISMEAR">     1</i>
    <i name="SIGMA">      0.20000000</i>
    <i name="KSPACING">      0.50000000</i>
    <i type="logical" name="KGAMMA"> T  </i>
    <i type="logical" name="KBLOWUP"> T  </i>
   </separator>
   <separator name="electronic projectors" >
    <i type="logical" name="LREAL"> F  </i>
    <v name="ROPT">      0.00000000      0.00000000</v>
    <i type="int" name="LMAXPAW">  -100</i>
    <i type="int" name="LMAXMIX">     2</i>
    <i type="logical" name="NLSPLINE"> F  </i>
   </separator>
   <separator name="electronic startup" >
    <i type="int" name="ISTART">     0</i>
    <i type="int" name="ICHARG">     2</i>
    <i type="int" name="INIWAV">     1</i>
   </separator>
   <separator name="electronic spin" >
    <i type="int" name="ISPIN">     2</i>
    <i type="logical" name="LNONCOLLINEAR"> F  </i>
    <v name="MAGMOM">      1.00000000      1.00000000      1.00000000      1.00000000      1.00000000      1.00000000      1.00000000      1.00000000      1.00000000      1.00000000</v>
    <i name="NUPDOWN">     -1.00000000</i>
    <i type="logical" name="LSORBIT"> F  </i>
    <v name="SAXIS">      0.00000000      0.00000000      1.00000000</v>
    <i type="logical" name="LSPIRAL"> F  </i>
    <v name="QSPIRAL">      0.00000000      0.00000000      0.00000000</v>
    <i type="logical" name="LZEROZ"> F  </i>
   </separator>
   <separator name="electronic exchange-correlation" >
    <i type="logical" name="LASPH"> F  </i>
    <i type="logical" name="LMETAGGA"> F  </i>
   </separator>
   <separator name="electronic convergence" >
    <i type="int" name="NELM">    60</i>
    <i type="int" name="NELMDL">     0</i>
    <i type="int" name="NELMIN">     2</i>
    <i name="ENINI">    400.00000000</i>
    <separator name="electronic convergence detail" >
     <i type="logical" name="LDIAG"> T  </i>
     <i type="logical" name="LSUBROT"> F  </i>
     <i name="WEIMIN">      0.00100000</i>
     <i name="EBREAK">      0.00000038</i>
     <i name="DEPER">      0.30000000</i>
     <i type="int" name="NRMM">     4</i>
     <i name="TIME">      0.40000000</i>
    </separator>
   </separator>
   <separator name="electronic mixer" >
    <i name="AMIX">      0.40000000</i>
    <i name="BMIX">      1.00000000</i>
    <i name="AMIN">      0.10000000</i>
    <i name="AMIX_MAG">      1.60000000</i>
    <i name="BMIX_MAG">      1.00000000</i>
    <separator name="electronic mixer details" >
     <i type="int" name="IMIX">     4</i>
     <i type="logical" name="MIXFIRST"> F  </i>
     <i type="int" name="MAXMIX">   -45</i>
     <i name="WC">    100.00000000</i>
     <i type="int" name="INIMIX">     1</i>
     <i type="int" name="MIXPRE">     1</i>
     <i type="int" name="MREMOVE">     5</i>
    </separator>
   </separator>
   <separator name="electronic dipolcorrection" >
    <i type="logical" name="LDIPOL"> F  </i>
    <i type="logical" name="LMONO"> F  </i>
    <i type="int" name="IDIPOL">     0</i>
    <i name="EPSILON">      1.00000000</i>
    <v name="DIPOL">   -100.00000000   -100.00000000   -100.00000000</v>
    <i name="EFIELD">      0.00000000</i>
   </separator>
  </separator>
  <separator name="grids" >
   <i type="int" name="NGX">   108</i>
   <i type="int" name="NGY">   112</i>
   <i type="int" name="NGZ">   126</i>
   <i type="int" name="NGXF">   216</i>
   <i type="int" name="NGYF">   224</i>
   <i type="int" name="NGZF">   252</i>
   <i type="logical" name="ADDGRID"> F  </i>
  </separator>
  <separator name="ionic" >
   <i type="int" name="NSW">  1000</i>
   <i type="int" name="IBRION">     2</i>
   <i type="int" name="MDALGO">     0</i>
   <i type="int" name="ISIF">     0</i>
   <i name="PSTRESS">      0.00000000</i>
   <i name="EDIFFG">      0.00100000</i>
   <i type="int" name="NFREE">     1</i>
   <i name="POTIM">      0.50000000</i>
   <i name="SMASS">     -3.00000000</i>
   <i name="SCALEE">      1.00000000</i>
  </separator>
  <separator name="ionic md" >
   <i name="TEBEG">      0.00010000</i>
   <i name="TEEND">      0.00010000</i>
   <i type="int" name="NBLOCK">     1</i>
   <i type="int" name="KBLOCK">  1000</i>
   <i type="int" name="NPACO">   256</i>
   <i name="APACO">     16.00000000</i>
  </separator>
  <separator name="symmetry" >
   <i type="int" name="ISYM">     0</i>
   <i name="SYMPREC">      0.00001000</i>
  </separator>
  <separator name="dos" >
   <i type="int" name="LORBIT">     0</i>
   <v name="RWIGS">     -1.00000000     -1.00000000</v>
   <i type="int" name="NEDOS">   301</i>
   <i name="EMIN">     10.00000000</i>
   <i name="EMAX">    -10.00000000</i>
   <i name="EFERMI">      0.00000000</i>
  </separator>
  <separator name="writing" >
   <i type="int" name="NWRITE">     2</i>
   <i type="logical" name="LWAVE"> F  </i>
   <i type="logical" name="LDOWNSAMPLE"> F  </i>
   <i type="logical" name="LCHARG"> F  </i>
   <i type="logical" name="LPARD"> F  </i>
   <i type="logical" name="LVTOT"> F  </i>
   <i type="logical" name="LVHAR"> F  </i>
   <i type="logical" name="LELF"> F  </i>
   <i type="logical" name="LOPTICS"> F  </i>
   <v name="STM">      0.00000000      0.00000000      0.00000000      0.00000000      0.00000000      0.00000000      0.00000000</v>
  </separator>
  <separator name="performance" >
   <i type="int" name="NPAR">     2</i>
   <i type="int" name="NSIM">     4</i>
   <i type="int" name="NBLK">    -1</i>
   <i type="logical" name="LPLANE"> T  </i>
   <i type="logical" name="LSCALAPACK"> T  </i>
   <i type="logical" name="LSCAAWARE"> F  </i>
   <i type="logical" name="LSCALU"> F  </i>
   <i type="logical" name="LASYNC"> F  </i>
   <i type="logical" name="LORBITALREAL"> F  </i>
  </separator>
  <separator name="miscellaneous" >
   <i type="int" name="IDIOT">     3</i>
   <i type="int" name="PHON_NSTRUCT">    -1</i>
   <i type="logical" name="LMUSIC"> F  </i>
   <v name="POMASS">     58.69000000    106.42000000</v>
   <v name="DARWINR">      0.00000000      0.00000000</v>
   <v name="DARWINV">      1.00000000      1.00000000</v>
   <i type="logical" name="LCORR"> T  </i>
  </separator>
  <i type="logical" name="GGA_COMPAT"> T  </i>
  <i type="logical" name="LBERRY"> F  </i>
  <i type="int" name="ICORELEVEL">     0</i>
  <i type="logical" name="LDAU"> F  </i>
  <i type="int" name="I_CONSTRAINED_M">     0</i>
  <separator name="electronic exchange-correlation" >
   <i type="string" name="GGA">PE</i>
   <i type="int" name="VOSKOWN">     0</i>
   <i type="logical" name="LHFCALC"> F  </i>
   <i type="string" name="PRECFOCK"></i>
   <i type="logical" name="LSYMGRAD"> F  </i>
   <i type="logical" name="LHFONE"> F  </i>
   <i type="logical" name="LRHFCALC"> F  </i>
   <i type="logical" name="LTHOMAS"> F  </i>
   <i type="logical" name="LMODELHF"> F  </i>
   <i type="logical" name="LFOCKACE"> F  </i>
   <i name="ENCUT4O">     -1.00000000</i>
   <i type="int" name="EXXOEP">     0</i>
   <i type="int" name="FOURORBIT">     0</i>
   <i name="AEXX">      0.00000000</i>
   <i name="HFALPHA">      0.00000000</i>
   <i name="MCALPHA">      0.00000000</i>
   <i name="ALDAX">      1.00000000</i>
   <i name="AGGAX">      1.00000000</i>
   <i name="ALDAC">      1.00000000</i>
   <i name="AGGAC">      1.00000000</i>
   <i type="int" name="NKREDX">     1</i>
   <i type="int" name="NKREDY">     1</i>
   <i type="int" name="NKREDZ">     1</i>
   <i type="logical" name="SHIFTRED"> F  </i>
   <i type="logical" name="ODDONLY"> F  </i>
   <i type="logical" name="EVENONLY"> F  </i>
   <i type="int" name="LMAXFOCK">     0</i>
   <i type="int" name="NMAXFOCKAE">     0</i>
   <i type="logical" name="LFOCKAEDFT"> F  </i>
   <i name="HFSCREEN">      0.00000000</i>
   <i name="HFSCREENC">      0.00000000</i>
   <i type="int" name="NBANDSGWLOW">     0</i>
  </separator>
  <separator name="vdW DFT" >
   <i type="logical" name="LUSE_VDW"> F  </i>
   <i name="Zab_VDW">     -0.84910000</i>
   <i name="PARAM1">      0.12340000</i>
   <i name="PARAM2">      1.00000000</i>
   <i name="PARAM3">      0.00000000</i>
  </separator>
  <separator name="model GW" >
   <i type="int" name="MODEL_GW">     0</i>
   <i name="MODEL_EPS0">    714.43617682</i>
   <i name="MODEL_ALPHA">      1.00000000</i>
  </separator>
  <separator name="linear response parameters" >
   <i type="logical" name="LEPSILON"> F  </i>
   <i type="logical" name="LRPA"> F  </i>
   <i type="logical" name="LNABLA"> F  </i>
   <i type="logical" name="LVEL"> F  </i>
   <i type="int" name="KINTER">     0</i>
   <i name="CSHIFT">      0.10000000</i>
   <i name="OMEGAMAX">     -1.00000000</i>
   <i name="DEG_THRESHOLD">      0.00200000</i>
   <i name="RTIME">     -0.10000000</i>
   <i name="WPLASMAI">      0.00000000</i>
   <v name="DFIELD">      0.00000000      0.00000000      0.00000000</v>
   <v name="WPLASMA">      0.00000000      0.00000000      0.00000000      0.00000000      0.00000000      0.00000000      0.00000000      0.00000000      0.00000000</v>
  </separator>
  <separator name="orbital magnetization" >
   <i type="logical" name="NUCIND"> F  </i>
   <v name="MAGPOS">      0.00000000      0.00000000      0.00000000</v>
   <i type="logical" name="LNICSALL"> T  </i>
   <i type="logical" name="ORBITALMAG"> F  </i>
   <i type="logical" name="LMAGBLOCH"> F  </i>
   <i type="logical" name="LCHIMAG"> F  </i>
   <i type="logical" name="LGAUGE"> T  </i>
   <i type="int" name="MAGATOM">     0</i>
   <v name="MAGDIPOL">      0.00000000      0.00000000      0.00000000</v>
   <v name="AVECCONST">      0.00000000      0.00000000      0.00000000</v>
  </separator>
  <separator name="response functions" >
   <i type="logical" name="LFINITE_TEMPERATURE"> F  </i>
   <i type="logical" name="LADDER"> F  </i>
   <i type="logical" name="LRPAFORCE"> F  </i>
   <i type="logical" name="LFXC"> F  </i>
   <i type="logical" name="LHARTREE"> T  </i>
   <i type="int" name="IBSE">     0</i>
   <v type="int" name="KPOINT">    -1     0     0     0</v>
   <i type="logical" name="LTCTC"> F  </i>
   <i type="logical" name="LTCTE"> F  </i>
   <i type="logical" name="LTETE"> F  </i>
   <i type="logical" name="LTRIPLET"> F  </i>
   <i type="logical" name="LFXCEPS"> F  </i>
   <i type="logical" name="LFXHEG"> F  </i>
   <i type="int" name="NATURALO">     2</i>
   <i type="logical" name="LHOLEGF"> F  </i>
   <i type="logical" name="L2ORDER"> F  </i>
   <i type="logical" name="LDMP1"> F  </i>
   <i type="logical" name="LMP2LT"> F  </i>
   <i type="logical" name="LSMP2LT"> F  </i>
   <i type="logical" name="LGWLF"> F  </i>
   <i name="ENCUTGW">     -2.00000000</i>
   <i name="ENCUTGWSOFT">     -2.00000000</i>
   <i name="ENCUTLF">     -1.00000000</i>
   <i type="logical" name="LESF_SPLINES"> F  </i>
   <i type="int" name="LMAXMP2">    -1</i>
   <i name="SCISSOR">      0.00000000</i>
   <i type="int" name="NOMEGA">     0</i>
   <i type="int" name="NOMEGAR">     0</i>
   <i type="int" name="NBANDSGW">    -1</i>
   <i type="int" name="NBANDSO">    -1</i>
   <i type="int" name="NBANDSV">    -1</i>
   <i type="int" name="NELM">     1</i>
   <i type="int" name="NELMHF">     1</i>
   <i type="int" name="DIM">     3</i>
   <i type="int" name="IESPILON">     4</i>
   <i type="int" name="ANTIRES">     0</i>
   <i name="OMEGAMAX">    -30.00000000</i>
   <i name="OMEGAMIN">    -30.00000000</i>
   <i name="OMEGATL">   -200.00000000</i>
   <i type="int" name="OMEGAGRID">     0</i>
   <i name="CSHIFT">     -0.10000000</i>
   <i type="logical" name="LSELFENERGY"> F  </i>
   <i type="logical" name="LSPECTRAL"> F  </i>
   <i type="logical" name="LSPECTRALGW"> F  </i>
   <i type="logical" name="LSINGLES"> F  </i>
   <i type="logical" name="LFERMIGW"> F  </i>
   <i type="logical" name="ODDONLYGW"> F  </i>
   <i type="logical" name="EVENONLYGW"> F  </i>
   <i type="int" name="NKREDLFX">     1</i>
   <i type="int" name="NKREDLFY">     1</i>
   <i type="int" name="NKREDLFZ">     1</i>
   <i type="int" name="MAXMEM">  2800</i>
   <i type="int" name="TELESCOPE">     0</i>
   <i type="int" name="NTAUPAR">    -1</i>
   <i type="int" name="NOMEGAPAR">    -1</i>
   <i name="LAMBDA">      1.00000000</i>
  </separator>
  <separator name="External order field" >
   <i name="OFIELD_KAPPA">      0.00000000</i>
   <v name="OFIELD_K">      0.00000000      0.00000000      0.00000000</v>
   <i name="OFIELD_Q6_NEAR">      0.00000000</i>
   <i name="OFIELD_Q6_FAR">      0.00000000</i>
   <i name="OFIELD_A">      0.00000000</i>
  </separator>
 </parameters>
 <atominfo>
  <atoms>      10 </atoms>
  <types>       2 </types>
  <array name="atoms" >
   <dimension dim="1">ion</dimension>
   <field type="string">element</field>
   <field type="int">atomtype</field>
   <set>
    <rc><c>Ni</c><c>   1</c></rc>
    <rc><c>Ni</c><c>   1</c></rc>
    <rc><c>Ni</c><c>   1</c></rc>
    <rc><c>Ni</c><c>   1</c></rc>
    <rc><c>Ni</c><c>   1</c></rc>
    <rc><c>Ni</c><c>   1</c></rc>
    <rc><c>Pd</c><c>   2</c></rc>
    <rc><c>Pd</c><c>   2</c></rc>
    <rc><c>Pd</c><c>   2</c></rc>
    <rc><c>Pd</c><c>   2</c></rc>
   </set>
  </array>
  <array name="atomtypes" >
   <dimension dim="1">type</dimension>
   <field type="int">atomspertype</field>
   <field type="string">element</field>
   <field>mass</field>
   <field>valence</field>
   <field type="string">pseudopotential</field>
   <set>
    <rc><c>   6</c><c>Ni</c><c>     58.69000000</c><c>     10.00000000</c><c>  PAW_PBE Ni 02Aug2007                  </c></rc>
    <rc><c>   4</c><c>Pd</c><c>    106.42000000</c><c>     10.00000000</c><c>  PAW_PBE Pd 04Jan2005                  </c></rc>
   </set>
  </array>
 </atominfo>
 <structure name="initialpos" >
  <crystal>
   <varray name="basis" >
    <v>      21.08005917       0.00000000       0.00000000 </v>
    <v>       0.00000000      22.29418195       0.00000000 </v>
    <v>       0.00000000       0.00000000      25.33662833 </v>
   </varray>
   <i name="volume">  11907.26961362 </i>
   <varray name="rec_basis" >
    <v>       0.04743820       0.00000000       0.00000000 </v>
    <v>       0.00000000       0.04485475       0.00000000 </v>
    <v>       0.00000000       0.00000000       0.03946855 </v>
   </varray>
  </crystal>
  <varray name="positions" >
   <v>       0.54662491       0.54010296       0.51675275 </v>
   <v>       0.57504132       0.49643043       0.43622545 </v>
   <v>       0.52292813       0.58631816       0.43382116 </v>
   <v>       0.46880190       0.49906752       0.46257278 </v>
   <v>       0.40024603       0.49819011       0.53558881 </v>
   <v>       0.49765929       0.44830001       0.54038652 </v>
   <v>       0.44472891       0.59678189       0.50907670 </v>
   <v>       0.61269363       0.44644030       0.51832725 </v>
   <v>       0.47907899       0.53483779       0.59880543 </v>
   <v>       0.52313453       0.39858547       0.45587646 </v>
  </varray>
 </structure>
 <calculation>
  <scstep>
   <time name="dav">    6.98    6.99</time>
   <time name="total">    9.59    9.60</time>
   <energy>
    <i name="alphaZ">      4.75925485 </i>
    <i name="ewald">  13074.81756665 </i>
    <i name="hartreedc"> -22045.88001194 </i>
    <i name="XCdc">     63.23598077 </i>
    <i name="pawpsdc">   9003.59075477 </i>
    <i name="pawaedc">  -9155.75339974 </i>
    <i name="eentropy">     -0.01631332 </i>
    <i name="bandstr">     53.94812196 </i>
    <i name="atom">   9704.95859309 </i>
    <i name="e_fr_energy">    703.66054708 </i>
    <i name="e_wo_entrp">    703.67686040 </i>
    <i name="e_0_energy">    703.66598485 </i>
   </energy>
  </scstep>
  <scstep>
   <time name="dav">   10.93   10.95</time>
   <time name="total">   10.94   10.95</time>
   <energy>
    <i name="e_fr_energy">    247.28289789 </i>
    <i name="e_wo_entrp">    247.22378855 </i>
    <i name="e_0_energy">    247.26319478 </i>
   </energy>
  </scstep>
  <scstep>
   <time name="dav">    8.78    8.79</time>
   <time name="total">    8.79    8.80</time>
   <energy>
    <i name="e_fr_energy">     24.03646858 </i>
    <i name="e_wo_entrp">     24.04847371 </i>
    <i name="e_0_energy">     24.04047029 </i>
   </energy>
  </scstep>
  <scstep>
   <time name="dav">    9.41    9.42</time>
   <time name="total">    9.41    9.42</time>
   <energy>
    <i name="e_fr_energy">    -37.14749602 </i>
    <i name="e_wo_entrp">    -37.12884527 </i>
    <i name="e_0_energy">    -37.14127910 </i>
   </energy>
  </scstep>
  <scstep>
   <time name="dav">    7.25    7.26</time>
   <time name="total">    8.06    8.07</time>
   <energy>
    <i name="e_fr_energy">    -44.04016833 </i>
    <i name="e_wo_entrp">    -44.01771738 </i>
    <i name="e_0_energy">    -44.03268468 </i>
   </energy>
  </scstep>
  <scstep>
   <time name="dav">    7.16    7.16</time>
   <time name="total">   10.59   10.60</time>
   <energy>
    <i name="e_fr_energy">    -56.72160852 </i>
    <i name="e_wo_entrp">    -56.70188900 </i>
    <i name="e_0_energy">    -56.71503534 </i>
   </energy>
  </scstep>
  <scstep>
   <time name="dav">    7.91    7.92</time>
   <time name="total">   11.29   11.30</time>
   <energy>
    <i name="e_fr_energy">    -39.36457708 </i>
    <i name="e_wo_entrp">    -39.32717720 </i>
    <i name="e_0_energy">    -39.35211045 </i>
   </energy>
  </scstep>
  <scstep>
   <time name="dav">    8.11    8.12</time>
   <time name="total">   11.54   11.56</time>
   <energy>
    <i name="e_fr_energy">    -38.75505443 </i>
    <i name="e_wo_entrp">    -38.71078292 </i>
    <i name="e_0_energy">    -38.74029726 </i>
   </energy>
  </scstep>
  <scstep>
   <time name="dav">    8.39    8.41</time>
   <time name="total">   11.80   11.82</time>
   <energy>
    <i name="e_fr_energy">    -40.74869156 </i>
    <i name="e_wo_entrp">    -40.70881689 </i>
    <i name="e_0_energy">    -40.73540000 </i>
   </energy>
  </scstep>
  <scstep>
   <time name="dav">    8.38    8.39</time>
   <time name="total">   11.79   11.81</time>
   <energy>
    <i name="e_fr_energy">    -37.18267937 </i>
    <i name="e_wo_entrp">    -37.13412562 </i>
    <i name="e_0_energy">    -37.16649479 </i>
   </energy>
  </scstep>
  <scstep>
   <time name="dav">    8.32    8.33</time>
   <time name="total">   11.75   11.77</time>
   <energy>
    <i name="e_fr_energy">    -36.40430160 </i>
    <i name="e_wo_entrp">    -36.32498133 </i>
    <i name="e_0_energy">    -36.37786151 </i>
   </energy>
  </scstep>
  <scstep>
   <time name="dav">    8.41    8.42</time>
   <time name="total">   11.86   11.88</time>
   <energy>
    <i name="e_fr_energy">    -35.49281548 </i>
    <i name="e_wo_entrp">    -35.47314058 </i>
    <i name="e_0_energy">    -35.48625718 </i>
   </energy>
  </scstep>
  <scstep>
   <time name="dav">    7.70    7.71</time>
   <time name="total">   11.13   11.15</time>
   <energy>
    <i name="e_fr_energy">    -35.79155290 </i>
    <i name="e_wo_entrp">    -35.78255515 </i>
    <i name="e_0_energy">    -35.78855365 </i>
   </energy>
  </scstep>
  <scstep>
   <time name="dav">    7.59    7.60</time>
   <time name="total">   11.04   11.06</time>
   <energy>
    <i name="e_fr_energy">    -35.30528288 </i>
    <i name="e_wo_entrp">    -35.27722331 </i>
    <i name="e_0_energy">    -35.29592969 </i>
   </energy>
  </scstep>
  <scstep>
   <time name="dav">    8.75    8.76</time>
   <time name="total">   12.22   12.25</time>
   <energy>
    <i name="e_fr_energy">    -35.31106007 </i>
    <i name="e_wo_entrp">    -35.29405622 </i>
    <i name="e_0_energy">    -35.30539212 </i>
   </energy>
  </scstep>
  <scstep>
   <time name="dav">    8.68    8.69</time>
   <time name="total">   12.14   12.15</time>
   <energy>
    <i name="e_fr_energy">    -35.26292732 </i>
    <i name="e_wo_entrp">    -35.23589675 </i>
    <i name="e_0_energy">    -35.25391713 </i>
   </energy>
  </scstep>
  <scstep>
   <time name="dav">    7.61    7.62</time>
   <time name="total">   11.03   11.05</time>
   <energy>
    <i name="e_fr_energy">    -35.52824296 </i>
    <i name="e_wo_entrp">    -35.49468517 </i>
    <i name="e_0_energy">    -35.51705703 </i>
   </energy>
  </scstep>
  <scstep>
   <time name="dav">    8.13    8.14</time>
   <time name="total">   11.58   11.60</time>
   <energy>
    <i name="e_fr_energy">    -36.14367797 </i>
    <i name="e_wo_entrp">    -36.11043634 </i>
    <i name="e_0_energy">    -36.13259743 </i>
   </energy>
  </scstep>
  <scstep>
   <time name="dav">    8.71    8.72</time>
   <time name="total">   12.21   12.22</time>
   <energy>
    <i name="e_fr_energy">    -36.50207579 </i>
    <i name="e_wo_entrp">    -36.46701684 </i>
    <i name="e_0_energy">    -36.49038947 </i>
   </energy>
  </scstep>
  <scstep>
   <time name="dav">    7.43    7.44</time>
   <time name="total">   10.93   10.96</time>
   <energy>
    <i name="e_fr_energy">    -36.64738279 </i>
    <i name="e_wo_entrp">    -36.61214055 </i>
    <i name="e_0_energy">    -36.63563538 </i>
   </energy>
  </scstep>
  <scstep>
   <time name="dav">    8.17    8.18</time>
   <time name="total">   11.65   11.67</time>
   <energy>
    <i name="e_fr_energy">    -36.91715827 </i>
    <i name="e_wo_entrp">    -36.88869963 </i>
    <i name="e_0_energy">    -36.90767206 </i>
   </energy>
  </scstep>
  <scstep>
   <time name="dav">    8.16    8.17</time>
   <time name="total">   11.65   11.67</time>
   <energy>
    <i name="e_fr_energy">    -37.08561013 </i>
    <i name="e_wo_entrp">    -37.05402797 </i>
    <i name="e_0_energy">    -37.07508275 </i>
   </energy>
  </scstep>
  <scstep>
   <time name="dav">    7.70    7.71</time>
   <time name="total">   11.20   11.22</time>
   <energy>
    <i name="e_fr_energy">    -37.22696443 </i>
    <i name="e_wo_entrp">    -37.19412927 </i>
    <i name="e_0_energy">    -37.21601938 </i>
   </energy>
  </scstep>
  <scstep>
   <time name="dav">    7.89    7.90</time>
   <time name="total">   11.42   11.43</time>
   <energy>
    <i name="e_fr_energy">    -37.35162051 </i>
    <i name="e_wo_entrp">    -37.31874650 </i>
    <i name="e_0_energy">    -37.34066251 </i>
   </energy>
  </scstep>
  <scstep>
   <time name="dav">    8.10    8.11</time>
   <time name="total">   11.63   11.64</time>
   <energy>
    <i name="e_fr_energy">    -37.43435976 </i>
    <i name="e_wo_entrp">    -37.40108869 </i>
    <i name="e_0_energy">    -37.42326941 </i>
   </energy>
  </scstep>
  <scstep>
   <time name="dav">    7.09    7.10</time>
   <time name="total">   10.62   10.63</time>
   <energy>
    <i name="e_fr_energy">    -37.52597512 </i>
    <i name="e_wo_entrp">    -37.49264622 </i>
    <i name="e_0_energy">    -37.51486549 </i>
   </energy>
  </scstep>
  <scstep>
   <time name="dav">    6.46    6.47</time>
   <time name="total">    9.99   10.00</time>
   <energy>
    <i name="e_fr_energy">    -37.60662292 </i>
    <i name="e_wo_entrp">    -37.57450071 </i>
    <i name="e_0_energy">    -37.59591552 </i>
   </energy>
  </scstep>
  <scstep>
   <time name="dav">    7.08    7.09</time>
   <time name="total">   10.67   10.68</time>
   <energy>
    <i name="e_fr_energy">    -37.68519907 </i>
    <i name="e_wo_entrp">    -37.65421947 </i>
    <i name="e_0_energy">    -37.67487254 </i>
   </energy>
  </scstep>
  <scstep>
   <time name="dav">    6.48    6.48</time>
   <time name="total">   10.07   10.09</time>
   <energy>
    <i name="e_fr_energy">    -37.74552334 </i>
    <i name="e_wo_entrp">    -37.71472423 </i>
    <i name="e_0_energy">    -37.73525697 </i>
   </energy>
  </scstep>
  <scstep>
   <time name="dav">    6.72    6.73</time>
   <time name="total">   10.30   10.31</time>
   <energy>
    <i name="e_fr_energy">    -37.80533411 </i>
    <i name="e_wo_entrp">    -37.77514729 </i>
    <i name="e_0_energy">    -37.79527184 </i>
   </energy>
  </scstep>
  <scstep>
   <time name="dav">    5.92    5.93</time>
   <time name="total">    9.56    9.57</time>
   <energy>
    <i name="e_fr_energy">    -37.83331914 </i>
    <i name="e_wo_entrp">    -37.80313902 </i>
    <i name="e_0_energy">    -37.82325910 </i>
   </energy>
  </scstep>
  <scstep>
   <time name="dav">    5.79    5.80</time>
   <time name="total">    9.44    9.45</time>
   <energy>
    <i name="e_fr_energy">    -37.85538372 </i>
    <i name="e_wo_entrp">    -37.82512020 </i>
    <i name="e_0_energy">    -37.84529588 </i>
   </energy>
  </scstep>
  <scstep>
   <time name="dav">    5.99    5.99</time>
   <time name="total">    9.68    9.69</time>
   <energy>
    <i name="e_fr_energy">    -37.87602268 </i>
    <i name="e_wo_entrp">    -37.84570066 </i>
    <i name="e_0_energy">    -37.86591534 </i>
   </energy>
  </scstep>
  <scstep>
   <time name="dav">    5.79    5.80</time>
   <time name="total">    9.44    9.46</time>
   <energy>
    <i name="e_fr_energy">    -37.89157568 </i>
    <i name="e_wo_entrp">    -37.86091892 </i>
    <i name="e_0_energy">    -37.88135676 </i>
   </energy>
  </scstep>
  <scstep>
   <time name="dav">    5.56    5.57</time>
   <time name="total">    9.25    9.26</time>
   <energy>
    <i name="e_fr_energy">    -37.89856463 </i>
    <i name="e_wo_entrp">    -37.86792519 </i>
    <i name="e_0_energy">    -37.88835149 </i>
   </energy>
  </scstep>
  <scstep>
   <time name="dav">    5.16    5.16</time>
   <time name="total">    8.91    8.92</time>
   <energy>
    <i name="e_fr_energy">    -37.90220541 </i>
    <i name="e_wo_entrp">    -37.87144525 </i>
    <i name="e_0_energy">    -37.89195202 </i>
   </energy>
  </scstep>
  <scstep>
   <time name="dav">    5.54    5.55</time>
   <time name="total">    9.26    9.27</time>
   <energy>
    <i name="e_fr_energy">    -37.90521749 </i>
    <i name="e_wo_entrp">    -37.87441150 </i>
    <i name="e_0_energy">    -37.89494883 </i>
   </energy>
  </scstep>
  <scstep>
   <time name="dav">    4.98    4.98</time>
   <time name="total">    8.72    8.73</time>
   <energy>
    <i name="e_fr_energy">    -37.90671072 </i>
    <i name="e_wo_entrp">    -37.87586860 </i>
    <i name="e_0_energy">    -37.89643002 </i>
   </energy>
  </scstep>
  <scstep>
   <time name="dav">    5.00    5.01</time>
   <time name="total">    8.77    8.79</time>
   <energy>
    <i name="e_fr_energy">    -37.90800996 </i>
    <i name="e_wo_entrp">    -37.87710405 </i>
    <i name="e_0_energy">    -37.89770799 </i>
   </energy>
  </scstep>
  <scstep>
   <time name="dav">    5.11    5.12</time>
   <time name="total">    8.88    8.89</time>
   <energy>
    <i name="e_fr_energy">    -37.90878076 </i>
    <i name="e_wo_entrp">    -37.87789108 </i>
    <i name="e_0_energy">    -37.89848420 </i>
   </energy>
  </scstep>
  <scstep>
   <time name="dav">    4.95    4.95</time>
   <time name="total">    8.74    8.75</time>
   <energy>
    <i name="e_fr_energy">    -37.90965436 </i>
    <i name="e_wo_entrp">    -37.87869852 </i>
    <i name="e_0_energy">    -37.89933575 </i>
   </energy>
  </scstep>
  <scstep>
   <time name="dav">    5.11    5.12</time>
   <time name="total">    8.93    8.94</time>
   <energy>
    <i name="e_fr_energy">    -37.91024222 </i>
    <i name="e_wo_entrp">    -37.87928201 </i>
    <i name="e_0_energy">    -37.89992215 </i>
   </energy>
  </scstep>
  <scstep>
   <time name="dav">    5.20    5.20</time>
   <time name="total">    9.03    9.04</time>
   <energy>
    <i name="e_fr_energy">    -37.91073849 </i>
    <i name="e_wo_entrp">    -37.87976858 </i>
    <i name="e_0_energy">    -37.90041519 </i>
   </energy>
  </scstep>
  <scstep>
   <time name="dav">    5.20    5.21</time>
   <time name="total">    9.05    9.06</time>
   <energy>
    <i name="e_fr_energy">    -37.91110146 </i>
    <i name="e_wo_entrp">    -37.88013951 </i>
    <i name="e_0_energy">    -37.90078081 </i>
   </energy>
  </scstep>
  <scstep>
   <time name="dav">    5.16    5.16</time>
   <time name="total">    9.03    9.03</time>
   <energy>
    <i name="e_fr_energy">    -37.91131095 </i>
    <i name="e_wo_entrp">    -37.88035685 </i>
    <i name="e_0_energy">    -37.90099292 </i>
   </energy>
  </scstep>
  <scstep>
   <time name="dav">    4.76    4.77</time>
   <time name="total">    7.35    7.37</time>
   <energy>
    <i name="alphaZ">      4.75925485 </i>
    <i name="ewald">  13074.81756665 </i>
    <i name="hartreedc"> -22122.69709029 </i>
    <i name="XCdc">     60.38676446 </i>
    <i name="pawpsdc">  10142.47152804 </i>
    <i name="pawaedc"> -10307.18593971 </i>
    <i name="eentropy">     -0.03096486 </i>
    <i name="bandstr">   -595.39111196 </i>
    <i name="atom">   9704.95859309 </i>
    <i name="e_fr_energy">    -37.91139974 </i>
    <i name="e_wo_entrp">    -37.88043488 </i>
    <i name="e_0_energy">    -37.90107812 </i>
   </energy>
  </scstep>
  <structure>
   <crystal>
    <varray name="basis" >
     <v>      21.08005917       0.00000000       0.00000000 </v>
     <v>       0.00000000      22.29418195       0.00000000 </v>
     <v>       0.00000000       0.00000000      25.33662833 </v>
    </varray>
    <i name="volume">  11907.26961362 </i>
    <varray name="rec_basis" >
     <v>       0.04743820       0.00000000       0.00000000 </v>
     <v>       0.00000000       0.04485475       0.00000000 </v>
     <v>       0.00000000       0.00000000       0.03946855 </v>
    </varray>
   </crystal>
   <varray name="positions" >
    <v>       0.54662491       0.54010296       0.51675275 </v>
    <v>       0.57504132       0.49643043       0.43622545 </v>
    <v>       0.52292813       0.58631816       0.43382116 </v>
    <v>       0.46880190       0.49906752       0.46257278 </v>
    <v>       0.40024603       0.49819011       0.53558881 </v>
    <v>       0.49765929       0.44830001       0.54038652 </v>
    <v>       0.44472891       0.59678189       0.50907670 </v>
    <v>       0.61269363       0.44644030       0.51832725 </v>
    <v>       0.47907899       0.53483779       0.59880543 </v>
    <v>       0.52313453       0.39858547       0.45587646 </v>
   </varray>
  </structure>
  <varray name="forces" >
   <v>       0.00430220       0.01128822       0.01488726 </v>
   <v>      -0.00865845       0.03260282       0.00545878 </v>
   <v>       0.02312345      -0.00072646      -0.01337355 </v>
   <v>      -0.00691530      -0.04529353      -0.01610484 </v>
   <v>       0.00791874      -0.00106093       0.02475282 </v>
   <v>      -0.01318808      -0.00290193       0.01207355 </v>
   <v>      -0.00669610       0.00674136      -0.00582627 </v>
   <v>       0.01576516      -0.00954920       0.00658627 </v>
   <v>      -0.00462361      -0.00642388      -0.01102985 </v>
   <v>      -0.01102800       0.01532353      -0.01742415 </v>
  </varray>
  <energy>
   <i name="e_fr_energy">    -37.91139974 </i>
   <i name="e_wo_entrp">    -37.88043488 </i>
   <i name="e_0_energy">    -37.90107812 </i>
  </energy>
  <time name="totalsc">  483.19  483.91</time>
 </calculation>
 <calculation>
  <scstep>
   <time name="dav">    6.86    6.87</time>
   <time name="total">   10.24   10.25</time>
   <energy>
    <i name="alphaZ">      4.75925485 </i>
    <i name="ewald">  13072.11511052 </i>
    <i name="hartreedc"> -22120.02014005 </i>
    <i name="XCdc">     60.37989211 </i>
    <i name="pawpsdc">  10142.49511970 </i>
    <i name="pawaedc"> -10307.20978525 </i>
    <i name="eentropy">     -0.03112500 </i>
    <i name="bandstr">   -595.35857278 </i>
    <i name="atom">   9704.95859309 </i>
    <i name="e_fr_energy">    -37.91165281 </i>
    <i name="e_wo_entrp">    -37.88052781 </i>
    <i name="e_0_energy">    -37.90127781 </i>
   </energy>
  </scstep>
  <scstep>
   <time name="dav">    8.87    8.87</time>
   <time name="total">   12.26   12.27</time>
   <energy>
    <i name="e_fr_energy">    -37.91187007 </i>
    <i name="e_wo_entrp">    -37.88048117 </i>
    <i name="e_0_energy">    -37.90140710 </i>
   </energy>
  </scstep>
  <scstep>
   <time name="dav">    6.88    6.89</time>
   <time name="total">   10.28   10.29</time>
   <energy>
    <i name="e_fr_energy">    -37.91145935 </i>
    <i name="e_wo_entrp">    -37.87995014 </i>
    <i name="e_0_energy">    -37.90095628 </i>
   </energy>
  </scstep>
  <scstep>
   <time name="dav">    5.70    5.70</time>
   <time name="total">    9.11    9.12</time>
   <energy>
    <i name="e_fr_energy">    -37.91181185 </i>
    <i name="e_wo_entrp">    -37.88166925 </i>
    <i name="e_0_energy">    -37.90176432 </i>
   </energy>
  </scstep>
  <scstep>
   <time name="dav">    5.20    5.21</time>
   <time name="total">    8.60    8.61</time>
   <energy>
    <i name="e_fr_energy">    -37.91155049 </i>
    <i name="e_wo_entrp">    -37.88061704 </i>
    <i name="e_0_energy">    -37.90123934 </i>
   </energy>
  </scstep>
  <scstep>
   <time name="dav">    4.93    4.94</time>
   <time name="total">    8.34    8.35</time>
   <energy>
    <i name="e_fr_energy">    -37.91175461 </i>
    <i name="e_wo_entrp">    -37.88079711 </i>
    <i name="e_0_energy">    -37.90143544 </i>
   </energy>
  </scstep>
  <scstep>
   <time name="dav">    4.65    4.65</time>
   <time name="total">    7.23    7.25</time>
   <energy>
    <i name="alphaZ">      4.75925485 </i>
    <i name="ewald">  13072.11511052 </i>
    <i name="hartreedc"> -22119.97555686 </i>
    <i name="XCdc">     60.37996886 </i>
    <i name="pawpsdc">  10141.62414255 </i>
    <i name="pawaedc"> -10306.32112809 </i>
    <i name="eentropy">     -0.03134102 </i>
    <i name="bandstr">   -595.42084224 </i>
    <i name="atom">   9704.95859309 </i>
    <i name="e_fr_energy">    -37.91179834 </i>
    <i name="e_wo_entrp">    -37.88045732 </i>
    <i name="e_0_energy">    -37.90135134 </i>
   </energy>
  </scstep>
  <structure>
   <crystal>
    <varray name="basis" >
     <v>      21.08005917       0.00000000       0.00000000 </v>
     <v>       0.00000000      22.29418195       0.00000000 </v>
     <v>       0.00000000       0.00000000      25.33662833 </v>
    </varray>
    <i name="volume">  11907.26961362 </i>
    <varray name="rec_basis" >
     <v>       0.04743820       0.00000000       0.00000000 </v>
     <v>       0.00000000       0.04485475       0.00000000 </v>
     <v>       0.00000000       0.00000000       0.03946855 </v>
    </varray>
   </crystal>
   <varray name="positions" >
    <v>       0.54663476       0.54012739       0.51678110 </v>
    <v>       0.57502150       0.49650098       0.43623585 </v>
    <v>       0.52298105       0.58631659       0.43379569 </v>
    <v>       0.46878608       0.49896951       0.46254212 </v>
    <v>       0.40026416       0.49818782       0.53563594 </v>
    <v>       0.49762911       0.44829373       0.54040951 </v>
    <v>       0.44471359       0.59679647       0.50906561 </v>
    <v>       0.61272971       0.44641964       0.51833979 </v>
    <v>       0.47906841       0.53482389       0.59878443 </v>
    <v>       0.52310929       0.39861863       0.45584328 </v>
   </varray>
  </structure>
  <varray name="forces" >
   <v>      -0.00224782       0.00219828       0.00650549 </v>
   <v>       0.00042067       0.02141129       0.00800510 </v>
   <v>       0.01435970       0.00005506      -0.00614689 </v>
   <v>      -0.00644745      -0.02452225      -0.00334000 </v>
   <v>       0.00094296      -0.00065619       0.01597119 </v>
   <v>      -0.00141090      -0.00500755       0.00240406 </v>
   <v>       0.00018147      -0.00463198      -0.01092512 </v>
   <v>      -0.00253629      -0.00199729      -0.00163077 </v>
   <v>      -0.00054157       0.00040459      -0.00097618 </v>
   <v>      -0.00272077       0.01274604      -0.00986688 </v>
  </varray>
  <energy>
   <i name="e_fr_energy">    -37.91179834 </i>
   <i name="e_wo_entrp">    -37.88045732 </i>
   <i name="e_0_energy">    -37.90135134 </i>
  </energy>
  <time name="totalsc">   75.82   75.96</time>
 </calculation>
 <calculation>
  <scstep>
   <time name="dav">    6.70    6.71</time>
   <time name="total">   10.09   10.10</time>
   <energy>
    <i name="alphaZ">      4.75925485 </i>
    <i name="ewald">  13069.61737208 </i>
    <i name="hartreedc"> -22117.57198138 </i>
    <i name="XCdc">     60.37478913 </i>
    <i name="pawpsdc">  10141.53810806 </i>
    <i name="pawaedc"> -10306.24741964 </i>
    <i name="eentropy">     -0.03085973 </i>
    <i name="bandstr">   -595.30964710 </i>
    <i name="atom">   9704.95859309 </i>
    <i name="e_fr_energy">    -37.91179062 </i>
    <i name="e_wo_entrp">    -37.88093089 </i>
    <i name="e_0_energy">    -37.90150405 </i>
   </energy>
  </scstep>
  <scstep>
   <time name="dav">    8.47    8.48</time>
   <time name="total">   11.83   11.84</time>
   <energy>
    <i name="e_fr_energy">    -37.91185723 </i>
    <i name="e_wo_entrp">    -37.88057389 </i>
    <i name="e_0_energy">    -37.90142945 </i>
   </energy>
  </scstep>
  <scstep>
   <time name="dav">    6.83    6.83</time>
   <time name="total">   10.20   10.21</time>
   <energy>
    <i name="e_fr_energy">    -37.91180538 </i>
    <i name="e_wo_entrp">    -37.88021776 </i>
    <i name="e_0_energy">    -37.90127617 </i>
   </energy>
  </scstep>
  <scstep>
   <time name="dav">    5.21    5.22</time>
   <time name="total">    7.79    7.80</time>
   <energy>
    <i name="alphaZ">      4.75925485 </i>
    <i name="ewald">  13069.61737208 </i>
    <i name="hartreedc"> -22117.59893610 </i>
    <i name="XCdc">     60.37678289 </i>
    <i name="pawpsdc">  10140.94981608 </i>
    <i name="pawaedc"> -10305.66817770 </i>
    <i name="eentropy">     -0.03010425 </i>
    <i name="bandstr">   -595.27643907 </i>
    <i name="atom">   9704.95859309 </i>
    <i name="e_fr_energy">    -37.91183814 </i>
    <i name="e_wo_entrp">    -37.88173389 </i>
    <i name="e_0_energy">    -37.90180339 </i>
   </energy>
  </scstep>
  <structure>
   <crystal>
    <varray name="basis" >
     <v>      21.08005917       0.00000000       0.00000000 </v>
     <v>       0.00000000      22.29418195       0.00000000 </v>
     <v>       0.00000000       0.00000000      25.33662833 </v>
    </varray>
    <i name="volume">  11907.26961362 </i>
    <varray name="rec_basis" >
     <v>       0.04743820       0.00000000       0.00000000 </v>
     <v>       0.00000000       0.04485475       0.00000000 </v>
     <v>       0.00000000       0.00000000       0.03946855 </v>
    </varray>
   </crystal>
   <varray name="positions" >
    <v>       0.54664387       0.54014998       0.51680732 </v>
    <v>       0.57500317       0.49656624       0.43624546 </v>
    <v>       0.52303000       0.58631513       0.43377214 </v>
    <v>       0.46877144       0.49887884       0.46251375 </v>
    <v>       0.40028092       0.49818570       0.53567953 </v>
    <v>       0.49760119       0.44828792       0.54043077 </v>
    <v>       0.44469941       0.59680997       0.50905534 </v>
    <v>       0.61276309       0.44640053       0.51835139 </v>
    <v>       0.47905863       0.53481103       0.59876500 </v>
    <v>       0.52308594       0.39864930       0.45581259 </v>
   </varray>
  </structure>
  <varray name="forces" >
   <v>      -0.00689062      -0.00333236      -0.00105891 </v>
   <v>       0.00937011       0.01054180       0.00461510 </v>
   <v>       0.00286312      -0.00000467       0.00015746 </v>
   <v>       0.00044375      -0.00350823       0.01774060 </v>
   <v>       0.00394906       0.00367742       0.00452044 </v>
   <v>       0.00617766      -0.00146102      -0.01223871 </v>
   <v>       0.00063292      -0.01795667      -0.01585106 </v>
   <v>      -0.01281876       0.00265524      -0.00333406 </v>
   <v>       0.00025232       0.00709441       0.01390360 </v>
   <v>      -0.00397957       0.00229408      -0.00845445 </v>
  </varray>
  <energy>
   <i name="e_fr_energy">    -37.91183814 </i>
   <i name="e_wo_entrp">    -37.88173389 </i>
   <i name="e_0_energy">    -37.90180339 </i>
  </energy>
  <time name="totalsc">   48.91   48.98</time>
  <eigenvalues>
   <array>
    <dimension dim="1">band</dimension>
    <dimension dim="2">kpoint</dimension>
    <dimension dim="3">spin</dimension>
    <field>eigene</field>
    <field>occ</field>
    <set>
     <set comment="spin 1">
      <set comment="kpoint 1">
       <r>   -9.8357    1.0000 </r>
       <r>   -8.4663    1.0000 </r>
       <r>   -8.2982    1.0000 </r>
       <r>   -7.9173    1.0000 </r>
       <r>   -7.8293    1.0000 </r>
       <r>   -7.7535    1.0000 </r>
       <r>   -7.5672    1.0000 </r>
       <r>   -7.5019    1.0000 </r>
       <r>   -7.4738    1.0000 </r>
       <r>   -7.3817    1.0000 </r>
       <r>   -7.3644    1.0000 </r>
       <r>   -7.2226    1.0000 </r>
       <r>   -7.0251    1.0000 </r>
       <r>   -6.9737    1.0000 </r>
       <r>   -6.7824    1.0000 </r>
       <r>   -6.7125    1.0000 </r>
       <r>   -6.6072    1.0000 </r>
       <r>   -6.5678    1.0000 </r>
       <r>   -6.4624    1.0000 </r>
       <r>   -6.4322    1.0000 </r>
       <r>   -6.3737    1.0000 </r>
       <r>   -6.3457    1.0000 </r>
       <r>   -6.2492    1.0000 </r>
       <r>   -6.2166    1.0000 </r>
       <r>   -6.1395    1.0000 </r>
       <r>   -5.9975    1.0000 </r>
       <r>   -5.9190    1.0000 </r>
       <r>   -5.8743    1.0000 </r>
       <r>   -5.7160    1.0000 </r>
       <r>   -5.6474    1.0000 </r>
       <r>   -5.5781    1.0000 </r>
       <r>   -5.5069    1.0000 </r>
       <r>   -5.4372    1.0000 </r>
       <r>   -5.3943    1.0000 </r>
       <r>   -5.3606    1.0000 </r>
       <r>   -5.3447    1.0000 </r>
       <r>   -5.3045    1.0000 </r>
       <r>   -5.2694    1.0000 </r>
       <r>   -5.2152    1.0000 </r>
       <r>   -5.1490    1.0000 </r>
       <r>   -5.1247    1.0000 </r>
       <r>   -5.0939    1.0000 </r>
       <r>   -5.0830    1.0000 </r>
       <r>   -5.0669    1.0000 </r>
       <r>   -5.0205    1.0000 </r>
       <r>   -4.9599    1.0000 </r>
       <r>   -4.9015    1.0000 </r>
       <r>   -4.8956    1.0000 </r>
       <r>   -4.8623    1.0000 </r>
       <r>   -4.8520    1.0000 </r>
       <r>   -4.8013    1.0000 </r>
       <r>   -4.6332    1.0003 </r>
       <r>   -4.6040    1.0007 </r>
       <r>   -4.1946    0.9025 </r>
       <r>   -3.0122   -0.0000 </r>
       <r>   -2.9077   -0.0000 </r>
       <r>   -2.7016   -0.0000 </r>
       <r>   -2.6369   -0.0000 </r>
       <r>   -1.9979   -0.0000 </r>
       <r>   -1.6330   -0.0000 </r>
       <r>   -1.0341   -0.0000 </r>
       <r>   -0.9020   -0.0000 </r>
       <r>   -0.6732   -0.0000 </r>
       <r>   -0.5717   -0.0000 </r>
       <r>   -0.3574   -0.0000 </r>
       <r>   -0.2670   -0.0000 </r>
      </set>
     </set>
     <set comment="spin 2">
      <set comment="kpoint 1">
       <r>   -9.7708    1.0000 </r>
       <r>   -8.2167    1.0000 </r>
       <r>   -7.9845    1.0000 </r>
       <r>   -7.4299    1.0000 </r>
       <r>   -7.3459    1.0000 </r>
       <r>   -7.1389    1.0000 </r>
       <r>   -6.9679    1.0000 </r>
       <r>   -6.9224    1.0000 </r>
       <r>   -6.7734    1.0000 </r>
       <r>   -6.7465    1.0000 </r>
       <r>   -6.6438    1.0000 </r>
       <r>   -6.5279    1.0000 </r>
       <r>   -6.4652    1.0000 </r>
       <r>   -6.3342    1.0000 </r>
       <r>   -6.2048    1.0000 </r>
       <r>   -6.1191    1.0000 </r>
       <r>   -6.0725    1.0000 </r>
       <r>   -5.9878    1.0000 </r>
       <r>   -5.9784    1.0000 </r>
       <r>   -5.9152    1.0000 </r>
       <r>   -5.8347    1.0000 </r>
       <r>   -5.8143    1.0000 </r>
       <r>   -5.7145    1.0000 </r>
       <r>   -5.6074    1.0000 </r>
       <r>   -5.4981    1.0000 </r>
       <r>   -5.4176    1.0000 </r>
       <r>   -5.3521    1.0000 </r>
       <r>   -5.2848    1.0000 </r>
       <r>   -5.2063    1.0000 </r>
       <r>   -5.0163    1.0000 </r>
       <r>   -4.9965    1.0000 </r>
       <r>   -4.8948    1.0000 </r>
       <r>   -4.8501    1.0000 </r>
       <r>   -4.8048    1.0000 </r>
       <r>   -4.7603    1.0000 </r>
       <r>   -4.6874    1.0001 </r>
       <r>   -4.6028    1.0007 </r>
       <r>   -4.5452    1.0025 </r>
       <r>   -4.5221    1.0040 </r>
       <r>   -4.4322    1.0164 </r>
       <r>   -4.4269    1.0175 </r>
       <r>   -4.3808    1.0279 </r>
       <r>   -4.3101    1.0342 </r>
       <r>   -4.2341    0.9791 </r>
       <r>   -4.1478    0.7622 </r>
       <r>   -4.0990    0.5711 </r>
       <r>   -4.0647    0.4266 </r>
       <r>   -4.0021    0.1896 </r>
       <r>   -3.9904    0.1534 </r>
       <r>   -3.8983   -0.0145 </r>
       <r>   -3.8828   -0.0248 </r>
       <r>   -3.7786   -0.0269 </r>
       <r>   -3.7257   -0.0151 </r>
       <r>   -3.6800   -0.0077 </r>
       <r>   -2.7771   -0.0000 </r>
       <r>   -2.6800   -0.0000 </r>
       <r>   -2.4082   -0.0000 </r>
       <r>   -2.3294   -0.0000 </r>
       <r>   -1.7665   -0.0000 </r>
       <r>   -1.3335   -0.0000 </r>
       <r>   -0.9279   -0.0000 </r>
       <r>   -0.7626   -0.0000 </r>
       <r>   -0.5472   -0.0000 </r>
       <r>   -0.4263   -0.0000 </r>
       <r>   -0.1744   -0.0000 </r>
       <r>   -0.1120   -0.0000 </r>
      </set>
     </set>
    </set>
   </array>
  </eigenvalues>
  <separator name="orbital magnetization" >
   <v name="MAGDIPOLOUT">      0.00000000      0.00000000      0.00000000</v>
  </separator>
  <dos>
   <i name="efermi">     -4.08209240 </i>
   <total>
    <array>
     <dimension dim="1">gridpoints</dimension>
     <dimension dim="2">spin</dimension>
     <field>energy</field>
     <field>total</field>
     <field>integrated</field>
     <set>
      <set comment="spin 1">
       <r>   -11.8357     0.0000     0.0000 </r>
       <r>   -11.7899     0.0000     0.0000 </r>
       <r>   -11.7442     0.0000     0.0000 </r>
       <r>   -11.6985     0.0000     0.0000 </r>
       <r>   -11.6527     0.0000     0.0000 </r>
       <r>   -11.6070     0.0000     0.0000 </r>
       <r>   -11.5612     0.0000     0.0000 </r>
       <r>   -11.5155     0.0000     0.0000 </r>
       <r>   -11.4697    -0.0000    -0.0000 </r>
       <r>   -11.4240    -0.0000    -0.0000 </r>
       <r>   -11.3782    -0.0000    -0.0000 </r>
       <r>   -11.3325    -0.0000    -0.0000 </r>
       <r>   -11.2867    -0.0000    -0.0000 </r>
       <r>   -11.2410    -0.0000    -0.0000 </r>
       <r>   -11.1953    -0.0000    -0.0000 </r>
       <r>   -11.1495    -0.0000    -0.0000 </r>
       <r>   -11.1038    -0.0000    -0.0000 </r>
       <r>   -11.0580    -0.0000    -0.0000 </r>
       <r>   -11.0123    -0.0000    -0.0000 </r>
       <r>   -10.9665    -0.0000    -0.0000 </r>
       <r>   -10.9208    -0.0000    -0.0000 </r>
       <r>   -10.8750    -0.0000    -0.0000 </r>
       <r>   -10.8293    -0.0000    -0.0000 </r>
       <r>   -10.7835    -0.0000    -0.0000 </r>
       <r>   -10.7378    -0.0000    -0.0000 </r>
       <r>   -10.6921    -0.0000    -0.0000 </r>
       <r>   -10.6463    -0.0000    -0.0000 </r>
       <r>   -10.6006    -0.0000    -0.0000 </r>
       <r>   -10.5548    -0.0000    -0.0000 </r>
       <r>   -10.5091    -0.0002    -0.0000 </r>
       <r>   -10.4633    -0.0007    -0.0000 </r>
       <r>   -10.4176    -0.0024    -0.0002 </r>
       <r>   -10.3718    -0.0075    -0.0005 </r>
       <r>   -10.3261    -0.0204    -0.0014 </r>
       <r>   -10.2803    -0.0483    -0.0036 </r>
       <r>   -10.2346    -0.0983    -0.0081 </r>
       <r>   -10.1889    -0.1671    -0.0158 </r>
       <r>   -10.1431    -0.2228    -0.0260 </r>
       <r>   -10.0974    -0.1864    -0.0345 </r>
       <r>   -10.0516     0.0647    -0.0315 </r>
       <r>   -10.0059     0.6469    -0.0019 </r>
       <r>    -9.9601     1.5790     0.0703 </r>
       <r>    -9.9144     2.7020     0.1939 </r>
       <r>    -9.8686     3.6897     0.3627 </r>
       <r>    -9.8229     4.1833     0.5540 </r>
       <r>    -9.7771     3.9853     0.7364 </r>
       <r>    -9.7314     3.1763     0.8817 </r>
       <r>    -9.6857     2.0664     0.9762 </r>
       <r>    -9.6399     1.0190     1.0228 </r>
       <r>    -9.5942     0.2757     1.0354 </r>
       <r>    -9.5484    -0.1102     1.0304 </r>
       <r>    -9.5027    -0.2247     1.0201 </r>
       <r>    -9.4569    -0.1967     1.0111 </r>
       <r>    -9.4112    -0.1272     1.0053 </r>
       <r>    -9.3654    -0.0674     1.0022 </r>
       <r>    -9.3197    -0.0304     1.0008 </r>
       <r>    -9.2739    -0.0119     1.0003 </r>
       <r>    -9.2282    -0.0041     1.0001 </r>
       <r>    -9.1824    -0.0013     1.0000 </r>
       <r>    -9.1367    -0.0005     1.0000 </r>
       <r>    -9.0910    -0.0008     1.0000 </r>
       <r>    -9.0452    -0.0027     0.9998 </r>
       <r>    -8.9995    -0.0081     0.9995 </r>
       <r>    -8.9537    -0.0220     0.9985 </r>
       <r>    -8.9080    -0.0520     0.9961 </r>
       <r>    -8.8622    -0.1061     0.9912 </r>
       <r>    -8.8165    -0.1829     0.9829 </r>
       <r>    -8.7707    -0.2535     0.9713 </r>
       <r>    -8.7250    -0.2431     0.9601 </r>
       <r>    -8.6792    -0.0324     0.9587 </r>
       <r>    -8.6335     0.5037     0.9817 </r>
       <r>    -8.5878     1.4229     1.0468 </r>
       <r>    -8.5420     2.6522     1.1681 </r>
       <r>    -8.4963     3.9856     1.3504 </r>
       <r>    -8.4505     5.1568     1.5863 </r>
       <r>    -8.4048     5.9343     1.8578 </r>
       <r>    -8.3590     6.1737     2.1402 </r>
       <r>    -8.3133     5.8210     2.4065 </r>
       <r>    -8.2675     4.9124     2.6312 </r>
       <r>    -8.2218     3.6054     2.7962 </r>
       <r>    -8.1760     2.2070     2.8971 </r>
       <r>    -8.1303     1.1369     2.9491 </r>
       <r>    -8.0846     0.8080     2.9861 </r>
       <r>    -8.0388     1.4701     3.0533 </r>
       <r>    -7.9931     3.0882     3.1946 </r>
       <r>    -7.9473     5.3104     3.4375 </r>
       <r>    -7.9016     7.5522     3.7830 </r>
       <r>    -7.8558     9.1930     4.2036 </r>
       <r>    -7.8101     9.8330     4.6534 </r>
       <r>    -7.7643     9.5041     5.0881 </r>
       <r>    -7.7186     8.7083     5.4865 </r>
       <r>    -7.6728     8.2138     5.8623 </r>
       <r>    -7.6271     8.6739     6.2591 </r>
       <r>    -7.5814    10.2681     6.7288 </r>
       <r>    -7.5356    12.5841     7.3044 </r>
       <r>    -7.4899    14.8167     7.9822 </r>
       <r>    -7.4441    16.1571     8.7213 </r>
       <r>    -7.3984    16.1409     9.4597 </r>
       <r>    -7.3526    14.7887    10.1362 </r>
       <r>    -7.3069    12.5281    10.7093 </r>
       <r>    -7.2611     9.9942    11.1665 </r>
       <r>    -7.2154     7.8203    11.5243 </r>
       <r>    -7.1696     6.4674    11.8201 </r>
       <r>    -7.1239     6.0971    12.0990 </r>
       <r>    -7.0782     6.5143    12.3970 </r>
       <r>    -7.0324     7.2446    12.7285 </r>
       <r>    -6.9867     7.7789    13.0843 </r>
       <r>    -6.9409     7.8709    13.4444 </r>
       <r>    -6.8952     7.6758    13.7955 </r>
       <r>    -6.8494     7.6049    14.1434 </r>
       <r>    -6.8037     8.0073    14.5097 </r>
       <r>    -6.7579     8.9410    14.9187 </r>
       <r>    -6.7122    10.1965    15.3851 </r>
       <r>    -6.6664    11.5057    15.9115 </r>
       <r>    -6.6207    12.7360    16.4941 </r>
       <r>    -6.5750    13.9256    17.1311 </r>
       <r>    -6.5292    15.1691    17.8250 </r>
       <r>    -6.4835    16.4664    18.5783 </r>
       <r>    -6.4377    17.6539    19.3859 </r>
       <r>    -6.3920    18.4630    20.2305 </r>
       <r>    -6.3462    18.6546    21.0838 </r>
       <r>    -6.3005    18.1244    21.9130 </r>
       <r>    -6.2547    16.9246    22.6872 </r>
       <r>    -6.2090    15.2374    23.3842 </r>
       <r>    -6.1632    13.3602    23.9954 </r>
       <r>    -6.1175    11.6832    24.5298 </r>
       <r>    -6.0718    10.5836    25.0140 </r>
       <r>    -6.0260    10.2340    25.4822 </r>
       <r>    -5.9803    10.4604    25.9607 </r>
       <r>    -5.9345    10.8163    26.4555 </r>
       <r>    -5.8888    10.8741    26.9529 </r>
       <r>    -5.8430    10.5238    27.4343 </r>
       <r>    -5.7973    10.0338    27.8933 </r>
       <r>    -5.7515     9.8260    28.3428 </r>
       <r>    -5.7058    10.1700    28.8081 </r>
       <r>    -5.6600    11.0578    29.3139 </r>
       <r>    -5.6143    12.3343    29.8781 </r>
       <r>    -5.5686    13.9139    30.5146 </r>
       <r>    -5.5228    15.8492    31.2397 </r>
       <r>    -5.4771    18.1803    32.0713 </r>
       <r>    -5.4313    20.7286    33.0196 </r>
       <r>    -5.3856    23.0713    34.0750 </r>
       <r>    -5.3398    24.7802    35.2086 </r>
       <r>    -5.2941    25.7405    36.3861 </r>
       <r>    -5.2483    26.2535    37.5871 </r>
       <r>    -5.2026    26.7956    38.8128 </r>
       <r>    -5.1568    27.6322    40.0769 </r>
       <r>    -5.1111    28.6347    41.3868 </r>
       <r>    -5.0654    29.4472    42.7339 </r>
       <r>    -5.0196    29.7843    44.0964 </r>
       <r>    -4.9739    29.5354    45.4475 </r>
       <r>    -4.9281    28.6132    46.7564 </r>
       <r>    -4.8824    26.8264    47.9836 </r>
       <r>    -4.8366    24.0228    49.0825 </r>
       <r>    -4.7909    20.3906    50.0153 </r>
       <r>    -4.7451    16.5405    50.7719 </r>
       <r>    -4.6994    13.1850    51.3751 </r>
       <r>    -4.6536    10.6663    51.8630 </r>
       <r>    -4.6079     8.7750    52.2644 </r>
       <r>    -4.5622     7.0202    52.5856 </r>
       <r>    -4.5164     5.0917    52.8185 </r>
       <r>    -4.4707     3.1119    52.9609 </r>
       <r>    -4.4249     1.5206    53.0304 </r>
       <r>    -4.3792     0.7480    53.0646 </r>
       <r>    -4.3334     0.9362    53.1075 </r>
       <r>    -4.2877     1.8536    53.1923 </r>
       <r>    -4.2419     3.0006    53.3295 </r>
       <r>    -4.1962     3.8295    53.5047 </r>
       <r>    -4.1504     3.9792    53.6867 </r>
       <r>    -4.1047     3.4149    53.8430 </r>
       <r>    -4.0590     2.3983    53.9527 </r>
       <r>    -4.0132     1.3139    54.0128 </r>
       <r>    -3.9675     0.4669    54.0341 </r>
       <r>    -3.9217    -0.0248    54.0330 </r>
       <r>    -3.8760    -0.2102    54.0234 </r>
       <r>    -3.8302    -0.2138    54.0136 </r>
       <r>    -3.7845    -0.1495    54.0068 </r>
       <r>    -3.7387    -0.0838    54.0029 </r>
       <r>    -3.6930    -0.0398    54.0011 </r>
       <r>    -3.6472    -0.0168    54.0003 </r>
       <r>    -3.6015    -0.0079    54.0000 </r>
       <r>    -3.5558    -0.0085    53.9996 </r>
       <r>    -3.5100    -0.0194    53.9987 </r>
       <r>    -3.4643    -0.0472    53.9965 </r>
       <r>    -3.4185    -0.1019    53.9919 </r>
       <r>    -3.3728    -0.1892    53.9832 </r>
       <r>    -3.3270    -0.2912    53.9699 </r>
       <r>    -3.2813    -0.3415    53.9543 </r>
       <r>    -3.2355    -0.2089    53.9447 </r>
       <r>    -3.1898     0.2799    53.9575 </r>
       <r>    -3.1440     1.2615    54.0152 </r>
       <r>    -3.0983     2.7239    54.1398 </r>
       <r>    -3.0526     4.4326    54.3426 </r>
       <r>    -3.0068     5.9788    54.6161 </r>
       <r>    -2.9611     6.9665    54.9348 </r>
       <r>    -2.9153     7.2467    55.2663 </r>
       <r>    -2.8696     7.0342    55.5881 </r>
       <r>    -2.8238     6.7890    55.8987 </r>
       <r>    -2.7781     6.9027    56.2144 </r>
       <r>    -2.7323     7.4023    56.5530 </r>
       <r>    -2.6866     7.9006    56.9145 </r>
       <r>    -2.6408     7.8515    57.2736 </r>
       <r>    -2.5951     6.9280    57.5906 </r>
       <r>    -2.5494     5.2404    57.8303 </r>
       <r>    -2.5036     3.2512    57.9790 </r>
       <r>    -2.4579     1.4840    58.0469 </r>
       <r>    -2.4121     0.2570    58.0587 </r>
       <r>    -2.3664    -0.3952    58.0406 </r>
       <r>    -2.3206    -0.6163    58.0124 </r>
       <r>    -2.2749    -0.5585    57.9868 </r>
       <r>    -2.2291    -0.2722    57.9744 </r>
       <r>    -2.1834     0.2891    57.9876 </r>
       <r>    -2.1376     1.1654    58.0409 </r>
       <r>    -2.0919     2.2637    58.1445 </r>
       <r>    -2.0462     3.3101    58.2959 </r>
       <r>    -2.0004     3.9435    58.4763 </r>
       <r>    -1.9547     3.9186    58.6555 </r>
       <r>    -1.9089     3.2848    58.8058 </r>
       <r>    -1.8632     2.4034    58.9158 </r>
       <r>    -1.8174     1.7696    58.9967 </r>
       <r>    -1.7717     1.7398    59.0763 </r>
       <r>    -1.7259     2.3308    59.1829 </r>
       <r>    -1.6802     3.2099    59.3298 </r>
       <r>    -1.6344     3.8829    59.5074 </r>
       <r>    -1.5887     3.9664    59.6888 </r>
       <r>    -1.5430     3.3796    59.8434 </r>
       <r>    -1.4972     2.3456    59.9507 </r>
       <r>    -1.4515     1.2239    60.0067 </r>
       <r>    -1.4057     0.3089    60.0208 </r>
       <r>    -1.3600    -0.2705    60.0085 </r>
       <r>    -1.3142    -0.5118    59.9851 </r>
       <r>    -1.2685    -0.4325    59.9653 </r>
       <r>    -1.2227     0.0012    59.9653 </r>
       <r>    -1.1770     0.8535    60.0044 </r>
       <r>    -1.1312     2.1244    60.1015 </r>
       <r>    -1.0855     3.6618    60.2691 </r>
       <r>    -1.0398     5.1552    60.5049 </r>
       <r>    -0.9940     6.2378    60.7902 </r>
       <r>    -0.9483     6.6511    61.0945 </r>
       <r>    -0.9025     6.3871    61.3867 </r>
       <r>    -0.8568     5.7253    61.6486 </r>
       <r>    -0.8110     5.1209    61.8828 </r>
       <r>    -0.7653     4.9751    62.1104 </r>
       <r>    -0.7195     5.4040    62.3576 </r>
       <r>    -0.6738     6.1611    62.6395 </r>
       <r>    -0.6280     6.7926    62.9502 </r>
       <r>    -0.5823     6.9454    63.2679 </r>
       <r>    -0.5366     6.6171    63.5706 </r>
       <r>    -0.4908     6.1584    63.8523 </r>
       <r>    -0.4451     6.0129    64.1274 </r>
       <r>    -0.3993     6.3766    64.4191 </r>
       <r>    -0.3536     7.0273    64.7406 </r>
       <r>    -0.3078     7.4517    65.0814 </r>
       <r>    -0.2621     7.1748    65.4097 </r>
       <r>    -0.2163     6.0555    65.6867 </r>
       <r>    -0.1706     4.3520    65.8858 </r>
       <r>    -0.1248     2.5453    66.0022 </r>
       <r>    -0.0791     1.0712    66.0512 </r>
       <r>    -0.0334     0.1394    66.0576 </r>
       <r>     0.0124    -0.2819    66.0447 </r>
       <r>     0.0581    -0.3621    66.0281 </r>
       <r>     0.1039    -0.2848    66.0151 </r>
       <r>     0.1496    -0.1755    66.0071 </r>
       <r>     0.1954    -0.0906    66.0029 </r>
       <r>     0.2411    -0.0403    66.0011 </r>
       <r>     0.2869    -0.0157    66.0003 </r>
       <r>     0.3326    -0.0054    66.0001 </r>
       <r>     0.3784    -0.0016    66.0000 </r>
       <r>     0.4241    -0.0004    66.0000 </r>
       <r>     0.4698    -0.0001    66.0000 </r>
       <r>     0.5156    -0.0000    66.0000 </r>
       <r>     0.5613    -0.0000    66.0000 </r>
       <r>     0.6071    -0.0000    66.0000 </r>
       <r>     0.6528    -0.0000    66.0000 </r>
       <r>     0.6986    -0.0000    66.0000 </r>
       <r>     0.7443    -0.0000    66.0000 </r>
       <r>     0.7901    -0.0000    66.0000 </r>
       <r>     0.8358    -0.0000    66.0000 </r>
       <r>     0.8816    -0.0000    66.0000 </r>
       <r>     0.9273    -0.0000    66.0000 </r>
       <r>     0.9730    -0.0000    66.0000 </r>
       <r>     1.0188     0.0000    66.0000 </r>
       <r>     1.0645     0.0000    66.0000 </r>
       <r>     1.1103     0.0000    66.0000 </r>
       <r>     1.1560     0.0000    66.0000 </r>
       <r>     1.2018     0.0000    66.0000 </r>
       <r>     1.2475     0.0000    66.0000 </r>
       <r>     1.2933     0.0000    66.0000 </r>
       <r>     1.3390     0.0000    66.0000 </r>
       <r>     1.3848     0.0000    66.0000 </r>
       <r>     1.4305     0.0000    66.0000 </r>
       <r>     1.4762     0.0000    66.0000 </r>
       <r>     1.5220     0.0000    66.0000 </r>
       <r>     1.5677     0.0000    66.0000 </r>
       <r>     1.6135     0.0000    66.0000 </r>
       <r>     1.6592     0.0000    66.0000 </r>
       <r>     1.7050     0.0000    66.0000 </r>
       <r>     1.7507     0.0000    66.0000 </r>
       <r>     1.7965     0.0000    66.0000 </r>
       <r>     1.8422     0.0000    66.0000 </r>
       <r>     1.8880     0.0000    66.0000 </r>
      </set>
      <set comment="spin 2">
       <r>   -11.8357     0.0000     0.0000 </r>
       <r>   -11.7899     0.0000     0.0000 </r>
       <r>   -11.7442     0.0000     0.0000 </r>
       <r>   -11.6985     0.0000     0.0000 </r>
       <r>   -11.6527     0.0000     0.0000 </r>
       <r>   -11.6070     0.0000     0.0000 </r>
       <r>   -11.5612     0.0000     0.0000 </r>
       <r>   -11.5155     0.0000     0.0000 </r>
       <r>   -11.4697     0.0000     0.0000 </r>
       <r>   -11.4240     0.0000     0.0000 </r>
       <r>   -11.3782    -0.0000    -0.0000 </r>
       <r>   -11.3325    -0.0000    -0.0000 </r>
       <r>   -11.2867    -0.0000    -0.0000 </r>
       <r>   -11.2410    -0.0000    -0.0000 </r>
       <r>   -11.1953    -0.0000    -0.0000 </r>
       <r>   -11.1495    -0.0000    -0.0000 </r>
       <r>   -11.1038    -0.0000    -0.0000 </r>
       <r>   -11.0580    -0.0000    -0.0000 </r>
       <r>   -11.0123    -0.0000    -0.0000 </r>
       <r>   -10.9665    -0.0000    -0.0000 </r>
       <r>   -10.9208    -0.0000    -0.0000 </r>
       <r>   -10.8750    -0.0000    -0.0000 </r>
       <r>   -10.8293    -0.0000    -0.0000 </r>
       <r>   -10.7835    -0.0000    -0.0000 </r>
       <r>   -10.7378    -0.0000    -0.0000 </r>
       <r>   -10.6921    -0.0000    -0.0000 </r>
       <r>   -10.6463    -0.0000    -0.0000 </r>
       <r>   -10.6006    -0.0000    -0.0000 </r>
       <r>   -10.5548    -0.0000    -0.0000 </r>
       <r>   -10.5091    -0.0000    -0.0000 </r>
       <r>   -10.4633    -0.0001    -0.0000 </r>
       <r>   -10.4176    -0.0004    -0.0000 </r>
       <r>   -10.3718    -0.0015    -0.0001 </r>
       <r>   -10.3261    -0.0048    -0.0003 </r>
       <r>   -10.2803    -0.0137    -0.0009 </r>
       <r>   -10.2346    -0.0343    -0.0025 </r>
       <r>   -10.1889    -0.0745    -0.0059 </r>
       <r>   -10.1431    -0.1372    -0.0122 </r>
       <r>   -10.0974    -0.2050    -0.0216 </r>
       <r>   -10.0516    -0.2200    -0.0316 </r>
       <r>   -10.0059    -0.0749    -0.0351 </r>
       <r>    -9.9601     0.3587    -0.0186 </r>
       <r>    -9.9144     1.1527     0.0341 </r>
       <r>    -9.8686     2.2278     0.1360 </r>
       <r>    -9.8229     3.3181     0.2878 </r>
       <r>    -9.7771     4.0556     0.4733 </r>
       <r>    -9.7314     4.1536     0.6633 </r>
       <r>    -9.6857     3.5722     0.8267 </r>
       <r>    -9.6399     2.5422     0.9430 </r>
       <r>    -9.5942     1.4293     1.0084 </r>
       <r>    -9.5484     0.5417     1.0332 </r>
       <r>    -9.5027     0.0110     1.0337 </r>
       <r>    -9.4569    -0.2015     1.0245 </r>
       <r>    -9.4112    -0.2181     1.0145 </r>
       <r>    -9.3654    -0.1569     1.0073 </r>
       <r>    -9.3197    -0.0897     1.0032 </r>
       <r>    -9.2739    -0.0431     1.0012 </r>
       <r>    -9.2282    -0.0179     1.0004 </r>
       <r>    -9.1824    -0.0065     1.0001 </r>
       <r>    -9.1367    -0.0021     1.0000 </r>
       <r>    -9.0910    -0.0006     1.0000 </r>
       <r>    -9.0452    -0.0001     1.0000 </r>
       <r>    -8.9995    -0.0000     1.0000 </r>
       <r>    -8.9537    -0.0000     1.0000 </r>
       <r>    -8.9080    -0.0001     1.0000 </r>
       <r>    -8.8622    -0.0004     1.0000 </r>
       <r>    -8.8165    -0.0015     0.9999 </r>
       <r>    -8.7707    -0.0049     0.9997 </r>
       <r>    -8.7250    -0.0140     0.9990 </r>
       <r>    -8.6792    -0.0352     0.9974 </r>
       <r>    -8.6335    -0.0763     0.9939 </r>
       <r>    -8.5878    -0.1404     0.9875 </r>
       <r>    -8.5420    -0.2109     0.9779 </r>
       <r>    -8.4963    -0.2318     0.9673 </r>
       <r>    -8.4505    -0.1006     0.9627 </r>
       <r>    -8.4048     0.3030     0.9765 </r>
       <r>    -8.3590     1.0444     1.0243 </r>
       <r>    -8.3133     2.0556     1.1183 </r>
       <r>    -8.2675     3.1217     1.2611 </r>
       <r>    -8.2218     3.9794     1.4432 </r>
       <r>    -8.1760     4.4756     1.6479 </r>
       <r>    -8.1303     4.6549     1.8609 </r>
       <r>    -8.0846     4.6837     2.0751 </r>
       <r>    -8.0388     4.6704     2.2888 </r>
       <r>    -7.9931     4.5514     2.4970 </r>
       <r>    -7.9473     4.1544     2.6870 </r>
       <r>    -7.9016     3.3759     2.8414 </r>
       <r>    -7.8558     2.3014     2.9467 </r>
       <r>    -7.8101     1.1664     3.0001 </r>
       <r>    -7.7643     0.2197     3.0101 </r>
       <r>    -7.7186    -0.3777     2.9929 </r>
       <r>    -7.6728    -0.5439     2.9680 </r>
       <r>    -7.6271    -0.2101     2.9584 </r>
       <r>    -7.5814     0.6987     2.9903 </r>
       <r>    -7.5356     2.1844     3.0903 </r>
       <r>    -7.4899     4.0577     3.2759 </r>
       <r>    -7.4441     5.9041     3.5460 </r>
       <r>    -7.3984     7.2198     3.8762 </r>
       <r>    -7.3526     7.6638     4.2268 </r>
       <r>    -7.3069     7.2568     4.5588 </r>
       <r>    -7.2611     6.3731     4.8503 </r>
       <r>    -7.2154     5.5300     5.1033 </r>
       <r>    -7.1696     5.1323     5.3381 </r>
       <r>    -7.1239     5.3399     5.5824 </r>
       <r>    -7.0782     6.0902     5.8610 </r>
       <r>    -7.0324     7.1906     6.1899 </r>
       <r>    -6.9867     8.4056     6.5744 </r>
       <r>    -6.9409     9.5299     7.0104 </r>
       <r>    -6.8952    10.4489     7.4883 </r>
       <r>    -6.8494    11.1478     7.9983 </r>
       <r>    -6.8037    11.6479     8.5311 </r>
       <r>    -6.7579    11.9347     9.0771 </r>
       <r>    -6.7122    11.9652     9.6245 </r>
       <r>    -6.6664    11.7482    10.1619 </r>
       <r>    -6.6207    11.3842    10.6827 </r>
       <r>    -6.5750    10.9955    11.1857 </r>
       <r>    -6.5292    10.6156    11.6713 </r>
       <r>    -6.4835    10.1677    12.1364 </r>
       <r>    -6.4377     9.5689    12.5741 </r>
       <r>    -6.3920     8.8646    12.9796 </r>
       <r>    -6.3462     8.2689    13.3579 </r>
       <r>    -6.3005     8.0806    13.7276 </r>
       <r>    -6.2547     8.5437    14.1184 </r>
       <r>    -6.2090     9.7383    14.5639 </r>
       <r>    -6.1632    11.5485    15.0922 </r>
       <r>    -6.1175    13.6992    15.7188 </r>
       <r>    -6.0718    15.8350    16.4432 </r>
       <r>    -6.0260    17.6074    17.2487 </r>
       <r>    -5.9803    18.7464    18.1062 </r>
       <r>    -5.9345    19.1016    18.9801 </r>
       <r>    -5.8888    18.6492    19.8332 </r>
       <r>    -5.8430    17.4804    20.6328 </r>
       <r>    -5.7973    15.7858    21.3550 </r>
       <r>    -5.7515    13.8406    21.9881 </r>
       <r>    -5.7058    11.9734    22.5358 </r>
       <r>    -5.6600    10.5058    23.0164 </r>
       <r>    -5.6143     9.6779    23.4591 </r>
       <r>    -5.5686     9.5888    23.8978 </r>
       <r>    -5.5228    10.1748    24.3632 </r>
       <r>    -5.4771    11.2207    24.8765 </r>
       <r>    -5.4313    12.3947    25.4435 </r>
       <r>    -5.3856    13.3068    26.0523 </r>
       <r>    -5.3398    13.6006    26.6744 </r>
       <r>    -5.2941    13.0747    27.2725 </r>
       <r>    -5.2483    11.8007    27.8124 </r>
       <r>    -5.2026    10.1675    28.2775 </r>
       <r>    -5.1568     8.7848    28.6793 </r>
       <r>    -5.1111     8.2452    29.0565 </r>
       <r>    -5.0654     8.8581    29.4618 </r>
       <r>    -5.0196    10.5148    29.9428 </r>
       <r>    -4.9739    12.7659    30.5267 </r>
       <r>    -4.9281    15.0325    31.2144 </r>
       <r>    -4.8824    16.8097    31.9834 </r>
       <r>    -4.8366    17.7863    32.7970 </r>
       <r>    -4.7909    17.9070    33.6162 </r>
       <r>    -4.7451    17.4000    34.4121 </r>
       <r>    -4.6994    16.7260    35.1773 </r>
       <r>    -4.6536    16.4043    35.9277 </r>
       <r>    -4.6079    16.7662    36.6947 </r>
       <r>    -4.5622    17.7776    37.5079 </r>
       <r>    -4.5164    19.0435    38.3791 </r>
       <r>    -4.4707    19.9946    39.2937 </r>
       <r>    -4.4249    20.1558    40.2158 </r>
       <r>    -4.3792    19.3743    41.1021 </r>
       <r>    -4.3334    17.9131    41.9215 </r>
       <r>    -4.2877    16.3613    42.6700 </r>
       <r>    -4.2419    15.3844    43.3737 </r>
       <r>    -4.1962    15.4194    44.0791 </r>
       <r>    -4.1504    16.4662    44.8324 </r>
       <r>    -4.1047    18.0901    45.6599 </r>
       <r>    -4.0590    19.6368    46.5582 </r>
       <r>    -4.0132    20.5428    47.4979 </r>
       <r>    -3.9675    20.5724    48.4390 </r>
       <r>    -3.9217    19.8633    49.3477 </r>
       <r>    -3.8760    18.7681    50.2062 </r>
       <r>    -3.8302    17.5921    51.0110 </r>
       <r>    -3.7845    16.3841    51.7605 </r>
       <r>    -3.7387    14.9188    52.4430 </r>
       <r>    -3.6930    12.8933    53.0328 </r>
       <r>    -3.6472    10.2058    53.4997 </r>
       <r>    -3.6015     7.1082    53.8248 </r>
       <r>    -3.5558     4.1139    54.0130 </r>
       <r>    -3.5100     1.7295    54.0921 </r>
       <r>    -3.4643     0.2138    54.1019 </r>
       <r>    -3.4185    -0.4878    54.0796 </r>
       <r>    -3.3728    -0.6321    54.0507 </r>
       <r>    -3.3270    -0.5103    54.0273 </r>
       <r>    -3.2813    -0.3340    54.0121 </r>
       <r>    -3.2355    -0.2099    54.0025 </r>
       <r>    -3.1898    -0.1704    53.9947 </r>
       <r>    -3.1440    -0.2098    53.9851 </r>
       <r>    -3.0983    -0.2960    53.9715 </r>
       <r>    -3.0526    -0.3544    53.9553 </r>
       <r>    -3.0068    -0.2490    53.9439 </r>
       <r>    -2.9611     0.2060    53.9534 </r>
       <r>    -2.9153     1.1733    54.0070 </r>
       <r>    -2.8696     2.6726    54.1293 </r>
       <r>    -2.8238     4.4798    54.3342 </r>
       <r>    -2.7781     6.1384    54.6150 </r>
       <r>    -2.7323     7.1306    54.9412 </r>
       <r>    -2.6866     7.1441    55.2680 </r>
       <r>    -2.6408     6.2852    55.5555 </r>
       <r>    -2.5951     5.0832    55.7881 </r>
       <r>    -2.5494     4.2449    55.9823 </r>
       <r>    -2.5036     4.2764    56.1779 </r>
       <r>    -2.4579     5.1897    56.4153 </r>
       <r>    -2.4121     6.4810    56.7118 </r>
       <r>    -2.3664     7.4056    57.0505 </r>
       <r>    -2.3206     7.3859    57.3884 </r>
       <r>    -2.2749     6.3017    57.6767 </r>
       <r>    -2.2291     4.4984    57.8825 </r>
       <r>    -2.1834     2.5458    57.9989 </r>
       <r>    -2.1376     0.9351    58.0417 </r>
       <r>    -2.0919    -0.0931    58.0374 </r>
       <r>    -2.0462    -0.5260    58.0134 </r>
       <r>    -2.0004    -0.4439    57.9931 </r>
       <r>    -1.9547     0.0850    57.9970 </r>
       <r>    -1.9089     0.9999    58.0427 </r>
       <r>    -1.8632     2.1597    58.1415 </r>
       <r>    -1.8174     3.2810    58.2916 </r>
       <r>    -1.7717     3.9981    58.4745 </r>
       <r>    -1.7259     4.0345    58.6590 </r>
       <r>    -1.6802     3.3714    58.8133 </r>
       <r>    -1.6344     2.2868    58.9179 </r>
       <r>    -1.5887     1.2352    58.9744 </r>
       <r>    -1.5430     0.6472    59.0040 </r>
       <r>    -1.4972     0.7571    59.0386 </r>
       <r>    -1.4515     1.5177    59.1081 </r>
       <r>    -1.4057     2.6144    59.2277 </r>
       <r>    -1.3600     3.5799    59.3914 </r>
       <r>    -1.3142     3.9892    59.5739 </r>
       <r>    -1.2685     3.6600    59.7413 </r>
       <r>    -1.2227     2.7486    59.8671 </r>
       <r>    -1.1770     1.6774    59.9438 </r>
       <r>    -1.1312     0.9335    59.9865 </r>
       <r>    -1.0855     0.8542    60.0256 </r>
       <r>    -1.0398     1.5028    60.0943 </r>
       <r>    -0.9940     2.6733    60.2166 </r>
       <r>    -0.9483     4.0018    60.3997 </r>
       <r>    -0.9025     5.1212    60.6340 </r>
       <r>    -0.8568     5.7886    60.8988 </r>
       <r>    -0.8110     5.9422    61.1706 </r>
       <r>    -0.7653     5.6936    61.4311 </r>
       <r>    -0.7195     5.2841    61.6728 </r>
       <r>    -0.6738     5.0080    61.9019 </r>
       <r>    -0.6280     5.0914    62.1348 </r>
       <r>    -0.5823     5.5593    62.3891 </r>
       <r>    -0.5366     6.1827    62.6719 </r>
       <r>    -0.4908     6.5837    62.9731 </r>
       <r>    -0.4451     6.4680    63.2690 </r>
       <r>    -0.3993     5.8462    63.5364 </r>
       <r>    -0.3536     5.0828    63.7689 </r>
       <r>    -0.3078     4.7076    63.9843 </r>
       <r>    -0.2621     5.0769    64.2165 </r>
       <r>    -0.2163     6.0990    64.4955 </r>
       <r>    -0.1706     7.2285    64.8262 </r>
       <r>    -0.1248     7.7636    65.1813 </r>
       <r>    -0.0791     7.2593    65.5134 </r>
       <r>    -0.0334     5.7730    65.7775 </r>
       <r>     0.0124     3.7899    65.9509 </r>
       <r>     0.0581     1.9146    66.0385 </r>
       <r>     0.1039     0.5631    66.0642 </r>
       <r>     0.1496    -0.1616    66.0568 </r>
       <r>     0.1954    -0.3973    66.0387 </r>
       <r>     0.2411    -0.3648    66.0220 </r>
       <r>     0.2869    -0.2447    66.0108 </r>
       <r>     0.3326    -0.1343    66.0046 </r>
       <r>     0.3784    -0.0628    66.0018 </r>
       <r>     0.4241    -0.0255    66.0006 </r>
       <r>     0.4698    -0.0091    66.0002 </r>
       <r>     0.5156    -0.0029    66.0000 </r>
       <r>     0.5613    -0.0008    66.0000 </r>
       <r>     0.6071    -0.0002    66.0000 </r>
       <r>     0.6528    -0.0000    66.0000 </r>
       <r>     0.6986    -0.0000    66.0000 </r>
       <r>     0.7443    -0.0000    66.0000 </r>
       <r>     0.7901    -0.0000    66.0000 </r>
       <r>     0.8358    -0.0000    66.0000 </r>
       <r>     0.8816    -0.0000    66.0000 </r>
       <r>     0.9273    -0.0000    66.0000 </r>
       <r>     0.9730    -0.0000    66.0000 </r>
       <r>     1.0188    -0.0000    66.0000 </r>
       <r>     1.0645    -0.0000    66.0000 </r>
       <r>     1.1103    -0.0000    66.0000 </r>
       <r>     1.1560     0.0000    66.0000 </r>
       <r>     1.2018     0.0000    66.0000 </r>
       <r>     1.2475     0.0000    66.0000 </r>
       <r>     1.2933     0.0000    66.0000 </r>
       <r>     1.3390     0.0000    66.0000 </r>
       <r>     1.3848     0.0000    66.0000 </r>
       <r>     1.4305     0.0000    66.0000 </r>
       <r>     1.4762     0.0000    66.0000 </r>
       <r>     1.5220     0.0000    66.0000 </r>
       <r>     1.5677     0.0000    66.0000 </r>
       <r>     1.6135     0.0000    66.0000 </r>
       <r>     1.6592     0.0000    66.0000 </r>
       <r>     1.7050     0.0000    66.0000 </r>
       <r>     1.7507     0.0000    66.0000 </r>
       <r>     1.7965     0.0000    66.0000 </r>
       <r>     1.8422     0.0000    66.0000 </r>
       <r>     1.8880     0.0000    66.0000 </r>
      </set>
     </set>
    </array>
   </total>
  </dos>
 </calculation>
 <structure name="finalpos" >
  <crystal>
   <varray name="basis" >
    <v>      21.08005917       0.00000000       0.00000000 </v>
    <v>       0.00000000      22.29418195       0.00000000 </v>
    <v>       0.00000000       0.00000000      25.33662833 </v>
   </varray>
   <i name="volume">  11907.26961362 </i>
   <varray name="rec_basis" >
    <v>       0.04743820       0.00000000       0.00000000 </v>
    <v>       0.00000000       0.04485475       0.00000000 </v>
    <v>       0.00000000       0.00000000       0.03946855 </v>
   </varray>
  </crystal>
  <varray name="positions" >
   <v>       0.54664387       0.54014998       0.51680732 </v>
   <v>       0.57500317       0.49656624       0.43624546 </v>
   <v>       0.52303000       0.58631513       0.43377214 </v>
   <v>       0.46877144       0.49887884       0.46251375 </v>
   <v>       0.40028092       0.49818570       0.53567953 </v>
   <v>       0.49760119       0.44828792       0.54043077 </v>
   <v>       0.44469941       0.59680997       0.50905534 </v>
   <v>       0.61276309       0.44640053       0.51835139 </v>
   <v>       0.47905863       0.53481103       0.59876500 </v>
   <v>       0.52308594       0.39864930       0.45581259 </v>
  </varray>
 </structure>
</modeling>
