unknown system                          
            1
    21.080059    0.000000    0.000000
     0.000000   22.294182    0.000000
     0.000000    0.000000   25.336628
   Ni   Pd
     6     4
Direct configuration=     1
   0.54662491  0.54010296  0.51675275
   0.57504132  0.49643043  0.43622545
   0.52292813  0.58631816  0.43382116
   0.46880190  0.49906752  0.46257278
   0.40024603  0.49819011  0.53558881
   0.49765929  0.44830001  0.54038652
   0.44472891  0.59678189  0.50907670
   0.61269363  0.44644030  0.51832725
   0.47907899  0.53483779  0.59880543
   0.52313453  0.39858547  0.45587646
Direct configuration=     2
   0.54663476  0.54012739  0.51678110
   0.57502150  0.49650098  0.43623585
   0.52298105  0.58631659  0.43379569
   0.46878608  0.49896951  0.46254212
   0.40026416  0.49818782  0.53563594
   0.49762911  0.44829373  0.54040951
   0.44471359  0.59679647  0.50906561
   0.61272971  0.44641964  0.51833979
   0.47906841  0.53482389  0.59878443
   0.52310929  0.39861863  0.45584328
Direct configuration=     3
   0.54664387  0.54014998  0.51680732
   0.57500317  0.49656624  0.43624546
   0.52303000  0.58631513  0.43377214
   0.46877144  0.49887884  0.46251375
   0.40028092  0.49818570  0.53567953
   0.49760119  0.44828792  0.54043077
   0.44469941  0.59680997  0.50905534
   0.61276309  0.44640053  0.51835139
   0.47905863  0.53481103  0.59876500
   0.52308594  0.39864930  0.45581259
