   8   8   0   0
  0.1344081E+04  0.2199195E-08  0.2199888E-08  0.2222547E-08  0.5000000E-15
   1.0000000000000000E-004
  CAR 
 unknown system                          
      2.04805537    -12.44265842  301     -5.09095881      1.00000000
    -12.443  0.0000E+00  0.0000E+00  0.0000E+00  0.0000E+00
    -12.394  0.0000E+00  0.0000E+00  0.0000E+00  0.0000E+00
    -12.346  0.0000E+00  0.0000E+00  0.0000E+00  0.0000E+00
    -12.298  0.0000E+00  0.0000E+00  0.0000E+00  0.0000E+00
    -12.249  0.0000E+00  0.0000E+00  0.0000E+00  0.0000E+00
    -12.201  0.0000E+00  0.0000E+00  0.0000E+00  0.0000E+00
    -12.153  0.0000E+00  0.0000E+00  0.0000E+00  0.0000E+00
    -12.105  0.0000E+00  0.0000E+00  0.0000E+00  0.0000E+00
    -12.056 -0.2538E-29 -0.2536E-29 -0.1226E-30 -0.1225E-30
    -12.008 -0.1119E-27 -0.1118E-27 -0.5525E-29 -0.5522E-29
    -11.960 -0.4469E-26 -0.4467E-26 -0.2214E-27 -0.2213E-27
    -11.911 -0.1587E-24 -0.1586E-24 -0.7887E-26 -0.7883E-26
    -11.863 -0.5008E-23 -0.5005E-23 -0.2498E-24 -0.2496E-24
    -11.815 -0.1404E-21 -0.1403E-21 -0.7030E-23 -0.7026E-23
    -11.766 -0.3495E-20 -0.3494E-20 -0.1759E-21 -0.1758E-21
    -11.718 -0.7731E-19 -0.7727E-19 -0.3910E-20 -0.3908E-20
    -11.670 -0.1518E-17 -0.1518E-17 -0.7725E-19 -0.7721E-19
    -11.622 -0.2532E-16 -0.2531E-16 -0.1300E-17 -0.1300E-17
    -11.573 -0.3971E-15 -0.3969E-15 -0.2048E-16 -0.2047E-16
    -11.525 -0.5437E-14 -0.5434E-14 -0.2831E-15 -0.2830E-15
    -11.477 -0.6600E-13 -0.6597E-13 -0.3471E-14 -0.3470E-14
    -11.428 -0.7102E-12 -0.7099E-12 -0.3777E-13 -0.3776E-13
    -11.380 -0.6769E-11 -0.6766E-11 -0.3647E-12 -0.3646E-12
    -11.332 -0.5711E-10 -0.5709E-10 -0.3123E-11 -0.3122E-11
    -11.283 -0.4262E-09 -0.4260E-09 -0.2371E-10 -0.2370E-10
    -11.235 -0.2810E-08 -0.2809E-08 -0.1594E-09 -0.1594E-09
    -11.187 -0.1635E-07 -0.1635E-07 -0.9493E-09 -0.9490E-09
    -11.138 -0.8384E-07 -0.8382E-07 -0.4999E-08 -0.4998E-08
    -11.090 -0.3780E-06 -0.3779E-06 -0.2326E-07 -0.2325E-07
    -11.042 -0.1494E-05 -0.1494E-05 -0.9542E-07 -0.9540E-07
    -10.994 -0.5159E-05 -0.5157E-05 -0.3446E-06 -0.3445E-06
    -10.945 -0.1547E-04 -0.1547E-04 -0.1092E-05 -0.1092E-05
    -10.897 -0.3993E-04 -0.3993E-04 -0.3021E-05 -0.3020E-05
    -10.849 -0.8745E-04 -0.8744E-04 -0.7245E-05 -0.7244E-05
    -10.800 -0.1579E-03 -0.1579E-03 -0.1487E-04 -0.1487E-04
    -10.752 -0.2203E-03 -0.2203E-03 -0.2551E-04 -0.2551E-04
    -10.704 -0.1873E-03 -0.1873E-03 -0.3456E-04 -0.3456E-04
    -10.655  0.8274E-04  0.8267E-04 -0.3056E-04 -0.3056E-04
    -10.607  0.7239E-03  0.7238E-03  0.4407E-05  0.4397E-05
    -10.559  0.1745E-02  0.1744E-02  0.8868E-04  0.8866E-04
    -10.511  0.2930E-02  0.2930E-02  0.2302E-03  0.2302E-03
    -10.462  0.3877E-02  0.3877E-02  0.4175E-03  0.4175E-03
    -10.414  0.4194E-02  0.4194E-02  0.6201E-03  0.6200E-03
    -10.366  0.3737E-02  0.3738E-02  0.8006E-03  0.8006E-03
    -10.317  0.2711E-02  0.2712E-02  0.9316E-03  0.9315E-03
    -10.269  0.1530E-02  0.1530E-02  0.1005E-02  0.1005E-02
    -10.221  0.5717E-03  0.5718E-03  0.1033E-02  0.1033E-02
    -10.172  0.6647E-05  0.6709E-05  0.1033E-02  0.1033E-02
    -10.124 -0.2068E-03 -0.2068E-03  0.1023E-02  0.1023E-02
    -10.076 -0.2123E-03 -0.2123E-03  0.1013E-02  0.1013E-02
    -10.028 -0.1437E-03 -0.1437E-03  0.1006E-02  0.1006E-02
     -9.979 -0.7648E-04 -0.7649E-04  0.1003E-02  0.1003E-02
     -9.931 -0.3380E-04 -0.3381E-04  0.1001E-02  0.1001E-02
     -9.883 -0.1272E-04 -0.1272E-04  0.1000E-02  0.1000E-02
     -9.834 -0.4128E-05 -0.4129E-05  0.1000E-02  0.1000E-02
     -9.786 -0.1165E-05 -0.1166E-05  0.1000E-02  0.1000E-02
     -9.738 -0.2890E-06 -0.2891E-06  0.1000E-02  0.1000E-02
     -9.689 -0.7186E-07 -0.7187E-07  0.1000E-02  0.1000E-02
     -9.641 -0.6580E-07 -0.6577E-07  0.1000E-02  0.1000E-02
     -9.593 -0.2681E-06 -0.2679E-06  0.1000E-02  0.1000E-02
     -9.545 -0.1154E-05 -0.1153E-05  0.9999E-03  0.9999E-03
     -9.496 -0.4380E-05 -0.4377E-05  0.9997E-03  0.9997E-03
     -9.448 -0.1450E-04 -0.1450E-04  0.9990E-03  0.9990E-03
     -9.400 -0.4163E-04 -0.4161E-04  0.9970E-03  0.9970E-03
     -9.351 -0.1025E-03 -0.1025E-03  0.9921E-03  0.9921E-03
     -9.303 -0.2128E-03 -0.2127E-03  0.9818E-03  0.9818E-03
     -9.255 -0.3594E-03 -0.3594E-03  0.9644E-03  0.9644E-03
     -9.206 -0.4513E-03 -0.4513E-03  0.9426E-03  0.9426E-03
     -9.158 -0.2777E-03 -0.2779E-03  0.9292E-03  0.9292E-03
     -9.110  0.4590E-03  0.4586E-03  0.9514E-03  0.9514E-03
     -9.061  0.1979E-02  0.1978E-02  0.1047E-02  0.1047E-02
     -9.013  0.4176E-02  0.4175E-02  0.1249E-02  0.1249E-02
     -8.965  0.6484E-02  0.6483E-02  0.1562E-02  0.1562E-02
     -8.917  0.8042E-02  0.8042E-02  0.1950E-02  0.1950E-02
     -8.868  0.8163E-02  0.8163E-02  0.2345E-02  0.2344E-02
     -8.820  0.6771E-02  0.6772E-02  0.2672E-02  0.2672E-02
     -8.772  0.4484E-02  0.4485E-02  0.2888E-02  0.2888E-02
     -8.723  0.2254E-02  0.2255E-02  0.2997E-02  0.2997E-02
     -8.675  0.8716E-03  0.8720E-03  0.3039E-02  0.3039E-02
     -8.627  0.6312E-03  0.6312E-03  0.3070E-02  0.3070E-02
     -8.578  0.1316E-02  0.1315E-02  0.3133E-02  0.3133E-02
     -8.530  0.2413E-02  0.2412E-02  0.3250E-02  0.3250E-02
     -8.482  0.3440E-02  0.3440E-02  0.3416E-02  0.3416E-02
     -8.434  0.4222E-02  0.4222E-02  0.3620E-02  0.3620E-02
     -8.385  0.4939E-02  0.4938E-02  0.3858E-02  0.3858E-02
     -8.337  0.5863E-02  0.5863E-02  0.4142E-02  0.4142E-02
     -8.289  0.6984E-02  0.6983E-02  0.4479E-02  0.4479E-02
     -8.240  0.7875E-02  0.7875E-02  0.4859E-02  0.4859E-02
     -8.192  0.8007E-02  0.8008E-02  0.5246E-02  0.5246E-02
     -8.144  0.7249E-02  0.7250E-02  0.5596E-02  0.5596E-02
     -8.095  0.6073E-02  0.6074E-02  0.5890E-02  0.5890E-02
     -8.047  0.5275E-02  0.5275E-02  0.6144E-02  0.6144E-02
     -7.999  0.5447E-02  0.5447E-02  0.6407E-02  0.6407E-02
     -7.951  0.6637E-02  0.6637E-02  0.6728E-02  0.6728E-02
     -7.902  0.8383E-02  0.8382E-02  0.7133E-02  0.7133E-02
     -7.854  0.1002E-01  0.1002E-01  0.7617E-02  0.7617E-02
     -7.806  0.1109E-01  0.1109E-01  0.8153E-02  0.8153E-02
     -7.757  0.1153E-01  0.1153E-01  0.8710E-02  0.8710E-02
     -7.709  0.1174E-01  0.1174E-01  0.9277E-02  0.9277E-02
     -7.661  0.1222E-01  0.1222E-01  0.9867E-02  0.9867E-02
     -7.612  0.1321E-01  0.1321E-01  0.1050E-01  0.1050E-01
     -7.564  0.1454E-01  0.1454E-01  0.1121E-01  0.1121E-01
     -7.516  0.1583E-01  0.1583E-01  0.1197E-01  0.1197E-01
     -7.468  0.1679E-01  0.1679E-01  0.1278E-01  0.1278E-01
     -7.419  0.1730E-01  0.1730E-01  0.1362E-01  0.1362E-01
     -7.371  0.1733E-01  0.1733E-01  0.1446E-01  0.1446E-01
     -7.323  0.1679E-01  0.1679E-01  0.1527E-01  0.1527E-01
     -7.274  0.1558E-01  0.1558E-01  0.1602E-01  0.1602E-01
     -7.226  0.1382E-01  0.1382E-01  0.1669E-01  0.1669E-01
     -7.178  0.1187E-01  0.1187E-01  0.1726E-01  0.1726E-01
     -7.129  0.1022E-01  0.1022E-01  0.1775E-01  0.1775E-01
     -7.081  0.9215E-02  0.9215E-02  0.1820E-01  0.1820E-01
     -7.033  0.8743E-02  0.8743E-02  0.1862E-01  0.1862E-01
     -6.984  0.8285E-02  0.8285E-02  0.1902E-01  0.1902E-01
     -6.936  0.7305E-02  0.7306E-02  0.1937E-01  0.1937E-01
     -6.888  0.5770E-02  0.5770E-02  0.1965E-01  0.1965E-01
     -6.840  0.4324E-02  0.4323E-02  0.1986E-01  0.1986E-01
     -6.791  0.3909E-02  0.3906E-02  0.2005E-01  0.2005E-01
     -6.743  0.5103E-02  0.5099E-02  0.2030E-01  0.2030E-01
     -6.695  0.7685E-02  0.7681E-02  0.2067E-01  0.2067E-01
     -6.646  0.1075E-01  0.1075E-01  0.2119E-01  0.2119E-01
     -6.598  0.1324E-01  0.1324E-01  0.2183E-01  0.2183E-01
     -6.550  0.1441E-01  0.1442E-01  0.2252E-01  0.2252E-01
     -6.501  0.1407E-01  0.1407E-01  0.2320E-01  0.2320E-01
     -6.453  0.1248E-01  0.1248E-01  0.2381E-01  0.2381E-01
     -6.405  0.1027E-01  0.1027E-01  0.2430E-01  0.2430E-01
     -6.357  0.8337E-02  0.8337E-02  0.2470E-01  0.2470E-01
     -6.308  0.7568E-02  0.7566E-02  0.2507E-01  0.2507E-01
     -6.260  0.8381E-02  0.8379E-02  0.2547E-01  0.2547E-01
     -6.212  0.1042E-01  0.1042E-01  0.2598E-01  0.2598E-01
     -6.163  0.1268E-01  0.1267E-01  0.2659E-01  0.2659E-01
     -6.115  0.1411E-01  0.1411E-01  0.2727E-01  0.2727E-01
     -6.067  0.1429E-01  0.1429E-01  0.2796E-01  0.2796E-01
     -6.018  0.1367E-01  0.1367E-01  0.2862E-01  0.2862E-01
     -5.970  0.1332E-01  0.1332E-01  0.2927E-01  0.2927E-01
     -5.922  0.1431E-01  0.1431E-01  0.2996E-01  0.2996E-01
     -5.874  0.1697E-01  0.1697E-01  0.3078E-01  0.3078E-01
     -5.825  0.2061E-01  0.2060E-01  0.3177E-01  0.3177E-01
     -5.777  0.2390E-01  0.2390E-01  0.3293E-01  0.3293E-01
     -5.729  0.2573E-01  0.2573E-01  0.3417E-01  0.3417E-01
     -5.680  0.2573E-01  0.2573E-01  0.3541E-01  0.3541E-01
     -5.632  0.2422E-01  0.2422E-01  0.3658E-01  0.3658E-01
     -5.584  0.2171E-01  0.2171E-01  0.3763E-01  0.3763E-01
     -5.535  0.1864E-01  0.1864E-01  0.3853E-01  0.3853E-01
     -5.487  0.1556E-01  0.1556E-01  0.3928E-01  0.3928E-01
     -5.439  0.1323E-01  0.1323E-01  0.3992E-01  0.3992E-01
     -5.391  0.1235E-01  0.1234E-01  0.4052E-01  0.4052E-01
     -5.342  0.1295E-01  0.1294E-01  0.4114E-01  0.4114E-01
     -5.294  0.1415E-01  0.1414E-01  0.4183E-01  0.4183E-01
     -5.246  0.1456E-01  0.1456E-01  0.4253E-01  0.4253E-01
     -5.197  0.1321E-01  0.1321E-01  0.4317E-01  0.4317E-01
     -5.149  0.1013E-01  0.1013E-01  0.4366E-01  0.4366E-01
     -5.101  0.6270E-02  0.6278E-02  0.4396E-01  0.4396E-01
     -5.052  0.2821E-02  0.2826E-02  0.4410E-01  0.4410E-01
     -5.004  0.5221E-03  0.5253E-03  0.4412E-01  0.4412E-01
     -4.956 -0.5492E-03 -0.5481E-03  0.4410E-01  0.4410E-01
     -4.907 -0.7668E-03 -0.7669E-03  0.4406E-01  0.4406E-01
     -4.859 -0.5937E-03 -0.5942E-03  0.4403E-01  0.4403E-01
     -4.811 -0.3492E-03 -0.3496E-03  0.4401E-01  0.4401E-01
     -4.763 -0.1686E-03 -0.1688E-03  0.4400E-01  0.4400E-01
     -4.714 -0.6895E-04 -0.6908E-04  0.4400E-01  0.4400E-01
     -4.666 -0.2428E-04 -0.2433E-04  0.4400E-01  0.4400E-01
     -4.618 -0.7427E-05 -0.7444E-05  0.4400E-01  0.4400E-01
     -4.569 -0.1992E-05 -0.1996E-05  0.4400E-01  0.4400E-01
     -4.521 -0.4989E-06 -0.5001E-06  0.4400E-01  0.4400E-01
     -4.473 -0.2567E-06 -0.2568E-06  0.4400E-01  0.4400E-01
     -4.424 -0.7025E-06 -0.7019E-06  0.4400E-01  0.4400E-01
     -4.376 -0.2562E-05 -0.2560E-05  0.4400E-01  0.4400E-01
     -4.328 -0.8335E-05 -0.8328E-05  0.4400E-01  0.4400E-01
     -4.280 -0.2350E-04 -0.2348E-04  0.4400E-01  0.4400E-01
     -4.231 -0.5673E-04 -0.5670E-04  0.4400E-01  0.4400E-01
     -4.183 -0.1151E-03 -0.1151E-03  0.4399E-01  0.4399E-01
     -4.135 -0.1887E-03 -0.1887E-03  0.4398E-01  0.4398E-01
     -4.086 -0.2253E-03 -0.2253E-03  0.4397E-01  0.4397E-01
     -4.038 -0.1116E-03 -0.1117E-03  0.4396E-01  0.4396E-01
     -3.990  0.3026E-03  0.3021E-03  0.4398E-01  0.4398E-01
     -3.941  0.1114E-02  0.1113E-02  0.4403E-01  0.4403E-01
     -3.893  0.2244E-02  0.2243E-02  0.4414E-01  0.4414E-01
     -3.845  0.3384E-02  0.3383E-02  0.4430E-01  0.4430E-01
     -3.797  0.4103E-02  0.4103E-02  0.4450E-01  0.4450E-01
     -3.748  0.4092E-02  0.4092E-02  0.4470E-01  0.4470E-01
     -3.700  0.3353E-02  0.3354E-02  0.4486E-01  0.4486E-01
     -3.652  0.2206E-02  0.2207E-02  0.4497E-01  0.4497E-01
     -3.603  0.1079E-02  0.1080E-02  0.4502E-01  0.4502E-01
     -3.555  0.2669E-03  0.2674E-03  0.4503E-01  0.4503E-01
     -3.507 -0.1697E-03 -0.1695E-03  0.4503E-01  0.4503E-01
     -3.458 -0.3535E-03 -0.3534E-03  0.4501E-01  0.4501E-01
     -3.410 -0.4584E-03 -0.4583E-03  0.4499E-01  0.4499E-01
     -3.362 -0.5886E-03 -0.5885E-03  0.4496E-01  0.4496E-01
     -3.314 -0.6922E-03 -0.6922E-03  0.4492E-01  0.4492E-01
     -3.265 -0.5142E-03 -0.5146E-03  0.4490E-01  0.4490E-01
     -3.217  0.3624E-03  0.3612E-03  0.4492E-01  0.4492E-01
     -3.169  0.2314E-02  0.2312E-02  0.4503E-01  0.4503E-01
     -3.120  0.5335E-02  0.5333E-02  0.4529E-01  0.4529E-01
     -3.072  0.8784E-02  0.8782E-02  0.4571E-01  0.4571E-01
     -3.024  0.1150E-01  0.1150E-01  0.4627E-01  0.4627E-01
     -2.975  0.1238E-01  0.1238E-01  0.4686E-01  0.4686E-01
     -2.927  0.1103E-01  0.1103E-01  0.4740E-01  0.4740E-01
     -2.879  0.8041E-02  0.8043E-02  0.4779E-01  0.4779E-01
     -2.830  0.4593E-02  0.4595E-02  0.4801E-01  0.4801E-01
     -2.782  0.1774E-02  0.1775E-02  0.4809E-01  0.4809E-01
     -2.734  0.8464E-04  0.8542E-04  0.4810E-01  0.4810E-01
     -2.686 -0.5779E-03 -0.5777E-03  0.4807E-01  0.4807E-01
     -2.637 -0.6194E-03 -0.6195E-03  0.4804E-01  0.4804E-01
     -2.589 -0.4291E-03 -0.4293E-03  0.4802E-01  0.4802E-01
     -2.541 -0.2328E-03 -0.2330E-03  0.4801E-01  0.4801E-01
     -2.492 -0.1049E-03 -0.1050E-03  0.4800E-01  0.4800E-01
     -2.444 -0.4045E-04 -0.4048E-04  0.4800E-01  0.4800E-01
     -2.396 -0.1430E-04 -0.1431E-04  0.4800E-01  0.4800E-01
     -2.347 -0.7622E-05 -0.7619E-05  0.4800E-01  0.4800E-01
     -2.299 -0.1370E-04 -0.1369E-04  0.4800E-01  0.4800E-01
     -2.251 -0.3740E-04 -0.3736E-04  0.4800E-01  0.4800E-01
     -2.203 -0.9332E-04 -0.9323E-04  0.4799E-01  0.4799E-01
     -2.154 -0.1977E-03 -0.1976E-03  0.4798E-01  0.4798E-01
     -2.106 -0.3430E-03 -0.3428E-03  0.4797E-01  0.4797E-01
     -2.058 -0.4496E-03 -0.4496E-03  0.4795E-01  0.4795E-01
     -2.009 -0.3206E-03 -0.3210E-03  0.4793E-01  0.4793E-01
     -1.961  0.3380E-03  0.3368E-03  0.4795E-01  0.4795E-01
     -1.913  0.1768E-02  0.1766E-02  0.4803E-01  0.4803E-01
     -1.864  0.3914E-02  0.3912E-02  0.4822E-01  0.4822E-01
     -1.816  0.6264E-02  0.6262E-02  0.4852E-01  0.4852E-01
     -1.768  0.7979E-02  0.7977E-02  0.4891E-01  0.4891E-01
     -1.720  0.8332E-02  0.8333E-02  0.4931E-01  0.4931E-01
     -1.671  0.7166E-02  0.7168E-02  0.4966E-01  0.4966E-01
     -1.623  0.4992E-02  0.4995E-02  0.4990E-01  0.4990E-01
     -1.575  0.2664E-02  0.2666E-02  0.5003E-01  0.5003E-01
     -1.526  0.8773E-03  0.8789E-03  0.5007E-01  0.5007E-01
     -1.478 -0.1147E-03 -0.1139E-03  0.5006E-01  0.5006E-01
     -1.430 -0.4574E-03 -0.4572E-03  0.5004E-01  0.5004E-01
     -1.381 -0.4608E-03 -0.4607E-03  0.5002E-01  0.5002E-01
     -1.333 -0.3939E-03 -0.3936E-03  0.5000E-01  0.5000E-01
     -1.285 -0.4003E-03 -0.3998E-03  0.4998E-01  0.4998E-01
     -1.237 -0.4898E-03 -0.4893E-03  0.4996E-01  0.4996E-01
     -1.188 -0.5377E-03 -0.5378E-03  0.4993E-01  0.4993E-01
     -1.140 -0.2842E-03 -0.2861E-03  0.4992E-01  0.4992E-01
     -1.092  0.6044E-03  0.5994E-03  0.4995E-01  0.4995E-01
     -1.043  0.2361E-02  0.2352E-02  0.5006E-01  0.5006E-01
     -0.995  0.4887E-02  0.4876E-02  0.5030E-01  0.5030E-01
     -0.947  0.7646E-02  0.7635E-02  0.5067E-01  0.5066E-01
     -0.898  0.9818E-02  0.9811E-02  0.5114E-01  0.5114E-01
     -0.850  0.1068E-01  0.1068E-01  0.5166E-01  0.5165E-01
     -0.802  0.9986E-02  0.9991E-02  0.5214E-01  0.5214E-01
     -0.753  0.8026E-02  0.8035E-02  0.5253E-01  0.5252E-01
     -0.705  0.5502E-02  0.5513E-02  0.5279E-01  0.5279E-01
     -0.657  0.3209E-02  0.3217E-02  0.5295E-01  0.5295E-01
     -0.609  0.1759E-02  0.1764E-02  0.5303E-01  0.5303E-01
     -0.560  0.1401E-02  0.1403E-02  0.5310E-01  0.5310E-01
     -0.512  0.1948E-02  0.1947E-02  0.5319E-01  0.5319E-01
     -0.464  0.2868E-02  0.2866E-02  0.5333E-01  0.5333E-01
     -0.415  0.3552E-02  0.3551E-02  0.5350E-01  0.5350E-01
     -0.367  0.3654E-02  0.3654E-02  0.5368E-01  0.5368E-01
     -0.319  0.3281E-02  0.3281E-02  0.5384E-01  0.5384E-01
     -0.270  0.2885E-02  0.2884E-02  0.5398E-01  0.5398E-01
     -0.222  0.2919E-02  0.2917E-02  0.5412E-01  0.5412E-01
     -0.174  0.3531E-02  0.3528E-02  0.5429E-01  0.5429E-01
     -0.126  0.4500E-02  0.4498E-02  0.5451E-01  0.5451E-01
     -0.077  0.5431E-02  0.5431E-02  0.5477E-01  0.5477E-01
     -0.029  0.5978E-02  0.5981E-02  0.5506E-01  0.5506E-01
      0.019  0.5952E-02  0.5956E-02  0.5535E-01  0.5535E-01
      0.068  0.5321E-02  0.5325E-02  0.5560E-01  0.5560E-01
      0.116  0.4198E-02  0.4201E-02  0.5581E-01  0.5581E-01
      0.164  0.2826E-02  0.2828E-02  0.5594E-01  0.5594E-01
      0.213  0.1517E-02  0.1518E-02  0.5602E-01  0.5602E-01
      0.261  0.5294E-03  0.5300E-03  0.5604E-01  0.5604E-01
      0.309 -0.3751E-04 -0.3734E-04  0.5604E-01  0.5604E-01
      0.357 -0.2471E-03 -0.2472E-03  0.5603E-01  0.5603E-01
      0.406 -0.2452E-03 -0.2453E-03  0.5602E-01  0.5602E-01
      0.454 -0.1668E-03 -0.1669E-03  0.5601E-01  0.5601E-01
      0.502 -0.9017E-04 -0.9024E-04  0.5600E-01  0.5600E-01
      0.551 -0.4065E-04 -0.4069E-04  0.5600E-01  0.5600E-01
      0.599 -0.1563E-04 -0.1565E-04  0.5600E-01  0.5600E-01
      0.647 -0.5189E-05 -0.5195E-05  0.5600E-01  0.5600E-01
      0.696 -0.1499E-05 -0.1501E-05  0.5600E-01  0.5600E-01
      0.744 -0.3785E-06 -0.3791E-06  0.5600E-01  0.5600E-01
      0.792 -0.8386E-07 -0.8399E-07  0.5600E-01  0.5600E-01
      0.840 -0.1634E-07 -0.1637E-07  0.5600E-01  0.5600E-01
      0.889 -0.2807E-08 -0.2812E-08  0.5600E-01  0.5600E-01
      0.937 -0.4256E-09 -0.4264E-09  0.5600E-01  0.5600E-01
      0.985 -0.5701E-10 -0.5713E-10  0.5600E-01  0.5600E-01
      1.034 -0.6756E-11 -0.6770E-11  0.5600E-01  0.5600E-01
      1.082 -0.7087E-12 -0.7103E-12  0.5600E-01  0.5600E-01
      1.130 -0.6585E-13 -0.6600E-13  0.5600E-01  0.5600E-01
      1.179 -0.5424E-14 -0.5438E-14  0.5600E-01  0.5600E-01
      1.227 -0.3953E-15 -0.3953E-15  0.5600E-01  0.5600E-01
      1.275 -0.2758E-16 -0.2758E-16  0.5600E-01  0.5600E-01
      1.324  0.0000E+00  0.0000E+00  0.5600E-01  0.5600E-01
      1.372  0.0000E+00  0.0000E+00  0.5600E-01  0.5600E-01
      1.420  0.0000E+00  0.0000E+00  0.5600E-01  0.5600E-01
      1.468  0.0000E+00  0.0000E+00  0.5600E-01  0.5600E-01
      1.517  0.0000E+00  0.0000E+00  0.5600E-01  0.5600E-01
      1.565  0.0000E+00  0.0000E+00  0.5600E-01  0.5600E-01
      1.613  0.0000E+00  0.0000E+00  0.5600E-01  0.5600E-01
      1.662  0.0000E+00  0.0000E+00  0.5600E-01  0.5600E-01
      1.710  0.0000E+00  0.0000E+00  0.5600E-01  0.5600E-01
      1.758  0.0000E+00  0.0000E+00  0.5600E-01  0.5600E-01
      1.807  0.0000E+00  0.0000E+00  0.5600E-01  0.5600E-01
      1.855  0.0000E+00  0.0000E+00  0.5600E-01  0.5600E-01
      1.903  0.0000E+00  0.0000E+00  0.5600E-01  0.5600E-01
      1.951  0.0000E+00  0.0000E+00  0.5600E-01  0.5600E-01
      2.000  0.0000E+00  0.0000E+00  0.5600E-01  0.5600E-01
      2.048  0.0000E+00  0.0000E+00  0.5600E-01  0.5600E-01
