    8    8 1000    2
  0.1344081E+04  0.2199195E-08  0.2199888E-08  0.2222547E-08  0.5000000E-15
   1.0000000000000000E-004
  CAR 
 unknown system                          
     88      1     56
 
  0.1262379E-14  0.1262379E-14  0.1262379E-14  0.1000000E+01
    1      -10.442658    -10.442650   1.000000   1.000000
    2       -8.914731     -8.914712   1.000000   1.000000
    3       -8.907617     -8.907598   1.000000   1.000000
    4       -8.476448     -8.476436   1.000000   1.000000
    5       -8.225363     -8.225351   1.000000   1.000000
    6       -8.224591     -8.224579   1.000000   1.000000
    7       -7.972738     -7.972733   1.000000   1.000000
    8       -7.824812     -7.824798   1.000000   1.000000
    9       -7.821058     -7.821044   1.000000   1.000000
   10       -7.698696     -7.698658   1.000000   1.000000
   11       -7.566190     -7.566183   1.000000   1.000000
   12       -7.537947     -7.537935   1.000000   1.000000
   13       -7.536571     -7.536559   1.000000   1.000000
   14       -7.371277     -7.371262   1.000000   1.000000
   15       -7.363059     -7.363052   1.000000   1.000000
   16       -7.360232     -7.360226   1.000000   1.000000
   17       -7.215148     -7.215125   1.000000   1.000000
   18       -7.192429     -7.192424   1.000000   1.000000
   19       -6.985287     -6.985257   1.000000   1.000000
   20       -6.976633     -6.976605   1.000000   1.000000
   21       -6.649102     -6.649016   1.000000   1.000000
   22       -6.646681     -6.646589   1.000000   1.000000
   23       -6.566485     -6.566468   1.000000   1.000000
   24       -6.447913     -6.447901   1.000000   1.000000
   25       -6.447278     -6.447266   1.000000   1.000000
   26       -6.189137     -6.189083   1.000000   1.000000
   27       -6.183242     -6.183189   1.000000   1.000000
   28       -6.128616     -6.128599   1.000000   1.000000
   29       -6.013102     -6.013091   1.000000   1.000000
   30       -6.003768     -6.003757   1.000000   1.000000
   31       -5.806940     -5.806898   1.000003   1.000003
   32       -5.806762     -5.806721   1.000003   1.000003
   33       -5.784314     -5.784294   1.000005   1.000005
   34       -5.781203     -5.781179   1.000006   1.000006
   35       -5.778212     -5.778196   1.000007   1.000007
   36       -5.650756     -5.650723   1.000275   1.000275
   37       -5.647472     -5.647440   1.000299   1.000299
   38       -5.577149     -5.577139   1.001568   1.001568
   39       -5.533873     -5.533818   1.003763   1.003767
   40       -5.531144     -5.531089   1.003962   1.003966
   41       -5.354132     -5.354071   1.034331   1.034338
   42       -5.258603     -5.258487   0.999190   0.999060
   43       -5.256836     -5.256713   0.997188   0.997046
   44       -5.230787     -5.230736   0.959574   0.959483
   45       -3.797259     -3.797224  -0.000000  -0.000000
   46       -3.032490     -3.032438  -0.000000  -0.000000
   47       -2.994985     -2.994955  -0.000000  -0.000000
   48       -2.987572     -2.987541  -0.000000  -0.000000
   49       -1.759094     -1.759038  -0.000000  -0.000000
   50       -1.754856     -1.754800  -0.000000  -0.000000
   51       -0.912069     -0.911887  -0.000000  -0.000000
   52       -0.901932     -0.901744  -0.000000  -0.000000
   53       -0.773531     -0.773314  -0.000000  -0.000000
   54       -0.419623     -0.419512  -0.000000  -0.000000
   55       -0.121702     -0.121525  -0.000000  -0.000000
   56        0.048008      0.048055  -0.000000  -0.000000
