<?xml version="1.0" encoding="ISO-8859-1"?>
<modeling>
 <generator>
  <i name="program" type="string">vasp </i>
  <i name="version" type="string">6.1.2  </i>
  <i name="subversion" type="string">22Jul20 (build Aug  2 2021 21:04:21) gamma-only                       parallel </i>
  <i name="platform" type="string">LinuxPGI </i>
  <i name="date" type="string">2021 12 10 </i>
  <i name="time" type="string">20:30:41 </i>
 </generator>
 <incar>
  <i type="int" name="ISPIN">     2</i>
  <i type="int" name="IBRION">     2</i>
  <i type="int" name="NSW">  1000</i>
  <i type="int" name="ISIF">     0</i>
  <i type="int" name="ISYM">     0</i>
  <i name="ENCUT">    400.00000000</i>
  <i type="logical" name="LREAL"> F  </i>
  <i type="int" name="ISMEAR">     1</i>
  <i name="SIGMA">      0.20000000</i>
  <i type="logical" name="LWAVE"> F  </i>
  <i type="logical" name="LCHARG"> F  </i>
  <i type="int" name="KPAR">     1</i>
  <i type="int" name="NCORE">     8</i>
  <i type="string" name="GGA"> PE</i>
  <i type="int" name="ISPIN">     2</i>
 </incar>
 <structure name="primitive_cell" >
  <crystal>
   <varray name="basis" >
    <v>      22.49079078       0.00000000       0.00000000 </v>
    <v>       0.00000000      23.82526905       0.00000000 </v>
    <v>       0.00000000       0.00000000      24.47572295 </v>
   </varray>
   <i name="volume">  13115.29512788 </i>
   <varray name="rec_basis" >
    <v>       0.04446264       0.00000000       0.00000000 </v>
    <v>       0.00000000       0.04197224       0.00000000 </v>
    <v>       0.00000000       0.00000000       0.04085681 </v>
   </varray>
  </crystal>
  <varray name="positions" >
   <v>       0.47086684       0.58948364       0.45096428 </v>
   <v>       0.53624883       0.45020138       0.50518361 </v>
   <v>       0.52958058       0.50753997       0.41440997 </v>
   <v>       0.54427304       0.50412495       0.59493870 </v>
   <v>       0.46169751       0.55733044       0.54936372 </v>
   <v>       0.43698865       0.49100193       0.47351156 </v>
   <v>       0.44812642       0.45622813       0.57044684 </v>
   <v>       0.56133768       0.55524360       0.50442253 </v>
  </varray>
 </structure>
 <varray name="primitive_index" >
  <v type="int" >        1 </v>
  <v type="int" >        2 </v>
  <v type="int" >        3 </v>
  <v type="int" >        4 </v>
  <v type="int" >        5 </v>
  <v type="int" >        6 </v>
  <v type="int" >        7 </v>
  <v type="int" >        8 </v>
 </varray>
 <kpoints>
  <generation param="Gamma">
   <v type="int" name="divisions">       1        1        1 </v>
   <v name="usershift">      0.00000000       0.00000000       0.00000000 </v>
   <v name="genvec1">      1.00000000       0.00000000       0.00000000 </v>
   <v name="genvec2">      0.00000000       1.00000000       0.00000000 </v>
   <v name="genvec3">      0.00000000       0.00000000       1.00000000 </v>
   <v name="shift">      0.00000000       0.00000000       0.00000000 </v>
  </generation>
  <varray name="kpointlist" >
   <v>       0.00000000       0.00000000       0.00000000 </v>
  </varray>
  <varray name="weights" >
   <v>       1.00000000 </v>
  </varray>
 </kpoints>
 <parameters>
  <separator name="general" >
   <i type="string" name="SYSTEM">unknown system</i>
   <i type="logical" name="LCOMPAT"> F  </i>
  </separator>
  <separator name="electronic" >
   <i type="string" name="PREC">normal</i>
   <i name="ENMAX">    400.00000000</i>
   <i name="ENAUG">    586.98000000</i>
   <i name="EDIFF">      0.00010000</i>
   <i type="int" name="IALGO">    38</i>
   <i type="int" name="IWAVPR">    11</i>
   <i type="int" name="NBANDS">    56</i>
   <i type="int" name="NBANDSLOW">    -1</i>
   <i type="int" name="NBANDSHIGH">    -1</i>
   <i name="NELECT">     88.00000000</i>
   <i type="int" name="TURBO">     0</i>
   <i type="int" name="IRESTART">     0</i>
   <i type="int" name="NREBOOT">     0</i>
   <i type="int" name="NMIN">     0</i>
   <i name="EREF">      0.00000000</i>
   <separator name="electronic smearing" >
    <i type="int" name="ISMEAR">     1</i>
    <i name="SIGMA">      0.20000000</i>
    <i name="KSPACING">      0.50000000</i>
    <i type="logical" name="KGAMMA"> T  </i>
    <i type="logical" name="KBLOWUP"> T  </i>
   </separator>
   <separator name="electronic projectors" >
    <i type="logical" name="LREAL"> F  </i>
    <v name="ROPT">      0.00000000      0.00000000</v>
    <i type="int" name="LMAXPAW">  -100</i>
    <i type="int" name="LMAXMIX">     2</i>
    <i type="logical" name="NLSPLINE"> F  </i>
   </separator>
   <separator name="electronic startup" >
    <i type="int" name="ISTART">     0</i>
    <i type="int" name="ICHARG">     2</i>
    <i type="int" name="INIWAV">     1</i>
   </separator>
   <separator name="electronic spin" >
    <i type="int" name="ISPIN">     2</i>
    <i type="logical" name="LNONCOLLINEAR"> F  </i>
    <v name="MAGMOM">      1.00000000      1.00000000      1.00000000      1.00000000      1.00000000      1.00000000      1.00000000      1.00000000</v>
    <i name="NUPDOWN">     -1.00000000</i>
    <i type="logical" name="LSORBIT"> F  </i>
    <v name="SAXIS">      0.00000000      0.00000000      1.00000000</v>
    <i type="logical" name="LSPIRAL"> F  </i>
    <v name="QSPIRAL">      0.00000000      0.00000000      0.00000000</v>
    <i type="logical" name="LZEROZ"> F  </i>
   </separator>
   <separator name="electronic exchange-correlation" >
    <i type="logical" name="LASPH"> F  </i>
    <i type="logical" name="LMETAGGA"> F  </i>
   </separator>
   <separator name="electronic convergence" >
    <i type="int" name="NELM">    60</i>
    <i type="int" name="NELMDL">     0</i>
    <i type="int" name="NELMIN">     2</i>
    <i name="ENINI">    400.00000000</i>
    <separator name="electronic convergence detail" >
     <i type="logical" name="LDIAG"> T  </i>
     <i type="logical" name="LSUBROT"> F  </i>
     <i name="WEIMIN">      0.00100000</i>
     <i name="EBREAK">      0.00000045</i>
     <i name="DEPER">      0.30000000</i>
     <i type="int" name="NRMM">     4</i>
     <i name="TIME">      0.40000000</i>
    </separator>
   </separator>
   <separator name="electronic mixer" >
    <i name="AMIX">      0.40000000</i>
    <i name="BMIX">      1.00000000</i>
    <i name="AMIN">      0.10000000</i>
    <i name="AMIX_MAG">      1.60000000</i>
    <i name="BMIX_MAG">      1.00000000</i>
    <separator name="electronic mixer details" >
     <i type="int" name="IMIX">     4</i>
     <i type="logical" name="MIXFIRST"> F  </i>
     <i type="int" name="MAXMIX">   -45</i>
     <i name="WC">    100.00000000</i>
     <i type="int" name="INIMIX">     1</i>
     <i type="int" name="MIXPRE">     1</i>
     <i type="int" name="MREMOVE">     5</i>
    </separator>
   </separator>
   <separator name="electronic dipolcorrection" >
    <i type="logical" name="LDIPOL"> F  </i>
    <i type="logical" name="LMONO"> F  </i>
    <i type="int" name="IDIPOL">     0</i>
    <i name="EPSILON">      1.00000000</i>
    <v name="DIPOL">   -100.00000000   -100.00000000   -100.00000000</v>
    <i name="EFIELD">      0.00000000</i>
   </separator>
  </separator>
  <separator name="grids" >
   <i type="int" name="NGX">   112</i>
   <i type="int" name="NGY">   120</i>
   <i type="int" name="NGZ">   120</i>
   <i type="int" name="NGXF">   224</i>
   <i type="int" name="NGYF">   240</i>
   <i type="int" name="NGZF">   240</i>
   <i type="logical" name="ADDGRID"> F  </i>
  </separator>
  <separator name="ionic" >
   <i type="int" name="NSW">  1000</i>
   <i type="int" name="IBRION">     2</i>
   <i type="int" name="MDALGO">     0</i>
   <i type="int" name="ISIF">     0</i>
   <i name="PSTRESS">      0.00000000</i>
   <i name="EDIFFG">      0.00100000</i>
   <i type="int" name="NFREE">     1</i>
   <i name="POTIM">      0.50000000</i>
   <i name="SMASS">     -3.00000000</i>
   <i name="SCALEE">      1.00000000</i>
  </separator>
  <separator name="ionic md" >
   <i name="TEBEG">      0.00010000</i>
   <i name="TEEND">      0.00010000</i>
   <i type="int" name="NBLOCK">     1</i>
   <i type="int" name="KBLOCK">  1000</i>
   <i type="int" name="NPACO">   256</i>
   <i name="APACO">     16.00000000</i>
  </separator>
  <separator name="symmetry" >
   <i type="int" name="ISYM">     0</i>
   <i name="SYMPREC">      0.00001000</i>
  </separator>
  <separator name="dos" >
   <i type="int" name="LORBIT">     0</i>
   <v name="RWIGS">     -1.00000000     -1.00000000</v>
   <i type="int" name="NEDOS">   301</i>
   <i name="EMIN">     10.00000000</i>
   <i name="EMAX">    -10.00000000</i>
   <i name="EFERMI">      0.00000000</i>
  </separator>
  <separator name="writing" >
   <i type="int" name="NWRITE">     2</i>
   <i type="logical" name="LWAVE"> F  </i>
   <i type="logical" name="LDOWNSAMPLE"> F  </i>
   <i type="logical" name="LCHARG"> F  </i>
   <i type="logical" name="LPARD"> F  </i>
   <i type="logical" name="LVTOT"> F  </i>
   <i type="logical" name="LVHAR"> F  </i>
   <i type="logical" name="LELF"> F  </i>
   <i type="logical" name="LOPTICS"> F  </i>
   <v name="STM">      0.00000000      0.00000000      0.00000000      0.00000000      0.00000000      0.00000000      0.00000000</v>
  </separator>
  <separator name="performance" >
   <i type="int" name="NPAR">     2</i>
   <i type="int" name="NSIM">     4</i>
   <i type="int" name="NBLK">    -1</i>
   <i type="logical" name="LPLANE"> T  </i>
   <i type="logical" name="LSCALAPACK"> T  </i>
   <i type="logical" name="LSCAAWARE"> F  </i>
   <i type="logical" name="LSCALU"> F  </i>
   <i type="logical" name="LASYNC"> F  </i>
   <i type="logical" name="LORBITALREAL"> F  </i>
  </separator>
  <separator name="miscellaneous" >
   <i type="int" name="IDIOT">     3</i>
   <i type="int" name="PHON_NSTRUCT">    -1</i>
   <i type="logical" name="LMUSIC"> F  </i>
   <v name="POMASS">    196.96600000     63.54600000</v>
   <v name="DARWINR">      0.00000000      0.00000000</v>
   <v name="DARWINV">      1.00000000      1.00000000</v>
   <i type="logical" name="LCORR"> T  </i>
  </separator>
  <i type="logical" name="GGA_COMPAT"> T  </i>
  <i type="logical" name="LBERRY"> F  </i>
  <i type="int" name="ICORELEVEL">     0</i>
  <i type="logical" name="LDAU"> F  </i>
  <i type="int" name="I_CONSTRAINED_M">     0</i>
  <separator name="electronic exchange-correlation" >
   <i type="string" name="GGA">PE</i>
   <i type="int" name="VOSKOWN">     0</i>
   <i type="logical" name="LHFCALC"> F  </i>
   <i type="string" name="PRECFOCK"></i>
   <i type="logical" name="LSYMGRAD"> F  </i>
   <i type="logical" name="LHFONE"> F  </i>
   <i type="logical" name="LRHFCALC"> F  </i>
   <i type="logical" name="LTHOMAS"> F  </i>
   <i type="logical" name="LMODELHF"> F  </i>
   <i type="logical" name="LFOCKACE"> F  </i>
   <i name="ENCUT4O">     -1.00000000</i>
   <i type="int" name="EXXOEP">     0</i>
   <i type="int" name="FOURORBIT">     0</i>
   <i name="AEXX">      0.00000000</i>
   <i name="HFALPHA">      0.00000000</i>
   <i name="MCALPHA">      0.00000000</i>
   <i name="ALDAX">      1.00000000</i>
   <i name="AGGAX">      1.00000000</i>
   <i name="ALDAC">      1.00000000</i>
   <i name="AGGAC">      1.00000000</i>
   <i type="int" name="NKREDX">     1</i>
   <i type="int" name="NKREDY">     1</i>
   <i type="int" name="NKREDZ">     1</i>
   <i type="logical" name="SHIFTRED"> F  </i>
   <i type="logical" name="ODDONLY"> F  </i>
   <i type="logical" name="EVENONLY"> F  </i>
   <i type="int" name="LMAXFOCK">     0</i>
   <i type="int" name="NMAXFOCKAE">     0</i>
   <i type="logical" name="LFOCKAEDFT"> F  </i>
   <i name="HFSCREEN">      0.00000000</i>
   <i name="HFSCREENC">      0.00000000</i>
   <i type="int" name="NBANDSGWLOW">     0</i>
  </separator>
  <separator name="vdW DFT" >
   <i type="logical" name="LUSE_VDW"> F  </i>
   <i name="Zab_VDW">     -0.84910000</i>
   <i name="PARAM1">      0.12340000</i>
   <i name="PARAM2">      1.00000000</i>
   <i name="PARAM3">      0.00000000</i>
  </separator>
  <separator name="model GW" >
   <i type="int" name="MODEL_GW">     0</i>
   <i name="MODEL_EPS0">    983.64713459</i>
   <i name="MODEL_ALPHA">      1.00000000</i>
  </separator>
  <separator name="linear response parameters" >
   <i type="logical" name="LEPSILON"> F  </i>
   <i type="logical" name="LRPA"> F  </i>
   <i type="logical" name="LNABLA"> F  </i>
   <i type="logical" name="LVEL"> F  </i>
   <i type="int" name="KINTER">     0</i>
   <i name="CSHIFT">      0.10000000</i>
   <i name="OMEGAMAX">     -1.00000000</i>
   <i name="DEG_THRESHOLD">      0.00200000</i>
   <i name="RTIME">     -0.10000000</i>
   <i name="WPLASMAI">      0.00000000</i>
   <v name="DFIELD">      0.00000000      0.00000000      0.00000000</v>
   <v name="WPLASMA">      0.00000000      0.00000000      0.00000000      0.00000000      0.00000000      0.00000000      0.00000000      0.00000000      0.00000000</v>
  </separator>
  <separator name="orbital magnetization" >
   <i type="logical" name="NUCIND"> F  </i>
   <v name="MAGPOS">      0.00000000      0.00000000      0.00000000</v>
   <i type="logical" name="LNICSALL"> T  </i>
   <i type="logical" name="ORBITALMAG"> F  </i>
   <i type="logical" name="LMAGBLOCH"> F  </i>
   <i type="logical" name="LCHIMAG"> F  </i>
   <i type="logical" name="LGAUGE"> T  </i>
   <i type="int" name="MAGATOM">     0</i>
   <v name="MAGDIPOL">      0.00000000      0.00000000      0.00000000</v>
   <v name="AVECCONST">      0.00000000      0.00000000      0.00000000</v>
  </separator>
  <separator name="response functions" >
   <i type="logical" name="LFINITE_TEMPERATURE"> F  </i>
   <i type="logical" name="LADDER"> F  </i>
   <i type="logical" name="LRPAFORCE"> F  </i>
   <i type="logical" name="LFXC"> F  </i>
   <i type="logical" name="LHARTREE"> T  </i>
   <i type="int" name="IBSE">     0</i>
   <v type="int" name="KPOINT">    -1     0     0     0</v>
   <i type="logical" name="LTCTC"> F  </i>
   <i type="logical" name="LTCTE"> F  </i>
   <i type="logical" name="LTETE"> F  </i>
   <i type="logical" name="LTRIPLET"> F  </i>
   <i type="logical" name="LFXCEPS"> F  </i>
   <i type="logical" name="LFXHEG"> F  </i>
   <i type="int" name="NATURALO">     2</i>
   <i type="logical" name="LHOLEGF"> F  </i>
   <i type="logical" name="L2ORDER"> F  </i>
   <i type="logical" name="LDMP1"> F  </i>
   <i type="logical" name="LMP2LT"> F  </i>
   <i type="logical" name="LSMP2LT"> F  </i>
   <i type="logical" name="LGWLF"> F  </i>
   <i name="ENCUTGW">     -2.00000000</i>
   <i name="ENCUTGWSOFT">     -2.00000000</i>
   <i name="ENCUTLF">     -1.00000000</i>
   <i type="logical" name="LESF_SPLINES"> F  </i>
   <i type="int" name="LMAXMP2">    -1</i>
   <i name="SCISSOR">      0.00000000</i>
   <i type="int" name="NOMEGA">     0</i>
   <i type="int" name="NOMEGAR">     0</i>
   <i type="int" name="NBANDSGW">    -1</i>
   <i type="int" name="NBANDSO">    -1</i>
   <i type="int" name="NBANDSV">    -1</i>
   <i type="int" name="NELM">     1</i>
   <i type="int" name="NELMHF">     1</i>
   <i type="int" name="DIM">     3</i>
   <i type="int" name="IESPILON">     4</i>
   <i type="int" name="ANTIRES">     0</i>
   <i name="OMEGAMAX">    -30.00000000</i>
   <i name="OMEGAMIN">    -30.00000000</i>
   <i name="OMEGATL">   -200.00000000</i>
   <i type="int" name="OMEGAGRID">     0</i>
   <i name="CSHIFT">     -0.10000000</i>
   <i type="logical" name="LSELFENERGY"> F  </i>
   <i type="logical" name="LSPECTRAL"> F  </i>
   <i type="logical" name="LSPECTRALGW"> F  </i>
   <i type="logical" name="LSINGLES"> F  </i>
   <i type="logical" name="LFERMIGW"> F  </i>
   <i type="logical" name="ODDONLYGW"> F  </i>
   <i type="logical" name="EVENONLYGW"> F  </i>
   <i type="int" name="NKREDLFX">     1</i>
   <i type="int" name="NKREDLFY">     1</i>
   <i type="int" name="NKREDLFZ">     1</i>
   <i type="int" name="MAXMEM">  2800</i>
   <i type="int" name="TELESCOPE">     0</i>
   <i type="int" name="NTAUPAR">    -1</i>
   <i type="int" name="NOMEGAPAR">    -1</i>
   <i name="LAMBDA">      1.00000000</i>
  </separator>
  <separator name="External order field" >
   <i name="OFIELD_KAPPA">      0.00000000</i>
   <v name="OFIELD_K">      0.00000000      0.00000000      0.00000000</v>
   <i name="OFIELD_Q6_NEAR">      0.00000000</i>
   <i name="OFIELD_Q6_FAR">      0.00000000</i>
   <i name="OFIELD_A">      0.00000000</i>
  </separator>
 </parameters>
 <atominfo>
  <atoms>       8 </atoms>
  <types>       2 </types>
  <array name="atoms" >
   <dimension dim="1">ion</dimension>
   <field type="string">element</field>
   <field type="int">atomtype</field>
   <set>
    <rc><c>Au</c><c>   1</c></rc>
    <rc><c>Au</c><c>   1</c></rc>
    <rc><c>Au</c><c>   1</c></rc>
    <rc><c>Au</c><c>   1</c></rc>
    <rc><c>Cu</c><c>   2</c></rc>
    <rc><c>Cu</c><c>   2</c></rc>
    <rc><c>Cu</c><c>   2</c></rc>
    <rc><c>Cu</c><c>   2</c></rc>
   </set>
  </array>
  <array name="atomtypes" >
   <dimension dim="1">type</dimension>
   <field type="int">atomspertype</field>
   <field type="string">element</field>
   <field>mass</field>
   <field>valence</field>
   <field type="string">pseudopotential</field>
   <set>
    <rc><c>   4</c><c>Au</c><c>    196.96600000</c><c>     11.00000000</c><c>  PAW_PBE Au 04Oct2007                  </c></rc>
    <rc><c>   4</c><c>Cu</c><c>     63.54600000</c><c>     11.00000000</c><c>  PAW_PBE Cu 22Jun2005                  </c></rc>
   </set>
  </array>
 </atominfo>
 <structure name="initialpos" >
  <crystal>
   <varray name="basis" >
    <v>      22.49079078       0.00000000       0.00000000 </v>
    <v>       0.00000000      23.82526905       0.00000000 </v>
    <v>       0.00000000       0.00000000      24.47572295 </v>
   </varray>
   <i name="volume">  13115.29512788 </i>
   <varray name="rec_basis" >
    <v>       0.04446264       0.00000000       0.00000000 </v>
    <v>       0.00000000       0.04197224       0.00000000 </v>
    <v>       0.00000000       0.00000000       0.04085681 </v>
   </varray>
  </crystal>
  <varray name="positions" >
   <v>       0.47086684       0.58948364       0.45096428 </v>
   <v>       0.53624883       0.45020138       0.50518361 </v>
   <v>       0.52958058       0.50753997       0.41440997 </v>
   <v>       0.54427304       0.50412495       0.59493870 </v>
   <v>       0.46169751       0.55733044       0.54936372 </v>
   <v>       0.43698865       0.49100193       0.47351156 </v>
   <v>       0.44812642       0.45622813       0.57044684 </v>
   <v>       0.56133768       0.55524360       0.50442253 </v>
  </varray>
 </structure>
 <calculation>
  <scstep>
   <time name="dav">    9.97   10.05</time>
   <time name="total">   14.54   15.67</time>
   <energy>
    <i name="alphaZ">      4.62635192 </i>
    <i name="ewald">  10200.96040738 </i>
    <i name="hartreedc"> -18802.07704659 </i>
    <i name="XCdc">    239.15736020 </i>
    <i name="pawpsdc">   8408.47588452 </i>
    <i name="pawaedc">  -8739.43322972 </i>
    <i name="eentropy">     -0.03173180 </i>
    <i name="bandstr">     83.50494811 </i>
    <i name="atom">   9268.15263587 </i>
    <i name="e_fr_energy">    663.33557989 </i>
    <i name="e_wo_entrp">    663.36731170 </i>
    <i name="e_0_energy">    663.34615716 </i>
   </energy>
  </scstep>
  <scstep>
   <time name="dav">   12.49   12.50</time>
   <time name="total">   12.49   12.50</time>
   <energy>
    <i name="e_fr_energy">    337.62867082 </i>
    <i name="e_wo_entrp">    337.66806796 </i>
    <i name="e_0_energy">    337.64180320 </i>
   </energy>
  </scstep>
  <scstep>
   <time name="dav">   11.37   11.38</time>
   <time name="total">   11.37   11.38</time>
   <energy>
    <i name="e_fr_energy">    102.18798201 </i>
    <i name="e_wo_entrp">    102.14611851 </i>
    <i name="e_0_energy">    102.17402751 </i>
   </energy>
  </scstep>
  <scstep>
   <time name="dav">   11.02   11.04</time>
   <time name="total">   11.03   11.04</time>
   <energy>
    <i name="e_fr_energy">      3.89596571 </i>
    <i name="e_wo_entrp">      3.92911888 </i>
    <i name="e_0_energy">      3.90701676 </i>
   </energy>
  </scstep>
  <scstep>
   <time name="dav">   10.80   10.81</time>
   <time name="total">   11.66   11.67</time>
   <energy>
    <i name="e_fr_energy">    -17.97195066 </i>
    <i name="e_wo_entrp">    -18.01917875 </i>
    <i name="e_0_energy">    -17.98769335 </i>
   </energy>
  </scstep>
  <scstep>
   <time name="dav">    9.04    9.20</time>
   <time name="total">   13.09   13.25</time>
   <energy>
    <i name="e_fr_energy">     -4.84455216 </i>
    <i name="e_wo_entrp">     -4.80294404 </i>
    <i name="e_0_energy">     -4.83068278 </i>
   </energy>
  </scstep>
  <scstep>
   <time name="dav">    8.62    8.63</time>
   <time name="total">   12.70   12.71</time>
   <energy>
    <i name="e_fr_energy">     -4.18064728 </i>
    <i name="e_wo_entrp">     -4.14312644 </i>
    <i name="e_0_energy">     -4.16814033 </i>
   </energy>
  </scstep>
  <scstep>
   <time name="dav">    9.35    9.36</time>
   <time name="total">   13.34   13.36</time>
   <energy>
    <i name="e_fr_energy">     -6.65459274 </i>
    <i name="e_wo_entrp">     -6.65087541 </i>
    <i name="e_0_energy">     -6.65335363 </i>
   </energy>
  </scstep>
  <scstep>
   <time name="dav">    9.48    9.49</time>
   <time name="total">   13.48   13.49</time>
   <energy>
    <i name="e_fr_energy">     -7.90303630 </i>
    <i name="e_wo_entrp">     -7.92384436 </i>
    <i name="e_0_energy">     -7.90997232 </i>
   </energy>
  </scstep>
  <scstep>
   <time name="dav">    9.29    9.32</time>
   <time name="total">   13.31   13.34</time>
   <energy>
    <i name="e_fr_energy">     -9.91780663 </i>
    <i name="e_wo_entrp">     -9.93835174 </i>
    <i name="e_0_energy">     -9.92465500 </i>
   </energy>
  </scstep>
  <scstep>
   <time name="dav">    9.03    9.04</time>
   <time name="total">   13.08   13.09</time>
   <energy>
    <i name="e_fr_energy">    -12.80625804 </i>
    <i name="e_wo_entrp">    -12.81340440 </i>
    <i name="e_0_energy">    -12.80864016 </i>
   </energy>
  </scstep>
  <scstep>
   <time name="dav">    9.08    9.08</time>
   <time name="total">   13.30   13.57</time>
   <energy>
    <i name="e_fr_energy">    -14.99310924 </i>
    <i name="e_wo_entrp">    -15.00576804 </i>
    <i name="e_0_energy">    -14.99732884 </i>
   </energy>
  </scstep>
  <scstep>
   <time name="dav">    8.77    8.78</time>
   <time name="total">   12.84   12.85</time>
   <energy>
    <i name="e_fr_energy">    -16.00179732 </i>
    <i name="e_wo_entrp">    -16.01798823 </i>
    <i name="e_0_energy">    -16.00719429 </i>
   </energy>
  </scstep>
  <scstep>
   <time name="dav">    8.96    8.97</time>
   <time name="total">   13.04   13.05</time>
   <energy>
    <i name="e_fr_energy">    -16.96665611 </i>
    <i name="e_wo_entrp">    -16.98666936 </i>
    <i name="e_0_energy">    -16.97332719 </i>
   </energy>
  </scstep>
  <scstep>
   <time name="dav">    9.52    9.53</time>
   <time name="total">   13.62   13.63</time>
   <energy>
    <i name="e_fr_energy">    -17.26672996 </i>
    <i name="e_wo_entrp">    -17.28659847 </i>
    <i name="e_0_energy">    -17.27335280 </i>
   </energy>
  </scstep>
  <scstep>
   <time name="dav">    9.15    9.16</time>
   <time name="total">   13.23   13.25</time>
   <energy>
    <i name="e_fr_energy">    -17.51981243 </i>
    <i name="e_wo_entrp">    -17.53954440 </i>
    <i name="e_0_energy">    -17.52638975 </i>
   </energy>
  </scstep>
  <scstep>
   <time name="dav">    9.08    9.09</time>
   <time name="total">   13.16   13.17</time>
   <energy>
    <i name="e_fr_energy">    -17.81008310 </i>
    <i name="e_wo_entrp">    -17.82978750 </i>
    <i name="e_0_energy">    -17.81665123 </i>
   </energy>
  </scstep>
  <scstep>
   <time name="dav">    9.57    9.58</time>
   <time name="total">   13.71   13.71</time>
   <energy>
    <i name="e_fr_energy">    -18.01550549 </i>
    <i name="e_wo_entrp">    -18.03524258 </i>
    <i name="e_0_energy">    -18.02208452 </i>
   </energy>
  </scstep>
  <scstep>
   <time name="dav">    8.11    8.12</time>
   <time name="total">   12.23   12.24</time>
   <energy>
    <i name="e_fr_energy">    -18.12505698 </i>
    <i name="e_wo_entrp">    -18.14464550 </i>
    <i name="e_0_energy">    -18.13158649 </i>
   </energy>
  </scstep>
  <scstep>
   <time name="dav">    7.29    7.30</time>
   <time name="total">   11.41   11.42</time>
   <energy>
    <i name="e_fr_energy">    -18.17039471 </i>
    <i name="e_wo_entrp">    -18.19007267 </i>
    <i name="e_0_energy">    -18.17695403 </i>
   </energy>
  </scstep>
  <scstep>
   <time name="dav">    6.31    6.31</time>
   <time name="total">   10.44   10.47</time>
   <energy>
    <i name="e_fr_energy">    -18.18577024 </i>
    <i name="e_wo_entrp">    -18.20543453 </i>
    <i name="e_0_energy">    -18.19232500 </i>
   </energy>
  </scstep>
  <scstep>
   <time name="dav">    5.59    5.69</time>
   <time name="total">    9.69    9.79</time>
   <energy>
    <i name="e_fr_energy">    -18.19497353 </i>
    <i name="e_wo_entrp">    -18.21466498 </i>
    <i name="e_0_energy">    -18.20153734 </i>
   </energy>
  </scstep>
  <scstep>
   <time name="dav">    5.82    5.82</time>
   <time name="total">    9.96    9.97</time>
   <energy>
    <i name="e_fr_energy">    -18.20075412 </i>
    <i name="e_wo_entrp">    -18.22044467 </i>
    <i name="e_0_energy">    -18.20731764 </i>
   </energy>
  </scstep>
  <scstep>
   <time name="dav">    5.85    5.86</time>
   <time name="total">   10.01   10.03</time>
   <energy>
    <i name="e_fr_energy">    -18.20476888 </i>
    <i name="e_wo_entrp">    -18.22444561 </i>
    <i name="e_0_energy">    -18.21132779 </i>
   </energy>
  </scstep>
  <scstep>
   <time name="dav">    5.85    5.86</time>
   <time name="total">    9.99   10.02</time>
   <energy>
    <i name="e_fr_energy">    -18.20737734 </i>
    <i name="e_wo_entrp">    -18.22704337 </i>
    <i name="e_0_energy">    -18.21393268 </i>
   </energy>
  </scstep>
  <scstep>
   <time name="dav">    5.82    5.82</time>
   <time name="total">    9.98    9.99</time>
   <energy>
    <i name="e_fr_energy">    -18.20938617 </i>
    <i name="e_wo_entrp">    -18.22904680 </i>
    <i name="e_0_energy">    -18.21593972 </i>
   </energy>
  </scstep>
  <scstep>
   <time name="dav">    5.48    5.49</time>
   <time name="total">    9.57    9.58</time>
   <energy>
    <i name="e_fr_energy">    -18.21131512 </i>
    <i name="e_wo_entrp">    -18.23097926 </i>
    <i name="e_0_energy">    -18.21786984 </i>
   </energy>
  </scstep>
  <scstep>
   <time name="dav">    5.87    5.88</time>
   <time name="total">   10.01   10.02</time>
   <energy>
    <i name="e_fr_energy">    -18.21213661 </i>
    <i name="e_wo_entrp">    -18.23179851 </i>
    <i name="e_0_energy">    -18.21869058 </i>
   </energy>
  </scstep>
  <scstep>
   <time name="dav">    5.29    5.29</time>
   <time name="total">    9.47    9.48</time>
   <energy>
    <i name="e_fr_energy">    -18.21263835 </i>
    <i name="e_wo_entrp">    -18.23229922 </i>
    <i name="e_0_energy">    -18.21919197 </i>
   </energy>
  </scstep>
  <scstep>
   <time name="dav">    5.65    5.65</time>
   <time name="total">    9.77    9.85</time>
   <energy>
    <i name="e_fr_energy">    -18.21277221 </i>
    <i name="e_wo_entrp">    -18.23243188 </i>
    <i name="e_0_energy">    -18.21932544 </i>
   </energy>
  </scstep>
  <scstep>
   <time name="dav">    5.10    5.10</time>
   <time name="total">    8.21    8.21</time>
   <energy>
    <i name="alphaZ">      4.62635192 </i>
    <i name="ewald">  10200.96040738 </i>
    <i name="hartreedc"> -18766.30458780 </i>
    <i name="XCdc">    235.04533732 </i>
    <i name="pawpsdc">   9170.95850559 </i>
    <i name="pawaedc">  -9516.24332806 </i>
    <i name="eentropy">      0.01966061 </i>
    <i name="bandstr">   -615.42784149 </i>
    <i name="atom">   9268.15263587 </i>
    <i name="e_fr_energy">    -18.21285866 </i>
    <i name="e_wo_entrp">    -18.23251928 </i>
    <i name="e_0_energy">    -18.21941220 </i>
   </energy>
  </scstep>
  <structure>
   <crystal>
    <varray name="basis" >
     <v>      22.49079078       0.00000000       0.00000000 </v>
     <v>       0.00000000      23.82526905       0.00000000 </v>
     <v>       0.00000000       0.00000000      24.47572295 </v>
    </varray>
    <i name="volume">  13115.29512788 </i>
    <varray name="rec_basis" >
     <v>       0.04446264       0.00000000       0.00000000 </v>
     <v>       0.00000000       0.04197224       0.00000000 </v>
     <v>       0.00000000       0.00000000       0.04085681 </v>
    </varray>
   </crystal>
   <varray name="positions" >
    <v>       0.47086684       0.58948364       0.45096428 </v>
    <v>       0.53624883       0.45020138       0.50518361 </v>
    <v>       0.52958058       0.50753997       0.41440997 </v>
    <v>       0.54427304       0.50412495       0.59493870 </v>
    <v>       0.46169751       0.55733044       0.54936372 </v>
    <v>       0.43698865       0.49100193       0.47351156 </v>
    <v>       0.44812642       0.45622813       0.57044684 </v>
    <v>       0.56133768       0.55524360       0.50442253 </v>
   </varray>
  </structure>
  <varray name="forces" >
   <v>      -1.11119434       1.95255347       0.62315254 </v>
   <v>       0.10862437      -1.41383773      -0.75944662 </v>
   <v>       1.22127941      -1.28897925      -1.45317566 </v>
   <v>       0.83741866       0.93395949       1.50559389 </v>
   <v>      -0.22790041      -0.12982754      -0.19959988 </v>
   <v>      -0.33260242      -0.26618888       0.60745477 </v>
   <v>      -0.60511832       0.04095527      -0.49117212 </v>
   <v>       0.10949306       0.17136518       0.16719308 </v>
  </varray>
  <energy>
   <i name="e_fr_energy">    -18.21285866 </i>
   <i name="e_wo_entrp">    -18.23251928 </i>
   <i name="e_0_energy">    -18.21941220 </i>
  </energy>
  <time name="totalsc">  374.23  376.50</time>
 </calculation>
                                                                                                                                                                                                                                                                                                                                                                                                                                                                                                                                                                                                                                                                                                                                                                                                                                                                                                                                                                                                                                                                                                                                                                                                                                                                                                                                                                                                                                                                                                                                                                                                                                                                                                                                                                                                                                                                                                                                                                                                                                                                                                                                                                                                                                                                                                                                                                                                                                                                                                                                                                                                                                                                                                                                                                                                                                                                                                                                                                                                                                                                                                                                                                                                                                                                                                                                                                                                                                                                                                                                                                                                                                                                                                                                                                                                                                                                                                                                                                                                                                                                                                                                                                                                                                                                                                                                                                                                                                                                                                                                                                                                                                                                                                                                                                                                                                                                                                                                                                                                                                                                                                                                                                                                                                                                                                                                                                                                                                                                                                                                                                                                                                                                                                                                                                                                                                                                                                                                                                                                                                                                                                                                                                                                                                                                                                                                                                                                                                                                                                                                                                                                                                                                                                                                                                                                                                                                                                                                                                                                                                                                                                                                                                                                                                                                                                                                                                                                                                                                                                                                                                                                                                                                                                                                                                                                                                                                                                                                                                                                                                                                                                                                                                                                                                                                                                                                                                                                                                                                                                                                                                                                                                                                                                                                                                                                                                                                                                                                                                                                                                                                                                                                                                                                                                                                                                                                                                                                                                                                                                                                                                                                                                                                                                                                                                                                                                                                                                                                                                                                                                                                                                                                                                                                                                                                                                                                                                                                                                                                                                                                                                                                                                                                                                                                                                                                                                                                                                                                                                                                                                                                                                                                                                                                                                                                                                                                                                                                                                                                                                                                                                                                                                                                                                                                                                                                                                                                                                                                                                                                                                                                                                                                                                                                                                                                                                                                                                                                                                                                                                                                                                                                                                                                                                                                                                                                                                                                                                                                                                                                                                                                                                                                                                                                                                                                                                                                                                                                                                                                                                                                                                                                                                                                                                                                                                                                                                                                                                                                                                                                                                                                                                                                                                                                                                                                                                                                                                                                                                                                                                                                                                                                                                                                                                                                                                                                                                                                                                                                                                                                                                                                                                                                                                                                                                                                                                                                                                                                                                                                                                                                                                                                                                                                                                                                                                                                                                                                                                                                                                                                                                                                                                                                                                                                                                                                                                                                                                                                                                                                                                                                                                                                                                                                                                                                                                                                                                                                                                                                                                                                                                                                                                                                                                                                                                                                                                                                                                                                                                                                                                                                                                                                                                                                                                                                                                                                                                                                                                                                                                                                                                                                                                                                                                                                                                                                                                                                                                                                                                                                                                                                                                                                                                                                                                                                                                                                                                                                                                                                                                                                                                                                                                                                                                                                                                                                                                                                                                                                                                                                                                                                                                                                                                                                                                                                                                                                                                                                                                                                                                                                                                                                                                                                                                                                                                                                                                                                                                                                                                                                                                                                                                                                                                                                                                                                                                                                                                                                                                                                                                                                                                                                                                                                                                                                                                                                                                                                                                                                                                                                                                                                                                                                                                                                                                                                                                                                                                                                                                                                                                                                                                                                                                                                                                                                                                                                                                                                                                                                                                                                                                                                                                                                                                                                                                                                                                                                                                                                                                                                                                                                                                                                                                                                                                                                                                                                                                                                                                                                                                                                                                                                                                                                                                                                                                                                                                                                                                                                                                                                                                                                                                                                                                                                                                                                                                                                                                                                                                                                                                                                                                                                                                                                                                                                                                                                                                                                                                                                                                                                                                                                                                                                                                                                                                                                                                                                                                                                                                                                                                                                                                                                                                                                                                                                                                                                                                                                                                                                                                                                                                                                                                                                                                                                                                                                                                                                                                                                                                                                                                                                                                                                                                                                                                                                                                                                                                                                                                                                                                                                                                                                                                                                                                                                                                                                                                                                                                                                                                                                                                                                                                                                                                                                                                                                                                                                                                                                                                                                                                                                                                                                                                                                                                                                                                                                                                                                                                                                                                                                                                                                                                                                                                                                                                                                                                                                                                                                                                                                                                                                                                                                                                                                                                                                                                                                                                                                                                                                                                                                                                                                                                                                                                                                                                                                                                                                                                                                                                                                                                                                                                                                                                                                                                                                                                                                                                                                                                                                                                                                                                                                                                                                                                                                                                                                                                                                                                                                                                                                                                                                                                                                                                                                                                                                                                                                                                                                                                                                                                                                                                                                                                                                                                                                                                                                                                                                                                                                                                                                                                                                                                                                                                                                                                                                                                                                                                                                                                                                                                                                                                                                                                                                                                                                                                                                                                                                                                                                                                                                                                                                                                                                                                                                                                                                                                                                                                                                                                                                                                                                                                                                                                                                                                                                                                                                                                                                                                                                                                                                                                                                                                                                                                                                                                                                                                                                                                                                                                                                                                                                                                                                                                                                                                                                                                                                                                                                                                                                                                                                                                                                                                                                                                                                                                                                                                                                                                                                                                                                                                                                                                                                                                                                                                                                                                                                                                                                                                                                                                                                                                                                                                                                                                                                                                                                                                                                                                                                                                                                                                                                                                                                                                                                                                                                                                                                                                                                                                                                                                                                                                                                                                                                                                                                                                                                                                                                                                                                                                                                                                                                                                                                                                                                                                                                                                                                                                                                                                                                                                                                                                                                                                                                                                                                                                                                                                                                                                                                                                                                                                                                                                                                                                                                                                                                                                                                                                                                                                                                                                                                                                                                                                                                                                                                                                                                                                                                                                                                                                                                                                                                                                                                                                                                                                                                                                                                                                                                                                                                                                                                                                                                                                                                                                                                                                                                                                                                                                                                                                                                                                                                                                                                                                                                                                                                                                                                                                                                                                                                                                                                                                                                                                                                                                                                                                                                                                                                                                                                                                                                                                                                                                                                                                                                                                                                                                                                                                                                                                                                                                                                                                                                                                                                                                                                                                                                                                                                                                                                                                                                                                                                                                                                                                                                                                                                                                                                                                                                                                                                                                                                                                                                                                                                                                                                                                                                                                                                                                                                                                                                                                                                                                                                                                                                                                                                                                                                                                                                                                                                                                                                                                                                                                                                                                                                                                                                                                                                                                                                                                                                                                                                                                                                                                                                                                                                                                                                                                                                                                                                                                                                                                                                                                                                                                                                                                                                                                                                                                                                                                                                                                                                                                                                                                                                                                                                                                                                                                                                                                                                                                                                                                                                                                                                                                                                                                                                                                                                                                                                                                                                                                                                                                                                                                                                                                                                                                                                                                                                                                                                                                                                                                                                                                                                                                                                                                                                                                                                                                                                                                                                                                                                                                                                                                                                                                                                                                                                                                                                                                                                                                                                                                                                                                                                                                                                                                                                                                                                                                                                                                                                                                                                                                                                                                                                                                                                                                                                                                                                                                                                                                                                                                                                                                                                                                                                                                                                                                                                                                                                                                                                                                                                                                                                                                                                                                                                                                                                                                                                                                                                                                                                                                                                                                                                                                                                                                                                                                                                                                                                                                                                                                                                                                                                                                                                                                                                                                                                                                                                                                                                                                                                                                                                                                                                                                                                                                                                                                                                                                                                                                                                                                                                                                                                                                                                                                                                                                                                                                                                                                                                                                                                                                                                                                                                                                                                                                                             
[...]
    <i name="e_wo_entrp">    -19.16153260 </i>
    <i name="e_0_energy">    -19.15372276 </i>
   </energy>
  </scstep>
  <structure>
   <crystal>
    <varray name="basis" >
     <v>      21.71332629       0.00000000       0.00000000 </v>
     <v>       0.00000000      22.96917424       0.00000000 </v>
     <v>       0.00000000       0.00000000      23.56090832 </v>
    </varray>
    <i name="volume">  11750.70085271 </i>
    <varray name="rec_basis" >
     <v>       0.04605467       0.00000000       0.00000000 </v>
     <v>       0.00000000       0.04353661       0.00000000 </v>
     <v>       0.00000000       0.00000000       0.04244319 </v>
    </varray>
   </crystal>
   <varray name="positions" >
    <v>       0.55546501       0.48211146       0.40338394 </v>
    <v>       0.56064117       0.47489294       0.58669421 </v>
    <v>       0.48858593       0.58474092       0.53945142 </v>
    <v>       0.45633820       0.39533685       0.53339439 </v>
    <v>       0.56322821       0.42406572       0.49324695 </v>
    <v>       0.47230263       0.49184310       0.48045528 </v>
    <v>       0.58110795       0.52936809       0.49652655 </v>
    <v>       0.44621824       0.49257194       0.58049860 </v>
   </varray>
  </structure>
  <varray name="forces" >
   <v>      -0.08971050       0.02404301      -0.09296764 </v>
   <v>       0.53373610      -0.06651990       0.26675460 </v>
   <v>      -0.11167928       0.02364293      -0.11063224 </v>
   <v>      -0.09411808       0.02597186      -0.11039958 </v>
   <v>      -0.15528707      -0.07412724       0.07988649 </v>
   <v>       0.18684852      -0.01863101      -0.02990894 </v>
   <v>      -0.14876862       0.07155424       0.11478685 </v>
   <v>      -0.12102107       0.01406611      -0.11751954 </v>
  </varray>
  <energy>
   <i name="e_fr_energy">    -19.14981784 </i>
   <i name="e_wo_entrp">    -19.16153260 </i>
   <i name="e_0_energy">    -19.15372276 </i>
  </energy>
  <time name="totalsc">   57.64   58.12</time>
 </calculation>
  234.06063829 </i>
    <i name="pawpsdc">   8963.25095102 </i>
    <i name="pawaedc">  -9307.23892296 </i>
    <i name="eentropy">      0.01304846 </i>
    <i name="bandstr">   -602.89699133 </i>
    <i name="atom">   9268.15263587 </i>
    <i name="e_fr_energy">    -18.67991146 </i>
    <i name="e_wo_entrp">    -18.69295993 </i>
    <i name="e_0_energy">    -18.68426095 </i>
   </energy>
  </scstep>
  <scstep>
   <time name="dav">    9.59    9.60</time>
   <time name="total">   12.86   12.89</time>
   <energy>
    <i name="e_fr_energy">    -18.68481214 </i>
    <i name="e_wo_entrp">    -18.69781932 </i>
    <i name="e_0_energy">    -18.68914787 </i>
   </energy>
  </scstep>
  <scstep>
   <time name="dav">    5.82    5.85</time>
   <time name="total">    8.85    8.88</time>
   <energy>
    <i name="e_fr_energy">    -18.68464439 </i>
    <i name="e_wo_entrp">    -18.69770752 </i>
    <i name="e_0_energy">    -18.68899876 </i>
   </energy>
  </scstep>
  <scstep>
   <time name="dav">    5.89    6.40</time>
   <time name="total">    8.80    9.52</time>
   <energy>
    <i name="alphaZ">      5.57720120 </i>
    <i name="ewald">   9222.75176199 </i>
    <i name="hartreedc"> -17802.28280059 </i>
    <i name="XCdc">    234.05582108 </i>
    <i name="pawpsdc">   8965.32444321 </i>
    <i name="pawaedc">  -9309.33085721 </i>
    <i name="eentropy">      0.01305833 </i>
    <i name="bandstr">   -602.94586955 </i>
    <i name="atom">   9268.15263587 </i>
    <i name="e_fr_energy">    -18.68460566 </i>
    <i name="e_wo_entrp">    -18.69766399 </i>
    <i name="e_0_energy">    -18.68895844 </i>
   </energy>
  </scstep>
  <structure>
   <crystal>
    <varray name="basis" >
     <v>      23.78341874       0.00000000       0.00000000 </v>
     <v>       0.00000000      21.63909092       0.00000000 </v>
     <v>       0.00000000       0.00000000      21.13913086 </v>
    </varray>
    <i name="volume">  10879.28668138 </i>
    <varray name="rec_basis" >
     <v>       0.04204610       0.00000000       0.00000000 </v>
     <v>       0.00000000       0.04621266       0.00000000 </v>
     <v>       0.00000000       0.00000000       0.04730563 </v>
    </varray>
   </crystal>
   <varray name="position <calculation>
  <scstep>
   <time name="dav">    6.59    6.63</time>
   <time name="total">   10.83   10.87</time>
   <energy>
    <i name="alphaZ">      5.16360441 </i>
    <i name="ewald">   9563.06961743 </i>
    <i name="hartreedc"> -18144.54840289 </i>
    <i name="XCdc">    234.20727787 </i>
    <i name="pawpsdc">   8974.01033052 </i>
    <i name="pawaedc">  -9318.32036893 </i>
    <i name="eentropy">      0.01179815 </i>
    <i name="bandstr">   -600.81480666 </i>
    <i name="atom">   9268.15263587 </i>
    <i name="e_fr_energy">    -19.06831424 </i>
    <i name="e_wo_entrp">    -19.08011239 </i>
    <i name="e_0_energy">    -19.07224695 </i>
   </energy>
  </scstep>
  <scstep>
   <time name="dav">   10.45   10.82</time>
   <time name="total">   13.76   14.17</time>
   <energy>
    <i name="e_fr_energy">    -19.19481229 </i>
    <i name="e_wo_entrp">    -19.20652207 </i>
    <i name="e_0_energy">    -19.19871555 </i>
   </energy>
  </scstep>
  <scstep>
   <time name="dav">    8.01    8.09</time>
   <time name="total">   11.39   11.49</time>
   <energy>
    <i name="e_fr_energy">    -19.18622379 </i>
    <i name="e_wo_entrp">    -19.19799969 </i>
    <i name="e_0_energy">    -19.19014909 </i>
   </energy>
  </scstep>
  <scstep>
   <time name="dav">    9.98   10.08</time>
   <time name="total">   13.08   13.21</time>
   <energy>
    <i name="e_fr_energy">    -19.18474506 </i>
    <i name="e_wo_entrp">    -19.19654138 </i>
    <i name="e_0_energy">    -19.18867717 </i>
   </energy>
  </scstep>
  <scstep>
   <time name="dav">    8.68    8.80</time>
   <time name="total">   11.97   12.10</time>
   <energy>
    <i name="e_fr_energy">    -19.18356424 </i>
    <i name="e_wo_entrp">    -19.19534804 </i>
    <i name="e_0_energy">    -19.18749218 </i>
   </energy>
  </scstep>
  <scstep>
   <time name="dav">   10.12   10.25</time>
   <time name="total">   13.67   13.84</time>
   <energy>
    <i name="e_fr_energy">    -19.18320116 </i>
    <i name="e_wo_entrp">    -19.19502929 </i>
    <i name="e_0_energy">    -19.18714387 </i>
   </energy>
  </scstep>
  <scstep>
   <time name="dav">    7.20    7.29</time>
   <time name="total">   10.51   10.63</time>
   <energy>
    <i name="e_fr_energy">    -19.18330209 </i>
    <i name="e_wo_entrp">    -19.19514908 </i>
    <i name="e_0_energy">    -19.18725108 </i>
   </energy>
  </scstep>
  <scstep>
   <time name="dav">    5.03    5.10</time>
   <time name="total">    7.43    7.50</time>
   <energy>
    <i name="alphaZ">      5.16360441 </i>
    <i name="ewald">   9563.06961743 </i>
    <i name="hartreedc"> -18145.68697275 </i>
    <i name="XCdc">    234.25569245 </i>
    <i name="pawpsdc">   8954.37411882 </i>
    <i name="pawaedc">  -9298.51687139 </i>
    <i name="eentropy">      0.01183458 </i>
    <i name="bandstr">   -600.00690851 </i>
    <i name="atom">   9268.15263587 </i>
    <i name="e_fr_energy">    -19.18324910 </i>
    <i name="e_wo_entrp">    -19.19508368 </i>
    <i name="e_0_energy">    -19.18719396 </i>
   </energy>
  </scstep>
  <structure>
   <crystal>
    <varray name="basis" >
     <v>      21.71332629       0.00000000       0.00000000 </v>
     <v>       0.00000000      22.96917424       0.00000000 </v>
     <v>       0.00000000       0.00000000      23.56090832 </v>
    </varray>
    <i name="volume">  11750.70085271 </i>
    <varray name="rec_basis" >
     <v>       0.04605467       0.00000000       0.00000000 </v>
     <v>       0.00000000       0.04353661       0.00000000 </v>
     <v>       0.00000000       0.00000000       0.04244319 </v>
    </varray>
   </crystal>
   <varray name="positions" >
    <v>       0.55552260       0.48209580       0.40327574 </v>
    <v>       0.56237124       0.47469534       0.58765120 </v>
    <v>       0.48779455       0.58528157       0.53835241 </v>
    <v>       0.45543128       0.39515937       0.53228132 </v>
    <v>       0.56256508       0.42382466       0.49371940 </v>
    <v>       0.47233213       0.49186482       0.47992828 </v>
    <v>       0.58046263       0.52970327       0.49707536 </v>
    <v>       0.44740783       0.49230619       0.58136762 </v>
   </varray>
  </structure>
  <varray name="forces" >
   <v>      -0.04768184       0.01436043       0.00990686 </v>
   <v>       0.46179470      -0.06271741       0.19273810 </v>
   <v>      -0.15867140      -0.06173832      -0.07725015 </v>
   <v>      -0.10839063       0.11004566      -0.07587757 </v>
   <v>      -0.15643272       0.02905786       0.07338056 </v>
   <v>       0.14263352      -0.01867113       0.06898228 </v>
   <v>      -0.16792685      -0.01413548       0.08414335 </v>
   <v>       0.03467520       0.00379839      -0.27602342 </v>
  </varray>
  <energy>
   <i name="e_fr_energy">    -19.18324910 </i>
   <i name="e_wo_entrp">    -19.19508368 </i>
   <i name="e_0_energy">    -19.18719396 </i>
  </energy>
  <time name="totalsc">  100.51  101.80</time>
 </calculation>
al">    9.57    9.63</time>
   <energy>
    <i name="alphaZ">      5.57720120 </i>
    <i name="ewald">   9229.94610820 </i>
    <i name="hartreedc"> -17809.35015556 </i>
    <i name="XCdc">    234.07227939 </i>
    <i name="pawpsdc">   8966.50463913 </i>
    <i name="pawaedc">  -9310.53292732 </i>
    <i name="eentropy">      0.01319699 </i>
    <i name="bandstr">   -603.06468192 </i>
    <i name="atom">   9268.15263587 </i>
    <i name="e_fr_energy">    -18.68170401 </i>
    <i name="e_wo_entrp">    -18.69490100 </i>
    <i name="e_0_energy">    -18.68610300 </i>
   </energy>
  </scstep>
  <scstep>
   <time name="dav">    9.30    9.36</time>
   <time name="total">   13.46   13.54</time>
   <energy>
    <i name="e_fr_energy">    -18.68782422 </i>
    <i name="e_wo_entrp">    -18.70095165 </i>
    <i name="e_0_energy">    -18.69220003 </i>
   </energy>
  </scstep>
  <scstep>
   <time name="dav">    8.24    8.27</time>
   <time name="total">   11.81   11.86</time>
   <energy>
    <i name="e_fr_energy">    -18.68755513 </i>
    <i name="e_wo_entrp">    -18.70074154 </i>
    <i name="e_0_energy">    -18.69195060 </i>
   </energy>
  </scstep>
  <scstep>
   <time name="dav">    5.16    5.45</time>
   <time name="total">    7.85    8.26</time>
   <energy>
    <i name="alphaZ">      5.57720120 </i>
    <i name="ewald">   9229.94610820 </i>
    <i name="hartreedc"> -17809.27871022 </i>
    <i name="XCdc">    234.06611681 </i>
    <i name="pawpsdc">   8967.92477429 </i>
    <i name="pawaedc">  -9311.92740885 </i>
    <i name="eentropy">      0.01319291 </i>
    <i name="bandstr">   -603.16141199 </i>
    <i name="atom">   9268.15263587 </i>
    <i name="e_fr_energy">    -18.68750178 </i>
    <i name="e_wo_entrp">    -18.70069469 </i>
    <i name="e_0_energy">    -18.69189942 </i>
   </energy>
  </scstep>
  <structure>
   <crystal>
    <varray name="basis" >
     <v>      23.78341874       0.00000000       0.00000000 </v>
     <v>       0.00000000      21.63909092       0.00000000 </v>
     <v>       0.00000000       0.00000000      21.13913086 </v>
    </varray>
    <i name="volume">  10879.28668138 </i>
    <varray name="rec_basis" >
     <v>       0.04204610       0.00000000       0.00000000 </v>
     <v>       0.00000000       0.04621266       0.00000000 </v>
     <v>       0.00000000       0.00000000       0.04730563 </v>
    </varray>
   </crystal>
   <varray name="positions" >
    <v>       0.46392154       0.54831492       0.48629320 </v>
    <v>       0.58369198       0.41866252       0.55074394 </v>
    <v>       0.60178121       0.43662568       0.41810784 </v>
    <v>       0.40811287       0.43589791       0.43068212 </v>
    <v>       0.51370038       0.49837932       0.58022534 </v>
    <v>       0.56643085       0.52451631       0.48316482 </v>
    <v>       0.43135839       0.44509763       0.54498510 </v>
    <v>       0.50647376       0.43264982       0.47050177 </v>
   </varray>
  </structure>
  <varray name="forces" >
   <v>       0.00432968      -0.01736800      -0.01360048 </v>
   <v>      -0.00107971      -0.05276926       0.04060680 </v>
   <v>       0.05859467      -0.00554431      -0.00933330 </v>
   <v>      -0.04173044       0.00552854       0.02147613 </v>
   <v>       0.00001816       0.04531091       0.03252636 </v>
   <v>      -0.01348064       0.02486963      -0.00984891 </v>
   <v>       0.05036590      -0.04034306      -0.02676869 </v>
   <v>      -0.05701761       0.04031555      -0.03505791 </v>
  </varray>
  <energy>
   <i name="e_fr_energy">    -18.68750178 </i>
   <i name="e_wo_entrp">    -18.70069469 </i>
   <i name="e_0_energy">    -18.69189942 </i>
  </energy>
  <time name="totalsc">   51.30   52.20</time>
 </calculation>
 <calculation>
  <scstep>
   <time name="dav">    7.46    7.48</time>
   <time name="total">   10.40   10.43</time>
   <energy>
    <i name="alphaZ">      5.57720120 </i>
    <i name="ewald">   9226.83545670 </i>
    <i name="hartreedc"> -17806.13818250 </i>
    <i name="XCdc">    234.05675842 </i>
    <i name="pawpsdc">   8968.29764379 </i>
    <i name="pawaedc">  -9312.30884001 </i>
    <i name="eentropy">      0.01319946 </i>
    <i name="bandstr">   -603.17366302 </i>
    <i name="atom">   9268.15263587 </i>
    <i name="e_fr_energy">    -18.68779008 </i>
    <i name="e_wo_entrp">    -18.70098954 </i>
    <i name="e_0_energy">    -18.69218990 </i>
   </energy>
  </scstep>
  <scstep>
   <time name="dav">    8.26    8.43</time>
   <time name="total">   11.50   11.67</time>
   <energy>
    <i name="e_fr_energy">    -18.68813226 </i>
    <i name="e_wo_entrp">    -18.70135123 </i>
    <i name="e_0_energy">    -18.69253859 </i>
   </energy>
  </scstep>
  <scstep>
   <time name="dav">    4.51    4.52</time>
   <time name="total">    7.03    7.23</time>
   <energy>
    <i name="alphaZ">      5.57720120 </i>
    <i name="ewald">   9226.83545670 </i>
    <i name="hartreedc"> -17806.19937406 </i>
    <i name="XCdc">    234.06034579 </i>
    <i name="pawpsdc">   8967.94734794 </i>
    <i name="pawaedc">  -9311.98078291 </i>
    <i name="eentropy">      0.01321070 </i>
    <i name="bandstr">   -603.09416643 </i>
    <i name="atom">   9268.15263587 </i>
    <i name="e_fr_energy">    -18.68812521 </i>
    <i name="e_wo_entrp">    -18.70133591 </i>
    <i name="e_0_energy">    -18.69252877 </i>
   </energy>
  </scstep>
  <structure>
   <crystal>
    <varray name="basis" >
     <v>      23.78341874       0.00000000       0.00000000 </v>
     <v>       0.00000000      21.63909092       0.00000000 </v>
     <v>       0.00000000       0.00000000      21.13913086 </v>
    </varray>
    <i name="volume">  10879.28668138 </i>
    <varray name="rec_basis" >
     <v>       0.04204610       0.00000000       0.00000000 </v>
     <v>       0.00000000       0.04621266       0.00000000 </v>
     <v>       0.00000000       0.00000000       0.04730563 </v>
    </varray>
   </crystal>
   <varray name="positions" >
    <v>       0.46392676       0.54829123       0.48627476 </v>
    <v>       0.58369216       0.41859148       0.55080108 </v>
    <v>       0.60185229       0.43661813       0.41809407 </v>
    <v>       0.40806169       0.43590553       0.43071058 </v>
    <v>       0.51370070       0.49844017       0.58027090 </v>
    <v>       0.56641400       0.52454966       0.48315086 </v>
    <v>       0.43141954       0.44504388       0.54494729 </v>
    <v>       0.50640384       0.43270405       0.47045459 </v>
   </varray>
  </structure>
  <varray name="forces" >
   <v>       0.00132579      -0.00581467      -0.01625476 </v>
   <v>      -0.03519672      -0.03151319       0.00451526 </v>
   <v>       0.03958101      -0.00106936       0.01816690 </v>
   <v>      -0.03697186       0.00038187       0.02152726 </v>
   <v>       0.00651636       0.03172220       0.02464944 </v>
   <v>      -0.00759208       0.00913713      -0.01051451 </v>
   <v>       0.04687679      -0.03785895      -0.01472136 </v>
   <v>      -0.01453929       0.03501498      -0.02736823 </v>
  </varray>
  <energy>
   <i name="e_fr_energy">    -18.68812521 </i>
   <i name="e_wo_entrp">    -18.70133591 </i>
   <i name="e_0_energy">    -18.69252877 </i>
  </energy>
  <time name="totalsc">   36.81   37.30</time>
 </calculation>
 <calculation>
  <scstep>
   <time name="dav">    8.29    8.35</time>
   <time name="total">   11.56   11.65</time>
   <energy>
    <i name="alphaZ">      5.57720120 </i>
    <i name="ewald">   9221.34024073 </i>
    <i name="hartreedc"> -17800.80485971 </i>
    <i name="XCdc">    234.04709002 </i>
    <i name="pawpsdc">   8967.84617307 </i>
    <i name="pawaedc">  -9311.88851845 </i>
    <i name="eentropy">      0.01323677 </i>
    <i name="bandstr">   -602.97120719 </i>
    <i name="atom">   9268.15263587 </i>
    <i name="e_fr_energy">    -18.68800769 </i>
    <i name="e_wo_entrp">    -18.70124446 </i>
    <i name="e_0_energy">    -18.69241995 </i>
   </energy>
  </scstep>
  <scstep>
   <time name="dav">    9.45    9.53</time>
   <time name="total">   12.76   12.87</time>
   <energy>
    <i name="e_fr_energy">    -18.68889586 </i>
    <i name="e_wo_entrp">    -18.70211489 </i>
    <i name="e_0_energy">    -18.69330220 </i>
   </energy>
  </scstep>
  <scstep>
   <time name="dav">    6.98    7.01</time>
   <time name="total">    9.54    9.58</time>
   <energy>
    <i name="alphaZ">      5.57720120 </i>
    <i name="ewald">   9221.34024073 </i>
    <i name="hartreedc"> -17800.83544890 </i>
    <i name="XCdc">    234.04985721 </i>
    <i name="pawpsdc">   8966.75137550 </i>
    <i name="pawaedc">  -9310.77931888 </i>
    <i name="eentropy">      0.01323510 </i>
    <i name="bandstr">   -602.95860834 </i>
    <i name="atom">   9268.15263587 </i>
    <i name="e_fr_energy">    -18.68883051 </i>
    <i name="e_wo_entrp">    -18.70206561 </i>
    <i name="e_0_energy">    -18.69324221 </i>
   </energy>
  </scstep>
  <structure>
   <crystal>
    <varray name="basis" >
     <v>      23.78341874       0.00000000       0.00000000 </v>
     <v>       0.00000000      21.63909092       0.00000000 </v>
     <v>       0.00000000       0.00000000      21.13913086 </v>
    </varray>
    <i name="volume">  10879.28668138 </i>
    <varray name="rec_basis" >
     <v>       0.04204610       0.00000000       0.00000000 </v>
     <v>       0.00000000       0.04621266       0.00000000 </v>
     <v>       0.00000000       0.00000000       0.04730563 </v>
    </varray>
   </crystal>
   <varray name="positions" >
    <v>       0.46393600       0.54824933       0.48624214 </v>
    <v>       0.58369247       0.41846585       0.55090213 </v>
    <v>       0.60197799       0.43660476       0.41806971 </v>
    <v>       0.40797117       0.43591899       0.43076092 </v>
    <v>       0.51370125       0.49854778       0.58035147 </v>
    <v>       0.56638421       0.52460863       0.48312617 </v>
    <v>       0.43152769       0.44494883       0.54488044 </v>
    <v>       0.50628020       0.43279994       0.47037115 </v>
   </varray>
  </structure>
  <varray name="forces" >
   <v>      -0.00570587      -0.00095328      -0.01195240 </v>
   <v>      -0.06606492      -0.00211876      -0.02152585 </v>
   <v>       0.01065093       0.00836438       0.04461645 </v>
   <v>      -0.04815399      -0.00141393       0.00804377 </v>
   <v>       0.01869490       0.01580287       0.01134585 </v>
   <v>       0.00136758      -0.01490178      -0.01191900 </v>
   <v>       0.04034590      -0.03550102       0.00660754 </v>
   <v>       0.04886547       0.03072153      -0.02521636 </v>
  </varray>
  <energy>
   <i name="e_fr_energy">    -18.68883051 </i>
   <i name="e_wo_entrp">    -18.70206561 </i>
   <i name="e_0_energy">    -18.69324221 </i>
  </energy>
  <time name="totalsc">   41.70   42.06</time>
 </calculation>
