  13  13   0   0
  0.1197085E+04  0.2301178E-08  0.2508204E-08  0.2696219E-08  0.5000000E-15
   1.0000000000000000E-004
  CAR 
 unknown system                          
      2.32149302    -12.42980753  301     -4.11093348      1.00000000
    -12.430  0.0000E+00  0.0000E+00  0.0000E+00  0.0000E+00
    -12.381  0.0000E+00  0.0000E+00  0.0000E+00  0.0000E+00
    -12.331  0.0000E+00  0.0000E+00  0.0000E+00  0.0000E+00
    -12.282  0.0000E+00  0.0000E+00  0.0000E+00  0.0000E+00
    -12.233  0.0000E+00  0.0000E+00  0.0000E+00  0.0000E+00
    -12.184  0.0000E+00  0.0000E+00  0.0000E+00  0.0000E+00
    -12.135  0.0000E+00  0.0000E+00  0.0000E+00  0.0000E+00
    -12.086  0.0000E+00  0.0000E+00  0.0000E+00  0.0000E+00
    -12.036 -0.4343E-29 -0.4303E-29 -0.2136E-30 -0.2116E-30
    -11.987 -0.2015E-27 -0.1997E-27 -0.1012E-28 -0.1003E-28
    -11.938 -0.8430E-26 -0.8356E-26 -0.4246E-27 -0.4209E-27
    -11.889 -0.3121E-24 -0.3094E-24 -0.1577E-25 -0.1564E-25
    -11.840 -0.1022E-22 -0.1014E-22 -0.5184E-24 -0.5141E-24
    -11.791 -0.2962E-21 -0.2938E-21 -0.1508E-22 -0.1496E-22
    -11.741 -0.7590E-20 -0.7532E-20 -0.3883E-21 -0.3853E-21
    -11.692 -0.1720E-18 -0.1708E-18 -0.8846E-20 -0.8781E-20
    -11.643 -0.3446E-17 -0.3422E-17 -0.1783E-18 -0.1771E-18
    -11.594 -0.5878E-16 -0.5838E-16 -0.3069E-17 -0.3047E-17
    -11.545 -0.9250E-15 -0.9200E-15 -0.4855E-16 -0.4828E-16
    -11.496 -0.1275E-13 -0.1267E-13 -0.6755E-15 -0.6714E-15
    -11.446 -0.1551E-12 -0.1542E-12 -0.8304E-14 -0.8256E-14
    -11.397 -0.1666E-11 -0.1656E-11 -0.9020E-13 -0.8970E-13
    -11.348 -0.1576E-10 -0.1568E-10 -0.8653E-12 -0.8608E-12
    -11.299 -0.1315E-09 -0.1308E-09 -0.7329E-11 -0.7293E-11
    -11.250 -0.9649E-09 -0.9605E-09 -0.5478E-10 -0.5452E-10
    -11.201 -0.6228E-08 -0.6201E-08 -0.3610E-09 -0.3594E-09
    -11.151 -0.3529E-07 -0.3514E-07 -0.2096E-08 -0.2088E-08
    -11.102 -0.1752E-06 -0.1746E-06 -0.1071E-07 -0.1067E-07
    -11.053 -0.7603E-06 -0.7578E-06 -0.4810E-07 -0.4793E-07
    -11.004 -0.2874E-05 -0.2866E-05 -0.1894E-06 -0.1888E-06
    -10.955 -0.9420E-05 -0.9395E-05 -0.6526E-06 -0.6508E-06
    -10.906 -0.2656E-04 -0.2650E-04 -0.1959E-05 -0.1954E-05
    -10.856 -0.6365E-04 -0.6353E-04 -0.5088E-05 -0.5078E-05
    -10.807 -0.1268E-03 -0.1267E-03 -0.1133E-04 -0.1131E-04
    -10.758 -0.2005E-03 -0.2004E-03 -0.2119E-04 -0.2116E-04
    -10.709 -0.2189E-03 -0.2191E-03 -0.3195E-04 -0.3193E-04
    -10.660 -0.5155E-04 -0.5230E-04 -0.3449E-04 -0.3450E-04
    -10.610  0.4578E-03  0.4561E-03 -0.1198E-04 -0.1208E-04
    -10.561  0.1379E-02  0.1377E-02  0.5585E-04  0.5562E-04
    -10.512  0.2570E-02  0.2567E-02  0.1822E-03  0.1818E-03
    -10.463  0.3653E-02  0.3651E-02  0.3618E-03  0.3613E-03
    -10.414  0.4183E-02  0.4183E-02  0.5675E-03  0.5670E-03
    -10.365  0.3920E-02  0.3921E-02  0.7602E-03  0.7598E-03
    -10.315  0.2983E-02  0.2986E-02  0.9069E-03  0.9067E-03
    -10.266  0.1779E-02  0.1782E-02  0.9944E-03  0.9943E-03
    -10.217  0.7342E-03  0.7363E-03  0.1031E-02  0.1030E-02
    -10.168  0.8044E-04  0.8150E-04  0.1034E-02  0.1034E-02
    -10.119 -0.1899E-03 -0.1896E-03  0.1025E-02  0.1025E-02
    -10.070 -0.2186E-03 -0.2187E-03  0.1014E-02  0.1014E-02
    -10.020 -0.1534E-03 -0.1536E-03  0.1007E-02  0.1007E-02
     -9.971 -0.8310E-04 -0.8325E-04  0.1003E-02  0.1003E-02
     -9.922 -0.3796E-04 -0.3804E-04  0.1001E-02  0.1001E-02
     -9.873 -0.1821E-04 -0.1823E-04  0.1000E-02  0.1000E-02
     -9.824 -0.1825E-04 -0.1822E-04  0.9991E-03  0.9991E-03
     -9.775 -0.3811E-04 -0.3802E-04  0.9972E-03  0.9972E-03
     -9.725 -0.8338E-04 -0.8321E-04  0.9931E-03  0.9931E-03
     -9.676 -0.1538E-03 -0.1536E-03  0.9856E-03  0.9856E-03
     -9.627 -0.2188E-03 -0.2187E-03  0.9748E-03  0.9748E-03
     -9.578 -0.1893E-03 -0.1897E-03  0.9655E-03  0.9655E-03
     -9.529  0.8255E-04  0.8127E-04  0.9696E-03  0.9695E-03
     -9.480  0.7383E-03  0.7358E-03  0.1006E-02  0.1006E-02
     -9.430  0.1785E-02  0.1781E-02  0.1094E-02  0.1093E-02
     -9.381  0.2989E-02  0.2986E-02  0.1241E-02  0.1240E-02
     -9.332  0.3923E-02  0.3921E-02  0.1433E-02  0.1433E-02
     -9.283  0.4183E-02  0.4183E-02  0.1639E-02  0.1639E-02
     -9.234  0.3648E-02  0.3651E-02  0.1819E-02  0.1818E-02
     -9.185  0.2564E-02  0.2568E-02  0.1945E-02  0.1944E-02
     -9.135  0.1374E-02  0.1377E-02  0.2012E-02  0.2012E-02
     -9.086  0.4544E-03  0.4565E-03  0.2035E-02  0.2034E-02
     -9.037 -0.5310E-04 -0.5220E-04  0.2032E-02  0.2032E-02
     -8.988 -0.2195E-03 -0.2193E-03  0.2021E-02  0.2021E-02
     -8.939 -0.2014E-03 -0.2016E-03  0.2011E-02  0.2011E-02
     -8.889 -0.1309E-03 -0.1311E-03  0.2005E-02  0.2005E-02
     -8.840 -0.7703E-04 -0.7716E-04  0.2001E-02  0.2001E-02
     -8.791 -0.6285E-04 -0.6288E-04  0.1998E-02  0.1998E-02
     -8.742 -0.9170E-04 -0.9166E-04  0.1993E-02  0.1993E-02
     -8.693 -0.1561E-03 -0.1560E-03  0.1986E-02  0.1986E-02
     -8.644 -0.2216E-03 -0.2216E-03  0.1975E-02  0.1975E-02
     -8.594 -0.2008E-03 -0.2009E-03  0.1965E-02  0.1965E-02
     -8.545  0.4714E-04  0.4662E-04  0.1967E-02  0.1967E-02
     -8.496  0.6504E-03  0.6494E-03  0.1999E-02  0.1999E-02
     -8.447  0.1601E-02  0.1600E-02  0.2078E-02  0.2078E-02
     -8.398  0.2671E-02  0.2670E-02  0.2209E-02  0.2209E-02
     -8.349  0.3493E-02  0.3493E-02  0.2381E-02  0.2381E-02
     -8.299  0.3835E-02  0.3834E-02  0.2570E-02  0.2569E-02
     -8.250  0.3847E-02  0.3846E-02  0.2759E-02  0.2759E-02
     -8.201  0.4028E-02  0.4026E-02  0.2957E-02  0.2956E-02
     -8.152  0.4820E-02  0.4816E-02  0.3194E-02  0.3193E-02
     -8.103  0.6154E-02  0.6150E-02  0.3496E-02  0.3496E-02
     -8.054  0.7374E-02  0.7371E-02  0.3859E-02  0.3858E-02
     -8.004  0.7693E-02  0.7693E-02  0.4237E-02  0.4236E-02
     -7.955  0.6828E-02  0.6831E-02  0.4573E-02  0.4572E-02
     -7.906  0.5273E-02  0.5277E-02  0.4832E-02  0.4832E-02
     -7.857  0.3972E-02  0.3976E-02  0.5028E-02  0.5027E-02
     -7.808  0.3664E-02  0.3666E-02  0.5208E-02  0.5208E-02
     -7.759  0.4400E-02  0.4400E-02  0.5424E-02  0.5424E-02
     -7.709  0.5563E-02  0.5562E-02  0.5698E-02  0.5697E-02
     -7.660  0.6290E-02  0.6290E-02  0.6007E-02  0.6007E-02
     -7.611  0.6007E-02  0.6008E-02  0.6302E-02  0.6302E-02
     -7.562  0.4791E-02  0.4793E-02  0.6538E-02  0.6538E-02
     -7.513  0.3420E-02  0.3421E-02  0.6706E-02  0.6706E-02
     -7.464  0.3076E-02  0.3073E-02  0.6857E-02  0.6857E-02
     -7.414  0.4804E-02  0.4797E-02  0.7094E-02  0.7093E-02
     -7.365  0.8939E-02  0.8927E-02  0.7533E-02  0.7532E-02
     -7.316  0.1481E-01  0.1479E-01  0.8261E-02  0.8259E-02
     -7.267  0.2093E-01  0.2092E-01  0.9290E-02  0.9288E-02
     -7.218  0.2568E-01  0.2568E-01  0.1055E-01  0.1055E-01
     -7.169  0.2802E-01  0.2802E-01  0.1193E-01  0.1193E-01
     -7.119  0.2785E-01  0.2786E-01  0.1330E-01  0.1330E-01
     -7.070  0.2596E-01  0.2596E-01  0.1458E-01  0.1457E-01
     -7.021  0.2344E-01  0.2345E-01  0.1573E-01  0.1573E-01
     -6.972  0.2123E-01  0.2124E-01  0.1677E-01  0.1677E-01
     -6.923  0.1978E-01  0.1978E-01  0.1775E-01  0.1774E-01
     -6.873  0.1902E-01  0.1903E-01  0.1868E-01  0.1868E-01
     -6.824  0.1862E-01  0.1862E-01  0.1960E-01  0.1959E-01
     -6.775  0.1816E-01  0.1816E-01  0.2049E-01  0.2049E-01
     -6.726  0.1746E-01  0.1747E-01  0.2135E-01  0.2135E-01
     -6.677  0.1669E-01  0.1669E-01  0.2217E-01  0.2217E-01
     -6.628  0.1617E-01  0.1617E-01  0.2296E-01  0.2296E-01
     -6.578  0.1618E-01  0.1618E-01  0.2376E-01  0.2376E-01
     -6.529  0.1675E-01  0.1675E-01  0.2458E-01  0.2458E-01
     -6.480  0.1774E-01  0.1774E-01  0.2546E-01  0.2545E-01
     -6.431  0.1897E-01  0.1896E-01  0.2639E-01  0.2639E-01
     -6.382  0.2023E-01  0.2023E-01  0.2738E-01  0.2738E-01
     -6.333  0.2133E-01  0.2133E-01  0.2843E-01  0.2843E-01
     -6.283  0.2212E-01  0.2212E-01  0.2952E-01  0.2952E-01
     -6.234  0.2269E-01  0.2269E-01  0.3064E-01  0.3063E-01
     -6.185  0.2336E-01  0.2336E-01  0.3178E-01  0.3178E-01
     -6.136  0.2434E-01  0.2434E-01  0.3298E-01  0.3298E-01
     -6.087  0.2547E-01  0.2547E-01  0.3423E-01  0.3423E-01
     -6.038  0.2634E-01  0.2634E-01  0.3553E-01  0.3553E-01
     -5.988  0.2682E-01  0.2682E-01  0.3685E-01  0.3685E-01
     -5.939  0.2737E-01  0.2737E-01  0.3819E-01  0.3819E-01
     -5.890  0.2876E-01  0.2875E-01  0.3961E-01  0.3960E-01
     -5.841  0.3131E-01  0.3131E-01  0.4115E-01  0.4114E-01
     -5.792  0.3453E-01  0.3452E-01  0.4284E-01  0.4284E-01
     -5.743  0.3734E-01  0.3733E-01  0.4468E-01  0.4468E-01
     -5.693  0.3893E-01  0.3893E-01  0.4659E-01  0.4659E-01
     -5.644  0.3933E-01  0.3933E-01  0.4853E-01  0.4853E-01
     -5.595  0.3935E-01  0.3934E-01  0.5046E-01  0.5046E-01
     -5.546  0.3987E-01  0.3986E-01  0.5242E-01  0.5242E-01
     -5.497  0.4127E-01  0.4126E-01  0.5445E-01  0.5445E-01
     -5.448  0.4319E-01  0.4319E-01  0.5658E-01  0.5657E-01
     -5.398  0.4477E-01  0.4477E-01  0.5878E-01  0.5877E-01
     -5.349  0.4492E-01  0.4492E-01  0.6099E-01  0.6098E-01
     -5.300  0.4268E-01  0.4269E-01  0.6309E-01  0.6308E-01
     -5.251  0.3758E-01  0.3760E-01  0.6493E-01  0.6493E-01
     -5.202  0.3016E-01  0.3018E-01  0.6642E-01  0.6641E-01
     -5.152  0.2201E-01  0.2202E-01  0.6750E-01  0.6750E-01
     -5.103  0.1505E-01  0.1505E-01  0.6824E-01  0.6824E-01
     -5.054  0.1047E-01  0.1047E-01  0.6875E-01  0.6875E-01
     -5.005  0.8119E-02  0.8117E-02  0.6915E-01  0.6915E-01
     -4.956  0.6849E-02  0.6851E-02  0.6949E-01  0.6949E-01
     -4.907  0.5540E-02  0.5546E-02  0.6976E-01  0.6976E-01
     -4.857  0.3791E-02  0.3800E-02  0.6995E-01  0.6995E-01
     -4.808  0.1908E-02  0.1917E-02  0.7004E-01  0.7004E-01
     -4.759  0.3960E-03  0.4021E-03  0.7006E-01  0.7006E-01
     -4.710 -0.4594E-03 -0.4565E-03  0.7004E-01  0.7004E-01
     -4.661 -0.6541E-03 -0.6539E-03  0.7001E-01  0.7001E-01
     -4.612 -0.2926E-03 -0.2944E-03  0.6999E-01  0.6999E-01
     -4.562  0.5314E-03  0.5285E-03  0.7002E-01  0.7002E-01
     -4.513  0.1684E-02  0.1681E-02  0.7010E-01  0.7010E-01
     -4.464  0.2885E-02  0.2882E-02  0.7024E-01  0.7024E-01
     -4.415  0.3741E-02  0.3739E-02  0.7043E-01  0.7043E-01
     -4.366  0.3974E-02  0.3973E-02  0.7062E-01  0.7062E-01
     -4.317  0.3659E-02  0.3656E-02  0.7080E-01  0.7080E-01
     -4.267  0.3213E-02  0.3206E-02  0.7096E-01  0.7096E-01
     -4.218  0.3085E-02  0.3074E-02  0.7111E-01  0.7111E-01
     -4.169  0.3390E-02  0.3378E-02  0.7128E-01  0.7128E-01
     -4.120  0.3805E-02  0.3798E-02  0.7147E-01  0.7146E-01
     -4.071  0.3840E-02  0.3843E-02  0.7165E-01  0.7165E-01
     -4.022  0.3239E-02  0.3250E-02  0.7181E-01  0.7181E-01
     -3.972  0.2185E-02  0.2200E-02  0.7192E-01  0.7192E-01
     -3.923  0.1185E-02  0.1198E-02  0.7198E-01  0.7198E-01
     -3.874  0.7554E-03  0.7622E-03  0.7202E-01  0.7202E-01
     -3.825  0.1132E-02  0.1132E-02  0.7207E-01  0.7207E-01
     -3.776  0.2146E-02  0.2143E-02  0.7218E-01  0.7218E-01
     -3.727  0.3301E-02  0.3297E-02  0.7234E-01  0.7234E-01
     -3.677  0.4019E-02  0.4017E-02  0.7254E-01  0.7254E-01
     -3.628  0.3939E-02  0.3940E-02  0.7273E-01  0.7273E-01
     -3.579  0.3101E-02  0.3104E-02  0.7288E-01  0.7288E-01
     -3.530  0.1875E-02  0.1879E-02  0.7298E-01  0.7298E-01
     -3.481  0.7152E-03  0.7184E-03  0.7301E-01  0.7301E-01
     -3.432 -0.6489E-04 -0.6317E-04  0.7301E-01  0.7301E-01
     -3.382 -0.3372E-03 -0.3372E-03  0.7299E-01  0.7299E-01
     -3.333 -0.7755E-04 -0.7931E-04  0.7299E-01  0.7299E-01
     -3.284  0.6925E-03  0.6891E-03  0.7302E-01  0.7302E-01
     -3.235  0.1851E-02  0.1847E-02  0.7311E-01  0.7311E-01
     -3.186  0.3094E-02  0.3090E-02  0.7327E-01  0.7326E-01
     -3.136  0.3972E-02  0.3971E-02  0.7346E-01  0.7346E-01
     -3.087  0.4109E-02  0.4110E-02  0.7366E-01  0.7366E-01
     -3.038  0.3423E-02  0.3427E-02  0.7383E-01  0.7383E-01
     -2.989  0.2191E-02  0.2195E-02  0.7394E-01  0.7394E-01
     -2.940  0.8734E-03  0.8779E-03  0.7398E-01  0.7398E-01
     -2.891 -0.9841E-04 -0.9559E-04  0.7398E-01  0.7398E-01
     -2.841 -0.4288E-03 -0.4288E-03  0.7396E-01  0.7396E-01
     -2.792  0.6809E-04  0.6383E-04  0.7396E-01  0.7396E-01
     -2.743  0.1479E-02  0.1469E-02  0.7403E-01  0.7403E-01
     -2.694  0.3704E-02  0.3689E-02  0.7421E-01  0.7421E-01
     -2.645  0.6363E-02  0.6345E-02  0.7453E-01  0.7452E-01
     -2.596  0.8850E-02  0.8832E-02  0.7496E-01  0.7496E-01
     -2.546  0.1057E-01  0.1056E-01  0.7548E-01  0.7548E-01
     -2.497  0.1120E-01  0.1119E-01  0.7603E-01  0.7603E-01
     -2.448  0.1078E-01  0.1078E-01  0.7656E-01  0.7656E-01
     -2.399  0.9574E-02  0.9582E-02  0.7703E-01  0.7703E-01
     -2.350  0.7859E-02  0.7873E-02  0.7742E-01  0.7742E-01
     -2.301  0.5869E-02  0.5886E-02  0.7771E-01  0.7771E-01
     -2.251  0.3821E-02  0.3837E-02  0.7790E-01  0.7789E-01
     -2.202  0.1971E-02  0.1984E-02  0.7799E-01  0.7799E-01
     -2.153  0.5860E-03  0.5949E-03  0.7802E-01  0.7802E-01
     -2.104 -0.1329E-03 -0.1300E-03  0.7802E-01  0.7802E-01
     -2.055 -0.1068E-03 -0.1097E-03  0.7801E-01  0.7801E-01
     -2.006  0.6017E-03  0.5942E-03  0.7804E-01  0.7804E-01
     -1.956  0.1778E-02  0.1769E-02  0.7813E-01  0.7813E-01
     -1.907  0.3086E-02  0.3077E-02  0.7828E-01  0.7828E-01
     -1.858  0.4180E-02  0.4174E-02  0.7848E-01  0.7848E-01
     -1.809  0.4868E-02  0.4867E-02  0.7872E-01  0.7872E-01
     -1.760  0.5162E-02  0.5165E-02  0.7898E-01  0.7898E-01
     -1.711  0.5154E-02  0.5158E-02  0.7923E-01  0.7923E-01
     -1.661  0.4847E-02  0.4853E-02  0.7947E-01  0.7947E-01
     -1.612  0.4158E-02  0.4164E-02  0.7967E-01  0.7967E-01
     -1.563  0.3098E-02  0.3104E-02  0.7983E-01  0.7983E-01
     -1.514  0.1940E-02  0.1943E-02  0.7992E-01  0.7992E-01
     -1.465  0.1163E-02  0.1158E-02  0.7998E-01  0.7998E-01
     -1.416  0.1205E-02  0.1191E-02  0.8004E-01  0.8004E-01
     -1.366  0.2196E-02  0.2173E-02  0.8015E-01  0.8014E-01
     -1.317  0.3846E-02  0.3821E-02  0.8033E-01  0.8033E-01
     -1.268  0.5560E-02  0.5542E-02  0.8061E-01  0.8060E-01
     -1.219  0.6703E-02  0.6698E-02  0.8094E-01  0.8093E-01
     -1.170  0.6911E-02  0.6919E-02  0.8128E-01  0.8127E-01
     -1.120  0.6265E-02  0.6280E-02  0.8159E-01  0.8158E-01
     -1.071  0.5228E-02  0.5242E-02  0.8184E-01  0.8184E-01
     -1.022  0.4337E-02  0.4344E-02  0.8206E-01  0.8205E-01
     -0.973  0.3866E-02  0.3867E-02  0.8225E-01  0.8224E-01
     -0.924  0.3726E-02  0.3726E-02  0.8243E-01  0.8243E-01
     -0.875  0.3697E-02  0.3700E-02  0.8261E-01  0.8261E-01
     -0.825  0.3766E-02  0.3766E-02  0.8280E-01  0.8279E-01
     -0.776  0.4196E-02  0.4185E-02  0.8300E-01  0.8300E-01
     -0.727  0.5212E-02  0.5187E-02  0.8326E-01  0.8325E-01
     -0.678  0.6602E-02  0.6568E-02  0.8358E-01  0.8358E-01
     -0.629  0.7668E-02  0.7643E-02  0.8396E-01  0.8395E-01
     -0.580  0.7658E-02  0.7658E-02  0.8434E-01  0.8433E-01
     -0.530  0.6327E-02  0.6355E-02  0.8465E-01  0.8464E-01
     -0.481  0.4152E-02  0.4198E-02  0.8485E-01  0.8485E-01
     -0.432  0.2073E-02  0.2116E-02  0.8495E-01  0.8495E-01
     -0.383  0.9868E-03  0.1013E-02  0.8500E-01  0.8500E-01
     -0.334  0.1358E-02  0.1363E-02  0.8507E-01  0.8507E-01
     -0.285  0.3094E-02  0.3081E-02  0.8522E-01  0.8522E-01
     -0.235  0.5644E-02  0.5604E-02  0.8550E-01  0.8550E-01
     -0.186  0.8244E-02  0.8142E-02  0.8590E-01  0.8590E-01
     -0.137  0.1019E-01  0.9975E-02  0.8641E-01  0.8639E-01
     -0.088  0.1106E-01  0.1070E-01  0.8695E-01  0.8691E-01
     -0.039  0.1083E-01  0.1032E-01  0.8748E-01  0.8742E-01
      0.010  0.9843E-02  0.9182E-02  0.8797E-01  0.8787E-01
      0.060  0.8777E-02  0.7866E-02  0.8840E-01  0.8826E-01
      0.109  0.8392E-02  0.7061E-02  0.8881E-01  0.8861E-01
      0.158  0.9134E-02  0.7348E-02  0.8926E-01  0.8897E-01
      0.207  0.1072E-01  0.8828E-02  0.8979E-01  0.8940E-01
      0.256  0.1213E-01  0.1086E-01  0.9038E-01  0.8994E-01
      0.305  0.1220E-01  0.1225E-01  0.9098E-01  0.9054E-01
      0.355  0.1042E-01  0.1194E-01  0.9150E-01  0.9113E-01
      0.404  0.7264E-02  0.9719E-02  0.9185E-01  0.9160E-01
      0.453  0.3874E-02  0.6369E-02  0.9204E-01  0.9192E-01
      0.502  0.1259E-02  0.3090E-02  0.9210E-01  0.9207E-01
      0.551 -0.1866E-03  0.7664E-03  0.9210E-01  0.9211E-01
      0.601 -0.6578E-03 -0.3866E-03  0.9206E-01  0.9209E-01
      0.650 -0.5971E-03 -0.6725E-03  0.9203E-01  0.9205E-01
      0.699 -0.3781E-03 -0.5410E-03  0.9202E-01  0.9203E-01
      0.748 -0.1905E-03 -0.3199E-03  0.9201E-01  0.9201E-01
      0.797 -0.7997E-04 -0.1530E-03  0.9200E-01  0.9200E-01
      0.846 -0.2856E-04 -0.6139E-04  0.9200E-01  0.9200E-01
      0.896 -0.8785E-05 -0.2104E-04  0.9200E-01  0.9200E-01
      0.945 -0.2344E-05 -0.6225E-05  0.9200E-01  0.9200E-01
      0.994 -0.5452E-06 -0.1600E-05  0.9200E-01  0.9200E-01
      1.043 -0.1109E-06 -0.3591E-06  0.9200E-01  0.9200E-01
      1.092 -0.1979E-07 -0.7054E-07  0.9200E-01  0.9200E-01
      1.141 -0.3102E-08 -0.1216E-07  0.9200E-01  0.9200E-01
      1.191 -0.4277E-09 -0.1842E-08  0.9200E-01  0.9200E-01
      1.240 -0.5195E-10 -0.2456E-09  0.9200E-01  0.9200E-01
      1.289 -0.5561E-11 -0.2885E-10  0.9200E-01  0.9200E-01
      1.338 -0.5251E-12 -0.2989E-11  0.9200E-01  0.9200E-01
      1.387 -0.4378E-13 -0.2732E-12  0.9200E-01  0.9200E-01
      1.436 -0.3220E-14 -0.2205E-13  0.9200E-01  0.9200E-01
      1.486 -0.2077E-15 -0.1576E-14  0.9200E-01  0.9200E-01
      1.535 -0.1355E-16 -0.9935E-16  0.9200E-01  0.9200E-01
      1.584  0.0000E+00 -0.4516E-17  0.9200E-01  0.9200E-01
      1.633  0.0000E+00  0.0000E+00  0.9200E-01  0.9200E-01
      1.682  0.0000E+00  0.0000E+00  0.9200E-01  0.9200E-01
      1.731  0.0000E+00  0.0000E+00  0.9200E-01  0.9200E-01
      1.781  0.0000E+00  0.0000E+00  0.9200E-01  0.9200E-01
      1.830  0.0000E+00  0.0000E+00  0.9200E-01  0.9200E-01
      1.879  0.0000E+00  0.0000E+00  0.9200E-01  0.9200E-01
      1.928  0.0000E+00  0.0000E+00  0.9200E-01  0.9200E-01
      1.977  0.0000E+00  0.0000E+00  0.9200E-01  0.9200E-01
      2.026  0.0000E+00  0.0000E+00  0.9200E-01  0.9200E-01
      2.076  0.0000E+00  0.0000E+00  0.9200E-01  0.9200E-01
      2.125  0.0000E+00  0.0000E+00  0.9200E-01  0.9200E-01
      2.174  0.0000E+00  0.0000E+00  0.9200E-01  0.9200E-01
      2.223  0.0000E+00  0.0000E+00  0.9200E-01  0.9200E-01
      2.272  0.0000E+00  0.0000E+00  0.9200E-01  0.9200E-01
      2.321  0.0000E+00  0.0000E+00  0.9200E-01  0.9200E-01
