   13   13 1000    2
  0.1197085E+04  0.2301178E-08  0.2508204E-08  0.2696219E-08  0.5000000E-15
   1.0000000000000000E-004
  CAR 
 unknown system                          
    143      1     92
 
  0.1262379E-14  0.1262379E-14  0.1262379E-14  0.1000000E+01
    1      -10.429808    -10.429690   1.000000   1.000000
    2       -9.316255     -9.316114   1.000000   1.000000
    3       -8.332095     -8.332030   1.000000   1.000000
    4       -8.056347     -8.056284   1.000000   1.000000
    5       -8.014801     -8.014621   1.000000   1.000000
    6       -7.722182     -7.722115   1.000000   1.000000
    7       -7.605851     -7.605790   1.000000   1.000000
    8       -7.321977     -7.321897   1.000000   1.000000
    9       -7.272511     -7.272418   1.000000   1.000000
   10       -7.261143     -7.260999   1.000000   1.000000
   11       -7.221695     -7.221641   1.000000   1.000000
   12       -7.189258     -7.189080   1.000000   1.000000
   13       -7.150154     -7.150048   1.000000   1.000000
   14       -7.138051     -7.137986   1.000000   1.000000
   15       -7.084229     -7.084116   1.000000   1.000000
   16       -7.035166     -7.035087   1.000000   1.000000
   17       -6.978458     -6.978362   1.000000   1.000000
   18       -6.946083     -6.945939   1.000000   1.000000
   19       -6.854907     -6.854837   1.000000   1.000000
   20       -6.847030     -6.846948   1.000000   1.000000
   21       -6.754101     -6.754002   1.000000   1.000000
   22       -6.741455     -6.741359   1.000000   1.000000
   23       -6.672515     -6.672440   1.000000   1.000000
   24       -6.560336     -6.560246   1.000000   1.000000
   25       -6.534628     -6.534575   1.000000   1.000000
   26       -6.504382     -6.504315   1.000000   1.000000
   27       -6.406641     -6.406564   1.000000   1.000000
   28       -6.375500     -6.375425   1.000000   1.000000
   29       -6.309860     -6.309726   1.000000   1.000000
   30       -6.297326     -6.297267   1.000000   1.000000
   31       -6.260096     -6.260001   1.000000   1.000000
   32       -6.212196     -6.212119   1.000000   1.000000
   33       -6.131601     -6.131535   1.000000   1.000000
   34       -6.089965     -6.089844   1.000000   1.000000
   35       -6.077207     -6.077097   1.000000   1.000000
   36       -6.044758     -6.044697   1.000000   1.000000
   37       -6.017660     -6.017566   1.000000   1.000000
   38       -5.994040     -5.993982   1.000000   1.000000
   39       -5.935677     -5.935611   1.000000   1.000000
   40       -5.868840     -5.868766   1.000000   1.000000
   41       -5.839860     -5.839787   1.000000   1.000000
   42       -5.830380     -5.830297   1.000000   1.000000
   43       -5.786064     -5.785973   1.000000   1.000000
   44       -5.776761     -5.776706   1.000000   1.000000
   45       -5.733123     -5.733024   1.000000   1.000000
   46       -5.731178     -5.731115   1.000000   1.000000
   47       -5.704418     -5.704353   1.000000   1.000000
   48       -5.680350     -5.680301   1.000000   1.000000
   49       -5.649273     -5.649146   1.000000   1.000000
   50       -5.644491     -5.644432   1.000000   1.000000
   51       -5.605075     -5.604958   1.000000   1.000000
   52       -5.549055     -5.548989   1.000000   1.000000
   53       -5.518401     -5.518330   1.000000   1.000000
   54       -5.514687     -5.514578   1.000000   1.000000
   55       -5.494482     -5.494398   1.000000   1.000000
   56       -5.464849     -5.464788   1.000000   1.000000
   57       -5.443756     -5.443609   1.000000   1.000000
   58       -5.441120     -5.441002   1.000000   1.000000
   59       -5.397992     -5.397882   1.000000   1.000000
   60       -5.397380     -5.397312   1.000000   1.000000
   61       -5.337212     -5.337148   1.000000   1.000000
   62       -5.312171     -5.312079   1.000000   1.000000
   63       -5.299043     -5.298918   1.000000   1.000000
   64       -5.298591     -5.298482   1.000000   1.000000
   65       -5.273435     -5.273344   1.000000   1.000000
   66       -5.258111     -5.258011   1.000000   1.000000
   67       -5.231033     -5.230958   1.000000   1.000000
   68       -5.201576     -5.201517   1.000000   1.000000
   69       -5.006451     -5.006354   1.000000   1.000000
   70       -4.977159     -4.976847   1.000000   1.000000
   71       -4.403663     -4.403516   1.029238   1.029269
   72       -4.105548     -4.104927   0.477223   0.474597
   73       -3.685304     -3.685146  -0.005171  -0.005156
   74       -3.127319     -3.127154  -0.000000  -0.000000
   75       -2.622628     -2.622431  -0.000000  -0.000000
   76       -2.554526     -2.554164  -0.000000  -0.000000
   77       -2.462635     -2.462213  -0.000000  -0.000000
   78       -2.339642     -2.339251  -0.000000  -0.000000
   79       -1.860674     -1.860311  -0.000000  -0.000000
   80       -1.650685     -1.650459  -0.000000  -0.000000
   81       -1.272285     -1.271512  -0.000000  -0.000000
   82       -1.154001     -1.153435  -0.000000  -0.000000
   83       -0.907543     -0.906824  -0.000000  -0.000000
   84       -0.646194     -0.646137  -0.000000  -0.000000
   85       -0.595643     -0.593879  -0.000000  -0.000000
   86       -0.210848     -0.209361  -0.000000  -0.000000
   87       -0.137758     -0.136325  -0.000000  -0.000000
   88       -0.042696     -0.042098  -0.000000  -0.000000
   89        0.047705      0.075634  -0.000000  -0.000000
   90        0.252042      0.288962  -0.000000  -0.000000
   91        0.277879      0.310098  -0.000000  -0.000000
   92        0.283171      0.321493  -0.000000  -0.000000
