       N       E                     dE             d eps       ncg     rms          rms(c)
DAV:   1     0.955088814375E+03    0.95509E+03   -0.23948E+04   384   0.723E+02
DAV:   2     0.287030659187E+03   -0.66806E+03   -0.59648E+03   416   0.198E+02
DAV:   3     0.200478157848E+02   -0.26698E+03   -0.25433E+03   472   0.138E+02
DAV:   4    -0.334125511486E+02   -0.53460E+02   -0.49134E+02   456   0.119E+02
DAV:   5    -0.365983293546E+02   -0.31858E+01   -0.30400E+01   520   0.251E+01    0.282E+01
DAV:   6    -0.153722196929E+02    0.21226E+02   -0.13366E+02   404   0.888E+01    0.119E+01
DAV:   7    -0.109456369832E+02    0.44266E+01   -0.31899E+01   448   0.578E+01    0.478E+00
DAV:   8    -0.108874748473E+02    0.58162E-01   -0.52551E+00   456   0.448E+01    0.423E+00
DAV:   9    -0.122449694585E+02   -0.13575E+01   -0.10974E+00   504   0.279E+01    0.270E+00
DAV:  10    -0.180767529820E+02   -0.58318E+01   -0.35793E+00   496   0.124E+01    0.224E+00
DAV:  11    -0.197610996354E+02   -0.16843E+01   -0.61784E-01   488   0.106E+01    0.181E+00
DAV:  12    -0.213934119503E+02   -0.16323E+01   -0.49331E-01   552   0.659E+00    0.153E+00
DAV:  13    -0.247274743110E+02   -0.33341E+01   -0.15642E+00   448   0.415E+00    0.112E+00
DAV:  14    -0.276389385820E+02   -0.29115E+01   -0.12097E+00   480   0.538E+00    0.937E-01
DAV:  15    -0.289029689654E+02   -0.12640E+01   -0.27325E-01   504   0.634E+00    0.734E-01
DAV:  16    -0.301243372238E+02   -0.12214E+01   -0.25777E-01   520   0.404E+00    0.567E-01
DAV:  17    -0.308786442329E+02   -0.75431E+00   -0.15125E-01   516   0.280E+00    0.412E-01
DAV:  18    -0.314035504312E+02   -0.52491E+00   -0.61420E-02   528   0.247E+00    0.282E-01
DAV:  19    -0.317531643036E+02   -0.34961E+00   -0.23486E-02   512   0.169E+00    0.225E-01
DAV:  20    -0.320456909355E+02   -0.29253E+00   -0.12523E-02   528   0.112E+00    0.143E-01
DAV:  21    -0.322769850043E+02   -0.23129E+00   -0.86445E-03   528   0.753E-01    0.108E-01
DAV:  22    -0.323543554426E+02   -0.77370E-01   -0.23469E-03   464   0.798E-01    0.744E-02
DAV:  23    -0.324220941670E+02   -0.67739E-01   -0.16486E-03   524   0.443E-01    0.536E-02
DAV:  24    -0.324510350930E+02   -0.28941E-01   -0.71778E-04   388   0.368E-01    0.389E-02
DAV:  25    -0.324748725019E+02   -0.23837E-01   -0.37530E-04   308   0.225E-01    0.295E-02
DAV:  26    -0.324911724764E+02   -0.16300E-01   -0.27280E-04   320   0.195E-01    0.235E-02
DAV:  27    -0.325033408914E+02   -0.12168E-01   -0.20607E-04   260   0.161E-01    0.178E-02
DAV:  28    -0.325092331862E+02   -0.58923E-02   -0.12797E-04   280   0.131E-01    0.143E-02
DAV:  29    -0.325136150489E+02   -0.43819E-02   -0.11220E-04   264   0.110E-01    0.109E-02
DAV:  30    -0.325155580399E+02   -0.19430E-02   -0.66865E-05   272   0.907E-02    0.945E-03
DAV:  31    -0.325173240669E+02   -0.17660E-02   -0.49253E-05   248   0.683E-02    0.763E-03
DAV:  32    -0.325181266272E+02   -0.80256E-03   -0.31094E-05   280   0.583E-02    0.436E-03
DAV:  33    -0.325193040736E+02   -0.11774E-02   -0.22141E-05   236   0.379E-02    0.468E-03
DAV:  34    -0.325198951586E+02   -0.59109E-03   -0.13431E-05   272   0.332E-02    0.306E-03
DAV:  35    -0.325201779682E+02   -0.28281E-03   -0.77956E-06   248   0.236E-02    0.226E-03
DAV:  36    -0.325205186534E+02   -0.34069E-03   -0.60076E-06   240   0.186E-02    0.211E-03
DAV:  37    -0.325206824664E+02   -0.16381E-03   -0.36499E-06   248   0.172E-02    0.176E-03
DAV:  38    -0.325207766897E+02   -0.94223E-04   -0.23232E-06   248   0.119E-02
   1 F= -.32520777E+02 E0= -.32510917E+02  d E =-.325208E+02  mag=     0.0047
       N       E                     dE             d eps       ncg     rms          rms(c)
DAV:   1    -0.325209615798E+02   -0.27911E-03   -0.81225E-02   392   0.971E-01    0.182E-02
DAV:   2    -0.325211107000E+02   -0.14912E-03   -0.13269E-03   540   0.298E-01    0.201E-02
DAV:   3    -0.325211192060E+02   -0.85060E-05   -0.82965E-05   248   0.178E-01
   2 F= -.32521119E+02 E0= -.32511254E+02  d E =-.342516E-03  mag=     0.0045
       N       E                     dE             d eps       ncg     rms          rms(c)
DAV:   1    -0.325211628258E+02   -0.52126E-04   -0.34696E-02   400   0.637E-01    0.165E-02
DAV:   2    -0.325212357293E+02   -0.72903E-04   -0.61714E-04   424   0.228E-01
   3 F= -.32521236E+02 E0= -.32511363E+02  d E =-.459040E-03  mag=     0.0043
