<?xml version="1.0" encoding="ISO-8859-1"?>
<modeling>
 <generator>
  <i name="program" type="string">vasp </i>
  <i name="version" type="string">6.1.2  </i>
  <i name="subversion" type="string">22Jul20 (build Aug  2 2021 21:04:21) gamma-only                       parallel </i>
  <i name="platform" type="string">LinuxPGI </i>
  <i name="date" type="string">2021 12 24 </i>
  <i name="time" type="string">22:10:36 </i>
 </generator>
 <incar>
  <i type="int" name="ISPIN">     2</i>
  <i type="int" name="IBRION">     2</i>
  <i type="int" name="NSW">  1000</i>
  <i type="int" name="ISIF">     0</i>
  <i type="int" name="ISYM">     0</i>
  <i name="ENCUT">    400.00000000</i>
  <i type="logical" name="LREAL"> F  </i>
  <i type="int" name="ISMEAR">     1</i>
  <i name="SIGMA">      0.20000000</i>
  <i type="logical" name="LWAVE"> F  </i>
  <i type="logical" name="LCHARG"> F  </i>
  <i type="int" name="KPAR">     1</i>
  <i type="int" name="NCORE">     8</i>
  <i type="string" name="GGA"> PE</i>
  <i type="int" name="ISPIN">     2</i>
 </incar>
 <structure name="primitive_cell" >
  <crystal>
   <varray name="basis" >
    <v>      23.01178090       0.00000000       0.00000000 </v>
    <v>       0.00000000      25.08203890       0.00000000 </v>
    <v>       0.00000000       0.00000000      26.96218597 </v>
   </varray>
   <i name="volume">  15562.09876705 </i>
   <varray name="rec_basis" >
    <v>       0.04345600       0.00000000       0.00000000 </v>
    <v>       0.00000000       0.03986917       0.00000000 </v>
    <v>       0.00000000       0.00000000       0.03708898 </v>
   </varray>
  </crystal>
  <varray name="positions" >
   <v>       0.56961623       0.55583078       0.52969099 </v>
   <v>       0.54321230       0.52644786       0.44685879 </v>
   <v>       0.51499895       0.49560792       0.36491712 </v>
   <v>       0.44215010       0.51291482       0.42914016 </v>
   <v>       0.46842732       0.52969149       0.51505576 </v>
   <v>       0.56386451       0.45947669       0.51431447 </v>
   <v>       0.48607656       0.45948339       0.57638723 </v>
   <v>       0.59699218       0.58661551       0.60906823 </v>
   <v>       0.54999692       0.43317858       0.42806886 </v>
   <v>       0.46603483       0.43780209       0.48622771 </v>
   <v>       0.49947261       0.55231928       0.59876591 </v>
   <v>       0.58227575       0.49162719       0.59803964 </v>
   <v>       0.45255609       0.42413531       0.39934276 </v>
  </varray>
 </structure>
 <varray name="primitive_index" >
  <v type="int" >        1 </v>
  <v type="int" >        2 </v>
  <v type="int" >        3 </v>
  <v type="int" >        4 </v>
  <v type="int" >        5 </v>
  <v type="int" >        6 </v>
  <v type="int" >        7 </v>
  <v type="int" >        8 </v>
  <v type="int" >        9 </v>
  <v type="int" >       10 </v>
  <v type="int" >       11 </v>
  <v type="int" >       12 </v>
  <v type="int" >       13 </v>
 </varray>
 <kpoints>
  <generation param="Gamma">
   <v type="int" name="divisions">       1        1        1 </v>
   <v name="usershift">      0.00000000       0.00000000       0.00000000 </v>
   <v name="genvec1">      1.00000000       0.00000000       0.00000000 </v>
   <v name="genvec2">      0.00000000       1.00000000       0.00000000 </v>
   <v name="genvec3">      0.00000000       0.00000000       1.00000000 </v>
   <v name="shift">      0.00000000       0.00000000       0.00000000 </v>
  </generation>
  <varray name="kpointlist" >
   <v>       0.00000000       0.00000000       0.00000000 </v>
  </varray>
  <varray name="weights" >
   <v>       1.00000000 </v>
  </varray>
 </kpoints>
 <parameters>
  <separator name="general" >
   <i type="string" name="SYSTEM">unknown system</i>
   <i type="logical" name="LCOMPAT"> F  </i>
  </separator>
  <separator name="electronic" >
   <i type="string" name="PREC">normal</i>
   <i name="ENMAX">    400.00000000</i>
   <i name="ENAUG">    586.98000000</i>
   <i name="EDIFF">      0.00010000</i>
   <i type="int" name="IALGO">    38</i>
   <i type="int" name="IWAVPR">    11</i>
   <i type="int" name="NBANDS">    92</i>
   <i type="int" name="NBANDSLOW">    -1</i>
   <i type="int" name="NBANDSHIGH">    -1</i>
   <i name="NELECT">    143.00000000</i>
   <i type="int" name="TURBO">     0</i>
   <i type="int" name="IRESTART">     0</i>
   <i type="int" name="NREBOOT">     0</i>
   <i type="int" name="NMIN">     0</i>
   <i name="EREF">      0.00000000</i>
   <separator name="electronic smearing" >
    <i type="int" name="ISMEAR">     1</i>
    <i name="SIGMA">      0.20000000</i>
    <i name="KSPACING">      0.50000000</i>
    <i type="logical" name="KGAMMA"> T  </i>
    <i type="logical" name="KBLOWUP"> T  </i>
   </separator>
   <separator name="electronic projectors" >
    <i type="logical" name="LREAL"> F  </i>
    <v name="ROPT">      0.00000000</v>
    <i type="int" name="LMAXPAW">  -100</i>
    <i type="int" name="LMAXMIX">     2</i>
    <i type="logical" name="NLSPLINE"> F  </i>
   </separator>
   <separator name="electronic startup" >
    <i type="int" name="ISTART">     0</i>
    <i type="int" name="ICHARG">     2</i>
    <i type="int" name="INIWAV">     1</i>
   </separator>
   <separator name="electronic spin" >
    <i type="int" name="ISPIN">     2</i>
    <i type="logical" name="LNONCOLLINEAR"> F  </i>
    <v name="MAGMOM">      1.00000000      1.00000000      1.00000000      1.00000000      1.00000000      1.00000000      1.00000000      1.00000000      1.00000000      1.00000000      1.00000000      1.00000000      1.00000000</v>
    <i name="NUPDOWN">     -1.00000000</i>
    <i type="logical" name="LSORBIT"> F  </i>
    <v name="SAXIS">      0.00000000      0.00000000      1.00000000</v>
    <i type="logical" name="LSPIRAL"> F  </i>
    <v name="QSPIRAL">      0.00000000      0.00000000      0.00000000</v>
    <i type="logical" name="LZEROZ"> F  </i>
   </separator>
   <separator name="electronic exchange-correlation" >
    <i type="logical" name="LASPH"> F  </i>
    <i type="logical" name="LMETAGGA"> F  </i>
   </separator>
   <separator name="electronic convergence" >
    <i type="int" name="NELM">    60</i>
    <i type="int" name="NELMDL">     0</i>
    <i type="int" name="NELMIN">     2</i>
    <i name="ENINI">    400.00000000</i>
    <separator name="electronic convergence detail" >
     <i type="logical" name="LDIAG"> T  </i>
     <i type="logical" name="LSUBROT"> F  </i>
     <i name="WEIMIN">      0.00100000</i>
     <i name="EBREAK">      0.00000027</i>
     <i name="DEPER">      0.30000000</i>
     <i type="int" name="NRMM">     4</i>
     <i name="TIME">      0.40000000</i>
    </separator>
   </separator>
   <separator name="electronic mixer" >
    <i name="AMIX">      0.40000000</i>
    <i name="BMIX">      1.00000000</i>
    <i name="AMIN">      0.10000000</i>
    <i name="AMIX_MAG">      1.60000000</i>
    <i name="BMIX_MAG">      1.00000000</i>
    <separator name="electronic mixer details" >
     <i type="int" name="IMIX">     4</i>
     <i type="logical" name="MIXFIRST"> F  </i>
     <i type="int" name="MAXMIX">   -45</i>
     <i name="WC">    100.00000000</i>
     <i type="int" name="INIMIX">     1</i>
     <i type="int" name="MIXPRE">     1</i>
     <i type="int" name="MREMOVE">     5</i>
    </separator>
   </separator>
   <separator name="electronic dipolcorrection" >
    <i type="logical" name="LDIPOL"> F  </i>
    <i type="logical" name="LMONO"> F  </i>
    <i type="int" name="IDIPOL">     0</i>
    <i name="EPSILON">      1.00000000</i>
    <v name="DIPOL">   -100.00000000   -100.00000000   -100.00000000</v>
    <i name="EFIELD">      0.00000000</i>
   </separator>
  </separator>
  <separator name="grids" >
   <i type="int" name="NGX">   120</i>
   <i type="int" name="NGY">   126</i>
   <i type="int" name="NGZ">   140</i>
   <i type="int" name="NGXF">   240</i>
   <i type="int" name="NGYF">   252</i>
   <i type="int" name="NGZF">   280</i>
   <i type="logical" name="ADDGRID"> F  </i>
  </separator>
  <separator name="ionic" >
   <i type="int" name="NSW">  1000</i>
   <i type="int" name="IBRION">     2</i>
   <i type="int" name="MDALGO">     0</i>
   <i type="int" name="ISIF">     0</i>
   <i name="PSTRESS">      0.00000000</i>
   <i name="EDIFFG">      0.00100000</i>
   <i type="int" name="NFREE">     1</i>
   <i name="POTIM">      0.50000000</i>
   <i name="SMASS">     -3.00000000</i>
   <i name="SCALEE">      1.00000000</i>
  </separator>
  <separator name="ionic md" >
   <i name="TEBEG">      0.00010000</i>
   <i name="TEEND">      0.00010000</i>
   <i type="int" name="NBLOCK">     1</i>
   <i type="int" name="KBLOCK">  1000</i>
   <i type="int" name="NPACO">   256</i>
   <i name="APACO">     16.00000000</i>
  </separator>
  <separator name="symmetry" >
   <i type="int" name="ISYM">     0</i>
   <i name="SYMPREC">      0.00001000</i>
  </separator>
  <separator name="dos" >
   <i type="int" name="LORBIT">     0</i>
   <v name="RWIGS">     -1.00000000</v>
   <i type="int" name="NEDOS">   301</i>
   <i name="EMIN">     10.00000000</i>
   <i name="EMAX">    -10.00000000</i>
   <i name="EFERMI">      0.00000000</i>
  </separator>
  <separator name="writing" >
   <i type="int" name="NWRITE">     2</i>
   <i type="logical" name="LWAVE"> F  </i>
   <i type="logical" name="LDOWNSAMPLE"> F  </i>
   <i type="logical" name="LCHARG"> F  </i>
   <i type="logical" name="LPARD"> F  </i>
   <i type="logical" name="LVTOT"> F  </i>
   <i type="logical" name="LVHAR"> F  </i>
   <i type="logical" name="LELF"> F  </i>
   <i type="logical" name="LOPTICS"> F  </i>
   <v name="STM">      0.00000000      0.00000000      0.00000000      0.00000000      0.00000000      0.00000000      0.00000000</v>
  </separator>
  <separator name="performance" >
   <i type="int" name="NPAR">     2</i>
   <i type="int" name="NSIM">     4</i>
   <i type="int" name="NBLK">    -1</i>
   <i type="logical" name="LPLANE"> T  </i>
   <i type="logical" name="LSCALAPACK"> T  </i>
   <i type="logical" name="LSCAAWARE"> F  </i>
   <i type="logical" name="LSCALU"> F  </i>
   <i type="logical" name="LASYNC"> F  </i>
   <i type="logical" name="LORBITALREAL"> F  </i>
  </separator>
  <separator name="miscellaneous" >
   <i type="int" name="IDIOT">     3</i>
   <i type="int" name="PHON_NSTRUCT">    -1</i>
   <i type="logical" name="LMUSIC"> F  </i>
   <v name="POMASS">     63.54600000</v>
   <v name="DARWINR">      0.00000000</v>
   <v name="DARWINV">      1.00000000</v>
   <i type="logical" name="LCORR"> T  </i>
  </separator>
  <i type="logical" name="GGA_COMPAT"> T  </i>
  <i type="logical" name="LBERRY"> F  </i>
  <i type="int" name="ICORELEVEL">     0</i>
  <i type="logical" name="LDAU"> F  </i>
  <i type="int" name="I_CONSTRAINED_M">     0</i>
  <separator name="electronic exchange-correlation" >
   <i type="string" name="GGA">PE</i>
   <i type="int" name="VOSKOWN">     0</i>
   <i type="logical" name="LHFCALC"> F  </i>
   <i type="string" name="PRECFOCK"></i>
   <i type="logical" name="LSYMGRAD"> F  </i>
   <i type="logical" name="LHFONE"> F  </i>
   <i type="logical" name="LRHFCALC"> F  </i>
   <i type="logical" name="LTHOMAS"> F  </i>
   <i type="logical" name="LMODELHF"> F  </i>
   <i type="logical" name="LFOCKACE"> F  </i>
   <i name="ENCUT4O">     -1.00000000</i>
   <i type="int" name="EXXOEP">     0</i>
   <i type="int" name="FOURORBIT">     0</i>
   <i name="AEXX">      0.00000000</i>
   <i name="HFALPHA">      0.00000000</i>
   <i name="MCALPHA">      0.00000000</i>
   <i name="ALDAX">      1.00000000</i>
   <i name="AGGAX">      1.00000000</i>
   <i name="ALDAC">      1.00000000</i>
   <i name="AGGAC">      1.00000000</i>
   <i type="int" name="NKREDX">     1</i>
   <i type="int" name="NKREDY">     1</i>
   <i type="int" name="NKREDZ">     1</i>
   <i type="logical" name="SHIFTRED"> F  </i>
   <i type="logical" name="ODDONLY"> F  </i>
   <i type="logical" name="EVENONLY"> F  </i>
   <i type="int" name="LMAXFOCK">     0</i>
   <i type="int" name="NMAXFOCKAE">     0</i>
   <i type="logical" name="LFOCKAEDFT"> F  </i>
   <i name="HFSCREEN">      0.00000000</i>
   <i name="HFSCREENC">      0.00000000</i>
   <i type="int" name="NBANDSGWLOW">     0</i>
  </separator>
  <separator name="vdW DFT" >
   <i type="logical" name="LUSE_VDW"> F  </i>
   <i name="Zab_VDW">     -0.84910000</i>
   <i name="PARAM1">      0.12340000</i>
   <i name="PARAM2">      1.00000000</i>
   <i name="PARAM3">      0.00000000</i>
  </separator>
  <separator name="model GW" >
   <i type="int" name="MODEL_GW">     0</i>
   <i name="MODEL_EPS0">    718.25071233</i>
   <i name="MODEL_ALPHA">      1.00000000</i>
  </separator>
  <separator name="linear response parameters" >
   <i type="logical" name="LEPSILON"> F  </i>
   <i type="logical" name="LRPA"> F  </i>
   <i type="logical" name="LNABLA"> F  </i>
   <i type="logical" name="LVEL"> F  </i>
   <i type="int" name="KINTER">     0</i>
   <i name="CSHIFT">      0.10000000</i>
   <i name="OMEGAMAX">     -1.00000000</i>
   <i name="DEG_THRESHOLD">      0.00200000</i>
   <i name="RTIME">     -0.10000000</i>
   <i name="WPLASMAI">      0.00000000</i>
   <v name="DFIELD">      0.00000000      0.00000000      0.00000000</v>
   <v name="WPLASMA">      0.00000000      0.00000000      0.00000000      0.00000000      0.00000000      0.00000000      0.00000000      0.00000000      0.00000000</v>
  </separator>
  <separator name="orbital magnetization" >
   <i type="logical" name="NUCIND"> F  </i>
   <v name="MAGPOS">      0.00000000      0.00000000      0.00000000</v>
   <i type="logical" name="LNICSALL"> T  </i>
   <i type="logical" name="ORBITALMAG"> F  </i>
   <i type="logical" name="LMAGBLOCH"> F  </i>
   <i type="logical" name="LCHIMAG"> F  </i>
   <i type="logical" name="LGAUGE"> T  </i>
   <i type="int" name="MAGATOM">     0</i>
   <v name="MAGDIPOL">      0.00000000      0.00000000      0.00000000</v>
   <v name="AVECCONST">      0.00000000      0.00000000      0.00000000</v>
  </separator>
  <separator name="response functions" >
   <i type="logical" name="LFINITE_TEMPERATURE"> F  </i>
   <i type="logical" name="LADDER"> F  </i>
   <i type="logical" name="LRPAFORCE"> F  </i>
   <i type="logical" name="LFXC"> F  </i>
   <i type="logical" name="LHARTREE"> T  </i>
   <i type="int" name="IBSE">     0</i>
   <v type="int" name="KPOINT">    -1     0     0     0</v>
   <i type="logical" name="LTCTC"> F  </i>
   <i type="logical" name="LTCTE"> F  </i>
   <i type="logical" name="LTETE"> F  </i>
   <i type="logical" name="LTRIPLET"> F  </i>
   <i type="logical" name="LFXCEPS"> F  </i>
   <i type="logical" name="LFXHEG"> F  </i>
   <i type="int" name="NATURALO">     2</i>
   <i type="logical" name="LHOLEGF"> F  </i>
   <i type="logical" name="L2ORDER"> F  </i>
   <i type="logical" name="LDMP1"> F  </i>
   <i type="logical" name="LMP2LT"> F  </i>
   <i type="logical" name="LSMP2LT"> F  </i>
   <i type="logical" name="LGWLF"> F  </i>
   <i name="ENCUTGW">     -2.00000000</i>
   <i name="ENCUTGWSOFT">     -2.00000000</i>
   <i name="ENCUTLF">     -1.00000000</i>
   <i type="logical" name="LESF_SPLINES"> F  </i>
   <i type="int" name="LMAXMP2">    -1</i>
   <i name="SCISSOR">      0.00000000</i>
   <i type="int" name="NOMEGA">     0</i>
   <i type="int" name="NOMEGAR">     0</i>
   <i type="int" name="NBANDSGW">    -1</i>
   <i type="int" name="NBANDSO">    -1</i>
   <i type="int" name="NBANDSV">    -1</i>
   <i type="int" name="NELM">     1</i>
   <i type="int" name="NELMHF">     1</i>
   <i type="int" name="DIM">     3</i>
   <i type="int" name="IESPILON">     4</i>
   <i type="int" name="ANTIRES">     0</i>
   <i name="OMEGAMAX">    -30.00000000</i>
   <i name="OMEGAMIN">    -30.00000000</i>
   <i name="OMEGATL">   -200.00000000</i>
   <i type="int" name="OMEGAGRID">     0</i>
   <i name="CSHIFT">     -0.10000000</i>
   <i type="logical" name="LSELFENERGY"> F  </i>
   <i type="logical" name="LSPECTRAL"> F  </i>
   <i type="logical" name="LSPECTRALGW"> F  </i>
   <i type="logical" name="LSINGLES"> F  </i>
   <i type="logical" name="LFERMIGW"> F  </i>
   <i type="logical" name="ODDONLYGW"> F  </i>
   <i type="logical" name="EVENONLYGW"> F  </i>
   <i type="int" name="NKREDLFX">     1</i>
   <i type="int" name="NKREDLFY">     1</i>
   <i type="int" name="NKREDLFZ">     1</i>
   <i type="int" name="MAXMEM">  2800</i>
   <i type="int" name="TELESCOPE">     0</i>
   <i type="int" name="NTAUPAR">    -1</i>
   <i type="int" name="NOMEGAPAR">    -1</i>
   <i name="LAMBDA">      1.00000000</i>
  </separator>
  <separator name="External order field" >
   <i name="OFIELD_KAPPA">      0.00000000</i>
   <v name="OFIELD_K">      0.00000000      0.00000000      0.00000000</v>
   <i name="OFIELD_Q6_NEAR">      0.00000000</i>
   <i name="OFIELD_Q6_FAR">      0.00000000</i>
   <i name="OFIELD_A">      0.00000000</i>
  </separator>
 </parameters>
 <atominfo>
  <atoms>      13 </atoms>
  <types>       1 </types>
  <array name="atoms" >
   <dimension dim="1">ion</dimension>
   <field type="string">element</field>
   <field type="int">atomtype</field>
   <set>
    <rc><c>Cu</c><c>   1</c></rc>
    <rc><c>Cu</c><c>   1</c></rc>
    <rc><c>Cu</c><c>   1</c></rc>
    <rc><c>Cu</c><c>   1</c></rc>
    <rc><c>Cu</c><c>   1</c></rc>
    <rc><c>Cu</c><c>   1</c></rc>
    <rc><c>Cu</c><c>   1</c></rc>
    <rc><c>Cu</c><c>   1</c></rc>
    <rc><c>Cu</c><c>   1</c></rc>
    <rc><c>Cu</c><c>   1</c></rc>
    <rc><c>Cu</c><c>   1</c></rc>
    <rc><c>Cu</c><c>   1</c></rc>
    <rc><c>Cu</c><c>   1</c></rc>
   </set>
  </array>
  <array name="atomtypes" >
   <dimension dim="1">type</dimension>
   <field type="int">atomspertype</field>
   <field type="string">element</field>
   <field>mass</field>
   <field>valence</field>
   <field type="string">pseudopotential</field>
   <set>
    <rc><c>  13</c><c>Cu</c><c>     63.54600000</c><c>     11.00000000</c><c>  PAW_PBE Cu 22Jun2005                  </c></rc>
   </set>
  </array>
 </atominfo>
 <structure name="initialpos" >
  <crystal>
   <varray name="basis" >
    <v>      23.01178090       0.00000000       0.00000000 </v>
    <v>       0.00000000      25.08203890       0.00000000 </v>
    <v>       0.00000000       0.00000000      26.96218597 </v>
   </varray>
   <i name="volume">  15562.09876705 </i>
   <varray name="rec_basis" >
    <v>       0.04345600       0.00000000       0.00000000 </v>
    <v>       0.00000000       0.03986917       0.00000000 </v>
    <v>       0.00000000       0.00000000       0.03708898 </v>
   </varray>
  </crystal>
  <varray name="positions" >
   <v>       0.56961623       0.55583078       0.52969099 </v>
   <v>       0.54321230       0.52644786       0.44685879 </v>
   <v>       0.51499895       0.49560792       0.36491712 </v>
   <v>       0.44215010       0.51291482       0.42914016 </v>
   <v>       0.46842732       0.52969149       0.51505576 </v>
   <v>       0.56386451       0.45947669       0.51431447 </v>
   <v>       0.48607656       0.45948339       0.57638723 </v>
   <v>       0.59699218       0.58661551       0.60906823 </v>
   <v>       0.54999692       0.43317858       0.42806886 </v>
   <v>       0.46603483       0.43780209       0.48622771 </v>
   <v>       0.49947261       0.55231928       0.59876591 </v>
   <v>       0.58227575       0.49162719       0.59803964 </v>
   <v>       0.45255609       0.42413531       0.39934276 </v>
  </varray>
 </structure>
 <calculation>
  <scstep>
   <time name="dav">   20.21   20.23</time>
   <time name="total">   24.47   24.51</time>
   <energy>
    <i name="alphaZ">      7.94201605 </i>
    <i name="ewald">  24777.41497135 </i>
    <i name="hartreedc"> -41232.55529710 </i>
    <i name="XCdc">    584.52733557 </i>
    <i name="pawpsdc">  15965.26744864 </i>
    <i name="pawaedc"> -17340.97210982 </i>
    <i name="eentropy">     -0.04510525 </i>
    <i name="bandstr">    111.06023234 </i>
    <i name="atom">  18082.44932260 </i>
    <i name="e_fr_energy">    955.08881438 </i>
    <i name="e_wo_entrp">    955.13391962 </i>
    <i name="e_0_energy">    955.10384946 </i>
   </energy>
  </scstep>
  <scstep>
   <time name="dav">   21.10   21.35</time>
   <time name="total">   21.10   21.36</time>
   <energy>
    <i name="e_fr_energy">    287.03065919 </i>
    <i name="e_wo_entrp">    287.00817984 </i>
    <i name="e_0_energy">    287.02316607 </i>
   </energy>
  </scstep>
  <scstep>
   <time name="dav">   23.42   23.45</time>
   <time name="total">   23.43   23.46</time>
   <energy>
    <i name="e_fr_energy">     20.04781578 </i>
    <i name="e_wo_entrp">     20.05971461 </i>
    <i name="e_0_energy">     20.05178206 </i>
   </energy>
  </scstep>
  <scstep>
   <time name="dav">   22.97   23.00</time>
   <time name="total">   22.97   23.00</time>
   <energy>
    <i name="e_fr_energy">    -33.41255115 </i>
    <i name="e_wo_entrp">    -33.36557482 </i>
    <i name="e_0_energy">    -33.39689237 </i>
   </energy>
  </scstep>
  <scstep>
   <time name="dav">   25.45   25.48</time>
   <time name="total">   27.10   27.13</time>
   <energy>
    <i name="e_fr_energy">    -36.59832935 </i>
    <i name="e_wo_entrp">    -36.61230845 </i>
    <i name="e_0_energy">    -36.60298905 </i>
   </energy>
  </scstep>
  <scstep>
   <time name="dav">   20.39   20.41</time>
   <time name="total">   26.29   26.33</time>
   <energy>
    <i name="e_fr_energy">    -15.37221969 </i>
    <i name="e_wo_entrp">    -15.41265174 </i>
    <i name="e_0_energy">    -15.38569704 </i>
   </energy>
  </scstep>
  <scstep>
   <time name="dav">   21.88   21.91</time>
   <time name="total">   27.78   27.82</time>
   <energy>
    <i name="e_fr_energy">    -10.94563698 </i>
    <i name="e_wo_entrp">    -10.99127003 </i>
    <i name="e_0_energy">    -10.96084800 </i>
   </energy>
  </scstep>
  <scstep>
   <time name="dav">   22.71   22.74</time>
   <time name="total">   28.59   28.62</time>
   <energy>
    <i name="e_fr_energy">    -10.88747485 </i>
    <i name="e_wo_entrp">    -10.93781303 </i>
    <i name="e_0_energy">    -10.90425424 </i>
   </energy>
  </scstep>
  <scstep>
   <time name="dav">   24.60   24.63</time>
   <time name="total">   30.51   30.56</time>
   <energy>
    <i name="e_fr_energy">    -12.24496946 </i>
    <i name="e_wo_entrp">    -12.28341431 </i>
    <i name="e_0_energy">    -12.25778441 </i>
   </energy>
  </scstep>
  <scstep>
   <time name="dav">   24.22   24.25</time>
   <time name="total">   30.12   30.16</time>
   <energy>
    <i name="e_fr_energy">    -18.07675298 </i>
    <i name="e_wo_entrp">    -18.03160388 </i>
    <i name="e_0_energy">    -18.06170328 </i>
   </energy>
  </scstep>
  <scstep>
   <time name="dav">   23.68   23.71</time>
   <time name="total">   29.35   29.39</time>
   <energy>
    <i name="e_fr_energy">    -19.76109964 </i>
    <i name="e_wo_entrp">    -19.70814726 </i>
    <i name="e_0_energy">    -19.74344884 </i>
   </energy>
  </scstep>
  <scstep>
   <time name="dav">   26.31   26.34</time>
   <time name="total">   31.98   32.03</time>
   <energy>
    <i name="e_fr_energy">    -21.39341195 </i>
    <i name="e_wo_entrp">    -21.35227992 </i>
    <i name="e_0_energy">    -21.37970127 </i>
   </energy>
  </scstep>
  <scstep>
   <time name="dav">   22.52   22.54</time>
   <time name="total">   28.42   28.46</time>
   <energy>
    <i name="e_fr_energy">    -24.72747431 </i>
    <i name="e_wo_entrp">    -24.75576328 </i>
    <i name="e_0_energy">    -24.73690397 </i>
   </energy>
  </scstep>
  <scstep>
   <time name="dav">   24.93   25.40</time>
   <time name="total">   30.90   31.38</time>
   <energy>
    <i name="e_fr_energy">    -27.63893858 </i>
    <i name="e_wo_entrp">    -27.68804088 </i>
    <i name="e_0_energy">    -27.65530602 </i>
   </energy>
  </scstep>
  <scstep>
   <time name="dav">   24.30   24.33</time>
   <time name="total">   30.20   30.24</time>
   <energy>
    <i name="e_fr_energy">    -28.90296897 </i>
    <i name="e_wo_entrp">    -28.94545696 </i>
    <i name="e_0_energy">    -28.91713163 </i>
   </energy>
  </scstep>
  <scstep>
   <time name="dav">   25.21   25.24</time>
   <time name="total">   31.07   31.12</time>
   <energy>
    <i name="e_fr_energy">    -30.12433722 </i>
    <i name="e_wo_entrp">    -30.15238773 </i>
    <i name="e_0_energy">    -30.13368739 </i>
   </energy>
  </scstep>
  <scstep>
   <time name="dav">   25.15   25.22</time>
   <time name="total">   31.11   31.19</time>
   <energy>
    <i name="e_fr_energy">    -30.87864423 </i>
    <i name="e_wo_entrp">    -30.88893048 </i>
    <i name="e_0_energy">    -30.88207298 </i>
   </energy>
  </scstep>
  <scstep>
   <time name="dav">   25.60   25.64</time>
   <time name="total">   31.60   31.65</time>
   <energy>
    <i name="e_fr_energy">    -31.40355043 </i>
    <i name="e_wo_entrp">    -31.39956664 </i>
    <i name="e_0_energy">    -31.40222250 </i>
   </energy>
  </scstep>
  <scstep>
   <time name="dav">   24.42   24.45</time>
   <time name="total">   30.46   30.50</time>
   <energy>
    <i name="e_fr_energy">    -31.75316430 </i>
    <i name="e_wo_entrp">    -31.73974648 </i>
    <i name="e_0_energy">    -31.74869170 </i>
   </energy>
  </scstep>
  <scstep>
   <time name="dav">   25.53   25.63</time>
   <time name="total">   31.54   31.66</time>
   <energy>
    <i name="e_fr_energy">    -32.04569094 </i>
    <i name="e_wo_entrp">    -32.02524770 </i>
    <i name="e_0_energy">    -32.03887652 </i>
   </energy>
  </scstep>
  <scstep>
   <time name="dav">   25.24   25.27</time>
   <time name="total">   32.03   32.07</time>
   <energy>
    <i name="e_fr_energy">    -32.27698500 </i>
    <i name="e_wo_entrp">    -32.25121131 </i>
    <i name="e_0_energy">    -32.26839377 </i>
   </energy>
  </scstep>
  <scstep>
   <time name="dav">   22.89   22.92</time>
   <time name="total">   28.90   28.93</time>
   <energy>
    <i name="e_fr_energy">    -32.35435544 </i>
    <i name="e_wo_entrp">    -32.32695522 </i>
    <i name="e_0_energy">    -32.34522204 </i>
   </energy>
  </scstep>
  <scstep>
   <time name="dav">   25.44   25.46</time>
   <time name="total">   31.44   31.48</time>
   <energy>
    <i name="e_fr_energy">    -32.42209417 </i>
    <i name="e_wo_entrp">    -32.39350875 </i>
    <i name="e_0_energy">    -32.41256569 </i>
   </energy>
  </scstep>
  <scstep>
   <time name="dav">   20.25   20.27</time>
   <time name="total">   26.28   26.33</time>
   <energy>
    <i name="e_fr_energy">    -32.45103509 </i>
    <i name="e_wo_entrp">    -32.42207604 </i>
    <i name="e_0_energy">    -32.44138207 </i>
   </energy>
  </scstep>
  <scstep>
   <time name="dav">   17.35   17.37</time>
   <time name="total">   23.44   23.47</time>
   <energy>
    <i name="e_fr_energy">    -32.47487250 </i>
    <i name="e_wo_entrp">    -32.44567816 </i>
    <i name="e_0_energy">    -32.46514105 </i>
   </energy>
  </scstep>
  <scstep>
   <time name="dav">   18.06   18.08</time>
   <time name="total">   24.17   24.21</time>
   <energy>
    <i name="e_fr_energy">    -32.49117248 </i>
    <i name="e_wo_entrp">    -32.46184364 </i>
    <i name="e_0_energy">    -32.48139620 </i>
   </energy>
  </scstep>
  <scstep>
   <time name="dav">   15.41   15.43</time>
   <time name="total">   21.49   21.53</time>
   <energy>
    <i name="e_fr_energy">    -32.50334089 </i>
    <i name="e_wo_entrp">    -32.47388103 </i>
    <i name="e_0_energy">    -32.49352094 </i>
   </energy>
  </scstep>
  <scstep>
   <time name="dav">   15.95   15.97</time>
   <time name="total">   22.05   22.08</time>
   <energy>
    <i name="e_fr_energy">    -32.50923319 </i>
    <i name="e_wo_entrp">    -32.47971900 </i>
    <i name="e_0_energy">    -32.49939512 </i>
   </energy>
  </scstep>
  <scstep>
   <time name="dav">   15.36   15.38</time>
   <time name="total">   21.48   21.52</time>
   <energy>
    <i name="e_fr_energy">    -32.51361505 </i>
    <i name="e_wo_entrp">    -32.48405884 </i>
    <i name="e_0_energy">    -32.50376298 </i>
   </energy>
  </scstep>
  <scstep>
   <time name="dav">   15.64   15.66</time>
   <time name="total">   21.74   21.77</time>
   <energy>
    <i name="e_fr_energy">    -32.51555804 </i>
    <i name="e_wo_entrp">    -32.48600913 </i>
    <i name="e_0_energy">    -32.50570840 </i>
   </energy>
  </scstep>
  <scstep>
   <time name="dav">   14.54   14.56</time>
   <time name="total">   20.77   20.80</time>
   <energy>
    <i name="e_fr_energy">    -32.51732407 </i>
    <i name="e_wo_entrp">    -32.48776485 </i>
    <i name="e_0_energy">    -32.50747100 </i>
   </energy>
  </scstep>
  <scstep>
   <time name="dav">   15.50   15.53</time>
   <time name="total">   21.71   21.75</time>
   <energy>
    <i name="e_fr_energy">    -32.51812663 </i>
    <i name="e_wo_entrp">    -32.48856115 </i>
    <i name="e_0_energy">    -32.50827147 </i>
   </energy>
  </scstep>
  <scstep>
   <time name="dav">   14.17   14.19</time>
   <time name="total">   20.39   20.41</time>
   <energy>
    <i name="e_fr_energy">    -32.51930407 </i>
    <i name="e_wo_entrp">    -32.48973476 </i>
    <i name="e_0_energy">    -32.50944763 </i>
   </energy>
  </scstep>
  <scstep>
   <time name="dav">   15.71   15.73</time>
   <time name="total">   21.96   21.99</time>
   <energy>
    <i name="e_fr_energy">    -32.51989516 </i>
    <i name="e_wo_entrp">    -32.49032093 </i>
    <i name="e_0_energy">    -32.51003708 </i>
   </energy>
  </scstep>
  <scstep>
   <time name="dav">   14.69   14.71</time>
   <time name="total">   20.93   20.96</time>
   <energy>
    <i name="e_fr_energy">    -32.52017797 </i>
    <i name="e_wo_entrp">    -32.49060316 </i>
    <i name="e_0_energy">    -32.51031970 </i>
   </energy>
  </scstep>
  <scstep>
   <time name="dav">   15.17   15.21</time>
   <time name="total">   21.50   21.56</time>
   <energy>
    <i name="e_fr_energy">    -32.52051865 </i>
    <i name="e_wo_entrp">    -32.49094567 </i>
    <i name="e_0_energy">    -32.51066099 </i>
   </energy>
  </scstep>
  <scstep>
   <time name="dav">   14.73   14.75</time>
   <time name="total">   21.13   21.16</time>
   <energy>
    <i name="e_fr_energy">    -32.52068247 </i>
    <i name="e_wo_entrp">    -32.49110620 </i>
    <i name="e_0_energy">    -32.51082371 </i>
   </energy>
  </scstep>
  <scstep>
   <time name="dav">   15.47   15.48</time>
   <time name="total">   19.71   19.74</time>
   <energy>
    <i name="alphaZ">      7.94201605 </i>
    <i name="ewald">  24777.41497135 </i>
    <i name="hartreedc"> -41183.10524761 </i>
    <i name="XCdc">    574.46263334 </i>
    <i name="pawpsdc">  16744.22604561 </i>
    <i name="pawaedc"> -18139.07038193 </i>
    <i name="eentropy">     -0.02957823 </i>
    <i name="bandstr">   -896.81055787 </i>
    <i name="atom">  18082.44932260 </i>
    <i name="e_fr_energy">    -32.52077669 </i>
    <i name="e_wo_entrp">    -32.49119846 </i>
    <i name="e_0_energy">    -32.51091728 </i>
   </energy>
  </scstep>
  <structure>
   <crystal>
    <varray name="basis" >
     <v>      23.01178090       0.00000000       0.00000000 </v>
     <v>       0.00000000      25.08203890       0.00000000 </v>
     <v>       0.00000000       0.00000000      26.96218597 </v>
    </varray>
    <i name="volume">  15562.09876705 </i>
    <varray name="rec_basis" >
     <v>       0.04345600       0.00000000       0.00000000 </v>
     <v>       0.00000000       0.03986917       0.00000000 </v>
     <v>       0.00000000       0.00000000       0.03708898 </v>
    </varray>
   </crystal>
   <varray name="positions" >
    <v>       0.56961623       0.55583078       0.52969099 </v>
    <v>       0.54321230       0.52644786       0.44685879 </v>
    <v>       0.51499895       0.49560792       0.36491712 </v>
    <v>       0.44215010       0.51291482       0.42914016 </v>
    <v>       0.46842732       0.52969149       0.51505576 </v>
    <v>       0.56386451       0.45947669       0.51431447 </v>
    <v>       0.48607656       0.45948339       0.57638723 </v>
    <v>       0.59699218       0.58661551       0.60906823 </v>
    <v>       0.54999692       0.43317858       0.42806886 </v>
    <v>       0.46603483       0.43780209       0.48622771 </v>
    <v>       0.49947261       0.55231928       0.59876591 </v>
    <v>       0.58227575       0.49162719       0.59803964 </v>
    <v>       0.45255609       0.42413531       0.39934276 </v>
   </varray>
  </structure>
  <varray name="forces" >
   <v>      -0.00534105      -0.01102438      -0.02446902 </v>
   <v>       0.01216821       0.00326595       0.02955794 </v>
   <v>      -0.00657310       0.00042447      -0.00261038 </v>
   <v>       0.00676704      -0.00858061       0.01528127 </v>
   <v>      -0.01042744      -0.00283844       0.01581335 </v>
   <v>       0.00236113      -0.00571692      -0.01268377 </v>
   <v>       0.01074857       0.01744507      -0.01405644 </v>
   <v>       0.02346556       0.01068312      -0.00065942 </v>
   <v>      -0.01090903      -0.00001559       0.00895970 </v>
   <v>      -0.00512059      -0.00618986       0.01227428 </v>
   <v>      -0.01417908      -0.01494465      -0.01035301 </v>
   <v>      -0.01609404       0.00269346       0.00354683 </v>
   <v>       0.01313380       0.01479838      -0.02060133 </v>
  </varray>
  <energy>
   <i name="e_fr_energy">    -32.52077669 </i>
   <i name="e_wo_entrp">    -32.49119846 </i>
   <i name="e_0_energy">    -32.51091728 </i>
  </energy>
  <time name="totalsc"> 1010.09 1012.34</time>
 </calculation>
 <calculation>
  <scstep>
   <time name="dav">   19.64   19.67</time>
   <time name="total">   25.48   25.52</time>
   <energy>
    <i name="alphaZ">      7.94201605 </i>
    <i name="ewald">  24780.35132728 </i>
    <i name="hartreedc"> -41186.04250384 </i>
    <i name="XCdc">    574.46594845 </i>
    <i name="pawpsdc">  16744.22340034 </i>
    <i name="pawaedc"> -18139.06739629 </i>
    <i name="eentropy">     -0.02957817 </i>
    <i name="bandstr">   -896.81349800 </i>
    <i name="atom">  18082.44932260 </i>
    <i name="e_fr_energy">    -32.52096158 </i>
    <i name="e_wo_entrp">    -32.49138341 </i>
    <i name="e_0_energy">    -32.51110219 </i>
   </energy>
  </scstep>
  <scstep>
   <time name="dav">   26.00   26.03</time>
   <time name="total">   31.88   31.93</time>
   <energy>
    <i name="e_fr_energy">    -32.52111070 </i>
    <i name="e_wo_entrp">    -32.49150513 </i>
    <i name="e_0_energy">    -32.51124218 </i>
   </energy>
  </scstep>
  <scstep>
   <time name="dav">   14.76   14.77</time>
   <time name="total">   19.02   19.04</time>
   <energy>
    <i name="alphaZ">      7.94201605 </i>
    <i name="ewald">  24780.35132728 </i>
    <i name="hartreedc"> -41186.02433959 </i>
    <i name="XCdc">    574.46491827 </i>
    <i name="pawpsdc">  16744.37292958 </i>
    <i name="pawaedc"> -18139.21495476 </i>
    <i name="eentropy">     -0.02959510 </i>
    <i name="bandstr">   -896.83274353 </i>
    <i name="atom">  18082.44932260 </i>
    <i name="e_fr_energy">    -32.52111921 </i>
    <i name="e_wo_entrp">    -32.49152410 </i>
    <i name="e_0_energy">    -32.51125417 </i>
   </energy>
  </scstep>
  <structure>
   <crystal>
    <varray name="basis" >
     <v>      23.01178090       0.00000000       0.00000000 </v>
     <v>       0.00000000      25.08203890       0.00000000 </v>
     <v>       0.00000000       0.00000000      26.96218597 </v>
    </varray>
    <i name="volume">  15562.09876705 </i>
    <varray name="rec_basis" >
     <v>       0.04345600       0.00000000       0.00000000 </v>
     <v>       0.00000000       0.03986917       0.00000000 </v>
     <v>       0.00000000       0.00000000       0.03708898 </v>
    </varray>
   </crystal>
   <varray name="positions" >
    <v>       0.56960503       0.55580958       0.52964721 </v>
    <v>       0.54323781       0.52645414       0.44691168 </v>
    <v>       0.51498517       0.49560873       0.36491245 </v>
    <v>       0.44216429       0.51289832       0.42916750 </v>
    <v>       0.46840546       0.52968603       0.51508405 </v>
    <v>       0.56386946       0.45946570       0.51429178 </v>
    <v>       0.48609909       0.45951695       0.57636208 </v>
    <v>       0.59704137       0.58663605       0.60906705 </v>
    <v>       0.54997405       0.43317855       0.42808489 </v>
    <v>       0.46602409       0.43779018       0.48624967 </v>
    <v>       0.49944288       0.55229053       0.59874739 </v>
    <v>       0.58224201       0.49163238       0.59804599 </v>
    <v>       0.45258362       0.42416377       0.39930590 </v>
   </varray>
  </structure>
  <varray name="forces" >
   <v>      -0.00052489      -0.00290202      -0.00092051 </v>
   <v>       0.00417513      -0.00047669       0.00804767 </v>
   <v>      -0.00173703       0.00356667       0.00234080 </v>
   <v>       0.00725138      -0.00518949       0.01322277 </v>
   <v>      -0.01108989      -0.00016097       0.00558289 </v>
   <v>       0.00480632      -0.00647871      -0.00515124 </v>
   <v>       0.00394063       0.00370509      -0.00786524 </v>
   <v>       0.00966537       0.00041743      -0.00957559 </v>
   <v>      -0.00731561       0.00107668       0.00455891 </v>
   <v>      -0.00557559      -0.00652832       0.00474715 </v>
   <v>      -0.00299862      -0.00114454      -0.00311609 </v>
   <v>      -0.00769019       0.00544644       0.00111985 </v>
   <v>       0.00709301       0.00866842      -0.01299138 </v>
  </varray>
  <energy>
   <i name="e_fr_energy">    -32.52111921 </i>
   <i name="e_wo_entrp">    -32.49152410 </i>
   <i name="e_0_energy">    -32.51125417 </i>
  </energy>
  <time name="totalsc">   95.83   95.99</time>
 </calculation>
 <calculation>
  <scstep>
   <time name="dav">   20.62   20.65</time>
   <time name="total">   26.49   26.52</time>
   <energy>
    <i name="alphaZ">      7.94201605 </i>
    <i name="ewald">  24782.26048059 </i>
    <i name="hartreedc"> -41187.92426979 </i>
    <i name="XCdc">    574.46715765 </i>
    <i name="pawpsdc">  16744.39978146 </i>
    <i name="pawaedc"> -18139.24342023 </i>
    <i name="eentropy">     -0.02959756 </i>
    <i name="bandstr">   -896.84263359 </i>
    <i name="atom">  18082.44932260 </i>
    <i name="e_fr_energy">    -32.52116283 </i>
    <i name="e_wo_entrp">    -32.49156526 </i>
    <i name="e_0_energy">    -32.51129697 </i>
   </energy>
  </scstep>
  <scstep>
   <time name="dav">   21.48   21.51</time>
   <time name="total">   25.71   25.75</time>
   <energy>
    <i name="alphaZ">      7.94201605 </i>
    <i name="ewald">  24782.26048059 </i>
    <i name="hartreedc"> -41187.90837600 </i>
    <i name="XCdc">    574.46645833 </i>
    <i name="pawpsdc">  16744.54089214 </i>
    <i name="pawaedc"> -18139.38616126 </i>
    <i name="eentropy">     -0.02961910 </i>
    <i name="bandstr">   -896.85624908 </i>
    <i name="atom">  18082.44932260 </i>
    <i name="e_fr_energy">    -32.52123573 </i>
    <i name="e_wo_entrp">    -32.49161663 </i>
    <i name="e_0_energy">    -32.51136270 </i>
   </energy>
  </scstep>
  <structure>
   <crystal>
    <varray name="basis" >
     <v>      23.01178090       0.00000000       0.00000000 </v>
     <v>       0.00000000      25.08203890       0.00000000 </v>
     <v>       0.00000000       0.00000000      26.96218597 </v>
    </varray>
    <i name="volume">  15562.09876705 </i>
    <varray name="rec_basis" >
     <v>       0.04345600       0.00000000       0.00000000 </v>
     <v>       0.00000000       0.03986917       0.00000000 </v>
     <v>       0.00000000       0.00000000       0.03708898 </v>
    </varray>
   </crystal>
   <varray name="positions" >
    <v>       0.56959776       0.55579581       0.52961877 </v>
    <v>       0.54325438       0.52645822       0.44694602 </v>
    <v>       0.51497622       0.49560926       0.36490942 </v>
    <v>       0.44217350       0.51288760       0.42918526 </v>
    <v>       0.46839126       0.52968248       0.51510242 </v>
    <v>       0.56387267       0.45945856       0.51427704 </v>
    <v>       0.48611373       0.45953874       0.57634574 </v>
    <v>       0.59707332       0.58664940       0.60906628 </v>
    <v>       0.54995920       0.43317853       0.42809530 </v>
    <v>       0.46601712       0.43778245       0.48626393 </v>
    <v>       0.49942358       0.55227186       0.59873536 </v>
    <v>       0.58222009       0.49163574       0.59805011 </v>
    <v>       0.45260150       0.42418226       0.39928196 </v>
   </varray>
  </structure>
  <varray name="forces" >
   <v>       0.00330588       0.00302991       0.01608522 </v>
   <v>      -0.00173117      -0.00292450      -0.00734006 </v>
   <v>       0.00160164       0.00523553       0.00494677 </v>
   <v>       0.00640029      -0.00186549       0.01011642 </v>
   <v>      -0.01002465       0.00185412      -0.00242965 </v>
   <v>       0.00562522      -0.00618858       0.00156685 </v>
   <v>      -0.00140240      -0.00665426      -0.00251161 </v>
   <v>      -0.00163381      -0.00699919      -0.01450271 </v>
   <v>      -0.00366194       0.00140524       0.00108865 </v>
   <v>      -0.00512441      -0.00590903      -0.00205689 </v>
   <v>       0.00541721       0.00888342       0.00223889 </v>
   <v>      -0.00056708       0.00721975      -0.00065485 </v>
   <v>       0.00179522       0.00291308      -0.00654704 </v>
  </varray>
  <energy>
   <i name="e_fr_energy">    -32.52123573 </i>
   <i name="e_wo_entrp">    -32.49161663 </i>
   <i name="e_0_energy">    -32.51136270 </i>
  </energy>
  <time name="totalsc">   69.37   69.51</time>
  <eigenvalues>
   <array>
    <dimension dim="1">band</dimension>
    <dimension dim="2">kpoint</dimension>
    <dimension dim="3">spin</dimension>
    <field>eigene</field>
    <field>occ</field>
    <set>
     <set comment="spin 1">
      <set comment="kpoint 1">
       <r>  -10.4298    1.0000 </r>
       <r>   -9.3163    1.0000 </r>
       <r>   -8.3321    1.0000 </r>
       <r>   -8.0563    1.0000 </r>
       <r>   -8.0148    1.0000 </r>
       <r>   -7.7222    1.0000 </r>
       <r>   -7.6059    1.0000 </r>
       <r>   -7.3220    1.0000 </r>
       <r>   -7.2725    1.0000 </r>
       <r>   -7.2611    1.0000 </r>
       <r>   -7.2217    1.0000 </r>
       <r>   -7.1893    1.0000 </r>
       <r>   -7.1502    1.0000 </r>
       <r>   -7.1381    1.0000 </r>
       <r>   -7.0842    1.0000 </r>
       <r>   -7.0352    1.0000 </r>
       <r>   -6.9785    1.0000 </r>
       <r>   -6.9461    1.0000 </r>
       <r>   -6.8549    1.0000 </r>
       <r>   -6.8470    1.0000 </r>
       <r>   -6.7541    1.0000 </r>
       <r>   -6.7415    1.0000 </r>
       <r>   -6.6725    1.0000 </r>
       <r>   -6.5603    1.0000 </r>
       <r>   -6.5346    1.0000 </r>
       <r>   -6.5044    1.0000 </r>
       <r>   -6.4066    1.0000 </r>
       <r>   -6.3755    1.0000 </r>
       <r>   -6.3099    1.0000 </r>
       <r>   -6.2973    1.0000 </r>
       <r>   -6.2601    1.0000 </r>
       <r>   -6.2122    1.0000 </r>
       <r>   -6.1316    1.0000 </r>
       <r>   -6.0900    1.0000 </r>
       <r>   -6.0772    1.0000 </r>
       <r>   -6.0448    1.0000 </r>
       <r>   -6.0177    1.0000 </r>
       <r>   -5.9940    1.0000 </r>
       <r>   -5.9357    1.0000 </r>
       <r>   -5.8688    1.0000 </r>
       <r>   -5.8399    1.0000 </r>
       <r>   -5.8304    1.0000 </r>
       <r>   -5.7861    1.0000 </r>
       <r>   -5.7768    1.0000 </r>
       <r>   -5.7331    1.0000 </r>
       <r>   -5.7312    1.0000 </r>
       <r>   -5.7044    1.0000 </r>
       <r>   -5.6804    1.0000 </r>
       <r>   -5.6493    1.0000 </r>
       <r>   -5.6445    1.0000 </r>
       <r>   -5.6051    1.0000 </r>
       <r>   -5.5491    1.0000 </r>
       <r>   -5.5184    1.0000 </r>
       <r>   -5.5147    1.0000 </r>
       <r>   -5.4945    1.0000 </r>
       <r>   -5.4648    1.0000 </r>
       <r>   -5.4438    1.0000 </r>
       <r>   -5.4411    1.0000 </r>
       <r>   -5.3980    1.0000 </r>
       <r>   -5.3974    1.0000 </r>
       <r>   -5.3372    1.0000 </r>
       <r>   -5.3122    1.0000 </r>
       <r>   -5.2990    1.0000 </r>
       <r>   -5.2986    1.0000 </r>
       <r>   -5.2734    1.0000 </r>
       <r>   -5.2581    1.0000 </r>
       <r>   -5.2310    1.0000 </r>
       <r>   -5.2016    1.0000 </r>
       <r>   -5.0065    1.0000 </r>
       <r>   -4.9772    1.0000 </r>
       <r>   -4.4037    1.0292 </r>
       <r>   -4.1055    0.4772 </r>
       <r>   -3.6853   -0.0052 </r>
       <r>   -3.1273   -0.0000 </r>
       <r>   -2.6226   -0.0000 </r>
       <r>   -2.5545   -0.0000 </r>
       <r>   -2.4626   -0.0000 </r>
       <r>   -2.3396   -0.0000 </r>
       <r>   -1.8607   -0.0000 </r>
       <r>   -1.6507   -0.0000 </r>
       <r>   -1.2723   -0.0000 </r>
       <r>   -1.1540   -0.0000 </r>
       <r>   -0.9075   -0.0000 </r>
       <r>   -0.6462   -0.0000 </r>
       <r>   -0.5956   -0.0000 </r>
       <r>   -0.2108   -0.0000 </r>
       <r>   -0.1378   -0.0000 </r>
       <r>   -0.0427   -0.0000 </r>
       <r>    0.0477   -0.0000 </r>
       <r>    0.2520   -0.0000 </r>
       <r>    0.2779   -0.0000 </r>
       <r>    0.2832   -0.0000 </r>
      </set>
     </set>
     <set comment="spin 2">
      <set comment="kpoint 1">
       <r>  -10.4297    1.0000 </r>
       <r>   -9.3161    1.0000 </r>
       <r>   -8.3320    1.0000 </r>
       <r>   -8.0563    1.0000 </r>
       <r>   -8.0146    1.0000 </r>
       <r>   -7.7221    1.0000 </r>
       <r>   -7.6058    1.0000 </r>
       <r>   -7.3219    1.0000 </r>
       <r>   -7.2724    1.0000 </r>
       <r>   -7.2610    1.0000 </r>
       <r>   -7.2216    1.0000 </r>
       <r>   -7.1891    1.0000 </r>
       <r>   -7.1500    1.0000 </r>
       <r>   -7.1380    1.0000 </r>
       <r>   -7.0841    1.0000 </r>
       <r>   -7.0351    1.0000 </r>
       <r>   -6.9784    1.0000 </r>
       <r>   -6.9459    1.0000 </r>
       <r>   -6.8548    1.0000 </r>
       <r>   -6.8469    1.0000 </r>
       <r>   -6.7540    1.0000 </r>
       <r>   -6.7414    1.0000 </r>
       <r>   -6.6724    1.0000 </r>
       <r>   -6.5602    1.0000 </r>
       <r>   -6.5346    1.0000 </r>
       <r>   -6.5043    1.0000 </r>
       <r>   -6.4066    1.0000 </r>
       <r>   -6.3754    1.0000 </r>
       <r>   -6.3097    1.0000 </r>
       <r>   -6.2973    1.0000 </r>
       <r>   -6.2600    1.0000 </r>
       <r>   -6.2121    1.0000 </r>
       <r>   -6.1315    1.0000 </r>
       <r>   -6.0898    1.0000 </r>
       <r>   -6.0771    1.0000 </r>
       <r>   -6.0447    1.0000 </r>
       <r>   -6.0176    1.0000 </r>
       <r>   -5.9940    1.0000 </r>
       <r>   -5.9356    1.0000 </r>
       <r>   -5.8688    1.0000 </r>
       <r>   -5.8398    1.0000 </r>
       <r>   -5.8303    1.0000 </r>
       <r>   -5.7860    1.0000 </r>
       <r>   -5.7767    1.0000 </r>
       <r>   -5.7330    1.0000 </r>
       <r>   -5.7311    1.0000 </r>
       <r>   -5.7044    1.0000 </r>
       <r>   -5.6803    1.0000 </r>
       <r>   -5.6491    1.0000 </r>
       <r>   -5.6444    1.0000 </r>
       <r>   -5.6050    1.0000 </r>
       <r>   -5.5490    1.0000 </r>
       <r>   -5.5183    1.0000 </r>
       <r>   -5.5146    1.0000 </r>
       <r>   -5.4944    1.0000 </r>
       <r>   -5.4648    1.0000 </r>
       <r>   -5.4436    1.0000 </r>
       <r>   -5.4410    1.0000 </r>
       <r>   -5.3979    1.0000 </r>
       <r>   -5.3973    1.0000 </r>
       <r>   -5.3371    1.0000 </r>
       <r>   -5.3121    1.0000 </r>
       <r>   -5.2989    1.0000 </r>
       <r>   -5.2985    1.0000 </r>
       <r>   -5.2733    1.0000 </r>
       <r>   -5.2580    1.0000 </r>
       <r>   -5.2310    1.0000 </r>
       <r>   -5.2015    1.0000 </r>
       <r>   -5.0064    1.0000 </r>
       <r>   -4.9768    1.0000 </r>
       <r>   -4.4035    1.0293 </r>
       <r>   -4.1049    0.4746 </r>
       <r>   -3.6851   -0.0052 </r>
       <r>   -3.1272   -0.0000 </r>
       <r>   -2.6224   -0.0000 </r>
       <r>   -2.5542   -0.0000 </r>
       <r>   -2.4622   -0.0000 </r>
       <r>   -2.3393   -0.0000 </r>
       <r>   -1.8603   -0.0000 </r>
       <r>   -1.6505   -0.0000 </r>
       <r>   -1.2715   -0.0000 </r>
       <r>   -1.1534   -0.0000 </r>
       <r>   -0.9068   -0.0000 </r>
       <r>   -0.6461   -0.0000 </r>
       <r>   -0.5939   -0.0000 </r>
       <r>   -0.2094   -0.0000 </r>
       <r>   -0.1363   -0.0000 </r>
       <r>   -0.0421   -0.0000 </r>
       <r>    0.0756   -0.0000 </r>
       <r>    0.2890   -0.0000 </r>
       <r>    0.3101   -0.0000 </r>
       <r>    0.3215   -0.0000 </r>
      </set>
     </set>
    </set>
   </array>
  </eigenvalues>
  <separator name="orbital magnetization" >
   <v name="MAGDIPOLOUT">      0.00000000      0.00000000      0.00000000</v>
  </separator>
  <dos>
   <i name="efermi">     -4.11093348 </i>
   <total>
    <array>
     <dimension dim="1">gridpoints</dimension>
     <dimension dim="2">spin</dimension>
     <field>energy</field>
     <field>total</field>
     <field>integrated</field>
     <set>
      <set comment="spin 1">
       <r>   -12.4298     0.0000     0.0000 </r>
       <r>   -12.3806     0.0000     0.0000 </r>
       <r>   -12.3315     0.0000     0.0000 </r>
       <r>   -12.2823     0.0000     0.0000 </r>
       <r>   -12.2331     0.0000     0.0000 </r>
       <r>   -12.1840     0.0000     0.0000 </r>
       <r>   -12.1348     0.0000     0.0000 </r>
       <r>   -12.0856     0.0000     0.0000 </r>
       <r>   -12.0364    -0.0000    -0.0000 </r>
       <r>   -11.9873    -0.0000    -0.0000 </r>
       <r>   -11.9381    -0.0000    -0.0000 </r>
       <r>   -11.8889    -0.0000    -0.0000 </r>
       <r>   -11.8398    -0.0000    -0.0000 </r>
       <r>   -11.7906    -0.0000    -0.0000 </r>
       <r>   -11.7414    -0.0000    -0.0000 </r>
       <r>   -11.6922    -0.0000    -0.0000 </r>
       <r>   -11.6431    -0.0000    -0.0000 </r>
       <r>   -11.5939    -0.0000    -0.0000 </r>
       <r>   -11.5447    -0.0000    -0.0000 </r>
       <r>   -11.4956    -0.0000    -0.0000 </r>
       <r>   -11.4464    -0.0000    -0.0000 </r>
       <r>   -11.3972    -0.0000    -0.0000 </r>
       <r>   -11.3480    -0.0000    -0.0000 </r>
       <r>   -11.2989    -0.0000    -0.0000 </r>
       <r>   -11.2497    -0.0000    -0.0000 </r>
       <r>   -11.2005    -0.0000    -0.0000 </r>
       <r>   -11.1514    -0.0000    -0.0000 </r>
       <r>   -11.1022    -0.0002    -0.0000 </r>
       <r>   -11.0530    -0.0008    -0.0000 </r>
       <r>   -11.0038    -0.0029    -0.0002 </r>
       <r>   -10.9547    -0.0094    -0.0007 </r>
       <r>   -10.9055    -0.0266    -0.0020 </r>
       <r>   -10.8563    -0.0637    -0.0051 </r>
       <r>   -10.8072    -0.1268    -0.0113 </r>
       <r>   -10.7580    -0.2005    -0.0212 </r>
       <r>   -10.7088    -0.2189    -0.0320 </r>
       <r>   -10.6597    -0.0516    -0.0345 </r>
       <r>   -10.6105     0.4578    -0.0120 </r>
       <r>   -10.5613     1.3793     0.0558 </r>
       <r>   -10.5121     2.5698     0.1822 </r>
       <r>   -10.4630     3.6526     0.3618 </r>
       <r>   -10.4138     4.1834     0.5675 </r>
       <r>   -10.3646     3.9196     0.7602 </r>
       <r>   -10.3155     2.9835     0.9069 </r>
       <r>   -10.2663     1.7790     0.9944 </r>
       <r>   -10.2171     0.7342     1.0305 </r>
       <r>   -10.1679     0.0804     1.0345 </r>
       <r>   -10.1188    -0.1899     1.0251 </r>
       <r>   -10.0696    -0.2186     1.0144 </r>
       <r>   -10.0204    -0.1534     1.0068 </r>
       <r>    -9.9713    -0.0831     1.0028 </r>
       <r>    -9.9221    -0.0380     1.0009 </r>
       <r>    -9.8729    -0.0182     1.0000 </r>
       <r>    -9.8237    -0.0183     0.9991 </r>
       <r>    -9.7746    -0.0381     0.9972 </r>
       <r>    -9.7254    -0.0834     0.9931 </r>
       <r>    -9.6762    -0.1538     0.9856 </r>
       <r>    -9.6271    -0.2188     0.9748 </r>
       <r>    -9.5779    -0.1893     0.9655 </r>
       <r>    -9.5287     0.0825     0.9696 </r>
       <r>    -9.4795     0.7383     1.0059 </r>
       <r>    -9.4304     1.7846     1.0936 </r>
       <r>    -9.3812     2.9889     1.2406 </r>
       <r>    -9.3320     3.9227     1.4335 </r>
       <r>    -9.2829     4.1828     1.6391 </r>
       <r>    -9.2337     3.6485     1.8185 </r>
       <r>    -9.1845     2.5640     1.9446 </r>
       <r>    -9.1354     1.3741     2.0122 </r>
       <r>    -9.0862     0.4544     2.0345 </r>
       <r>    -9.0370    -0.0531     2.0319 </r>
       <r>    -8.9878    -0.2195     2.0211 </r>
       <r>    -8.9387    -0.2014     2.0112 </r>
       <r>    -8.8895    -0.1309     2.0048 </r>
       <r>    -8.8403    -0.0770     2.0010 </r>
       <r>    -8.7912    -0.0629     1.9979 </r>
       <r>    -8.7420    -0.0917     1.9934 </r>
       <r>    -8.6928    -0.1561     1.9857 </r>
       <r>    -8.6436    -0.2216     1.9748 </r>
       <r>    -8.5945    -0.2008     1.9649 </r>
       <r>    -8.5453     0.0471     1.9673 </r>
       <r>    -8.4961     0.6504     1.9992 </r>
       <r>    -8.4470     1.6012     2.0780 </r>
       <r>    -8.3978     2.6708     2.2093 </r>
       <r>    -8.3486     3.4933     2.3811 </r>
       <r>    -8.2994     3.8347     2.5696 </r>
       <r>    -8.2503     3.8470     2.7588 </r>
       <r>    -8.2011     4.0280     2.9568 </r>
       <r>    -8.1519     4.8202     3.1939 </r>
       <r>    -8.1028     6.1543     3.4965 </r>
       <r>    -8.0536     7.3744     3.8591 </r>
       <r>    -8.0044     7.6933     4.2374 </r>
       <r>    -7.9552     6.8277     4.5731 </r>
       <r>    -7.9061     5.2726     4.8323 </r>
       <r>    -7.8569     3.9724     5.0277 </r>
       <r>    -7.8077     3.6640     5.2078 </r>
       <r>    -7.7586     4.4001     5.4242 </r>
       <r>    -7.7094     5.5631     5.6977 </r>
       <r>    -7.6602     6.2900     6.0070 </r>
       <r>    -7.6110     6.0067     6.3024 </r>
       <r>    -7.5619     4.7911     6.5380 </r>
       <r>    -7.5127     3.4199     6.7061 </r>
       <r>    -7.4635     3.0758     6.8574 </r>
       <r>    -7.4144     4.8042     7.0936 </r>
       <r>    -7.3652     8.9389     7.5331 </r>
       <r>    -7.3160    14.8065     8.2612 </r>
       <r>    -7.2669    20.9315     9.2904 </r>
       <r>    -7.2177    25.6849    10.5533 </r>
       <r>    -7.1685    28.0172    11.9310 </r>
       <r>    -7.1193    27.8522    13.3005 </r>
       <r>    -7.0702    25.9567    14.5768 </r>
       <r>    -7.0210    23.4408    15.7294 </r>
       <r>    -6.9718    21.2315    16.7734 </r>
       <r>    -6.9227    19.7752    17.7458 </r>
       <r>    -6.8735    19.0233    18.6812 </r>
       <r>    -6.8243    18.6157    19.5965 </r>
       <r>    -6.7751    18.1552    20.4892 </r>
       <r>    -6.7260    17.4642    21.3479 </r>
       <r>    -6.6768    16.6885    22.1685 </r>
       <r>    -6.6276    16.1690    22.9636 </r>
       <r>    -6.5785    16.1772    23.7590 </r>
       <r>    -6.5293    16.7501    24.5827 </r>
       <r>    -6.4801    17.7431    25.4551 </r>
       <r>    -6.4309    18.9681    26.3878 </r>
       <r>    -6.3818    20.2349    27.3827 </r>
       <r>    -6.3326    21.3329    28.4317 </r>
       <r>    -6.2834    22.1208    29.5194 </r>
       <r>    -6.2343    22.6931    30.6353 </r>
       <r>    -6.1851    23.3614    31.7840 </r>
       <r>    -6.1359    24.3430    32.9809 </r>
       <r>    -6.0867    25.4721    34.2334 </r>
       <r>    -6.0376    26.3417    35.5287 </r>
       <r>    -5.9884    26.8188    36.8474 </r>
       <r>    -5.9392    27.3702    38.1932 </r>
       <r>    -5.8901    28.7556    39.6071 </r>
       <r>    -5.8409    31.3125    41.1468 </r>
       <r>    -5.7917    34.5266    42.8445 </r>
       <r>    -5.7426    37.3367    44.6804 </r>
       <r>    -5.6934    38.9287    46.5946 </r>
       <r>    -5.6442    39.3342    48.5287 </r>
       <r>    -5.5950    39.3457    50.4633 </r>
       <r>    -5.5459    39.8678    52.4237 </r>
       <r>    -5.4967    41.2703    54.4530 </r>
       <r>    -5.4475    43.1940    56.5769 </r>
       <r>    -5.3984    44.7678    58.7781 </r>
       <r>    -5.3492    44.9208    60.9869 </r>
       <r>    -5.3000    42.6785    63.0855 </r>
       <r>    -5.2508    37.5822    64.9334 </r>
       <r>    -5.2017    30.1636    66.4166 </r>
       <r>    -5.1525    22.0071    67.4987 </r>
       <r>    -5.1033    15.0472    68.2386 </r>
       <r>    -5.0542    10.4728    68.7536 </r>
       <r>    -5.0050     8.1186    69.1528 </r>
       <r>    -4.9558     6.8492    69.4896 </r>
       <r>    -4.9066     5.5399    69.7620 </r>
       <r>    -4.8575     3.7913    69.9484 </r>
       <r>    -4.8083     1.9078    70.0422 </r>
       <r>    -4.7591     0.3960    70.0617 </r>
       <r>    -4.7100    -0.4594    70.0391 </r>
       <r>    -4.6608    -0.6541    70.0069 </r>
       <r>    -4.6116    -0.2926    69.9925 </r>
       <r>    -4.5624     0.5314    70.0187 </r>
       <r>    -4.5133     1.6842    70.1015 </r>
       <r>    -4.4641     2.8848    70.2433 </r>
       <r>    -4.4149     3.7406    70.4272 </r>
       <r>    -4.3658     3.9741    70.6227 </r>
       <r>    -4.3166     3.6593    70.8026 </r>
       <r>    -4.2674     3.2132    70.9606 </r>
       <r>    -4.2183     3.0855    71.1123 </r>
       <r>    -4.1691     3.3899    71.2790 </r>
       <r>    -4.1199     3.8050    71.4661 </r>
       <r>    -4.0707     3.8405    71.6549 </r>
       <r>    -4.0216     3.2390    71.8142 </r>
       <r>    -3.9724     2.1847    71.9216 </r>
       <r>    -3.9232     1.1848    71.9799 </r>
       <r>    -3.8741     0.7554    72.0170 </r>
       <r>    -3.8249     1.1320    72.0727 </r>
       <r>    -3.7757     2.1461    72.1782 </r>
       <r>    -3.7265     3.3013    72.3405 </r>
       <r>    -3.6774     4.0188    72.5381 </r>
       <r>    -3.6282     3.9389    72.7318 </r>
       <r>    -3.5790     3.1010    72.8843 </r>
       <r>    -3.5299     1.8753    72.9765 </r>
       <r>    -3.4807     0.7152    73.0117 </r>
       <r>    -3.4315    -0.0649    73.0085 </r>
       <r>    -3.3823    -0.3372    72.9919 </r>
       <r>    -3.3332    -0.0776    72.9881 </r>
       <r>    -3.2840     0.6925    73.0221 </r>
       <r>    -3.2348     1.8513    73.1132 </r>
       <r>    -3.1857     3.0936    73.2653 </r>
       <r>    -3.1365     3.9724    73.4606 </r>
       <r>    -3.0873     4.1085    73.6626 </r>
       <r>    -3.0381     3.4231    73.8309 </r>
       <r>    -2.9890     2.1906    73.9387 </r>
       <r>    -2.9398     0.8734    73.9816 </r>
       <r>    -2.8906    -0.0984    73.9768 </r>
       <r>    -2.8415    -0.4288    73.9557 </r>
       <r>    -2.7923     0.0681    73.9590 </r>
       <r>    -2.7431     1.4786    74.0317 </r>
       <r>    -2.6939     3.7038    74.2138 </r>
       <r>    -2.6448     6.3633    74.5267 </r>
       <r>    -2.5956     8.8497    74.9619 </r>
       <r>    -2.5464    10.5683    75.4815 </r>
       <r>    -2.4973    11.2000    76.0323 </r>
       <r>    -2.4481    10.7822    76.5624 </r>
       <r>    -2.3989     9.5737    77.0332 </r>
       <r>    -2.3498     7.8594    77.4196 </r>
       <r>    -2.3006     5.8690    77.7082 </r>
       <r>    -2.2514     3.8205    77.8961 </r>
       <r>    -2.2022     1.9706    77.9930 </r>
       <r>    -2.1531     0.5860    78.0218 </r>
       <r>    -2.1039    -0.1329    78.0153 </r>
       <r>    -2.0547    -0.1068    78.0100 </r>
       <r>    -2.0056     0.6017    78.0396 </r>
       <r>    -1.9564     1.7783    78.1270 </r>
       <r>    -1.9072     3.0856    78.2788 </r>
       <r>    -1.8580     4.1797    78.4843 </r>
       <r>    -1.8089     4.8680    78.7236 </r>
       <r>    -1.7597     5.1623    78.9775 </r>
       <r>    -1.7105     5.1537    79.2309 </r>
       <r>    -1.6614     4.8467    79.4692 </r>
       <r>    -1.6122     4.1576    79.6736 </r>
       <r>    -1.5630     3.0982    79.8260 </r>
       <r>    -1.5138     1.9399    79.9214 </r>
       <r>    -1.4647     1.1630    79.9786 </r>
       <r>    -1.4155     1.2053    80.0378 </r>
       <r>    -1.3663     2.1956    80.1458 </r>
       <r>    -1.3172     3.8459    80.3349 </r>
       <r>    -1.2680     5.5599    80.6083 </r>
       <r>    -1.2188     6.7034    80.9379 </r>
       <r>    -1.1696     6.9110    81.2777 </r>
       <r>    -1.1205     6.2654    81.5858 </r>
       <r>    -1.0713     5.2282    81.8429 </r>
       <r>    -1.0221     4.3367    82.0561 </r>
       <r>    -0.9730     3.8655    82.2462 </r>
       <r>    -0.9238     3.7257    82.4294 </r>
       <r>    -0.8746     3.6972    82.6112 </r>
       <r>    -0.8255     3.7660    82.7963 </r>
       <r>    -0.7763     4.1956    83.0026 </r>
       <r>    -0.7271     5.2120    83.2589 </r>
       <r>    -0.6779     6.6018    83.5835 </r>
       <r>    -0.6288     7.6678    83.9606 </r>
       <r>    -0.5796     7.6584    84.3371 </r>
       <r>    -0.5304     6.3270    84.6482 </r>
       <r>    -0.4813     4.1521    84.8524 </r>
       <r>    -0.4321     2.0729    84.9543 </r>
       <r>    -0.3829     0.9868    85.0029 </r>
       <r>    -0.3337     1.3583    85.0696 </r>
       <r>    -0.2846     3.0935    85.2218 </r>
       <r>    -0.2354     5.6438    85.4993 </r>
       <r>    -0.1862     8.2438    85.9046 </r>
       <r>    -0.1371    10.1897    86.4057 </r>
       <r>    -0.0879    11.0617    86.9496 </r>
       <r>    -0.0387    10.8271    87.4820 </r>
       <r>     0.0105     9.8427    87.9659 </r>
       <r>     0.0596     8.7772    88.3975 </r>
       <r>     0.1088     8.3925    88.8102 </r>
       <r>     0.1580     9.1336    89.2593 </r>
       <r>     0.2071    10.7189    89.7863 </r>
       <r>     0.2563    12.1321    90.3829 </r>
       <r>     0.3055    12.2040    90.9830 </r>
       <r>     0.3547    10.4166    91.4952 </r>
       <r>     0.4038     7.2642    91.8524 </r>
       <r>     0.4530     3.8744    92.0429 </r>
       <r>     0.5022     1.2588    92.1048 </r>
       <r>     0.5513    -0.1866    92.0956 </r>
       <r>     0.6005    -0.6578    92.0632 </r>
       <r>     0.6497    -0.5971    92.0339 </r>
       <r>     0.6988    -0.3781    92.0153 </r>
       <r>     0.7480    -0.1905    92.0059 </r>
       <r>     0.7972    -0.0800    92.0020 </r>
       <r>     0.8464    -0.0286    92.0006 </r>
       <r>     0.8955    -0.0088    92.0001 </r>
       <r>     0.9447    -0.0023    92.0000 </r>
       <r>     0.9939    -0.0005    92.0000 </r>
       <r>     1.0430    -0.0001    92.0000 </r>
       <r>     1.0922    -0.0000    92.0000 </r>
       <r>     1.1414    -0.0000    92.0000 </r>
       <r>     1.1906    -0.0000    92.0000 </r>
       <r>     1.2397    -0.0000    92.0000 </r>
       <r>     1.2889    -0.0000    92.0000 </r>
       <r>     1.3381    -0.0000    92.0000 </r>
       <r>     1.3872    -0.0000    92.0000 </r>
       <r>     1.4364    -0.0000    92.0000 </r>
       <r>     1.4856    -0.0000    92.0000 </r>
       <r>     1.5348    -0.0000    92.0000 </r>
       <r>     1.5839     0.0000    92.0000 </r>
       <r>     1.6331     0.0000    92.0000 </r>
       <r>     1.6823     0.0000    92.0000 </r>
       <r>     1.7314     0.0000    92.0000 </r>
       <r>     1.7806     0.0000    92.0000 </r>
       <r>     1.8298     0.0000    92.0000 </r>
       <r>     1.8790     0.0000    92.0000 </r>
       <r>     1.9281     0.0000    92.0000 </r>
       <r>     1.9773     0.0000    92.0000 </r>
       <r>     2.0265     0.0000    92.0000 </r>
       <r>     2.0756     0.0000    92.0000 </r>
       <r>     2.1248     0.0000    92.0000 </r>
       <r>     2.1740     0.0000    92.0000 </r>
       <r>     2.2232     0.0000    92.0000 </r>
       <r>     2.2723     0.0000    92.0000 </r>
       <r>     2.3215     0.0000    92.0000 </r>
      </set>
      <set comment="spin 2">
       <r>   -12.4298     0.0000     0.0000 </r>
       <r>   -12.3806     0.0000     0.0000 </r>
       <r>   -12.3315     0.0000     0.0000 </r>
       <r>   -12.2823     0.0000     0.0000 </r>
       <r>   -12.2331     0.0000     0.0000 </r>
       <r>   -12.1840     0.0000     0.0000 </r>
       <r>   -12.1348     0.0000     0.0000 </r>
       <r>   -12.0856     0.0000     0.0000 </r>
       <r>   -12.0364    -0.0000    -0.0000 </r>
       <r>   -11.9873    -0.0000    -0.0000 </r>
       <r>   -11.9381    -0.0000    -0.0000 </r>
       <r>   -11.8889    -0.0000    -0.0000 </r>
       <r>   -11.8398    -0.0000    -0.0000 </r>
       <r>   -11.7906    -0.0000    -0.0000 </r>
       <r>   -11.7414    -0.0000    -0.0000 </r>
       <r>   -11.6922    -0.0000    -0.0000 </r>
       <r>   -11.6431    -0.0000    -0.0000 </r>
       <r>   -11.5939    -0.0000    -0.0000 </r>
       <r>   -11.5447    -0.0000    -0.0000 </r>
       <r>   -11.4956    -0.0000    -0.0000 </r>
       <r>   -11.4464    -0.0000    -0.0000 </r>
       <r>   -11.3972    -0.0000    -0.0000 </r>
       <r>   -11.3480    -0.0000    -0.0000 </r>
       <r>   -11.2989    -0.0000    -0.0000 </r>
       <r>   -11.2497    -0.0000    -0.0000 </r>
       <r>   -11.2005    -0.0000    -0.0000 </r>
       <r>   -11.1514    -0.0000    -0.0000 </r>
       <r>   -11.1022    -0.0002    -0.0000 </r>
       <r>   -11.0530    -0.0008    -0.0000 </r>
       <r>   -11.0038    -0.0029    -0.0002 </r>
       <r>   -10.9547    -0.0094    -0.0007 </r>
       <r>   -10.9055    -0.0265    -0.0020 </r>
       <r>   -10.8563    -0.0635    -0.0051 </r>
       <r>   -10.8072    -0.1267    -0.0113 </r>
       <r>   -10.7580    -0.2004    -0.0212 </r>
       <r>   -10.7088    -0.2191    -0.0319 </r>
       <r>   -10.6597    -0.0523    -0.0345 </r>
       <r>   -10.6105     0.4561    -0.0121 </r>
       <r>   -10.5613     1.3766     0.0556 </r>
       <r>   -10.5121     2.5669     0.1818 </r>
       <r>   -10.4630     3.6505     0.3613 </r>
       <r>   -10.4138     4.1831     0.5670 </r>
       <r>   -10.3646     3.9212     0.7598 </r>
       <r>   -10.3155     2.9862     0.9067 </r>
       <r>   -10.2663     1.7819     0.9943 </r>
       <r>   -10.2171     0.7363     1.0305 </r>
       <r>   -10.1679     0.0815     1.0345 </r>
       <r>   -10.1188    -0.1896     1.0252 </r>
       <r>   -10.0696    -0.2187     1.0144 </r>
       <r>   -10.0204    -0.1536     1.0069 </r>
       <r>    -9.9713    -0.0832     1.0028 </r>
       <r>    -9.9221    -0.0380     1.0009 </r>
       <r>    -9.8729    -0.0182     1.0000 </r>
       <r>    -9.8237    -0.0182     0.9991 </r>
       <r>    -9.7746    -0.0380     0.9972 </r>
       <r>    -9.7254    -0.0832     0.9931 </r>
       <r>    -9.6762    -0.1536     0.9856 </r>
       <r>    -9.6271    -0.2187     0.9748 </r>
       <r>    -9.5779    -0.1897     0.9655 </r>
       <r>    -9.5287     0.0813     0.9695 </r>
       <r>    -9.4795     0.7358     1.0057 </r>
       <r>    -9.4304     1.7812     1.0933 </r>
       <r>    -9.3812     2.9856     1.2401 </r>
       <r>    -9.3320     3.9208     1.4329 </r>
       <r>    -9.2829     4.1832     1.6386 </r>
       <r>    -9.2337     3.6510     1.8181 </r>
       <r>    -9.1845     2.5675     1.9443 </r>
       <r>    -9.1354     1.3772     2.0121 </r>
       <r>    -9.0862     0.4565     2.0345 </r>
       <r>    -9.0370    -0.0522     2.0319 </r>
       <r>    -8.9878    -0.2193     2.0211 </r>
       <r>    -8.9387    -0.2016     2.0112 </r>
       <r>    -8.8895    -0.1311     2.0048 </r>
       <r>    -8.8403    -0.0772     2.0010 </r>
       <r>    -8.7912    -0.0629     1.9979 </r>
       <r>    -8.7420    -0.0917     1.9934 </r>
       <r>    -8.6928    -0.1560     1.9857 </r>
       <r>    -8.6436    -0.2216     1.9748 </r>
       <r>    -8.5945    -0.2009     1.9650 </r>
       <r>    -8.5453     0.0466     1.9672 </r>
       <r>    -8.4961     0.6494     1.9992 </r>
       <r>    -8.4470     1.5999     2.0778 </r>
       <r>    -8.3978     2.6696     2.2091 </r>
       <r>    -8.3486     3.4927     2.3808 </r>
       <r>    -8.2994     3.8345     2.5694 </r>
       <r>    -8.2503     3.8464     2.7585 </r>
       <r>    -8.2011     4.0258     2.9565 </r>
       <r>    -8.1519     4.8163     3.1933 </r>
       <r>    -8.1028     6.1496     3.4957 </r>
       <r>    -8.0536     7.3711     3.8581 </r>
       <r>    -8.0044     7.6931     4.2364 </r>
       <r>    -7.9552     6.8307     4.5723 </r>
       <r>    -7.9061     5.2772     4.8318 </r>
       <r>    -7.8569     3.9763     5.0273 </r>
       <r>    -7.8077     3.6657     5.2075 </r>
       <r>    -7.7586     4.3999     5.4239 </r>
       <r>    -7.7094     5.5623     5.6974 </r>
       <r>    -7.6602     6.2900     6.0067 </r>
       <r>    -7.6110     6.0080     6.3021 </r>
       <r>    -7.5619     4.7932     6.5378 </r>
       <r>    -7.5127     3.4208     6.7060 </r>
       <r>    -7.4635     3.0735     6.8571 </r>
       <r>    -7.4144     4.7971     7.0930 </r>
       <r>    -7.3652     8.9273     7.5319 </r>
       <r>    -7.3160    14.7926     8.2593 </r>
       <r>    -7.2669    20.9190     9.2879 </r>
       <r>    -7.2177    25.6770    10.5505 </r>
       <r>    -7.1685    28.0152    11.9280 </r>
       <r>    -7.1193    27.8552    13.2977 </r>
       <r>    -7.0702    25.9622    14.5743 </r>
       <r>    -7.0210    23.4465    15.7272 </r>
       <r>    -6.9718    21.2360    16.7714 </r>
       <r>    -6.9227    19.7783    17.7439 </r>
       <r>    -6.8735    19.0255    18.6794 </r>
       <r>    -6.8243    18.6175    19.5948 </r>
       <r>    -6.7751    18.1573    20.4876 </r>
       <r>    -6.7260    17.4667    21.3465 </r>
       <r>    -6.6768    16.6911    22.1672 </r>
       <r>    -6.6276    16.1710    22.9623 </r>
       <r>    -6.5785    16.1780    23.7578 </r>
       <r>    -6.5293    16.7493    24.5814 </r>
       <r>    -6.4801    17.7408    25.4537 </r>
       <r>    -6.4309    18.9647    26.3863 </r>
       <r>    -6.3818    20.2311    27.3810 </r>
       <r>    -6.3326    21.3297    28.4298 </r>
       <r>    -6.2834    22.1186    29.5174 </r>
       <r>    -6.2343    22.6916    30.6332 </r>
       <r>    -6.1851    23.3599    31.7818 </r>
       <r>    -6.1359    24.3415    32.9787 </r>
       <r>    -6.0867    25.4713    34.2312 </r>
       <r>    -6.0376    26.3423    35.5265 </r>
       <r>    -5.9884    26.8202    36.8452 </r>
       <r>    -5.9392    27.3707    38.1911 </r>
       <r>    -5.8901    28.7538    39.6049 </r>
       <r>    -5.8409    31.3082    41.1444 </r>
       <r>    -5.7917    34.5213    42.8418 </r>
       <r>    -5.7426    37.3320    44.6775 </r>
       <r>    -5.6934    38.9253    46.5915 </r>
       <r>    -5.6442    39.3314    48.5254 </r>
       <r>    -5.5950    39.3422    50.4599 </r>
       <r>    -5.5459    39.8628    52.4200 </r>
       <r>    -5.4967    41.2643    54.4490 </r>
       <r>    -5.4475    43.1888    56.5727 </r>
       <r>    -5.3984    44.7655    58.7738 </r>
       <r>    -5.3492    44.9234    60.9828 </r>
       <r>    -5.3000    42.6871    63.0817 </r>
       <r>    -5.2508    37.5956    64.9303 </r>
       <r>    -5.2017    30.1785    66.4143 </r>
       <r>    -5.1525    22.0189    67.4969 </r>
       <r>    -5.1033    15.0528    68.2371 </r>
       <r>    -5.0542    10.4729    68.7521 </r>
       <r>    -5.0050     8.1172    69.1512 </r>
       <r>    -4.9558     6.8506    69.4881 </r>
       <r>    -4.9066     5.5459    69.7608 </r>
       <r>    -4.8575     3.8002    69.9476 </r>
       <r>    -4.8083     1.9165    70.0418 </r>
       <r>    -4.7591     0.4021    70.0616 </r>
       <r>    -4.7100    -0.4565    70.0392 </r>
       <r>    -4.6608    -0.6539    70.0070 </r>
       <r>    -4.6116    -0.2944    69.9925 </r>
       <r>    -4.5624     0.5285    70.0185 </r>
       <r>    -4.5133     1.6809    70.1012 </r>
       <r>    -4.4641     2.8822    70.2429 </r>
       <r>    -4.4149     3.7392    70.4268 </r>
       <r>    -4.3658     3.9731    70.6221 </r>
       <r>    -4.3166     3.6564    70.8019 </r>
       <r>    -4.2674     3.2058    70.9596 </r>
       <r>    -4.2183     3.0737    71.1107 </r>
       <r>    -4.1691     3.3775    71.2768 </r>
       <r>    -4.1199     3.7980    71.4635 </r>
       <r>    -4.0707     3.8429    71.6525 </r>
       <r>    -4.0216     3.2503    71.8123 </r>
       <r>    -3.9724     2.1998    71.9205 </r>
       <r>    -3.9232     1.1977    71.9794 </r>
       <r>    -3.8741     0.7622    72.0168 </r>
       <r>    -3.8249     1.1325    72.0725 </r>
       <r>    -3.7757     2.1427    72.1779 </r>
       <r>    -3.7265     3.2974    72.3400 </r>
       <r>    -3.6774     4.0169    72.5375 </r>
       <r>    -3.6282     3.9401    72.7313 </r>
       <r>    -3.5790     3.1043    72.8839 </r>
       <r>    -3.5299     1.8792    72.9763 </r>
       <r>    -3.4807     0.7184    73.0116 </r>
       <r>    -3.4315    -0.0632    73.0085 </r>
       <r>    -3.3823    -0.3372    72.9919 </r>
       <r>    -3.3332    -0.0793    72.9880 </r>
       <r>    -3.2840     0.6891    73.0219 </r>
       <r>    -3.2348     1.8470    73.1127 </r>
       <r>    -3.1857     3.0898    73.2647 </r>
       <r>    -3.1365     3.9706    73.4599 </r>
       <r>    -3.0873     4.1095    73.6620 </r>
       <r>    -3.0381     3.4267    73.8305 </r>
       <r>    -2.9890     2.1954    73.9384 </r>
       <r>    -2.9398     0.8779    73.9816 </r>
       <r>    -2.8906    -0.0956    73.9769 </r>
       <r>    -2.8415    -0.4288    73.9558 </r>
       <r>    -2.7923     0.0638    73.9589 </r>
       <r>    -2.7431     1.4691    74.0312 </r>
       <r>    -2.6939     3.6891    74.2126 </r>
       <r>    -2.6448     6.3454    74.5246 </r>
       <r>    -2.5956     8.8321    74.9589 </r>
       <r>    -2.5464    10.5551    75.4779 </r>
       <r>    -2.4973    11.1937    76.0283 </r>
       <r>    -2.4481    10.7838    76.5585 </r>
       <r>    -2.3989     9.5823    77.0297 </r>
       <r>    -2.3498     7.8732    77.4168 </r>
       <r>    -2.3006     5.8856    77.7062 </r>
       <r>    -2.2514     3.8370    77.8949 </r>
       <r>    -2.2022     1.9843    77.9925 </r>
       <r>    -2.1531     0.5949    78.0217 </r>
       <r>    -2.1039    -0.1300    78.0153 </r>
       <r>    -2.0547    -0.1097    78.0099 </r>
       <r>    -2.0056     0.5942    78.0392 </r>
       <r>    -1.9564     1.7686    78.1261 </r>
       <r>    -1.9072     3.0768    78.2774 </r>
       <r>    -1.8580     4.1743    78.4827 </r>
       <r>    -1.8089     4.8671    78.7220 </r>
       <r>    -1.7597     5.1649    78.9759 </r>
       <r>    -1.7105     5.1583    79.2296 </r>
       <r>    -1.6614     4.8525    79.4682 </r>
       <r>    -1.6122     4.1643    79.6730 </r>
       <r>    -1.5630     3.1045    79.8256 </r>
       <r>    -1.5138     1.9427    79.9211 </r>
       <r>    -1.4647     1.1583    79.9781 </r>
       <r>    -1.4155     1.1906    80.0366 </r>
       <r>    -1.3663     2.1727    80.1435 </r>
       <r>    -1.3172     3.8211    80.3313 </r>
       <r>    -1.2680     5.5416    80.6038 </r>
       <r>    -1.2188     6.6979    80.9332 </r>
       <r>    -1.1696     6.9185    81.2734 </r>
       <r>    -1.1205     6.2800    81.5822 </r>
       <r>    -1.0713     5.2417    81.8399 </r>
       <r>    -1.0221     4.3438    82.0535 </r>
       <r>    -0.9730     3.8670    82.2436 </r>
       <r>    -0.9238     3.7263    82.4269 </r>
       <r>    -0.8746     3.6996    82.6088 </r>
       <r>    -0.8255     3.7663    82.7940 </r>
       <r>    -0.7763     4.1854    82.9998 </r>
       <r>    -0.7271     5.1867    83.2548 </r>
       <r>    -0.6779     6.5682    83.5778 </r>
       <r>    -0.6288     7.6426    83.9536 </r>
       <r>    -0.5796     7.6581    84.3301 </r>
       <r>    -0.5304     6.3555    84.6426 </r>
       <r>    -0.4813     4.1979    84.8490 </r>
       <r>    -0.4321     2.1163    84.9531 </r>
       <r>    -0.3829     1.0127    85.0029 </r>
       <r>    -0.3337     1.3635    85.0699 </r>
       <r>    -0.2846     3.0805    85.2214 </r>
       <r>    -0.2354     5.6039    85.4970 </r>
       <r>    -0.1862     8.1421    85.8973 </r>
       <r>    -0.1371     9.9747    86.3878 </r>
       <r>    -0.0879    10.6994    86.9139 </r>
       <r>    -0.0387    10.3196    87.4213 </r>
       <r>     0.0105     9.1820    87.8728 </r>
       <r>     0.0596     7.8658    88.2596 </r>
       <r>     0.1088     7.0614    88.6068 </r>
       <r>     0.1580     7.3477    88.9681 </r>
       <r>     0.2071     8.8284    89.4022 </r>
       <r>     0.2563    10.8620    89.9363 </r>
       <r>     0.3055    12.2512    90.5387 </r>
       <r>     0.3547    11.9383    91.1257 </r>
       <r>     0.4038     9.7188    91.6036 </r>
       <r>     0.4530     6.3692    91.9168 </r>
       <r>     0.5022     3.0899    92.0687 </r>
       <r>     0.5513     0.7664    92.1064 </r>
       <r>     0.6005    -0.3866    92.0874 </r>
       <r>     0.6497    -0.6725    92.0543 </r>
       <r>     0.6988    -0.5410    92.0277 </r>
       <r>     0.7480    -0.3199    92.0120 </r>
       <r>     0.7972    -0.1530    92.0045 </r>
       <r>     0.8464    -0.0614    92.0014 </r>
       <r>     0.8955    -0.0210    92.0004 </r>
       <r>     0.9447    -0.0062    92.0001 </r>
       <r>     0.9939    -0.0016    92.0000 </r>
       <r>     1.0430    -0.0004    92.0000 </r>
       <r>     1.0922    -0.0001    92.0000 </r>
       <r>     1.1414    -0.0000    92.0000 </r>
       <r>     1.1906    -0.0000    92.0000 </r>
       <r>     1.2397    -0.0000    92.0000 </r>
       <r>     1.2889    -0.0000    92.0000 </r>
       <r>     1.3381    -0.0000    92.0000 </r>
       <r>     1.3872    -0.0000    92.0000 </r>
       <r>     1.4364    -0.0000    92.0000 </r>
       <r>     1.4856    -0.0000    92.0000 </r>
       <r>     1.5348    -0.0000    92.0000 </r>
       <r>     1.5839    -0.0000    92.0000 </r>
       <r>     1.6331     0.0000    92.0000 </r>
       <r>     1.6823     0.0000    92.0000 </r>
       <r>     1.7314     0.0000    92.0000 </r>
       <r>     1.7806     0.0000    92.0000 </r>
       <r>     1.8298     0.0000    92.0000 </r>
       <r>     1.8790     0.0000    92.0000 </r>
       <r>     1.9281     0.0000    92.0000 </r>
       <r>     1.9773     0.0000    92.0000 </r>
       <r>     2.0265     0.0000    92.0000 </r>
       <r>     2.0756     0.0000    92.0000 </r>
       <r>     2.1248     0.0000    92.0000 </r>
       <r>     2.1740     0.0000    92.0000 </r>
       <r>     2.2232     0.0000    92.0000 </r>
       <r>     2.2723     0.0000    92.0000 </r>
       <r>     2.3215     0.0000    92.0000 </r>
      </set>
     </set>
    </array>
   </total>
  </dos>
 </calculation>
 <structure name="finalpos" >
  <crystal>
   <varray name="basis" >
    <v>      23.01178090       0.00000000       0.00000000 </v>
    <v>       0.00000000      25.08203890       0.00000000 </v>
    <v>       0.00000000       0.00000000      26.96218597 </v>
   </varray>
   <i name="volume">  15562.09876705 </i>
   <varray name="rec_basis" >
    <v>       0.04345600       0.00000000       0.00000000 </v>
    <v>       0.00000000       0.03986917       0.00000000 </v>
    <v>       0.00000000       0.00000000       0.03708898 </v>
   </varray>
  </crystal>
  <varray name="positions" >
   <v>       0.56959776       0.55579581       0.52961877 </v>
   <v>       0.54325438       0.52645822       0.44694602 </v>
   <v>       0.51497622       0.49560926       0.36490942 </v>
   <v>       0.44217350       0.51288760       0.42918526 </v>
   <v>       0.46839126       0.52968248       0.51510242 </v>
   <v>       0.56387267       0.45945856       0.51427704 </v>
   <v>       0.48611373       0.45953874       0.57634574 </v>
   <v>       0.59707332       0.58664940       0.60906628 </v>
   <v>       0.54995920       0.43317853       0.42809530 </v>
   <v>       0.46601712       0.43778245       0.48626393 </v>
   <v>       0.49942358       0.55227186       0.59873536 </v>
   <v>       0.58222009       0.49163574       0.59805011 </v>
   <v>       0.45260150       0.42418226       0.39928196 </v>
  </varray>
 </structure>
</modeling>
