unknown system                          
            1
    23.011781    0.000000    0.000000
     0.000000   25.082039    0.000000
     0.000000    0.000000   26.962186
   Cu
    13
Direct configuration=     1
   0.56961623  0.55583078  0.52969099
   0.54321230  0.52644786  0.44685879
   0.51499895  0.49560792  0.36491712
   0.44215010  0.51291482  0.42914016
   0.46842732  0.52969149  0.51505576
   0.56386451  0.45947669  0.51431447
   0.48607656  0.45948339  0.57638723
   0.59699218  0.58661551  0.60906823
   0.54999692  0.43317858  0.42806886
   0.46603483  0.43780209  0.48622771
   0.49947261  0.55231928  0.59876591
   0.58227575  0.49162719  0.59803964
   0.45255609  0.42413531  0.39934276
Direct configuration=     2
   0.56960503  0.55580958  0.52964721
   0.54323781  0.52645414  0.44691168
   0.51498517  0.49560873  0.36491245
   0.44216429  0.51289832  0.42916750
   0.46840546  0.52968603  0.51508405
   0.56386946  0.45946570  0.51429178
   0.48609909  0.45951695  0.57636208
   0.59704137  0.58663605  0.60906705
   0.54997405  0.43317855  0.42808489
   0.46602409  0.43779018  0.48624967
   0.49944288  0.55229053  0.59874739
   0.58224201  0.49163238  0.59804599
   0.45258362  0.42416377  0.39930590
Direct configuration=     3
   0.56959776  0.55579581  0.52961877
   0.54325438  0.52645822  0.44694602
   0.51497622  0.49560926  0.36490942
   0.44217350  0.51288760  0.42918526
   0.46839126  0.52968248  0.51510242
   0.56387267  0.45945856  0.51427704
   0.48611373  0.45953874  0.57634574
   0.59707332  0.58664940  0.60906628
   0.54995920  0.43317853  0.42809530
   0.46601712  0.43778245  0.48626393
   0.49942358  0.55227186  0.59873536
   0.58222009  0.49163574  0.59805011
   0.45260150  0.42418226  0.39928196
