  10  10   0   0
  0.1133272E+04  0.2270190E-08  0.2209967E-08  0.2258845E-08  0.5000000E-15
   1.0000000000000000E-004
  CAR 
 unknown system                          
      1.90562325    -11.88981676  301     -4.13344399      1.00000000
    -11.890  0.0000E+00  0.0000E+00  0.0000E+00  0.0000E+00
    -11.844  0.0000E+00  0.0000E+00  0.0000E+00  0.0000E+00
    -11.798  0.0000E+00  0.0000E+00  0.0000E+00  0.0000E+00
    -11.752  0.0000E+00  0.0000E+00  0.0000E+00  0.0000E+00
    -11.706  0.0000E+00  0.0000E+00  0.0000E+00  0.0000E+00
    -11.660  0.0000E+00  0.0000E+00  0.0000E+00  0.0000E+00
    -11.614  0.0000E+00  0.0000E+00  0.0000E+00  0.0000E+00
    -11.568  0.0000E+00  0.0000E+00  0.0000E+00  0.0000E+00
    -11.522 -0.5990E-30  0.0000E+00 -0.2755E-31  0.0000E+00
    -11.476 -0.2294E-28  0.0000E+00 -0.1083E-29  0.0000E+00
    -11.430 -0.8081E-27 -0.9801E-30 -0.3824E-28 -0.4507E-31
    -11.384 -0.2557E-25 -0.3700E-28 -0.1214E-26 -0.1746E-29
    -11.338 -0.7272E-24 -0.1285E-26 -0.3466E-25 -0.6083E-28
    -11.292 -0.1858E-22 -0.4009E-25 -0.8890E-24 -0.1904E-26
    -11.246 -0.4263E-21 -0.1124E-23 -0.2049E-22 -0.5359E-25
    -11.200 -0.8786E-20 -0.2831E-22 -0.4245E-21 -0.1355E-23
    -11.154 -0.1626E-18 -0.6404E-21 -0.7902E-20 -0.3081E-22
    -11.108 -0.2702E-17 -0.1301E-19 -0.1322E-18 -0.6292E-21
    -11.062 -0.3910E-16 -0.2374E-18 -0.1930E-17 -0.1155E-19
    -11.016 -0.5228E-15 -0.3889E-17 -0.2597E-16 -0.1904E-18
    -10.970 -0.6263E-14 -0.5599E-16 -0.3140E-15 -0.2765E-17
    -10.924 -0.6726E-13 -0.7307E-15 -0.3407E-14 -0.3636E-16
    -10.878 -0.6476E-12 -0.8631E-14 -0.3319E-13 -0.4333E-15
    -10.832 -0.5585E-11 -0.9137E-13 -0.2900E-12 -0.4635E-14
    -10.786 -0.4313E-10 -0.8669E-12 -0.2273E-11 -0.4450E-13
    -10.740 -0.2980E-09 -0.7368E-11 -0.1598E-10 -0.3833E-12
    -10.694 -0.1841E-08 -0.5607E-10 -0.1006E-09 -0.2962E-11
    -10.648 -0.1015E-07 -0.3817E-09 -0.5675E-09 -0.2051E-10
    -10.602 -0.4996E-07 -0.2323E-08 -0.2865E-08 -0.1273E-09
    -10.556 -0.2189E-06 -0.1262E-07 -0.1293E-07 -0.7078E-09
    -10.510 -0.8522E-06 -0.6117E-07 -0.5212E-07 -0.3521E-08
    -10.464 -0.2939E-05 -0.2639E-06 -0.1873E-06 -0.1565E-07
    -10.418 -0.8945E-05 -0.1011E-05 -0.5986E-06 -0.6215E-07
    -10.372 -0.2388E-04 -0.3431E-05 -0.1697E-05 -0.2199E-06
    -10.326 -0.5536E-04 -0.1027E-04 -0.4242E-05 -0.6920E-06
    -10.280 -0.1097E-03 -0.2691E-04 -0.9288E-05 -0.1930E-05
    -10.234 -0.1801E-03 -0.6119E-04 -0.1757E-04 -0.4743E-05
    -10.188 -0.2262E-03 -0.1186E-03 -0.2797E-04 -0.1020E-04
    -10.142 -0.1582E-03 -0.1890E-03 -0.3525E-04 -0.1889E-04
    -10.096  0.1528E-03 -0.2263E-03 -0.2822E-04 -0.2929E-04
    -10.050  0.8133E-03 -0.1339E-03  0.9179E-05 -0.3545E-04
    -10.004  0.1810E-02  0.2188E-03  0.9241E-04 -0.2539E-04
     -9.958  0.2941E-02  0.9283E-03  0.2277E-03  0.1730E-04
     -9.912  0.3853E-02  0.1959E-02  0.4048E-03  0.1074E-03
     -9.866  0.4201E-02  0.3083E-02  0.5980E-03  0.2491E-03
     -9.821  0.3843E-02  0.3937E-02  0.7747E-03  0.4302E-03
     -9.775  0.2925E-02  0.4193E-02  0.9092E-03  0.6230E-03
     -9.729  0.1794E-02  0.3747E-02  0.9917E-03  0.7953E-03
     -9.683  0.8008E-03  0.2779E-02  0.1029E-02  0.9231E-03
     -9.637  0.1458E-03  0.1648E-02  0.1035E-02  0.9989E-03
     -9.591 -0.1606E-03  0.6927E-03  0.1028E-02  0.1031E-02
     -9.545 -0.2261E-03  0.8681E-04  0.1017E-02  0.1035E-02
     -9.499 -0.1790E-03 -0.1802E-03  0.1009E-02  0.1026E-02
     -9.453 -0.1088E-03 -0.2239E-03  0.1004E-02  0.1016E-02
     -9.407 -0.5474E-04 -0.1697E-03  0.1002E-02  0.1008E-02
     -9.361 -0.2356E-04 -0.1003E-03  0.1001E-02  0.1004E-02
     -9.315 -0.8808E-05 -0.4937E-04  0.1000E-02  0.1001E-02
     -9.269 -0.2889E-05 -0.2084E-04  0.1000E-02  0.1001E-02
     -9.223 -0.8362E-06 -0.7655E-05  0.1000E-02  0.1000E-02
     -9.177 -0.2151E-06 -0.2469E-05  0.1000E-02  0.1000E-02
     -9.131 -0.5338E-07 -0.7029E-06  0.1000E-02  0.1000E-02
     -9.085 -0.3400E-07 -0.1774E-06  0.1000E-02  0.1000E-02
     -9.039 -0.1160E-06 -0.3980E-07  0.1000E-02  0.1000E-02
     -8.993 -0.4833E-06 -0.7967E-08  0.1000E-02  0.1000E-02
     -8.947 -0.1818E-05 -0.1521E-08  0.9999E-03  0.1000E-02
     -8.901 -0.6077E-05 -0.9039E-09  0.9996E-03  0.1000E-02
     -8.855 -0.1796E-04 -0.4023E-08  0.9988E-03  0.1000E-02
     -8.809 -0.4668E-04 -0.2098E-07  0.9966E-03  0.1000E-02
     -8.763 -0.1057E-03 -0.9835E-07  0.9918E-03  0.1000E-02
     -8.717 -0.2052E-03 -0.4107E-06  0.9823E-03  0.1000E-02
     -8.671 -0.3311E-03 -0.1524E-05  0.9671E-03  0.9999E-03
     -8.625 -0.4108E-03 -0.5015E-05  0.9482E-03  0.9997E-03
     -8.579 -0.2868E-03 -0.1457E-04  0.9350E-03  0.9990E-03
     -8.533  0.2635E-03 -0.3718E-04  0.9472E-03  0.9973E-03
     -8.487  0.1424E-02 -0.8261E-04  0.1013E-02  0.9935E-03
     -8.441  0.3179E-02 -0.1574E-03  0.1159E-02  0.9863E-03
     -8.395  0.5194E-02 -0.2495E-03  0.1398E-02  0.9748E-03
     -8.349  0.6884E-02 -0.3054E-03  0.1714E-02  0.9607E-03
     -8.303  0.7696E-02 -0.2137E-03  0.2068E-02  0.9509E-03
     -8.257  0.7455E-02  0.1810E-03  0.2411E-02  0.9592E-03
     -8.211  0.6523E-02  0.1016E-02  0.2711E-02  0.1006E-02
     -8.165  0.5617E-02  0.2318E-02  0.2969E-02  0.1113E-02
     -8.119  0.5384E-02  0.3928E-02  0.3217E-02  0.1293E-02
     -8.073  0.6033E-02  0.5506E-02  0.3494E-02  0.1546E-02
     -8.027  0.7251E-02  0.6637E-02  0.3828E-02  0.1852E-02
     -7.981  0.8432E-02  0.6980E-02  0.4215E-02  0.2173E-02
     -7.935  0.9017E-02  0.6408E-02  0.4630E-02  0.2467E-02
     -7.889  0.8755E-02  0.5068E-02  0.5033E-02  0.2700E-02
     -7.843  0.7769E-02  0.3356E-02  0.5390E-02  0.2855E-02
     -7.797  0.6458E-02  0.1802E-02  0.5687E-02  0.2938E-02
     -7.751  0.5311E-02  0.9173E-03  0.5931E-02  0.2980E-02
     -7.705  0.4721E-02  0.1042E-02  0.6148E-02  0.3028E-02
     -7.659  0.4877E-02  0.2237E-02  0.6372E-02  0.3131E-02
     -7.613  0.5780E-02  0.4249E-02  0.6638E-02  0.3326E-02
     -7.567  0.7320E-02  0.6564E-02  0.6975E-02  0.3628E-02
     -7.521  0.9322E-02  0.8558E-02  0.7403E-02  0.4021E-02
     -7.475  0.1151E-01  0.9691E-02  0.7933E-02  0.4467E-02
     -7.429  0.1349E-01  0.9678E-02  0.8553E-02  0.4912E-02
     -7.383  0.1478E-01  0.8590E-02  0.9232E-02  0.5307E-02
     -7.337  0.1504E-01  0.6834E-02  0.9924E-02  0.5621E-02
     -7.291  0.1428E-01  0.5004E-02  0.1058E-01  0.5851E-02
     -7.245  0.1286E-01  0.3651E-02  0.1117E-01  0.6019E-02
     -7.199  0.1141E-01  0.3069E-02  0.1170E-01  0.6160E-02
     -7.153  0.1044E-01  0.3208E-02  0.1218E-01  0.6308E-02
     -7.107  0.1015E-01  0.3802E-02  0.1264E-01  0.6483E-02
     -7.061  0.1033E-01  0.4611E-02  0.1312E-01  0.6695E-02
     -7.015  0.1064E-01  0.5595E-02  0.1361E-01  0.6952E-02
     -6.969  0.1079E-01  0.6880E-02  0.1410E-01  0.7268E-02
     -6.923  0.1074E-01  0.8554E-02  0.1460E-01  0.7662E-02
     -6.877  0.1057E-01  0.1046E-01  0.1508E-01  0.8143E-02
     -6.831  0.1041E-01  0.1220E-01  0.1556E-01  0.8704E-02
     -6.786  0.1042E-01  0.1327E-01  0.1604E-01  0.9314E-02
     -6.740  0.1075E-01  0.1343E-01  0.1654E-01  0.9932E-02
     -6.694  0.1155E-01  0.1276E-01  0.1707E-01  0.1052E-01
     -6.648  0.1279E-01  0.1167E-01  0.1766E-01  0.1106E-01
     -6.602  0.1423E-01  0.1061E-01  0.1831E-01  0.1154E-01
     -6.556  0.1539E-01  0.9891E-02  0.1902E-01  0.1200E-01
     -6.510  0.1589E-01  0.9608E-02  0.1975E-01  0.1244E-01
     -6.464  0.1555E-01  0.9749E-02  0.2046E-01  0.1289E-01
     -6.418  0.1456E-01  0.1026E-01  0.2113E-01  0.1336E-01
     -6.372  0.1326E-01  0.1106E-01  0.2174E-01  0.1387E-01
     -6.326  0.1201E-01  0.1207E-01  0.2230E-01  0.1442E-01
     -6.280  0.1100E-01  0.1316E-01  0.2280E-01  0.1503E-01
     -6.234  0.1027E-01  0.1420E-01  0.2327E-01  0.1568E-01
     -6.188  0.9756E-02  0.1503E-01  0.2372E-01  0.1637E-01
     -6.142  0.9392E-02  0.1542E-01  0.2415E-01  0.1708E-01
     -6.096  0.9120E-02  0.1512E-01  0.2457E-01  0.1778E-01
     -6.050  0.8917E-02  0.1398E-01  0.2498E-01  0.1842E-01
     -6.004  0.8791E-02  0.1206E-01  0.2539E-01  0.1897E-01
     -5.958  0.8782E-02  0.9793E-02  0.2579E-01  0.1943E-01
     -5.912  0.8934E-02  0.7889E-02  0.2620E-01  0.1979E-01
     -5.866  0.9258E-02  0.7029E-02  0.2663E-01  0.2011E-01
     -5.820  0.9720E-02  0.7499E-02  0.2707E-01  0.2046E-01
     -5.774  0.1030E-01  0.9005E-02  0.2755E-01  0.2087E-01
     -5.728  0.1106E-01  0.1081E-01  0.2806E-01  0.2137E-01
     -5.682  0.1217E-01  0.1215E-01  0.2862E-01  0.2193E-01
     -5.636  0.1378E-01  0.1257E-01  0.2925E-01  0.2250E-01
     -5.590  0.1592E-01  0.1207E-01  0.2998E-01  0.2306E-01
     -5.544  0.1841E-01  0.1102E-01  0.3083E-01  0.2357E-01
     -5.498  0.2095E-01  0.9880E-02  0.3179E-01  0.2402E-01
     -5.452  0.2329E-01  0.9101E-02  0.3286E-01  0.2444E-01
     -5.406  0.2527E-01  0.8991E-02  0.3403E-01  0.2485E-01
     -5.360  0.2675E-01  0.9675E-02  0.3526E-01  0.2530E-01
     -5.314  0.2757E-01  0.1104E-01  0.3652E-01  0.2580E-01
     -5.268  0.2765E-01  0.1273E-01  0.3779E-01  0.2639E-01
     -5.222  0.2715E-01  0.1424E-01  0.3904E-01  0.2705E-01
     -5.176  0.2655E-01  0.1511E-01  0.4026E-01  0.2774E-01
     -5.130  0.2629E-01  0.1519E-01  0.4147E-01  0.2844E-01
     -5.084  0.2649E-01  0.1470E-01  0.4269E-01  0.2911E-01
     -5.038  0.2677E-01  0.1411E-01  0.4392E-01  0.2976E-01
     -4.992  0.2665E-01  0.1386E-01  0.4515E-01  0.3040E-01
     -4.946  0.2594E-01  0.1410E-01  0.4634E-01  0.3105E-01
     -4.900  0.2489E-01  0.1470E-01  0.4749E-01  0.3173E-01
     -4.854  0.2383E-01  0.1542E-01  0.4858E-01  0.3243E-01
     -4.808  0.2277E-01  0.1617E-01  0.4963E-01  0.3318E-01
     -4.762  0.2127E-01  0.1697E-01  0.5061E-01  0.3396E-01
     -4.716  0.1879E-01  0.1780E-01  0.5147E-01  0.3478E-01
     -4.670  0.1513E-01  0.1845E-01  0.5217E-01  0.3563E-01
     -4.624  0.1069E-01  0.1861E-01  0.5266E-01  0.3648E-01
     -4.578  0.6293E-02  0.1818E-01  0.5295E-01  0.3732E-01
     -4.532  0.2806E-02  0.1741E-01  0.5308E-01  0.3812E-01
     -4.486  0.7735E-03  0.1674E-01  0.5311E-01  0.3889E-01
     -4.440  0.2683E-03  0.1658E-01  0.5312E-01  0.3965E-01
     -4.394  0.9433E-03  0.1710E-01  0.5317E-01  0.4044E-01
     -4.348  0.2194E-02  0.1824E-01  0.5327E-01  0.4127E-01
     -4.302  0.3361E-02  0.1977E-01  0.5342E-01  0.4218E-01
     -4.256  0.3937E-02  0.2141E-01  0.5360E-01  0.4317E-01
     -4.210  0.3732E-02  0.2279E-01  0.5378E-01  0.4422E-01
     -4.164  0.2895E-02  0.2357E-01  0.5391E-01  0.4530E-01
     -4.118  0.1797E-02  0.2353E-01  0.5399E-01  0.4638E-01
     -4.072  0.8114E-03  0.2272E-01  0.5403E-01  0.4743E-01
     -4.026  0.1534E-03  0.2149E-01  0.5404E-01  0.4842E-01
     -3.980 -0.1578E-03  0.2030E-01  0.5403E-01  0.4935E-01
     -3.934 -0.2264E-03  0.1939E-01  0.5402E-01  0.5024E-01
     -3.888 -0.1804E-03  0.1861E-01  0.5401E-01  0.5110E-01
     -3.842 -0.1101E-03  0.1751E-01  0.5400E-01  0.5190E-01
     -3.796 -0.5581E-04  0.1563E-01  0.5400E-01  0.5262E-01
     -3.751 -0.2494E-04  0.1284E-01  0.5400E-01  0.5321E-01
     -3.705 -0.1245E-04  0.9434E-02  0.5400E-01  0.5364E-01
     -3.659 -0.1405E-04  0.5970E-02  0.5400E-01  0.5392E-01
     -3.613 -0.3211E-04  0.3033E-02  0.5400E-01  0.5406E-01
     -3.567 -0.7718E-04  0.9745E-03  0.5399E-01  0.5410E-01
     -3.521 -0.1635E-03 -0.1662E-03  0.5399E-01  0.5410E-01
     -3.475 -0.2926E-03 -0.5926E-03  0.5397E-01  0.5407E-01
     -3.429 -0.4198E-03 -0.6015E-03  0.5395E-01  0.5404E-01
     -3.383 -0.4138E-03 -0.4530E-03  0.5393E-01  0.5402E-01
     -3.337 -0.4787E-04 -0.3121E-03  0.5393E-01  0.5401E-01
     -3.291  0.9277E-03 -0.2533E-03  0.5398E-01  0.5399E-01
     -3.245  0.2617E-02 -0.2874E-03  0.5410E-01  0.5398E-01
     -3.199  0.4797E-02 -0.3728E-03  0.5432E-01  0.5396E-01
     -3.153  0.6876E-02 -0.4015E-03  0.5463E-01  0.5395E-01
     -3.107  0.8113E-02 -0.1865E-03  0.5501E-01  0.5394E-01
     -3.061  0.8000E-02  0.5032E-03  0.5537E-01  0.5396E-01
     -3.015  0.6581E-02  0.1826E-02  0.5568E-01  0.5404E-01
     -2.969  0.4457E-02  0.3709E-02  0.5588E-01  0.5421E-01
     -2.923  0.2480E-02  0.5752E-02  0.5600E-01  0.5448E-01
     -2.877  0.1334E-02  0.7326E-02  0.5606E-01  0.5482E-01
     -2.831  0.1253E-02  0.7853E-02  0.5611E-01  0.5518E-01
     -2.785  0.1981E-02  0.7144E-02  0.5621E-01  0.5551E-01
     -2.739  0.2959E-02  0.5539E-02  0.5634E-01  0.5576E-01
     -2.693  0.3618E-02  0.3759E-02  0.5651E-01  0.5593E-01
     -2.647  0.3665E-02  0.2531E-02  0.5668E-01  0.5605E-01
     -2.601  0.3209E-02  0.2218E-02  0.5682E-01  0.5615E-01
     -2.555  0.2667E-02  0.2673E-02  0.5695E-01  0.5627E-01
     -2.509  0.2490E-02  0.3369E-02  0.5706E-01  0.5643E-01
     -2.463  0.2888E-02  0.3729E-02  0.5719E-01  0.5660E-01
     -2.417  0.3747E-02  0.3438E-02  0.5737E-01  0.5676E-01
     -2.371  0.4743E-02  0.2591E-02  0.5758E-01  0.5688E-01
     -2.325  0.5540E-02  0.1600E-02  0.5784E-01  0.5695E-01
     -2.279  0.5920E-02  0.9518E-03  0.5811E-01  0.5700E-01
     -2.233  0.5790E-02  0.9627E-03  0.5838E-01  0.5704E-01
     -2.187  0.5152E-02  0.1651E-02  0.5861E-01  0.5712E-01
     -2.141  0.4091E-02  0.2767E-02  0.5880E-01  0.5724E-01
     -2.095  0.2791E-02  0.3944E-02  0.5893E-01  0.5742E-01
     -2.049  0.1503E-02  0.4883E-02  0.5900E-01  0.5765E-01
     -2.003  0.4619E-03  0.5443E-02  0.5902E-01  0.5790E-01
     -1.957 -0.1847E-03  0.5614E-02  0.5901E-01  0.5816E-01
     -1.911 -0.3793E-03  0.5412E-02  0.5900E-01  0.5841E-01
     -1.865 -0.1099E-03  0.4827E-02  0.5899E-01  0.5863E-01
     -1.819  0.6068E-03  0.3876E-02  0.5902E-01  0.5881E-01
     -1.773  0.1677E-02  0.2678E-02  0.5910E-01  0.5893E-01
     -1.727  0.2866E-02  0.1454E-02  0.5923E-01  0.5900E-01
     -1.681  0.3817E-02  0.4471E-03  0.5940E-01  0.5902E-01
     -1.635  0.4191E-02 -0.1735E-03  0.5960E-01  0.5901E-01
     -1.589  0.3850E-02 -0.3272E-03  0.5977E-01  0.5899E-01
     -1.543  0.2941E-02  0.7067E-05  0.5991E-01  0.5899E-01
     -1.497  0.1807E-02  0.7991E-03  0.5999E-01  0.5903E-01
     -1.451  0.8018E-03  0.1919E-02  0.6003E-01  0.5912E-01
     -1.405  0.1190E-03  0.3093E-02  0.6003E-01  0.5926E-01
     -1.359 -0.2411E-03  0.3946E-02  0.6002E-01  0.5944E-01
     -1.313 -0.3992E-03  0.4166E-02  0.6000E-01  0.5963E-01
     -1.267 -0.4842E-03  0.3665E-02  0.5998E-01  0.5980E-01
     -1.221 -0.5400E-03  0.2633E-02  0.5996E-01  0.5992E-01
     -1.175 -0.4794E-03  0.1421E-02  0.5993E-01  0.5999E-01
     -1.129 -0.9784E-04  0.3554E-03  0.5993E-01  0.6001E-01
     -1.083  0.8354E-03 -0.3657E-03  0.5997E-01  0.5999E-01
     -1.037  0.2421E-02 -0.6488E-03  0.6008E-01  0.5996E-01
     -0.991  0.4493E-02 -0.4068E-03  0.6029E-01  0.5994E-01
     -0.945  0.6627E-02  0.4803E-03  0.6059E-01  0.5996E-01
     -0.899  0.8342E-02  0.2079E-02  0.6097E-01  0.6006E-01
     -0.853  0.9369E-02  0.4252E-02  0.6141E-01  0.6025E-01
     -0.807  0.9764E-02  0.6592E-02  0.6185E-01  0.6056E-01
     -0.761  0.9749E-02  0.8549E-02  0.6230E-01  0.6095E-01
     -0.716  0.9442E-02  0.9697E-02  0.6274E-01  0.6140E-01
     -0.670  0.8735E-02  0.9945E-02  0.6314E-01  0.6185E-01
     -0.624  0.7459E-02  0.9523E-02  0.6348E-01  0.6229E-01
     -0.578  0.5665E-02  0.8760E-02  0.6374E-01  0.6269E-01
     -0.532  0.3741E-02  0.7856E-02  0.6391E-01  0.6305E-01
     -0.486  0.2255E-02  0.6804E-02  0.6402E-01  0.6337E-01
     -0.440  0.1641E-02  0.5524E-02  0.6409E-01  0.6362E-01
     -0.394  0.1945E-02  0.4046E-02  0.6418E-01  0.6381E-01
     -0.348  0.2798E-02  0.2608E-02  0.6431E-01  0.6393E-01
     -0.302  0.3618E-02  0.1577E-02  0.6448E-01  0.6400E-01
     -0.256  0.3911E-02  0.1258E-02  0.6466E-01  0.6406E-01
     -0.210  0.3505E-02  0.1701E-02  0.6482E-01  0.6414E-01
     -0.164  0.2574E-02  0.2631E-02  0.6494E-01  0.6426E-01
     -0.118  0.1489E-02  0.3555E-02  0.6501E-01  0.6442E-01
     -0.072  0.5895E-03  0.3998E-02  0.6503E-01  0.6460E-01
     -0.026  0.3511E-04  0.3737E-02  0.6503E-01  0.6478E-01
      0.020 -0.1955E-03  0.2885E-02  0.6503E-01  0.6491E-01
      0.066 -0.2206E-03  0.1786E-02  0.6502E-01  0.6499E-01
      0.112 -0.1612E-03  0.8046E-03  0.6501E-01  0.6503E-01
      0.158 -0.9291E-04  0.1500E-03  0.6500E-01  0.6504E-01
      0.204 -0.4485E-04 -0.1590E-03  0.6500E-01  0.6503E-01
      0.250 -0.1860E-04 -0.2264E-03  0.6500E-01  0.6502E-01
      0.296 -0.6724E-05 -0.1801E-03  0.6500E-01  0.6501E-01
      0.342 -0.2136E-05 -0.1097E-03  0.6500E-01  0.6500E-01
      0.388 -0.5992E-06 -0.5536E-04  0.6500E-01  0.6500E-01
      0.434 -0.1491E-06 -0.2388E-04  0.6500E-01  0.6500E-01
      0.480 -0.3298E-07 -0.8945E-05  0.6500E-01  0.6500E-01
      0.526 -0.6500E-08 -0.2939E-05  0.6500E-01  0.6500E-01
      0.572 -0.1143E-08 -0.8522E-06  0.6500E-01  0.6500E-01
      0.618 -0.1796E-09 -0.2189E-06  0.6500E-01  0.6500E-01
      0.664 -0.2522E-10 -0.4996E-07  0.6500E-01  0.6500E-01
      0.710 -0.3171E-11 -0.1015E-07  0.6500E-01  0.6500E-01
      0.756 -0.3570E-12 -0.1841E-08  0.6500E-01  0.6500E-01
      0.802 -0.3601E-13 -0.2980E-09  0.6500E-01  0.6500E-01
      0.848 -0.3255E-14 -0.4313E-10  0.6500E-01  0.6500E-01
      0.894 -0.2656E-15 -0.5585E-11  0.6500E-01  0.6500E-01
      0.940 -0.1931E-16 -0.6476E-12  0.6500E-01  0.6500E-01
      0.986  0.0000E+00 -0.6726E-13  0.6500E-01  0.6500E-01
      1.032  0.0000E+00 -0.6263E-14  0.6500E-01  0.6500E-01
      1.078  0.0000E+00 -0.5215E-15  0.6500E-01  0.6500E-01
      1.124  0.0000E+00 -0.3863E-16  0.6500E-01  0.6500E-01
      1.170  0.0000E+00 -0.4829E-17  0.6500E-01  0.6500E-01
      1.216  0.0000E+00  0.0000E+00  0.6500E-01  0.6500E-01
      1.262  0.0000E+00  0.0000E+00  0.6500E-01  0.6500E-01
      1.308  0.0000E+00  0.0000E+00  0.6500E-01  0.6500E-01
      1.354  0.0000E+00  0.0000E+00  0.6500E-01  0.6500E-01
      1.400  0.0000E+00  0.0000E+00  0.6500E-01  0.6500E-01
      1.446  0.0000E+00  0.0000E+00  0.6500E-01  0.6500E-01
      1.492  0.0000E+00  0.0000E+00  0.6500E-01  0.6500E-01
      1.538  0.0000E+00  0.0000E+00  0.6500E-01  0.6500E-01
      1.584  0.0000E+00  0.0000E+00  0.6500E-01  0.6500E-01
      1.630  0.0000E+00  0.0000E+00  0.6500E-01  0.6500E-01
      1.676  0.0000E+00  0.0000E+00  0.6500E-01  0.6500E-01
      1.722  0.0000E+00  0.0000E+00  0.6500E-01  0.6500E-01
      1.768  0.0000E+00  0.0000E+00  0.6500E-01  0.6500E-01
      1.814  0.0000E+00  0.0000E+00  0.6500E-01  0.6500E-01
      1.860  0.0000E+00  0.0000E+00  0.6500E-01  0.6500E-01
      1.906  0.0000E+00  0.0000E+00  0.6500E-01  0.6500E-01
