   10   10 1000    2
  0.1133272E+04  0.2270190E-08  0.2209967E-08  0.2258845E-08  0.5000000E-15
   1.0000000000000000E-004
  CAR 
 unknown system                          
    100      1     65
 
  0.1262379E-14  0.1262379E-14  0.1262379E-14  0.1000000E+01
    1       -9.889817     -9.803938   1.000000   1.000000
    2       -8.347684     -8.070744   1.000000   1.000000
    3       -8.288467     -7.942329   1.000000   1.000000
    4       -8.045926     -7.562227   1.000000   1.000000
    5       -7.954044     -7.476731   1.000000   1.000000
    6       -7.846459     -7.378817   1.000000   1.000000
    7       -7.635116     -7.108597   1.000000   1.000000
    8       -7.496714     -6.931911   1.000000   1.000000
    9       -7.413354     -6.817198   1.000000   1.000000
   10       -7.377398     -6.788330   1.000000   1.000000
   11       -7.307667     -6.720982   1.000000   1.000000
   12       -7.240984     -6.593967   1.000000   1.000000
   13       -7.083706     -6.516055   1.000000   1.000000
   14       -7.047472     -6.383427   1.000000   1.000000
   15       -6.932966     -6.334701   1.000000   1.000000
   16       -6.832163     -6.213982   1.000000   1.000000
   17       -6.760461     -6.202255   1.000000   1.000000
   18       -6.626889     -6.098896   1.000000   1.000000
   19       -6.588503     -6.054438   1.000000   1.000000
   20       -6.529199     -5.982659   1.000000   1.000000
   21       -6.472515     -5.765835   1.000000   1.000000
   22       -6.398152     -5.727129   1.000000   1.000000
   23       -6.302675     -5.644800   1.000000   1.000000
   24       -6.213962     -5.561818   1.000000   1.000000
   25       -6.100095     -5.451428   1.000000   1.000000
   26       -5.996965     -5.326706   1.000000   1.000000
   27       -5.875308     -5.242611   1.000000   1.000000
   28       -5.778666     -5.196301   1.000000   1.000000
   29       -5.706475     -5.134020   1.000000   1.000000
   30       -5.596546     -5.082056   1.000000   1.000000
   31       -5.562214     -4.954827   1.000000   1.000000
   32       -5.494975     -4.921891   1.000000   1.000000
   33       -5.473575     -4.845629   1.000000   1.000003
   34       -5.448698     -4.814681   1.000000   1.000008
   35       -5.368476     -4.687372   1.000000   1.000319
   36       -5.342293     -4.670508   1.000000   1.000486
   37       -5.310584     -4.643117   1.000000   1.000930
   38       -5.275122     -4.599916   1.000000   1.002369
   39       -5.258342     -4.491506   1.000000   1.014807
   40       -5.229629     -4.458403   1.000000   1.021923
   41       -5.185362     -4.380719   1.000000   1.035437
   42       -5.088232     -4.341537   1.000000   1.028833
   43       -5.062989     -4.272367   1.000000   0.957980
   44       -5.054424     -4.239749   1.000000   0.886920
   45       -5.032315     -4.197870   1.000000   0.757563
   46       -4.989489     -4.146308   1.000000   0.554308
   47       -4.964620     -4.117070   1.000000   0.430971
   48       -4.895023     -4.076432   1.000001   0.269288
   49       -4.828790     -4.052195   1.000005   0.185645
   50       -4.813318     -3.933544   1.000008  -0.025075
   51       -4.748702     -3.929292   1.000061  -0.027150
   52       -4.734979     -3.853818   1.000089  -0.031840
   53       -4.677527     -3.816995   1.000409  -0.023888
   54       -4.278766     -3.742530   0.968821  -0.009233
   55       -3.119741     -2.887989  -0.000000  -0.000000
   56       -3.096691     -2.822037  -0.000000  -0.000000
   57       -2.698155     -2.484775  -0.000000  -0.000000
   58       -2.384179     -2.081569  -0.000000  -0.000000
   59       -2.208506     -1.888225  -0.000000  -0.000000
   60       -1.657797     -1.345656  -0.000000  -0.000000
   61       -0.923878     -0.778276  -0.000000  -0.000000
   62       -0.881668     -0.738380  -0.000000  -0.000000
   63       -0.711440     -0.596989  -0.000000  -0.000000
   64       -0.648343     -0.464854  -0.000000  -0.000000
   65       -0.290628     -0.094377  -0.000000  -0.000000
