       N       E                     dE             d eps       ncg     rms          rms(c)
DAV:   1     0.727369891354E+03    0.72737E+03   -0.16072E+04   260   0.705E+02
DAV:   2     0.252006996357E+03   -0.47536E+03   -0.44123E+03   463   0.125E+02
DAV:   3     0.186744504564E+02   -0.23333E+03   -0.22139E+03   376   0.126E+02
DAV:   4    -0.374044681801E+02   -0.56079E+02   -0.48962E+02   424   0.585E+01
DAV:   5    -0.436942085845E+02   -0.62897E+01   -0.60079E+01   312   0.252E+01    0.275E+01
DAV:   6    -0.617014448477E+02   -0.18007E+02   -0.10443E+02   294   0.171E+02    0.557E+01
DAV:   7    -0.390321395086E+02    0.22669E+02   -0.51886E+01   333   0.786E+01    0.345E+01
DAV:   8    -0.384266888982E+02    0.60545E+00   -0.29379E+01   343   0.732E+01    0.339E+01
DAV:   9    -0.408637211140E+02   -0.24370E+01   -0.28939E+01   343   0.686E+01    0.423E+01
DAV:  10    -0.370602478468E+02    0.38035E+01   -0.18315E+01   336   0.575E+01    0.340E+01
DAV:  11    -0.354862363553E+02    0.15740E+01   -0.52039E+00   376   0.333E+01    0.191E+01
DAV:  12    -0.355172701450E+02   -0.31034E-01   -0.49182E+00   374   0.368E+01    0.167E+01
DAV:  13    -0.353367665864E+02    0.18050E+00   -0.29129E+00   318   0.325E+01    0.154E+01
DAV:  14    -0.354167176645E+02   -0.79951E-01   -0.94111E-01   344   0.158E+01    0.106E+01
DAV:  15    -0.353880310826E+02    0.28687E-01   -0.10662E+00   303   0.136E+01    0.828E+00
DAV:  16    -0.355619990054E+02   -0.17397E+00   -0.49497E-01   336   0.908E+00    0.426E+00
DAV:  17    -0.357859030508E+02   -0.22390E+00   -0.14106E-01   342   0.400E+00    0.289E+00
DAV:  18    -0.360714365340E+02   -0.28553E+00   -0.18044E-01   375   0.448E+00    0.470E+00
DAV:  19    -0.361274985332E+02   -0.56062E-01   -0.11079E-01   318   0.513E+00    0.339E+00
DAV:  20    -0.363561264986E+02   -0.22863E+00   -0.58930E-02   358   0.227E+00    0.236E+00
DAV:  21    -0.365208972588E+02   -0.16477E+00   -0.25921E-02   367   0.172E+00    0.835E-01
DAV:  22    -0.366338941894E+02   -0.11300E+00   -0.90998E-03   344   0.910E-01    0.543E-01
DAV:  23    -0.367686579230E+02   -0.13476E+00   -0.72141E-03   318   0.618E-01    0.656E-01
DAV:  24    -0.368599012631E+02   -0.91243E-01   -0.33108E-03   302   0.414E-01    0.338E-01
DAV:  25    -0.369423911644E+02   -0.82490E-01   -0.23764E-03   300   0.379E-01    0.234E-01
DAV:  26    -0.370525753284E+02   -0.11018E+00   -0.51116E-03   309   0.382E-01    0.187E-01
DAV:  27    -0.371093648396E+02   -0.56790E-01   -0.15720E-03   261   0.234E-01    0.211E-01
DAV:  28    -0.371502237117E+02   -0.40859E-01   -0.10417E-03   246   0.201E-01    0.106E-01
DAV:  29    -0.371818106276E+02   -0.31587E-01   -0.86199E-04   262   0.151E-01    0.140E-01
DAV:  30    -0.372002496689E+02   -0.18439E-01   -0.38481E-04   223   0.135E-01    0.105E-01
DAV:  31    -0.372148290554E+02   -0.14579E-01   -0.40687E-04   229   0.101E-01    0.850E-02
DAV:  32    -0.372241149607E+02   -0.92859E-02   -0.17764E-04   192   0.846E-02    0.481E-02
DAV:  33    -0.372325510060E+02   -0.84360E-02   -0.23073E-04   206   0.735E-02    0.334E-02
DAV:  34    -0.372371984535E+02   -0.46474E-02   -0.10299E-04   176   0.560E-02    0.210E-02
DAV:  35    -0.372399995510E+02   -0.28011E-02   -0.93745E-05   190   0.466E-02    0.345E-02
DAV:  36    -0.372420966139E+02   -0.20971E-02   -0.58925E-05   176   0.453E-02    0.133E-02
DAV:  37    -0.372434055413E+02   -0.13089E-02   -0.55511E-05   174   0.277E-02    0.979E-03
DAV:  38    -0.372443783952E+02   -0.97285E-03   -0.37889E-05   168   0.248E-02    0.129E-02
DAV:  39    -0.372448643891E+02   -0.48599E-03   -0.23993E-05   166   0.202E-02    0.663E-03
DAV:  40    -0.372453788530E+02   -0.51446E-03   -0.26205E-05   166   0.138E-02    0.620E-03
DAV:  41    -0.372457248563E+02   -0.34600E-03   -0.18896E-05   168   0.128E-02    0.486E-03
DAV:  42    -0.372459881347E+02   -0.26328E-03   -0.15666E-05   166   0.131E-02    0.423E-03
DAV:  43    -0.372461240523E+02   -0.13592E-03   -0.10995E-05   176   0.114E-02    0.359E-03
DAV:  44    -0.372461975339E+02   -0.73482E-04   -0.59420E-06   160   0.960E-03
   1 F= -.37246198E+02 E0= -.37243184E+02  d E =-.372462E+02  mag=     7.9289
       N       E                     dE             d eps       ncg     rms          rms(c)
DAV:   1    -0.373546198667E+02   -0.10850E+00   -0.71170E+01   260   0.314E+01    0.356E+00
DAV:   2    -0.385777410347E+02   -0.12231E+01   -0.52889E+00   367   0.316E+01    0.202E+01
DAV:   3    -0.374560985712E+02    0.11216E+01   -0.28524E+00   319   0.296E+01    0.679E+00
DAV:   4    -0.374820046252E+02   -0.25906E-01   -0.92505E-01   368   0.131E+01    0.552E+00
DAV:   5    -0.374871902791E+02   -0.51857E-02   -0.35929E-01   351   0.963E+00    0.459E+00
DAV:   6    -0.374639581670E+02    0.23232E-01   -0.19996E-01   335   0.597E+00    0.292E+00
DAV:   7    -0.374598141426E+02    0.41440E-02   -0.91786E-02   351   0.359E+00    0.193E+00
DAV:   8    -0.374725434738E+02   -0.12729E-01   -0.78827E-02   352   0.330E+00    0.305E+00
DAV:   9    -0.374610768327E+02    0.11467E-01   -0.59193E-02   359   0.304E+00    0.115E+00
DAV:  10    -0.374738476759E+02   -0.12771E-01   -0.40451E-02   360   0.261E+00    0.321E+00
DAV:  11    -0.374601816099E+02    0.13666E-01   -0.42914E-02   374   0.271E+00    0.814E-01
DAV:  12    -0.374659218296E+02   -0.57402E-02   -0.10034E-02   392   0.110E+00    0.104E+00
DAV:  13    -0.374644178503E+02    0.15040E-02   -0.39965E-03   376   0.858E-01    0.319E-01
DAV:  14    -0.374654789991E+02   -0.10611E-02   -0.96527E-04   253   0.347E-01    0.167E-01
DAV:  15    -0.374661347786E+02   -0.65578E-03   -0.31190E-04   174   0.255E-01    0.140E-01
DAV:  16    -0.374666336454E+02   -0.49887E-03   -0.15299E-04   175   0.115E-01    0.691E-02
DAV:  17    -0.374669415058E+02   -0.30786E-03   -0.79646E-05   174   0.834E-02    0.323E-02
DAV:  18    -0.374671878206E+02   -0.24631E-03   -0.41161E-05   166   0.516E-02    0.321E-02
DAV:  19    -0.374673673518E+02   -0.17953E-03   -0.20687E-05   168   0.334E-02    0.279E-02
DAV:  20    -0.374674924770E+02   -0.12513E-03   -0.11124E-05   168   0.303E-02    0.152E-02
DAV:  21    -0.374676130439E+02   -0.12057E-03   -0.64988E-06   167   0.232E-02    0.916E-03
DAV:  22    -0.374676855489E+02   -0.72505E-04   -0.48243E-06   168   0.172E-02
   2 F= -.37467686E+02 E0= -.37459928E+02  d E =-.221488E+00  mag=     7.9090
       N       E                     dE             d eps       ncg     rms          rms(c)
DAV:   1    -0.374471823917E+02    0.20431E-01   -0.51129E+01   260   0.266E+01    0.288E+00
DAV:   2    -0.382021565780E+02   -0.75497E+00   -0.34942E+00   367   0.251E+01    0.167E+01
DAV:   3    -0.374935455364E+02    0.70861E+00   -0.18760E+00   311   0.238E+01    0.484E+00
DAV:   4    -0.375343495930E+02   -0.40804E-01   -0.50564E-01   368   0.103E+01    0.378E+00
DAV:   5    -0.375634518933E+02   -0.29102E-01   -0.27095E-01   359   0.792E+00    0.531E+00
DAV:   6    -0.375258489435E+02    0.37603E-01   -0.22290E-01   335   0.570E+00    0.317E+00
DAV:   7    -0.375209970641E+02    0.48519E-02   -0.80769E-02   351   0.302E+00    0.108E+00
DAV:   8    -0.375340788133E+02   -0.13082E-01   -0.43423E-02   375   0.278E+00    0.207E+00
DAV:   9    -0.375277819733E+02    0.62968E-02   -0.39260E-02   351   0.275E+00    0.122E+00
DAV:  10    -0.375350873169E+02   -0.73053E-02   -0.32769E-02   367   0.247E+00    0.247E+00
DAV:  11    -0.375253694768E+02    0.97178E-02   -0.35146E-02   366   0.248E+00    0.710E-01
DAV:  12    -0.375289473243E+02   -0.35778E-02   -0.74548E-03   374   0.908E-01    0.763E-01
DAV:  13    -0.375282008011E+02    0.74652E-03   -0.23876E-03   359   0.686E-01    0.249E-01
DAV:  14    -0.375289353218E+02   -0.73452E-03   -0.42657E-04   189   0.246E-01    0.168E-01
DAV:  15    -0.375293052850E+02   -0.36996E-03   -0.15783E-04   175   0.170E-01    0.146E-01
DAV:  16    -0.375295549335E+02   -0.24965E-03   -0.10773E-04   165   0.939E-02    0.537E-02
DAV:  17    -0.375297966012E+02   -0.24167E-03   -0.52480E-05   175   0.503E-02    0.318E-02
DAV:  18    -0.375299564731E+02   -0.15987E-03   -0.27179E-05   176   0.455E-02    0.160E-02
DAV:  19    -0.375300515823E+02   -0.95109E-04   -0.13555E-05   168   0.278E-02
   3 F= -.37530052E+02 E0= -.37517668E+02  d E =-.283854E+00  mag=     7.8985
       N       E                     dE             d eps       ncg     rms          rms(c)
DAV:   1    -0.375454159017E+02   -0.15459E-01   -0.19779E+01   260   0.165E+01    0.263E+00
DAV:   2    -0.385842450955E+02   -0.10388E+01   -0.44970E+00   334   0.284E+01    0.183E+01
DAV:   3    -0.376227939201E+02    0.96145E+00   -0.15842E+00   334   0.251E+01    0.908E+00
DAV:   4    -0.375600883522E+02    0.62706E-01   -0.71798E-01   374   0.967E+00    0.390E+00
DAV:   5    -0.375739588099E+02   -0.13870E-01   -0.16284E-01   366   0.619E+00    0.278E+00
DAV:   6    -0.375846934270E+02   -0.10735E-01   -0.10884E-01   375   0.501E+00    0.292E+00
DAV:   7    -0.375683783260E+02    0.16315E-01   -0.60793E-02   343   0.345E+00    0.724E-01
DAV:   8    -0.375744468423E+02   -0.60685E-02   -0.16692E-02   389   0.165E+00    0.133E+00
DAV:   9    -0.375727805873E+02    0.16663E-02   -0.13599E-02   374   0.151E+00    0.594E-01
DAV:  10    -0.375753826724E+02   -0.26021E-02   -0.10935E-02   367   0.145E+00    0.110E+00
DAV:  11    -0.375729722837E+02    0.24104E-02   -0.74255E-03   366   0.139E+00    0.395E-01
DAV:  12    -0.375743605997E+02   -0.13883E-02   -0.47611E-03   374   0.792E-01    0.534E-01
DAV:  13    -0.375741759597E+02    0.18464E-03   -0.59691E-04   240   0.345E-01    0.246E-01
DAV:  14    -0.375742476913E+02   -0.71732E-04   -0.70008E-04   182   0.251E-01
   4 F= -.37574248E+02 E0= -.37559669E+02  d E =-.441961E-01  mag=     7.9081
       N       E                     dE             d eps       ncg     rms          rms(c)
DAV:   1    -0.375458419324E+02    0.28334E-01   -0.23679E+01   260   0.181E+01    0.278E+00
DAV:   2    -0.386426572370E+02   -0.10968E+01   -0.50068E+00   335   0.297E+01    0.191E+01
DAV:   3    -0.376560338283E+02    0.98662E+00   -0.17949E+00   318   0.257E+01    0.978E+00
DAV:   4    -0.375670614740E+02    0.88972E-01   -0.85859E-01   382   0.106E+01    0.403E+00
DAV:   5    -0.375833587624E+02   -0.16297E-01   -0.20261E-01   358   0.672E+00    0.289E+00
DAV:   6    -0.375956579451E+02   -0.12299E-01   -0.11549E-01   383   0.541E+00    0.320E+00
DAV:   7    -0.375760959371E+02    0.19562E-01   -0.71298E-02   335   0.375E+00    0.897E-01
DAV:   8    -0.375811272951E+02   -0.50314E-02   -0.15122E-02   390   0.183E+00    0.116E+00
DAV:   9    -0.375819090864E+02   -0.78179E-03   -0.17799E-02   390   0.161E+00    0.936E-01
DAV:  10    -0.375823662490E+02   -0.45716E-03   -0.16049E-02   359   0.169E+00    0.102E+00
DAV:  11    -0.375813507771E+02    0.10155E-02   -0.56869E-03   382   0.112E+00    0.349E-01
DAV:  12    -0.375826230846E+02   -0.12723E-02   -0.44114E-03   374   0.794E-01    0.519E-01
DAV:  13    -0.375823476908E+02    0.27539E-03   -0.75855E-04   240   0.408E-01    0.187E-01
DAV:  14    -0.375824857577E+02   -0.13807E-03   -0.64947E-04   190   0.239E-01    0.131E-01
DAV:  15    -0.375827901330E+02   -0.30438E-03   -0.24037E-04   184   0.206E-01    0.801E-02
DAV:  16    -0.375829325395E+02   -0.14241E-03   -0.64968E-05   168   0.808E-02    0.433E-02
DAV:  17    -0.375831415315E+02   -0.20899E-03   -0.40414E-05   168   0.492E-02    0.247E-02
DAV:  18    -0.375834076043E+02   -0.26607E-03   -0.25684E-05   176   0.454E-02    0.153E-02
DAV:  19    -0.375836625943E+02   -0.25499E-03   -0.19638E-05   168   0.425E-02    0.328E-02
DAV:  20    -0.375838936106E+02   -0.23102E-03   -0.15796E-05   176   0.378E-02    0.783E-03
DAV:  21    -0.375841320073E+02   -0.23840E-03   -0.96841E-06   167   0.152E-02    0.551E-03
DAV:  22    -0.375843045347E+02   -0.17253E-03   -0.57073E-06   168   0.100E-02    0.540E-03
DAV:  23    -0.375844508328E+02   -0.14630E-03   -0.26725E-06   160   0.830E-03    0.612E-03
DAV:  24    -0.375846065911E+02   -0.15576E-03   -0.26068E-06   167   0.821E-03    0.339E-03
DAV:  25    -0.375848203673E+02   -0.21378E-03   -0.39364E-06   167   0.769E-03    0.385E-03
DAV:  26    -0.375849431956E+02   -0.12283E-03   -0.25646E-06   167   0.716E-03    0.290E-03
DAV:  27    -0.375850773863E+02   -0.13419E-03   -0.27456E-06   167   0.509E-03    0.187E-03
DAV:  28    -0.375851653003E+02   -0.87914E-04   -0.18931E-06   168   0.516E-03
   5 F= -.37585165E+02 E0= -.37568827E+02  d E =-.551137E-01  mag=     7.9408
       N       E                     dE             d eps       ncg     rms          rms(c)
DAV:   1    -0.375837429313E+02    0.13345E-02   -0.21318E+00   260   0.544E+00    0.737E-01
DAV:   2    -0.376812235626E+02   -0.97481E-01   -0.38137E-01   374   0.734E+00    0.824E+00
DAV:   3    -0.375588754631E+02    0.12235E+00   -0.11627E-01   310   0.696E+00    0.162E+00
DAV:   4    -0.375842465674E+02   -0.25371E-01   -0.45837E-02   390   0.288E+00    0.120E+00
DAV:   5    -0.375886925548E+02   -0.44460E-02   -0.26283E-02   350   0.201E+00    0.148E+00
DAV:   6    -0.375851357190E+02    0.35568E-02   -0.18029E-02   334   0.159E+00    0.571E-01
DAV:   7    -0.375865313654E+02   -0.13956E-02   -0.43413E-03   311   0.865E-01    0.480E-01
DAV:   8    -0.375865431121E+02   -0.11747E-04   -0.23750E-03   319   0.715E-01    0.324E-01
DAV:   9    -0.375869165377E+02   -0.37343E-03   -0.14170E-03   254   0.569E-01    0.421E-01
DAV:  10    -0.375865611252E+02    0.35541E-03   -0.93588E-04   262   0.548E-01    0.320E-01
DAV:  11    -0.375865444881E+02    0.16637E-04   -0.41306E-04   182   0.291E-01
   6 F= -.37586544E+02 E0= -.37570761E+02  d E =-.564929E-01  mag=     7.9381
       N       E                     dE             d eps       ncg     rms          rms(c)
DAV:   1    -0.375904410781E+02   -0.38800E-02   -0.76707E+00   260   0.102E+01    0.113E+00
DAV:   2    -0.377743949455E+02   -0.18395E+00   -0.69035E-01   382   0.109E+01    0.105E+01
DAV:   3    -0.375722777990E+02    0.20212E+00   -0.36863E-01   326   0.103E+01    0.232E+00
DAV:   4    -0.376060390780E+02   -0.33761E-01   -0.12670E-01   375   0.441E+00    0.246E+00
DAV:   5    -0.376050276847E+02    0.10114E-02   -0.81056E-02   350   0.344E+00    0.214E+00
DAV:   6    -0.376036338149E+02    0.13939E-02   -0.43590E-02   334   0.284E+00    0.158E+00
DAV:   7    -0.376003093124E+02    0.33245E-02   -0.16456E-02   326   0.187E+00    0.440E-01
DAV:   8    -0.376016464406E+02   -0.13371E-02   -0.51492E-03   375   0.905E-01    0.501E-01
DAV:   9    -0.376023531969E+02   -0.70676E-03   -0.40145E-03   335   0.755E-01    0.490E-01
DAV:  10    -0.376022138802E+02    0.13932E-03   -0.17753E-03   271   0.644E-01    0.511E-01
DAV:  11    -0.376020063483E+02    0.20753E-03   -0.17616E-03   278   0.566E-01    0.145E-01
DAV:  12    -0.376024311163E+02   -0.42477E-03   -0.38332E-04   183   0.207E-01    0.213E-01
DAV:  13    -0.376023835997E+02    0.47517E-04   -0.35327E-04   184   0.269E-01
   7 F= -.37602384E+02 E0= -.37585675E+02  d E =-.158391E-01  mag=     7.9443
       N       E                     dE             d eps       ncg     rms          rms(c)
DAV:   1    -0.375526395008E+02    0.49792E-01   -0.39181E+01   260   0.232E+01    0.271E+00
DAV:   2    -0.386498042979E+02   -0.10972E+01   -0.33235E+00   366   0.274E+01    0.231E+01
DAV:   3    -0.375955246704E+02    0.10543E+01   -0.30236E+00   310   0.234E+01    0.611E+00
DAV:   4    -0.376134718155E+02   -0.17947E-01   -0.52962E-01   375   0.107E+01    0.444E+00
DAV:   5    -0.376502382008E+02   -0.36766E-01   -0.38189E-01   382   0.771E+00    0.553E+00
DAV:   6    -0.376301971594E+02    0.20041E-01   -0.29666E-01   351   0.664E+00    0.392E+00
DAV:   7    -0.376097455988E+02    0.20452E-01   -0.13718E-01   342   0.420E+00    0.158E+00
DAV:   8    -0.376120640266E+02   -0.23184E-02   -0.26473E-02   366   0.245E+00    0.101E+00
DAV:   9    -0.376160634316E+02   -0.39994E-02   -0.11488E-02   358   0.127E+00    0.961E-01
DAV:  10    -0.376149609228E+02    0.11025E-02   -0.89036E-03   319   0.130E+00    0.648E-01
DAV:  11    -0.376161168512E+02   -0.11559E-02   -0.58649E-03   374   0.935E-01    0.538E-01
DAV:  12    -0.376161567110E+02   -0.39860E-04   -0.15395E-03   344   0.486E-01    0.335E-01
DAV:  13    -0.376164824948E+02   -0.32578E-03   -0.16121E-03   288   0.484E-01    0.267E-01
DAV:  14    -0.376164952867E+02   -0.12792E-04   -0.45468E-04   200   0.350E-01
   8 F= -.37616495E+02 E0= -.37598922E+02  d E =-.299508E-01  mag=     7.9626
       N       E                     dE             d eps       ncg     rms          rms(c)
DAV:   1    -0.376070236106E+02    0.94589E-02   -0.12671E+01   260   0.132E+01    0.165E+00
DAV:   2    -0.380308056673E+02   -0.42378E+00   -0.13214E+00   359   0.167E+01    0.154E+01
DAV:   3    -0.375685354993E+02    0.46227E+00   -0.10217E+00   310   0.152E+01    0.322E+00
DAV:   4    -0.376359314777E+02   -0.67396E-01   -0.25358E-01   367   0.634E+00    0.370E+00
DAV:   5    -0.376302828754E+02    0.56486E-02   -0.17853E-01   342   0.473E+00    0.261E+00
DAV:   6    -0.376292101340E+02    0.10727E-02   -0.69279E-02   343   0.375E+00    0.159E+00
DAV:   7    -0.376256000964E+02    0.36100E-02   -0.22543E-02   326   0.227E+00    0.541E-01
DAV:   8    -0.376281618125E+02   -0.25617E-02   -0.86412E-03   368   0.127E+00    0.923E-01
DAV:   9    -0.376287721793E+02   -0.61037E-03   -0.77687E-03   350   0.121E+00    0.658E-01
DAV:  10    -0.376296079481E+02   -0.83577E-03   -0.54399E-03   335   0.114E+00    0.894E-01
DAV:  11    -0.376284803018E+02    0.11276E-02   -0.58912E-03   357   0.986E-01    0.231E-01
DAV:  12    -0.376298625685E+02   -0.13823E-02   -0.12920E-03   231   0.375E-01    0.351E-01
DAV:  13    -0.376298126028E+02    0.49966E-04   -0.75007E-04   183   0.397E-01
   9 F= -.37629813E+02 E0= -.37611330E+02  d E =-.133173E-01  mag=     7.9637
       N       E                     dE             d eps       ncg     rms          rms(c)
DAV:   1    -0.376300788128E+02   -0.21624E-03   -0.56815E-01   261   0.280E+00    0.312E-01
DAV:   2    -0.376418219734E+02   -0.11743E-01   -0.47294E-02   391   0.268E+00    0.286E+00
DAV:   3    -0.376248029635E+02    0.17019E-01   -0.38477E-02   318   0.274E+00    0.535E-01
DAV:   4    -0.376314820534E+02   -0.66791E-02   -0.91405E-03   357   0.117E+00    0.646E-01
DAV:   5    -0.376311268224E+02    0.35523E-03   -0.68317E-03   333   0.944E-01    0.542E-01
DAV:   6    -0.376310388555E+02    0.87967E-04   -0.32583E-03   253   0.692E-01    0.365E-01
DAV:   7    -0.376310452101E+02   -0.63546E-05   -0.92388E-04   221   0.448E-01
  10 F= -.37631045E+02 E0= -.37612642E+02  d E =-.145499E-01  mag=     7.9637
       N       E                     dE             d eps       ncg     rms          rms(c)
DAV:   1    -0.376222043494E+02    0.88345E-02   -0.10269E+01   260   0.117E+01    0.170E+00
DAV:   2    -0.382314315413E+02   -0.60923E+00   -0.17880E+00   375   0.188E+01    0.190E+01
DAV:   3    -0.375505895116E+02    0.68084E+00   -0.17938E+00   318   0.169E+01    0.265E+00
DAV:   4    -0.376355185144E+02   -0.84929E-01   -0.22959E-01   383   0.566E+00    0.301E+00
DAV:   5    -0.376395733532E+02   -0.40548E-02   -0.15100E-01   318   0.433E+00    0.251E+00
DAV:   6    -0.376367942013E+02    0.27792E-02   -0.74136E-02   326   0.344E+00    0.154E+00
DAV:   7    -0.376349193964E+02    0.18748E-02   -0.16934E-02   342   0.216E+00    0.789E-01
DAV:   8    -0.376359767157E+02   -0.10573E-02   -0.64563E-03   343   0.138E+00    0.565E-01
DAV:   9    -0.376368325531E+02   -0.85584E-03   -0.45773E-03   390   0.814E-01    0.616E-01
DAV:  10    -0.376369630730E+02   -0.13052E-03   -0.58258E-03   336   0.977E-01    0.746E-01
DAV:  11    -0.376363635258E+02    0.59955E-03   -0.25830E-03   334   0.656E-01    0.234E-01
DAV:  12    -0.376376009660E+02   -0.12374E-02   -0.20202E-03   230   0.387E-01    0.344E-01
DAV:  13    -0.376376765312E+02   -0.75565E-04   -0.96644E-04   192   0.402E-01
  11 F= -.37637677E+02 E0= -.37619473E+02  d E =-.663132E-02  mag=     7.9517
       N       E                     dE             d eps       ncg     rms          rms(c)
DAV:   1    -0.376371776989E+02    0.42327E-03   -0.73387E-01   260   0.313E+00    0.436E-01
DAV:   2    -0.376741247486E+02   -0.36947E-01   -0.14532E-01   375   0.453E+00    0.508E+00
DAV:   3    -0.376222989580E+02    0.51826E-01   -0.89511E-02   326   0.446E+00    0.563E-01
DAV:   4    -0.376380126915E+02   -0.15714E-01   -0.14865E-02   349   0.149E+00    0.919E-01
DAV:   5    -0.376378126497E+02    0.20004E-03   -0.95708E-03   358   0.119E+00    0.463E-01
DAV:   6    -0.376385135850E+02   -0.70094E-03   -0.48144E-03   303   0.797E-01    0.571E-01
DAV:   7    -0.376379948083E+02    0.51878E-03   -0.18655E-03   238   0.570E-01    0.109E-01
DAV:   8    -0.376384561164E+02   -0.46131E-03   -0.83741E-04   158   0.345E-01    0.263E-01
DAV:   9    -0.376383901492E+02    0.65967E-04   -0.48443E-04   166   0.304E-01
  12 F= -.37638390E+02 E0= -.37620387E+02  d E =-.734494E-02  mag=     7.9458
       N       E                     dE             d eps       ncg     rms          rms(c)
DAV:   1    -0.376301896726E+02    0.82664E-02   -0.71723E+00   260   0.968E+00    0.110E+00
DAV:   2    -0.378301680987E+02   -0.19998E+00   -0.76335E-01   374   0.113E+01    0.109E+01
DAV:   3    -0.375994394231E+02    0.23073E+00   -0.50930E-01   318   0.105E+01    0.219E+00
DAV:   4    -0.376424762768E+02   -0.43037E-01   -0.11399E-01   366   0.413E+00    0.226E+00
DAV:   5    -0.376412679598E+02    0.12083E-02   -0.69819E-02   358   0.324E+00    0.145E+00
DAV:   6    -0.376435237075E+02   -0.22557E-02   -0.40063E-02   327   0.232E+00    0.162E+00
DAV:   7    -0.376393398430E+02    0.41839E-02   -0.14226E-02   326   0.166E+00    0.309E-01
DAV:   8    -0.376412625470E+02   -0.19227E-02   -0.31873E-03   359   0.898E-01    0.498E-01
DAV:   9    -0.376414305864E+02   -0.16804E-03   -0.29033E-03   326   0.840E-01    0.507E-01
DAV:  10    -0.376415874531E+02   -0.15687E-03   -0.33836E-03   302   0.713E-01    0.474E-01
DAV:  11    -0.376413876452E+02    0.19981E-03   -0.20808E-03   254   0.631E-01    0.186E-01
DAV:  12    -0.376419539741E+02   -0.56633E-03   -0.27981E-04   166   0.201E-01    0.154E-01
DAV:  13    -0.376420643400E+02   -0.11037E-03   -0.16795E-04   159   0.149E-01    0.352E-02
DAV:  14    -0.376422900444E+02   -0.22570E-03   -0.60881E-05   176   0.771E-02    0.365E-02
DAV:  15    -0.376424371413E+02   -0.14710E-03   -0.31870E-05   160   0.589E-02    0.174E-02
DAV:  16    -0.376425614737E+02   -0.12433E-03   -0.12688E-05   168   0.326E-02    0.150E-02
DAV:  17    -0.376427011476E+02   -0.13967E-03   -0.97225E-06   167   0.239E-02    0.122E-02
DAV:  18    -0.376428021138E+02   -0.10097E-03   -0.60603E-06   168   0.165E-02    0.111E-02
DAV:  19    -0.376428672677E+02   -0.65154E-04   -0.33100E-06   158   0.139E-02
  13 F= -.37642867E+02 E0= -.37626198E+02  d E =-.447712E-02  mag=     7.9306
       N       E                     dE             d eps       ncg     rms          rms(c)
DAV:   1    -0.376427590151E+02    0.43099E-04   -0.39078E-01   260   0.226E+00    0.267E-01
DAV:   2    -0.376552629292E+02   -0.12504E-01   -0.54011E-02   383   0.278E+00    0.291E+00
DAV:   3    -0.376365461701E+02    0.18717E-01   -0.39079E-02   326   0.265E+00    0.382E-01
DAV:   4    -0.376430487928E+02   -0.65026E-02   -0.62604E-03   349   0.959E-01    0.587E-01
DAV:   5    -0.376429945029E+02    0.54290E-04   -0.42287E-03   334   0.781E-01    0.305E-01
DAV:   6    -0.376433550960E+02   -0.36059E-03   -0.18897E-03   231   0.519E-01    0.357E-01
DAV:   7    -0.376431365645E+02    0.21853E-03   -0.69431E-04   165   0.370E-01    0.667E-02
DAV:   8    -0.376433959664E+02   -0.25940E-03   -0.32412E-04   149   0.204E-01    0.166E-01
DAV:   9    -0.376433457033E+02    0.50263E-04   -0.19458E-04   150   0.196E-01
  14 F= -.37643346E+02 E0= -.37626877E+02  d E =-.495555E-02  mag=     7.9282
       N       E                     dE             d eps       ncg     rms          rms(c)
DAV:   1    -0.376416811492E+02    0.17148E-02   -0.25463E+00   260   0.581E+00    0.580E-01
DAV:   2    -0.376790233579E+02   -0.37342E-01   -0.18368E-01   382   0.534E+00    0.447E+00
DAV:   3    -0.376353818112E+02    0.43642E-01   -0.14949E-01   334   0.508E+00    0.115E+00
DAV:   4    -0.376472273052E+02   -0.11845E-01   -0.43499E-02   382   0.242E+00    0.148E+00
DAV:   5    -0.376454097901E+02    0.18175E-02   -0.25319E-02   366   0.179E+00    0.817E-01
DAV:   6    -0.376450593947E+02    0.35040E-03   -0.49348E-03   335   0.120E+00    0.292E-01
DAV:   7    -0.376457880260E+02   -0.72863E-03   -0.23292E-03   326   0.644E-01    0.486E-01
DAV:   8    -0.376454749130E+02    0.31311E-03   -0.23686E-03   262   0.564E-01    0.242E-01
DAV:   9    -0.376458470853E+02   -0.37217E-03   -0.12609E-03   224   0.498E-01    0.366E-01
DAV:  10    -0.376455523779E+02    0.29471E-03   -0.72091E-04   183   0.392E-01    0.189E-01
DAV:  11    -0.376458329938E+02   -0.28062E-03   -0.47366E-04   192   0.308E-01    0.100E-01
DAV:  12    -0.376459675209E+02   -0.13453E-03   -0.26532E-04   176   0.205E-01    0.150E-01
DAV:  13    -0.376459327224E+02    0.34798E-04   -0.14942E-04   168   0.148E-01
  15 F= -.37645933E+02 E0= -.37630741E+02  d E =-.258702E-02  mag=     7.9322
       N       E                     dE             d eps       ncg     rms          rms(c)
DAV:   1    -0.376434332703E+02    0.25343E-02   -0.18067E+00   260   0.489E+00    0.491E-01
DAV:   2    -0.376707362570E+02   -0.27303E-01   -0.14469E-01   390   0.443E+00    0.398E+00
DAV:   3    -0.376372809959E+02    0.33455E-01   -0.12055E-01   326   0.429E+00    0.937E-01
DAV:   4    -0.376473964814E+02   -0.10115E-01   -0.32003E-02   414   0.206E+00    0.131E+00
DAV:   5    -0.376452042887E+02    0.21922E-02   -0.16140E-02   341   0.148E+00    0.521E-01
DAV:   6    -0.376457036656E+02   -0.49938E-03   -0.24210E-03   301   0.856E-01    0.231E-01
DAV:   7    -0.376461030112E+02   -0.39935E-03   -0.10329E-03   262   0.520E-01    0.336E-01
DAV:   8    -0.376459405568E+02    0.16245E-03   -0.12400E-03   222   0.465E-01    0.208E-01
DAV:   9    -0.376462255149E+02   -0.28496E-03   -0.89979E-04   167   0.400E-01    0.363E-01
DAV:  10    -0.376458684145E+02    0.35710E-03   -0.73290E-04   175   0.369E-01    0.159E-01
DAV:  11    -0.376461929437E+02   -0.32453E-03   -0.48162E-04   183   0.258E-01    0.108E-01
DAV:  12    -0.376462649163E+02   -0.71973E-04   -0.11946E-04   168   0.167E-01
  16 F= -.37646265E+02 E0= -.37632120E+02  d E =-.291921E-02  mag=     7.9384
       N       E                     dE             d eps       ncg     rms          rms(c)
DAV:   1    -0.376452990526E+02    0.89389E-03   -0.13294E+00   260   0.417E+00    0.499E-01
DAV:   2    -0.376859122192E+02   -0.40613E-01   -0.19998E-01   382   0.524E+00    0.494E+00
DAV:   3    -0.376348208535E+02    0.51091E-01   -0.14376E-01   326   0.492E+00    0.942E-01
DAV:   4    -0.376465694379E+02   -0.11749E-01   -0.24139E-02   389   0.183E+00    0.905E-01
DAV:   5    -0.376468465059E+02   -0.27707E-03   -0.94103E-03   342   0.120E+00    0.446E-01
DAV:   6    -0.376471331866E+02   -0.28668E-03   -0.30974E-03   311   0.785E-01    0.382E-01
DAV:   7    -0.376470912504E+02    0.41936E-04   -0.14421E-03   237   0.495E-01    0.224E-01
DAV:   8    -0.376472266418E+02   -0.13539E-03   -0.59738E-04   181   0.396E-01    0.158E-01
DAV:   9    -0.376474257662E+02   -0.19912E-03   -0.60620E-04   174   0.314E-01    0.255E-01
DAV:  10    -0.376473027824E+02    0.12298E-03   -0.28546E-04   157   0.272E-01    0.228E-01
DAV:  11    -0.376473166250E+02   -0.13843E-04   -0.20958E-04   166   0.221E-01
  17 F= -.37647317E+02 E0= -.37634023E+02  d E =-.105171E-02  mag=     7.9430
       N       E                     dE             d eps       ncg     rms          rms(c)
DAV:   1    -0.376439432730E+02    0.33595E-02   -0.27753E+00   260   0.602E+00    0.764E-01
DAV:   2    -0.377418064676E+02   -0.97863E-01   -0.45860E-01   382   0.815E+00    0.753E+00
DAV:   3    -0.376249090808E+02    0.11690E+00   -0.32046E-01   318   0.762E+00    0.145E+00
DAV:   4    -0.376467296207E+02   -0.21821E-01   -0.52351E-02   398   0.274E+00    0.128E+00
DAV:   5    -0.376475301318E+02   -0.80051E-03   -0.20936E-02   350   0.187E+00    0.666E-01
DAV:   6    -0.376480322113E+02   -0.50208E-03   -0.79875E-03   326   0.128E+00    0.588E-01
DAV:   7    -0.376476819317E+02    0.35028E-03   -0.36127E-03   301   0.787E-01    0.343E-01
DAV:   8    -0.376478948367E+02   -0.21290E-03   -0.15352E-03   277   0.588E-01    0.225E-01
DAV:   9    -0.376481921377E+02   -0.29730E-03   -0.89511E-04   222   0.386E-01    0.306E-01
DAV:  10    -0.376480756329E+02    0.11650E-03   -0.58624E-04   174   0.331E-01    0.254E-01
DAV:  11    -0.376480349355E+02    0.40697E-04   -0.48796E-04   174   0.355E-01
  18 F= -.37648035E+02 E0= -.37635722E+02  d E =-.177002E-02  mag=     7.9480
       N       E                     dE             d eps       ncg     rms          rms(c)
DAV:   1    -0.376480890357E+02   -0.13403E-04   -0.13808E+00   260   0.414E+00    0.537E-01
DAV:   2    -0.377005069919E+02   -0.52418E-01   -0.22437E-01   383   0.591E+00    0.565E+00
DAV:   3    -0.376347247364E+02    0.65782E-01   -0.14384E-01   318   0.547E+00    0.114E+00
DAV:   4    -0.376488107427E+02   -0.14086E-01   -0.23629E-02   374   0.196E+00    0.749E-01
DAV:   5    -0.376498667158E+02   -0.10560E-02   -0.89366E-03   350   0.131E+00    0.420E-01
DAV:   6    -0.376508498567E+02   -0.98314E-03   -0.69861E-03   335   0.946E-01    0.777E-01
DAV:   7    -0.376496299833E+02    0.12199E-02   -0.35568E-03   294   0.748E-01    0.877E-02
DAV:   8    -0.376503995214E+02   -0.76954E-03   -0.48541E-04   182   0.324E-01    0.222E-01
DAV:   9    -0.376503368464E+02    0.62675E-04   -0.51884E-04   167   0.379E-01
  19 F= -.37650337E+02 E0= -.37638081E+02  d E =-.230191E-02  mag=     7.9479
       N       E                     dE             d eps       ncg     rms          rms(c)
DAV:   1    -0.376506317442E+02   -0.23222E-03   -0.98487E-02   262   0.115E+00    0.190E-01
DAV:   2    -0.376561425316E+02   -0.55108E-02   -0.21045E-02   398   0.204E+00    0.165E+00
DAV:   3    -0.376482139272E+02    0.79286E-02   -0.17775E-02   333   0.198E+00    0.259E-01
DAV:   4    -0.376506246852E+02   -0.24108E-02   -0.24563E-03   301   0.489E-01    0.260E-01
DAV:   5    -0.376508875701E+02   -0.26288E-03   -0.10519E-03   173   0.372E-01    0.195E-01
DAV:   6    -0.376508796117E+02    0.79585E-05   -0.35243E-04   166   0.312E-01
  20 F= -.37650880E+02 E0= -.37638839E+02  d E =-.284468E-02  mag=     7.9477
       N       E                     dE             d eps       ncg     rms          rms(c)
DAV:   1    -0.376511251571E+02   -0.23759E-03   -0.18688E-01   260   0.162E+00    0.164E-01
DAV:   2    -0.376532801421E+02   -0.21550E-02   -0.10919E-02   390   0.123E+00    0.125E+00
DAV:   3    -0.376494023512E+02    0.38778E-02   -0.10295E-02   318   0.128E+00    0.252E-01
DAV:   4    -0.376517735031E+02   -0.23712E-02   -0.35660E-03   325   0.751E-01    0.557E-01
DAV:   5    -0.376509868661E+02    0.78664E-03   -0.24432E-03   237   0.588E-01    0.167E-01
DAV:   6    -0.376513581502E+02   -0.37128E-03   -0.32971E-04   165   0.241E-01    0.134E-01
DAV:   7    -0.376514598163E+02   -0.10167E-03   -0.20025E-04   167   0.185E-01    0.952E-02
DAV:   8    -0.376515234597E+02   -0.63643E-04   -0.12873E-04   151   0.179E-01
  21 F= -.37651523E+02 E0= -.37639626E+02  d E =-.643848E-03  mag=     7.9462
       N       E                     dE             d eps       ncg     rms          rms(c)
DAV:   1    -0.376512819712E+02    0.17785E-03   -0.25357E-01   260   0.189E+00    0.194E-01
DAV:   2    -0.376540419304E+02   -0.27600E-02   -0.13871E-02   398   0.142E+00    0.140E+00
DAV:   3    -0.376493429732E+02    0.46990E-02   -0.13281E-02   334   0.153E+00    0.337E-01
DAV:   4    -0.376520565458E+02   -0.27136E-02   -0.43925E-03   325   0.827E-01    0.555E-01
DAV:   5    -0.376512186249E+02    0.83792E-03   -0.31064E-03   254   0.631E-01    0.226E-01
DAV:   6    -0.376515687885E+02   -0.35016E-03   -0.87080E-04   190   0.385E-01    0.206E-01
DAV:   7    -0.376515831278E+02   -0.14339E-04   -0.40039E-04   166   0.263E-01
  22 F= -.37651583E+02 E0= -.37639850E+02  d E =-.703516E-03  mag=     7.9448
