 vasp.6.1.2 22Jul20 (build Jan 14 2022 17:24:41) gamma-only                      
 executed on             LinuxPGI date 2022.01.24  08:22:57
 running on   16 total cores
 distrk:  each k-point on   16 cores,    1 groups
 distr:  one band on NCORE=  16 cores,    1 groups


--------------------------------------------------------------------------------------------------------


 INCAR:
 POTCAR:    PAW_PBE Ni 02Aug2007                  
 POTCAR:    PAW_PBE Pd 04Jan2005                  
 -----------------------------------------------------------------------------
|                                                                             |
|           W    W    AA    RRRRR   N    N  II  N    N   GGGG   !!!           |
|           W    W   A  A   R    R  NN   N  II  NN   N  G    G  !!!           |
|           W    W  A    A  R    R  N N  N  II  N N  N  G       !!!           |
|           W WW W  AAAAAA  RRRRR   N  N N  II  N  N N  G  GGG   !            |
|           WW  WW  A    A  R   R   N   NN  II  N   NN  G    G                |
|           W    W  A    A  R    R  N    N  II  N    N   GGGG   !!!           |
|                                                                             |
|     You use a magnetic or noncollinear calculation, but did not specify     |
|     the initial magnetic moment with the MAGMOM tag. Note that a            |
|     default of 1 will be used for all atoms. This ferromagnetic setup       |
|     may break the symmetry of the crystal, in particular it may rule        |
|     out finding an antiferromagnetic solution. Thence, we recommend         |
|     setting the initial magnetic moment manually or verifying carefully     |
|     that this magnetic setup is desired.                                    |
|                                                                             |
 -----------------------------------------------------------------------------

 -----------------------------------------------------------------------------
|                                                                             |
|           W    W    AA    RRRRR   N    N  II  N    N   GGGG   !!!           |
|           W    W   A  A   R    R  NN   N  II  NN   N  G    G  !!!           |
|           W    W  A    A  R    R  N N  N  II  N N  N  G       !!!           |
|           W WW W  AAAAAA  RRRRR   N  N N  II  N  N N  G  GGG   !            |
|           WW  WW  A    A  R   R   N   NN  II  N   NN  G    G                |
|           W    W  A    A  R    R  N    N  II  N    N   GGGG   !!!           |
|                                                                             |
|     For optimal performance we recommend to set                             |
|       NCORE = 4 - approx SQRT(number of cores).                             |
|     NCORE specifies how many cores store one orbital (NPAR=cpu/NCORE).      |
|     This setting can greatly improve the performance of VASP for DFT.       |
|     The default, NCORE=1 might be grossly inefficient on modern             |
|     multi-core architectures or massively parallel machines. Do your        |
|     own testing!!!!                                                         |
|     Unfortunately you need to use the default for GW and RPA                |
|     calculations (for HF NCORE is supported but not extensively tested      |
|     yet).                                                                   |
|                                                                             |
 -----------------------------------------------------------------------------

 POTCAR:    PAW_PBE Ni 02Aug2007                  
   SHA256 =  0534bc51ca8003dfef23f56753fef9fdd3e22eac8d719fccacb59f3e6b7a69c7 Ni/POTCAR             
   COPYR  = (c) Copyright 02Aug2007 Georg Kresse                                                    
   COPYR  = This file is part of the software VASP. Any use, copying, and all other rights are regul
   COPYR  = If you do not have a valid VASP license, you may not use, copy or distribute this file. 
   VRHFIN =Ni:                                                                                      
   LEXCH  = PE                                                                                      
   EATOM  =  1077.6739 eV,   79.2068 Ry                                                             
                                                                                                    
   TITEL  = PAW_PBE Ni 02Aug2007                                                                    
   LULTRA =        F    use ultrasoft PP ?                                                          
   IUNSCR =        1    unscreen: 0-lin 1-nonlin 2-no                                               
   RPACOR =    2.000    partial core radius                                                         
   POMASS =   58.690; ZVAL   =   10.000    mass and valenz                                          
   RCORE  =    2.300    outmost cutoff radius                                                       
   RWIGS  =    2.430; RWIGS  =    1.286    wigner-seitz radius (au A)                               
   ENMAX  =  269.532; ENMIN  =  202.149 eV                                                          
   RCLOC  =    1.201    cutoff for local pot                                                        
   LCOR   =        T    correct aug charges                                                         
   LPAW   =        T    paw PP                                                                      
   EAUG   =  544.565                                                                                
   DEXC   =    0.000                                                                                
   RMAX   =    2.357    core radius for proj-oper                                                   
   RAUG   =    1.300    factor for augmentation sphere                                              
   RDEP   =    2.390    radius for radial grids                                                     
   RDEPT  =    1.838    core radius for aug-charge                                                  
                                                                                                    
   Atomic configuration                                                                             
    9 entries                                                                                       
     n  l   j            E        occ.                                                              
     1  0  0.50     -8206.4253   2.0000                                                             
     2  0  0.50      -976.1748   2.0000                                                             
     2  1  1.50      -839.0571   6.0000                                                             
     3  0  0.50      -105.9991   2.0000                                                             
     3  1  1.50       -66.4603   6.0000                                                             
     3  2  2.50        -4.6458   9.0000                                                             
     4  0  0.50        -4.4926   1.0000                                                             
     4  1  1.50        -4.0817   0.0000                                                             
     4  3  2.50        -1.3606   0.0000                                                             
   Description                                                                                      
     l       E           TYP  RCUT    TYP  RCUT                                                     
     2     -4.6457903     23  2.300                                                                 
     2     -6.0063729     23  2.300                                                                 
     0     -4.4925590     23  2.300                                                                 
     0      5.0102601     23  2.300                                                                 
     1     -2.7211652     23  2.300                                                                 
     1     16.5183231     23  2.300                                                                 
  local pseudopotential read in
  partial core-charges read in
  partial kinetic energy density read in
  atomic valenz-charges read in
  non local Contribution for L=            2  read in
    real space projection operators read in
  non local Contribution for L=            2  read in
    real space projection operators read in
  non local Contribution for L=            0  read in
    real space projection operators read in
  non local Contribution for L=            0  read in
    real space projection operators read in
  non local Contribution for L=            1  read in
    real space projection operators read in
  non local Contribution for L=            1  read in
    real space projection operators read in
    PAW grid and wavefunctions read in
 
   number of l-projection  operators is LMAX  =            6
   number of lm-projection operators is LMMAX =           18
 
 POTCAR:    PAW_PBE Pd 04Jan2005                  
   SHA256 =  dd6f6f02930356371984e2b707ff5e456046761dc76b07c1eba30abd15eb3c39 Pd/POTCAR             
   COPYR  = (c) Copyright 04Jan2005 Georg Kresse                                                    
   COPYR  = This file is part of the software VASP. Any use, copying, and all other rights are regul
   COPYR  = If you do not have a valid VASP license, you may not use, copy or distribute this file. 
   VRHFIN =Pd : s1 d9                                                                               
   LEXCH  = PE                                                                                      
   EATOM  =   809.7530 eV,   59.5152 Ry                                                             
                                                                                                    
   TITEL  = PAW_PBE Pd 04Jan2005                                                                    
   LULTRA =        F    use ultrasoft PP ?                                                          
   IUNSCR =        1    unscreen: 0-lin 1-nonlin 2-no                                               
   RPACOR =    2.000    partial core radius                                                         
   POMASS =  106.420; ZVAL   =   10.000    mass and valenz                                          
   RCORE  =    2.600    outmost cutoff radius                                                       
   RWIGS  =    2.710; RWIGS  =    1.434    wigner-seitz radius (au A)                               
   ENMAX  =  250.925; ENMIN  =  188.194 eV                                                          
   ICORE  =        3    local potential                                                             
   LCOR   =        T    correct aug charges                                                         
   LPAW   =        T    paw PP                                                                      
   EAUG   =  416.230                                                                                
   DEXC   =    0.000                                                                                
   RMAX   =    2.653    core radius for proj-oper                                                   
   RAUG   =    1.300    factor for augmentation sphere                                              
   RDEP   =    2.734    radius for radial grids                                                     
   RDEPT  =    2.103    core radius for aug-charge                                                  
                                                                                                    
   Atomic configuration                                                                             
   12 entries                                                                                       
     n  l   j            E        occ.                                                              
     1  0  0.50    -24164.6631   2.0000                                                             
     2  0  0.50     -3530.9218   2.0000                                                             
     2  1  1.50     -3165.6822   6.0000                                                             
     3  0  0.50      -639.4577   2.0000                                                             
     3  1  1.50      -519.4532   6.0000                                                             
     3  2  2.50      -328.9757  10.0000                                                             
     4  0  0.50       -88.7014   2.0000                                                             
     4  1  1.50       -54.4540   6.0000                                                             
     4  2  2.50        -6.6878   9.0000                                                             
     5  0  0.50        -4.3543   1.0000                                                             
     5  1  0.50        -1.3606   0.0000                                                             
     4  3  2.50        -1.3606   0.0000                                                             
   Description                                                                                      
     l       E           TYP  RCUT    TYP  RCUT                                                     
     2     -6.6878251     23  2.400                                                                 
     2     -8.0484077     23  2.400                                                                 
     0     -4.3542939     23  2.400                                                                 
     0      4.3406793     23  2.400                                                                 
     1     -4.0817478     23  2.600                                                                 
     1     15.8380318     23  2.600                                                                 
     3     -4.0817478     23  2.400                                                                 
  local pseudopotential read in
  partial core-charges read in
  partial kinetic energy density read in
  atomic valenz-charges read in
  non local Contribution for L=            2  read in
    real space projection operators read in
  non local Contribution for L=            2  read in
    real space projection operators read in
  non local Contribution for L=            0  read in
    real space projection operators read in
  non local Contribution for L=            0  read in
    real space projection operators read in
  non local Contribution for L=            1  read in
    real space projection operators read in
  non local Contribution for L=            1  read in
    real space projection operators read in
    PAW grid and wavefunctions read in
 
   number of l-projection  operators is LMAX  =            6
   number of lm-projection operators is LMMAX =           18
 
  PAW_PBE Ni 02Aug2007                  :
 energy of atom  1       EATOM=-1077.6739
 kinetic energy error for atom=    0.0101 (will be added to EATOM!!)
  PAW_PBE Pd 04Jan2005                  :
 energy of atom  2       EATOM= -809.7530
 kinetic energy error for atom=    0.0091 (will be added to EATOM!!)
 
 
 POSCAR: Ni Pd
  positions in cartesian coordinates
  No initial velocities read in
 exchange correlation table for  LEXCH =        8
   RHO(1)=    0.500       N(1)  =     2000
   RHO(2)=  100.500       N(2)  =     4000
 


--------------------------------------------------------------------------------------------------------


 ion  position               nearest neighbor table
   1  0.550  0.493  0.489-   5 2.42   6 2.42   3 2.42   8 2.48  10 2.48   7 2.49   2 2.52   4 2.52
                             9 2.63
   2  0.494  0.456  0.399-   4 2.46   3 2.47   8 2.47   1 2.52   9 2.52   7 2.54
   3  0.570  0.535  0.392-   1 2.42   2 2.47   5 2.47   4 2.48   8 2.51
   4  0.474  0.558  0.439-   5 2.40   2 2.46   3 2.48   9 2.51   1 2.52  10 2.53
   5  0.562  0.601  0.480-   4 2.40   1 2.42   3 2.47  10 2.51
   6  0.507  0.449  0.577-   1 2.42   9 2.47  10 2.54   7 2.55
   7  0.519  0.385  0.484-   1 2.49   2 2.54   6 2.55   8 2.58   9 2.61
   8  0.598  0.428  0.414-   2 2.47   1 2.48   3 2.51   7 2.58
   9  0.437  0.467  0.495-   6 2.47   4 2.51   2 2.52   7 2.61  10 2.62   1 2.63
  10  0.486  0.558  0.550-   1 2.48   5 2.51   4 2.53   6 2.54   9 2.62
 

IMPORTANT INFORMATION: All symmetrisations will be switched off!
NOSYMM: (Re-)initialisation of all symmetry stuff for point group C_1.


----------------------------------------------------------------------------------------

                                     Primitive cell                                     

  volume of cell :   11332.7222

  direct lattice vectors                    reciprocal lattice vectors
    22.701899031  0.000000000  0.000000000     0.044049178  0.000000000  0.000000000
     0.000000000 22.099665432  0.000000000     0.000000000  0.045249554  0.000000000
     0.000000000  0.000000000 22.588446045     0.000000000  0.000000000  0.044270420

  length of vectors
    22.701899031 22.099665432 22.588446045     0.044049178  0.045249554  0.044270420

  position of ions in fractional coordinates (direct lattice)
     0.550149602  0.492687743  0.488761789
     0.494026648  0.456181342  0.399471314
     0.570174513  0.535455158  0.392062235
     0.473631256  0.557840341  0.438729152
     0.561658410  0.601062961  0.480071303
     0.507134558  0.449025720  0.577013806
     0.519067674  0.384712832  0.483969771
     0.598483902  0.427815086  0.413811771
     0.437362131  0.467110662  0.494900514
     0.486064468  0.558471150  0.549876238

  ion indices of the primitive-cell ions
   primitive index   ion index
                 1           1
                 2           2
                 3           3
                 4           4
                 5           5
                 6           6
                 7           7
                 8           8
                 9           9
                10          10

----------------------------------------------------------------------------------------

 
 
 KPOINTS: KPOINTS created by Atomic Simulation Env

Automatic generation of k-mesh.
Space group operators:
 irot       det(A)        alpha          n_x          n_y          n_z        tau_x        tau_y        tau_z
    1     1.000000     0.000000     1.000000     0.000000     0.000000     0.000000     0.000000     0.000000
 
 Subroutine IBZKPT returns following result:
 ===========================================
 
 Found      1 irreducible k-points:
 
 Following reciprocal coordinates:
            Coordinates               Weight
  0.000000  0.000000  0.000000      1.000000
 
 Following cartesian coordinates:
            Coordinates               Weight
  0.000000  0.000000  0.000000      1.000000
 


--------------------------------------------------------------------------------------------------------




 Dimension of arrays:
   k-points           NKPTS =      1   k-points in BZ     NKDIM =      1   number of bands    NBANDS=     65
   number of dos      NEDOS =    301   number of ions     NIONS =     10
   non local maximal  LDIM  =      6   non local SUM 2l+1 LMDIM =     18
   total plane-waves  NPLWV = ******
   max r-space proj   IRMAX =      1   max aug-charges    IRDMAX=   5998
   dimension x,y,z NGX =   112 NGY =  108 NGZ =  112
   dimension x,y,z NGXF=   224 NGYF=  216 NGZF=  224
   support grid    NGXF=   224 NGYF=  216 NGZF=  224
   ions per type =               6   4
   NGX,Y,Z   is equivalent  to a cutoff of   8.20,  8.12,  8.24 a.u.
   NGXF,Y,Z  is equivalent  to a cutoff of  16.40, 16.25, 16.49 a.u.

 SYSTEM =  unknown system                          
 POSCAR =  Ni Pd                                   

 Startparameter for this run:
   NWRITE =      2    write-flag & timer
   PREC   = normal    normal or accurate (medium, high low for compatibility)
   ISTART =      0    job   : 0-new  1-cont  2-samecut
   ICHARG =      2    charge: 1-file 2-atom 10-const
   ISPIN  =      2    spin polarized calculation?
   LNONCOLLINEAR =      F non collinear calculations
   LSORBIT =      F    spin-orbit coupling
   INIWAV =      1    electr: 0-lowe 1-rand  2-diag
   LASPH  =      F    aspherical Exc in radial PAW
   METAGGA=      F    non-selfconsistent MetaGGA calc.

 Electronic Relaxation 1
   ENCUT  =  400.0 eV  29.40 Ry    5.42 a.u.  37.02 36.04 36.84*2*pi/ulx,y,z
   ENINI  =  400.0     initial cutoff
   ENAUG  =  544.6 eV  augmentation charge cutoff
   NELM   =     60;   NELMIN=  2; NELMDL=  0     # of ELM steps 
   EDIFF  = 0.1E-03   stopping-criterion for ELM
   LREAL  =      F    real-space projection
   NLSPLINE    = F    spline interpolate recip. space projectors
   LCOMPAT=      F    compatible to vasp.4.4
   GGA_COMPAT  = T    GGA compatible to vasp.4.4-vasp.4.6
   LMAXPAW     = -100 max onsite density
   LMAXMIX     =    2 max onsite mixed and CHGCAR
   VOSKOWN=      0    Vosko Wilk Nusair interpolation
   ROPT   =    0.00000   0.00000
 Ionic relaxation
   EDIFFG = 0.1E-02   stopping-criterion for IOM
   NSW    =   1000    number of steps for IOM
   NBLOCK =      1;   KBLOCK =   1000    inner block; outer block 
   IBRION =      2    ionic relax: 0-MD 1-quasi-New 2-CG
   NFREE  =      1    steps in history (QN), initial steepest desc. (CG)
   ISIF   =      0    stress and relaxation
   IWAVPR =     11    prediction:  0-non 1-charg 2-wave 3-comb
   ISYM   =      0    0-nonsym 1-usesym 2-fastsym
   LCORR  =      T    Harris-Foulkes like correction to forces

   POTIM  = 0.5000    time-step for ionic-motion
   TEIN   =    0.0    initial temperature
   TEBEG  =    0.0;   TEEND  =   0.0 temperature during run
   SMASS  =  -3.00    Nose mass-parameter (am)
   estimated Nose-frequenzy (Omega)   =  0.10E-29 period in steps = 0.13E+47 mass=  -0.118E-25a.u.
   SCALEE = 1.0000    scale energy and forces
   NPACO  =    256;   APACO  = 16.0  distance and # of slots for P.C.
   PSTRESS=    0.0 pullay stress

  Mass of Ions in am
   POMASS =  58.69106.42
  Ionic Valenz
   ZVAL   =  10.00 10.00
  Atomic Wigner-Seitz radii
   RWIGS  =  -1.00 -1.00
  virtual crystal weights 
   VCA    =   1.00  1.00
   NELECT =     100.0000    total number of electrons
   NUPDOWN=      -1.0000    fix difference up-down

 DOS related values:
   EMIN   =  10.00;   EMAX   =-10.00  energy-range for DOS
   EFERMI =   0.00
   ISMEAR =     1;   SIGMA  =   0.20  broadening in eV -4-tet -1-fermi 0-gaus

 Electronic relaxation 2 (details)
   IALGO  =     38    algorithm
   LDIAG  =      T    sub-space diagonalisation (order eigenvalues)
   LSUBROT=      F    optimize rotation matrix (better conditioning)
   TURBO    =      0    0=normal 1=particle mesh
   IRESTART =      0    0=no restart 2=restart with 2 vectors
   NREBOOT  =      0    no. of reboots
   NMIN     =      0    reboot dimension
   EREF     =   0.00    reference energy to select bands
   IMIX   =      4    mixing-type and parameters
     AMIX     =   0.40;   BMIX     =  1.00
     AMIX_MAG =   1.60;   BMIX_MAG =  1.00
     AMIN     =   0.10
     WC   =   100.;   INIMIX=   1;  MIXPRE=   1;  MAXMIX= -45

 Intra band minimization:
   WEIMIN = 0.0010     energy-eigenvalue tresh-hold
   EBREAK =  0.38E-06  absolut break condition
   DEPER  =   0.30     relativ break condition  

   TIME   =   0.40     timestep for ELM

  volume/ion in A,a.u.               =    1133.27      7647.70
  Fermi-wavevector in a.u.,A,eV,Ry     =   0.338296  0.639287  1.557107  0.114444
  Thomas-Fermi vector in A             =   1.240230
 
 Write flags
   LWAVE        =      F    write WAVECAR
   LDOWNSAMPLE  =      F    k-point downsampling of WAVECAR
   LCHARG       =      F    write CHGCAR
   LVTOT        =      F    write LOCPOT, total local potential
   LVHAR        =      F    write LOCPOT, Hartree potential only
   LELF         =      F    write electronic localiz. function (ELF)
   LORBIT       =      0    0 simple, 1 ext, 2 COOP (PROOUT), +10 PAW based schemes


 Dipole corrections
   LMONO  =      F    monopole corrections only (constant potential shift)
   LDIPOL =      F    correct potential (dipole corrections)
   IDIPOL =      0    1-x, 2-y, 3-z, 4-all directions 
   EPSILON=  1.0000000 bulk dielectric constant

 Exchange correlation treatment:
   GGA     =    PE    GGA type
   LEXCH   =     8    internal setting for exchange type
   VOSKOWN=      0    Vosko Wilk Nusair interpolation
   LHFCALC =     F    Hartree Fock is set to
   LHFONE  =     F    Hartree Fock one center treatment
   AEXX    =    0.0000 exact exchange contribution

 Linear response parameters
   LEPSILON=     F    determine dielectric tensor
   LRPA    =     F    only Hartree local field effects (RPA)
   LNABLA  =     F    use nabla operator in PAW spheres
   LVEL    =     F    velocity operator in full k-point grid
   LINTERFAST=   F  fast interpolation
   KINTER  =     0    interpolate to denser k-point grid
   CSHIFT  =0.1000    complex shift for real part using Kramers Kronig
   OMEGAMAX=  -1.0    maximum frequency
   DEG_THRESHOLD= 0.2000000E-02 threshold for treating states as degnerate
   RTIME   =   -0.100 relaxation time in fs
  (WPLASMAI=    0.000 imaginary part of plasma frequency in eV, 0.658/RTIME)
   DFIELD  = 0.0000000 0.0000000 0.0000000 field for delta impulse in time
 
 Orbital magnetization related:
   ORBITALMAG=     F  switch on orbital magnetization
   LCHIMAG   =     F  perturbation theory with respect to B field
   DQ        =  0.001000  dq finite difference perturbation B field
   LLRAUG    =     F  two centre corrections for induced B field



--------------------------------------------------------------------------------------------------------


 conjugate gradient relaxation of ions
 charge density and potential will be updated during run
 spin polarized calculation
 Variant of blocked Davidson
 Davidson routine will perform the subspace rotation
 perform sub-space diagonalisation
    after iterative eigenvector-optimisation
 modified Broyden-mixing scheme, WC =      100.0
 initial mixing is a Kerker type mixing with AMIX =  0.4000 and BMIX =      1.0000
 Hartree-type preconditioning will be used
 using additional bands            15
 reciprocal scheme for non local part
 use partial core corrections
 calculate Harris-corrections to forces 
   (improved forces if not selfconsistent)
 use gradient corrections 
 use of overlap-Matrix (Vanderbilt PP)
 Methfessel and Paxton  Order N= 1 SIGMA  =   0.20


--------------------------------------------------------------------------------------------------------


  energy-cutoff  :      400.00
  volume of cell :    11332.72
      direct lattice vectors                 reciprocal lattice vectors
    22.701899031  0.000000000  0.000000000     0.044049178  0.000000000  0.000000000
     0.000000000 22.099665432  0.000000000     0.000000000  0.045249554  0.000000000
     0.000000000  0.000000000 22.588446045     0.000000000  0.000000000  0.044270420

  length of vectors
    22.701899031 22.099665432 22.588446045     0.044049178  0.045249554  0.044270420


 
 k-points in units of 2pi/SCALE and weight: KPOINTS created by Atomic Simulation Env
   0.00000000  0.00000000  0.00000000       1.000
 
 k-points in reciprocal lattice and weights: KPOINTS created by Atomic Simulation Env
   0.00000000  0.00000000  0.00000000       1.000
 
 position of ions in fractional coordinates (direct lattice) 
   0.55014960  0.49268774  0.48876179
   0.49402665  0.45618134  0.39947131
   0.57017451  0.53545516  0.39206223
   0.47363126  0.55784034  0.43872915
   0.56165841  0.60106296  0.48007130
   0.50713456  0.44902572  0.57701381
   0.51906767  0.38471283  0.48396977
   0.59848390  0.42781509  0.41381177
   0.43736213  0.46711066  0.49490051
   0.48606447  0.55847115  0.54987624
 
 position of ions in cartesian coordinates  (Angst):
  12.48944071 10.88823429 11.04036930
  11.21534307 10.08145504  9.02343622
  12.94404423 11.83337985  8.85607663
  10.75232895 12.32808491  9.91020979
  12.75071252 13.28329035 10.84406473
  11.51291753  9.92331817 13.03384521
  11.78382192  8.50202487 10.93212506
  13.58672111  9.45457027  9.34736487
   9.92895094 10.32298935 11.17903356
  11.03458648 12.34202556 12.42084973
 


--------------------------------------------------------------------------------------------------------


 use parallel FFT for orbitals z direction half grid
 k-point   1 :   0.0000 0.0000 0.0000  plane waves:  102870

 maximum and minimum number of plane-waves per node :      6440     6422

 maximum number of plane-waves:    102870
 maximum index in each direction: 
   IXMAX=   37   IYMAX=   36   IZMAX=   36
   IXMIN=  -37   IYMIN=  -36   IZMIN=    0


 parallel 3D FFT for wavefunctions:
    minimum data exchange during FFTs selected (reduces bandwidth)
 parallel 3D FFT for charge:
    minimum data exchange during FFTs selected (reduces bandwidth)


 total amount of memory used by VASP MPI-rank0   132422. kBytes
=======================================================================

   base      :      30000. kBytes
   nonl-proj :       2884. kBytes
   fftplans  :      24725. kBytes
   grid      :      61389. kBytes
   one-center:         15. kBytes
   wavefun   :      13409. kBytes
 
     INWAV:  cpu time    0.0000: real time    0.0000
 Broyden mixing: mesh for mixing (old mesh)
   NGX = 75   NGY = 73   NGZ = 73
  (NGX  =224   NGY  =216   NGZ  =224)
  gives a total of 399675 points

 initial charge density was supplied:
 charge density of overlapping atoms calculated
 number of electron     100.0000000 magnetization      10.0000000
 keeping initial charge density in first step


--------------------------------------------------------------------------------------------------------


 Maximum index for augmentation-charges           370 (set IRDMAX)


--------------------------------------------------------------------------------------------------------


 First call to EWALD:  gamma=   0.079
 Maximum number of real-space cells 3x 3x 3
 Maximum number of reciprocal cells 3x 3x 3

    FEWALD:  cpu time    0.0011: real time    0.0011


--------------------------------------- Iteration      1(   1)  ---------------------------------------


    POTLOK:  cpu time    2.2362: real time    2.2592
    SETDIJ:  cpu time    0.0230: real time    0.0230
     EDDAV:  cpu time    4.5686: real time    4.5754
       DOS:  cpu time    0.0032: real time    0.0032
    --------------------------------------------
      LOOP:  cpu time    6.8310: real time    6.8609

 eigenvalue-minimisations  :   260
 total energy-change (2. order) : 0.7273699E+03  (-0.1607223E+04)
 number of electron     100.0000000 magnetization      10.0000000
 augmentation part      100.0000000 magnetization      10.0000000

 Free energy of the ion-electron system (eV)
  ---------------------------------------------------
  alpha Z        PSCENC =         5.00054001
  Ewald energy   TEWEN  =     12713.68596973
  -Hartree energ DENC   =    -21692.88478854
  -exchange      EXHF   =         0.00000000
  -V(xc)+E(xc)   XCENC  =        62.99406866
  PAW double counting   =      9003.59075477    -9155.75339974
  entropy T*S    EENTRO =        -0.03237044
  eigenvalues    EBANDS =        85.81052381
  atomic energy  EATOM  =      9704.95859309
  Solvation  Ediel_sol  =         0.00000000
  ---------------------------------------------------
  free energy    TOTEN  =       727.36989135 eV

  energy without entropy =      727.40226180  energy(sigma->0) =      727.38068150


--------------------------------------------------------------------------------------------------------




--------------------------------------- Iteration      1(   2)  ---------------------------------------


     EDDAV:  cpu time    7.1457: real time    7.1536
       DOS:  cpu time    0.0095: real time    0.0095
    --------------------------------------------
      LOOP:  cpu time    7.1551: real time    7.1631

 eigenvalue-minimisations  :   463
 total energy-change (2. order) :-0.4753629E+03  (-0.4412274E+03)
 number of electron     100.0000000 magnetization      10.0000000
 augmentation part      100.0000000 magnetization      10.0000000

 Free energy of the ion-electron system (eV)
  ---------------------------------------------------
  alpha Z        PSCENC =         5.00054001
  Ewald energy   TEWEN  =     12713.68596973
  -Hartree energ DENC   =    -21692.88478854
  -exchange      EXHF   =         0.00000000
  -V(xc)+E(xc)   XCENC  =        62.99406866
  PAW double counting   =      9003.59075477    -9155.75339974
  entropy T*S    EENTRO =         0.07415492
  eigenvalues    EBANDS =      -389.65889655
  atomic energy  EATOM  =      9704.95859309
  Solvation  Ediel_sol  =         0.00000000
  ---------------------------------------------------
  free energy    TOTEN  =       252.00699636 eV

  energy without entropy =      251.93284144  energy(sigma->0) =      251.98227805


--------------------------------------------------------------------------------------------------------




--------------------------------------- Iteration      1(   3)  ---------------------------------------


     EDDAV:  cpu time    5.9822: real time    5.9906
       DOS:  cpu time    0.0047: real time    0.0047
    --------------------------------------------
      LOOP:  cpu time    5.9870: real time    5.9954

 eigenvalue-minimisations  :   376
 total energy-change (2. order) :-0.2333325E+03  (-0.2213932E+03)
 number of electron     100.0000000 magnetization      10.0000000
 augmentation part      100.0000000 magnetization      10.0000000

 Free energy of the ion-electron system (eV)
  ---------------------------------------------------
  alpha Z        PSCENC =         5.00054001
  Ewald energy   TEWEN  =     12713.68596973
  -Hartree energ DENC   =    -21692.88478854
  -exchange      EXHF   =         0.00000000
  -V(xc)+E(xc)   XCENC  =        62.99406866
  PAW double counting   =      9003.59075477    -9155.75339974
  entropy T*S    EENTRO =        -0.01413066
  eigenvalues    EBANDS =      -622.90315687
  atomic energy  EATOM  =      9704.95859309
  Solvation  Ediel_sol  =         0.00000000
  ---------------------------------------------------
  free energy    TOTEN  =        18.67445046 eV

  energy without entropy =       18.68858112  energy(sigma->0) =       18.67916068


--------------------------------------------------------------------------------------------------------




--------------------------------------- Iteration      1(   4)  ---------------------------------------


     EDDAV:  cpu time    6.5506: real time    6.5574
       DOS:  cpu time    0.0024: real time    0.0024
    --------------------------------------------
      LOOP:  cpu time    6.5530: real time    6.5598

 eigenvalue-minimisations  :   424
 total energy-change (2. order) :-0.5607892E+02  (-0.4896180E+02)
 number of electron     100.0000000 magnetization      10.0000000
 augmentation part      100.0000000 magnetization      10.0000000

 Free energy of the ion-electron system (eV)
  ---------------------------------------------------
  alpha Z        PSCENC =         5.00054001
  Ewald energy   TEWEN  =     12713.68596973
  -Hartree energ DENC   =    -21692.88478854
  -exchange      EXHF   =         0.00000000
  -V(xc)+E(xc)   XCENC  =        62.99406866
  PAW double counting   =      9003.59075477    -9155.75339974
  entropy T*S    EENTRO =        -0.03959188
  eigenvalues    EBANDS =      -678.95661429
  atomic energy  EATOM  =      9704.95859309
  Solvation  Ediel_sol  =         0.00000000
  ---------------------------------------------------
  free energy    TOTEN  =       -37.40446818 eV

  energy without entropy =      -37.36487630  energy(sigma->0) =      -37.39127089


--------------------------------------------------------------------------------------------------------




--------------------------------------- Iteration      1(   5)  ---------------------------------------


     EDDAV:  cpu time    5.1312: real time    5.1364
       DOS:  cpu time    0.0066: real time    0.0066
    CHARGE:  cpu time    0.5569: real time    0.5574
    MIXING:  cpu time    0.0363: real time    0.0364
    --------------------------------------------
      LOOP:  cpu time    5.7311: real time    5.7368

 eigenvalue-minimisations  :   312
 total energy-change (2. order) :-0.6289740E+01  (-0.6007857E+01)
 number of electron     100.0000217 magnetization       9.7742473
 augmentation part       52.1920249 magnetization       7.8819501

 Broyden mixing:
  rms(total) = 0.27539E+01    rms(broyden)= 0.27534E+01
  rms(prec ) = 0.29064E+01
  weight for this iteration     100.00

 Free energy of the ion-electron system (eV)
  ---------------------------------------------------
  alpha Z        PSCENC =         5.00054001
  Ewald energy   TEWEN  =     12713.68596973
  -Hartree energ DENC   =    -21692.88478854
  -exchange      EXHF   =         0.00000000
  -V(xc)+E(xc)   XCENC  =        62.99406866
  PAW double counting   =      9003.59075477    -9155.75339974
  entropy T*S    EENTRO =        -0.02220461
  eigenvalues    EBANDS =      -685.26374196
  atomic energy  EATOM  =      9704.95859309
  Solvation  Ediel_sol  =         0.00000000
  ---------------------------------------------------
  free energy    TOTEN  =       -43.69420858 eV

  energy without entropy =      -43.67200398  energy(sigma->0) =      -43.68680705


--------------------------------------------------------------------------------------------------------




--------------------------------------- Iteration      1(   6)  ---------------------------------------


    POTLOK:  cpu time    2.2828: real time    2.2858
    SETDIJ:  cpu time    0.0235: real time    0.0235
     EDDAV:  cpu time    4.9278: real time    4.9348
       DOS:  cpu time    0.0052: real time    0.0052
    CHARGE:  cpu time    0.5515: real time    0.5519
    MIXING:  cpu time    0.0383: real time    0.0384
    --------------------------------------------
      LOOP:  cpu time    7.8290: real time    7.8396

 eigenvalue-minimisations  :   294
 total energy-change (2. order) :-0.1800724E+02  (-0.1044310E+02)
 number of electron     100.0000245 magnetization       9.5157152
 augmentation part       56.4314667 magnetization       8.8645357

 Broyden mixing:
  rms(total) = 0.55675E+01    rms(broyden)= 0.55672E+01
  rms(prec ) = 0.59635E+01
  weight for this iteration     100.00

 eigenvalues of (default mixing * dielectric matrix)
  average eigenvalue GAMMA=   0.2924
  0.2924

 Free energy of the ion-electron system (eV)
  ---------------------------------------------------
  alpha Z        PSCENC =         5.00054001
  Ewald energy   TEWEN  =     12713.68596973
  -Hartree energ DENC   =    -21619.39218798
  -exchange      EXHF   =         0.00000000
  -V(xc)+E(xc)   XCENC  =        59.76568729
  PAW double counting   =      9445.24294881    -9571.43220403
  entropy T*S    EENTRO =        -0.01169929
  eigenvalues    EBANDS =      -799.51909249
  atomic energy  EATOM  =      9704.95859309
  Solvation  Ediel_sol  =         0.00000000
  ---------------------------------------------------
  free energy    TOTEN  =       -61.70144485 eV

  energy without entropy =      -61.68974556  energy(sigma->0) =      -61.69754508


--------------------------------------------------------------------------------------------------------




--------------------------------------- Iteration      1(   7)  ---------------------------------------


    POTLOK:  cpu time    2.2680: real time    2.2722
    SETDIJ:  cpu time    0.0230: real time    0.0230
     EDDAV:  cpu time    5.4164: real time    5.4218
       DOS:  cpu time    0.0072: real time    0.0073
    CHARGE:  cpu time    0.5520: real time    0.5525
    MIXING:  cpu time    0.0408: real time    0.0408
    --------------------------------------------
      LOOP:  cpu time    8.3074: real time    8.3175

 eigenvalue-minimisations  :   333
 total energy-change (2. order) : 0.2266931E+02  (-0.5188632E+01)
 number of electron     100.0000194 magnetization       9.4768805
 augmentation part       55.0617200 magnetization       7.2673366

 Broyden mixing:
  rms(total) = 0.34450E+01    rms(broyden)= 0.34446E+01
  rms(prec ) = 0.36565E+01
  weight for this iteration     100.00

 eigenvalues of (default mixing * dielectric matrix)
  average eigenvalue GAMMA=   0.2204
  0.2204  0.2204

 Free energy of the ion-electron system (eV)
  ---------------------------------------------------
  alpha Z        PSCENC =         5.00054001
  Ewald energy   TEWEN  =     12713.68596973
  -Hartree energ DENC   =    -21668.45556250
  -exchange      EXHF   =         0.00000000
  -V(xc)+E(xc)   XCENC  =        61.07268613
  PAW double counting   =      9592.12315240    -9742.23734944
  entropy T*S    EENTRO =        -0.03465596
  eigenvalues    EBANDS =      -705.14551297
  atomic energy  EATOM  =      9704.95859309
  Solvation  Ediel_sol  =         0.00000000
  ---------------------------------------------------
  free energy    TOTEN  =       -39.03213951 eV

  energy without entropy =      -38.99748355  energy(sigma->0) =      -39.02058752


--------------------------------------------------------------------------------------------------------




--------------------------------------- Iteration      1(   8)  ---------------------------------------


    POTLOK:  cpu time    2.2728: real time    2.2779
    SETDIJ:  cpu time    0.0233: real time    0.0233
     EDDAV:  cpu time    5.5091: real time    5.5149
       DOS:  cpu time    0.0073: real time    0.0073
    CHARGE:  cpu time    0.5496: real time    0.5501
    MIXING:  cpu time    0.0430: real time    0.0430
    --------------------------------------------
      LOOP:  cpu time    8.4051: real time    8.4166

 eigenvalue-minimisations  :   343
 total energy-change (2. order) : 0.6054506E+00  (-0.2937923E+01)
 number of electron     100.0000244 magnetization       9.4032650
 augmentation part       55.6525717 magnetization       7.0448468

 Broyden mixing:
  rms(total) = 0.33902E+01    rms(broyden)= 0.33896E+01
  rms(prec ) = 0.36042E+01
  weight for this iteration     100.00

 eigenvalues of (default mixing * dielectric matrix)
  average eigenvalue GAMMA=   0.2311
  0.2773  0.2773  0.1388

 Free energy of the ion-electron system (eV)
  ---------------------------------------------------
  alpha Z        PSCENC =         5.00054001
  Ewald energy   TEWEN  =     12713.68596973
  -Hartree energ DENC   =    -21670.55715685
  -exchange      EXHF   =         0.00000000
  -V(xc)+E(xc)   XCENC  =        61.13043184
  PAW double counting   =      9644.35937069    -9793.94165565
  entropy T*S    EENTRO =        -0.00608265
  eigenvalues    EBANDS =      -703.05669911
  atomic energy  EATOM  =      9704.95859309
  Solvation  Ediel_sol  =         0.00000000
  ---------------------------------------------------
  free energy    TOTEN  =       -38.42668890 eV

  energy without entropy =      -38.42060625  energy(sigma->0) =      -38.42466135


--------------------------------------------------------------------------------------------------------




--------------------------------------- Iteration      1(   9)  ---------------------------------------


    POTLOK:  cpu time    2.2671: real time    2.2737
    SETDIJ:  cpu time    0.0267: real time    0.0267
     EDDAV:  cpu time    5.5101: real time    5.5202
       DOS:  cpu time    0.0080: real time    0.0080
    CHARGE:  cpu time    0.5576: real time    0.5587
    MIXING:  cpu time    0.0506: real time    0.0506
    --------------------------------------------
      LOOP:  cpu time    8.4202: real time    8.4380

 eigenvalue-minimisations  :   343
 total energy-change (2. order) :-0.2437032E+01  (-0.2893906E+01)
 number of electron     100.0000238 magnetization       9.2438280
 augmentation part       54.6811163 magnetization       6.6939894

 Broyden mixing:
  rms(total) = 0.42314E+01    rms(broyden)= 0.42310E+01
  rms(prec ) = 0.45221E+01
  weight for this iteration     100.00

 eigenvalues of (default mixing * dielectric matrix)
  average eigenvalue GAMMA=   0.3310
  0.8234  0.2266  0.1370  0.1370

 Free energy of the ion-electron system (eV)
  ---------------------------------------------------
  alpha Z        PSCENC =         5.00054001
  Ewald energy   TEWEN  =     12713.68596973
  -Hartree energ DENC   =    -21692.99056730
  -exchange      EXHF   =         0.00000000
  -V(xc)+E(xc)   XCENC  =        61.54418644
  PAW double counting   =      9734.60019452    -9888.01728498
  entropy T*S    EENTRO =        -0.02047602
  eigenvalues    EBANDS =      -679.62487659
  atomic energy  EATOM  =      9704.95859309
  Solvation  Ediel_sol  =         0.00000000
  ---------------------------------------------------
  free energy    TOTEN  =       -40.86372111 eV

  energy without entropy =      -40.84324509  energy(sigma->0) =      -40.85689577


--------------------------------------------------------------------------------------------------------




--------------------------------------- Iteration      1(  10)  ---------------------------------------


    POTLOK:  cpu time    2.2762: real time    2.2792
    SETDIJ:  cpu time    0.0238: real time    0.0238
     EDDAV:  cpu time    5.4542: real time    5.4599
       DOS:  cpu time    0.0074: real time    0.0074
    CHARGE:  cpu time    0.5449: real time    0.5454
    MIXING:  cpu time    0.0514: real time    0.0514
    --------------------------------------------
      LOOP:  cpu time    8.3579: real time    8.3670

 eigenvalue-minimisations  :   336
 total energy-change (2. order) : 0.3803473E+01  (-0.1831527E+01)
 number of electron     100.0000240 magnetization       9.2136840
 augmentation part       54.5311713 magnetization       6.7789000

 Broyden mixing:
  rms(total) = 0.34020E+01    rms(broyden)= 0.34017E+01
  rms(prec ) = 0.36188E+01
  weight for this iteration     100.00

 eigenvalues of (default mixing * dielectric matrix)
  average eigenvalue GAMMA=   0.2923
  0.8705  0.2334  0.1368  0.1368  0.0840

 Free energy of the ion-electron system (eV)
  ---------------------------------------------------
  alpha Z        PSCENC =         5.00054001
  Ewald energy   TEWEN  =     12713.68596973
  -Hartree energ DENC   =    -21724.86804174
  -exchange      EXHF   =         0.00000000
  -V(xc)+E(xc)   XCENC  =        62.54242862
  PAW double counting   =      9906.05545706   -10066.83121056
  entropy T*S    EENTRO =        -0.01117716
  eigenvalues    EBANDS =      -637.59280690
  atomic energy  EATOM  =      9704.95859309
  Solvation  Ediel_sol  =         0.00000000
  ---------------------------------------------------
  free energy    TOTEN  =       -37.06024785 eV

  energy without entropy =      -37.04907069  energy(sigma->0) =      -37.05652213


--------------------------------------------------------------------------------------------------------




--------------------------------------- Iteration      1(  11)  ---------------------------------------


    POTLOK:  cpu time    2.2606: real time    2.2673
    SETDIJ:  cpu time    0.0227: real time    0.0227
     EDDAV:  cpu time    5.9004: real time    5.9087
       DOS:  cpu time    0.0104: real time    0.0104
    CHARGE:  cpu time    0.5517: real time    0.5545
    MIXING:  cpu time    0.0564: real time    0.0564
    --------------------------------------------
      LOOP:  cpu time    8.8022: real time    8.8200

 eigenvalue-minimisations  :   376
 total energy-change (2. order) : 0.1574011E+01  (-0.5203907E+00)
 number of electron     100.0000231 magnetization       9.1477176
 augmentation part       54.5399758 magnetization       6.5474001

 Broyden mixing:
  rms(total) = 0.19089E+01    rms(broyden)= 0.19081E+01
  rms(prec ) = 0.20564E+01
  weight for this iteration     100.00

 eigenvalues of (default mixing * dielectric matrix)
  average eigenvalue GAMMA=   0.2976
  0.8756  0.3871  0.1532  0.1368  0.1368  0.0962

 Free energy of the ion-electron system (eV)
  ---------------------------------------------------
  alpha Z        PSCENC =         5.00054001
  Ewald energy   TEWEN  =     12713.68596973
  -Hartree energ DENC   =    -21726.95059051
  -exchange      EXHF   =         0.00000000
  -V(xc)+E(xc)   XCENC  =        62.54344189
  PAW double counting   =      9929.41345839   -10090.85963451
  entropy T*S    EENTRO =        -0.00809057
  eigenvalues    EBANDS =      -633.26992389
  atomic energy  EATOM  =      9704.95859309
  Solvation  Ediel_sol  =         0.00000000
  ---------------------------------------------------
  free energy    TOTEN  =       -35.48623636 eV

  energy without entropy =      -35.47814578  energy(sigma->0) =      -35.48353950


--------------------------------------------------------------------------------------------------------




--------------------------------------- Iteration      1(  12)  ---------------------------------------


    POTLOK:  cpu time    2.2537: real time    2.2595
    SETDIJ:  cpu time    0.0240: real time    0.0240
     EDDAV:  cpu time    5.9110: real time    5.9172
       DOS:  cpu time    0.0103: real time    0.0103
    CHARGE:  cpu time    0.5497: real time    0.5502
    MIXING:  cpu time    0.0633: real time    0.0634
    --------------------------------------------
      LOOP:  cpu time    8.8120: real time    8.8247

 eigenvalue-minimisations  :   374
 total energy-change (2. order) :-0.3103379E-01  (-0.4918203E+00)
 number of electron     100.0000220 magnetization       9.0934844
 augmentation part       54.4295227 magnetization       6.6175333

 Broyden mixing:
  rms(total) = 0.16704E+01    rms(broyden)= 0.16697E+01
  rms(prec ) = 0.17659E+01
  weight for this iteration     100.00

 eigenvalues of (default mixing * dielectric matrix)
  average eigenvalue GAMMA=   0.3110
  0.9332  0.5298  0.2288  0.1471  0.1471  0.0954  0.0954

 Free energy of the ion-electron system (eV)
  ---------------------------------------------------
  alpha Z        PSCENC =         5.00054001
  Ewald energy   TEWEN  =     12713.68596973
  -Hartree energ DENC   =    -21730.31378240
  -exchange      EXHF   =         0.00000000
  -V(xc)+E(xc)   XCENC  =        62.22735293
  PAW double counting   =      9979.15782896   -10141.55519291
  entropy T*S    EENTRO =        -0.01367234
  eigenvalues    EBANDS =      -628.66490721
  atomic energy  EATOM  =      9704.95859309
  Solvation  Ediel_sol  =         0.00000000
  ---------------------------------------------------
  free energy    TOTEN  =       -35.51727014 eV

  energy without entropy =      -35.50359781  energy(sigma->0) =      -35.51271270


--------------------------------------------------------------------------------------------------------




--------------------------------------- Iteration      1(  13)  ---------------------------------------


    POTLOK:  cpu time    2.2632: real time    2.2674
    SETDIJ:  cpu time    0.0228: real time    0.0228
     EDDAV:  cpu time    5.1744: real time    5.1843
       DOS:  cpu time    0.0105: real time    0.0105
    CHARGE:  cpu time    0.5473: real time    0.5501
    MIXING:  cpu time    0.0714: real time    0.0714
    --------------------------------------------
      LOOP:  cpu time    8.0895: real time    8.1066

 eigenvalue-minimisations  :   318
 total energy-change (2. order) : 0.1805036E+00  (-0.2912941E+00)
 number of electron     100.0000229 magnetization       9.0154729
 augmentation part       54.3085414 magnetization       6.6385291

 Broyden mixing:
  rms(total) = 0.15369E+01    rms(broyden)= 0.15361E+01
  rms(prec ) = 0.16268E+01
  weight for this iteration     100.00

 eigenvalues of (default mixing * dielectric matrix)
  average eigenvalue GAMMA=   0.3432
  1.0641  0.5301  0.5301  0.1661  0.1386  0.1386  0.0891  0.0891

 Free energy of the ion-electron system (eV)
  ---------------------------------------------------
  alpha Z        PSCENC =         5.00054001
  Ewald energy   TEWEN  =     12713.68596973
  -Hartree energ DENC   =    -21734.60871172
  -exchange      EXHF   =         0.00000000
  -V(xc)+E(xc)   XCENC  =        62.10256705
  PAW double counting   =     10013.86088509   -10177.14717686
  entropy T*S    EENTRO =        -0.00569253
  eigenvalues    EBANDS =      -623.18374046
  atomic energy  EATOM  =      9704.95859309
  Solvation  Ediel_sol  =         0.00000000
  ---------------------------------------------------
  free energy    TOTEN  =       -35.33676659 eV

  energy without entropy =      -35.33107406  energy(sigma->0) =      -35.33486908


--------------------------------------------------------------------------------------------------------




--------------------------------------- Iteration      1(  14)  ---------------------------------------


    POTLOK:  cpu time    2.2325: real time    2.2441
    SETDIJ:  cpu time    0.0224: real time    0.0224
     EDDAV:  cpu time    5.5154: real time    5.5213
       DOS:  cpu time    0.0105: real time    0.0105
    CHARGE:  cpu time    0.5463: real time    0.5468
    MIXING:  cpu time    0.0750: real time    0.0751
    --------------------------------------------
      LOOP:  cpu time    8.4020: real time    8.4200

 eigenvalue-minimisations  :   344
 total energy-change (2. order) :-0.7995108E-01  (-0.9411098E-01)
 number of electron     100.0000225 magnetization       8.9926071
 augmentation part       54.3139007 magnetization       6.6714790

 Broyden mixing:
  rms(total) = 0.10639E+01    rms(broyden)= 0.10632E+01
  rms(prec ) = 0.11280E+01
  weight for this iteration     100.00

 eigenvalues of (default mixing * dielectric matrix)
  average eigenvalue GAMMA=   0.3208
  1.0680  0.5521  0.5521  0.1546  0.1546  0.1381  0.0936  0.0936  0.0807

 Free energy of the ion-electron system (eV)
  ---------------------------------------------------
  alpha Z        PSCENC =         5.00054001
  Ewald energy   TEWEN  =     12713.68596973
  -Hartree energ DENC   =    -21737.07598924
  -exchange      EXHF   =         0.00000000
  -V(xc)+E(xc)   XCENC  =        61.90035317
  PAW double counting   =     10046.29684996   -10210.23175447
  entropy T*S    EENTRO =        -0.03142930
  eigenvalues    EBANDS =      -619.91985062
  atomic energy  EATOM  =      9704.95859309
  Solvation  Ediel_sol  =         0.00000000
  ---------------------------------------------------
  free energy    TOTEN  =       -35.41671766 eV

  energy without entropy =      -35.38528836  energy(sigma->0) =      -35.40624123


--------------------------------------------------------------------------------------------------------




--------------------------------------- Iteration      1(  15)  ---------------------------------------


    POTLOK:  cpu time    2.2557: real time    2.2583
    SETDIJ:  cpu time    0.0225: real time    0.0225
     EDDAV:  cpu time    5.0403: real time    5.0456
       DOS:  cpu time    0.0104: real time    0.0104
    CHARGE:  cpu time    0.5500: real time    0.5528
    MIXING:  cpu time    0.0793: real time    0.0794
    --------------------------------------------
      LOOP:  cpu time    7.9582: real time    7.9689

 eigenvalue-minimisations  :   303
 total energy-change (2. order) : 0.2868658E-01  (-0.1066230E+00)
 number of electron     100.0000216 magnetization       8.8868091
 augmentation part       54.4139909 magnetization       6.5990922

 Broyden mixing:
  rms(total) = 0.82786E+00    rms(broyden)= 0.82744E+00
  rms(prec ) = 0.87645E+00
  weight for this iteration     100.00

 eigenvalues of (default mixing * dielectric matrix)
  average eigenvalue GAMMA=   0.3881
  1.4416  0.6986  0.6986  0.3156  0.2191  0.1287  0.1287  0.0873  0.0873  0.0757

 Free energy of the ion-electron system (eV)
  ---------------------------------------------------
  alpha Z        PSCENC =         5.00054001
  Ewald energy   TEWEN  =     12713.68596973
  -Hartree energ DENC   =    -21736.42620154
  -exchange      EXHF   =         0.00000000
  -V(xc)+E(xc)   XCENC  =        61.81149184
  PAW double counting   =     10052.27394456   -10216.08645481
  entropy T*S    EENTRO =        -0.02868285
  eigenvalues    EBANDS =      -620.57723112
  atomic energy  EATOM  =      9704.95859309
  Solvation  Ediel_sol  =         0.00000000
  ---------------------------------------------------
  free energy    TOTEN  =       -35.38803108 eV

  energy without entropy =      -35.35934824  energy(sigma->0) =      -35.37847013


--------------------------------------------------------------------------------------------------------




--------------------------------------- Iteration      1(  16)  ---------------------------------------


    POTLOK:  cpu time    2.2591: real time    2.2636
    SETDIJ:  cpu time    0.0226: real time    0.0226
     EDDAV:  cpu time    5.4094: real time    5.4150
       DOS:  cpu time    0.0105: real time    0.0105
    CHARGE:  cpu time    0.5512: real time    0.5517
    MIXING:  cpu time    0.0885: real time    0.0886
    --------------------------------------------
      LOOP:  cpu time    8.3413: real time    8.3521

 eigenvalue-minimisations  :   336
 total energy-change (2. order) :-0.1739679E+00  (-0.4949703E-01)
 number of electron     100.0000221 magnetization       8.8078969
 augmentation part       54.5383706 magnetization       6.5605833

 Broyden mixing:
  rms(total) = 0.42616E+00    rms(broyden)= 0.42567E+00
  rms(prec ) = 0.45049E+00
  weight for this iteration     100.00

 eigenvalues of (default mixing * dielectric matrix)
  average eigenvalue GAMMA=   0.4030
  1.3531  0.7078  0.7078  0.6072  0.3489  0.1995  0.1305  0.1305  0.0880  0.0880
  0.0715

 Free energy of the ion-electron system (eV)
  ---------------------------------------------------
  alpha Z        PSCENC =         5.00054001
  Ewald energy   TEWEN  =     12713.68596973
  -Hartree energ DENC   =    -21739.87129708
  -exchange      EXHF   =         0.00000000
  -V(xc)+E(xc)   XCENC  =        61.56443165
  PAW double counting   =     10082.23799006   -10246.26207071
  entropy T*S    EENTRO =        -0.02495300
  eigenvalues    EBANDS =      -616.85120275
  atomic energy  EATOM  =      9704.95859309
  Solvation  Ediel_sol  =         0.00000000
  ---------------------------------------------------
  free energy    TOTEN  =       -35.56199901 eV

  energy without entropy =      -35.53704601  energy(sigma->0) =      -35.55368134


--------------------------------------------------------------------------------------------------------




--------------------------------------- Iteration      1(  17)  ---------------------------------------


    POTLOK:  cpu time    2.2550: real time    2.2601
    SETDIJ:  cpu time    0.0241: real time    0.0241
     EDDAV:  cpu time    5.4864: real time    5.4920
       DOS:  cpu time    0.0105: real time    0.0105
    CHARGE:  cpu time    0.5459: real time    0.5464
    MIXING:  cpu time    0.0917: real time    0.0918
    --------------------------------------------
      LOOP:  cpu time    8.4135: real time    8.4249

 eigenvalue-minimisations  :   342
 total energy-change (2. order) :-0.2239040E+00  (-0.1410635E-01)
 number of electron     100.0000224 magnetization       8.7056730
 augmentation part       54.5485947 magnetization       6.4940467

 Broyden mixing:
  rms(total) = 0.28922E+00    rms(broyden)= 0.28902E+00
  rms(prec ) = 0.30523E+00
  weight for this iteration     100.00

 eigenvalues of (default mixing * dielectric matrix)
  average eigenvalue GAMMA=   0.4637
  1.4050  1.4050  0.5806  0.5806  0.5581  0.3234  0.2030  0.1302  0.1302  0.0879
  0.0879  0.0719

 Free energy of the ion-electron system (eV)
  ---------------------------------------------------
  alpha Z        PSCENC =         5.00054001
  Ewald energy   TEWEN  =     12713.68596973
  -Hartree energ DENC   =    -21743.85531184
  -exchange      EXHF   =         0.00000000
  -V(xc)+E(xc)   XCENC  =        61.41041312
  PAW double counting   =     10088.10124741   -10252.16963412
  entropy T*S    EENTRO =        -0.01616157
  eigenvalues    EBANDS =      -612.90155887
  atomic energy  EATOM  =      9704.95859309
  Solvation  Ediel_sol  =         0.00000000
  ---------------------------------------------------
  free energy    TOTEN  =       -35.78590305 eV

  energy without entropy =      -35.76974148  energy(sigma->0) =      -35.78051586


--------------------------------------------------------------------------------------------------------




--------------------------------------- Iteration      1(  18)  ---------------------------------------


    POTLOK:  cpu time    2.2512: real time    2.2543
    SETDIJ:  cpu time    0.0224: real time    0.0247
     EDDAV:  cpu time    5.9338: real time    5.9401
       DOS:  cpu time    0.0104: real time    0.0104
    CHARGE:  cpu time    0.5511: real time    0.5538
    MIXING:  cpu time    0.1036: real time    0.1037
    --------------------------------------------
      LOOP:  cpu time    8.8724: real time    8.8870

 eigenvalue-minimisations  :   375
 total energy-change (2. order) :-0.2855335E+00  (-0.1804381E-01)
 number of electron     100.0000230 magnetization       8.6638987
 augmentation part       54.4865853 magnetization       6.4678428

 Broyden mixing:
  rms(total) = 0.47041E+00    rms(broyden)= 0.47008E+00
  rms(prec ) = 0.49979E+00
  weight for this iteration     100.00

 eigenvalues of (default mixing * dielectric matrix)
  average eigenvalue GAMMA=   0.4809
  1.6860  0.9915  0.9915  0.5696  0.5696  0.3663  0.3663  0.2031  0.1301  0.1301
  0.0879  0.0879  0.0719

 Free energy of the ion-electron system (eV)
  ---------------------------------------------------
  alpha Z        PSCENC =         5.00054001
  Ewald energy   TEWEN  =     12713.68596973
  -Hartree energ DENC   =    -21750.15878111
  -exchange      EXHF   =         0.00000000
  -V(xc)+E(xc)   XCENC  =        61.28481483
  PAW double counting   =     10092.69281188   -10257.03719291
  entropy T*S    EENTRO =        -0.00704127
  eigenvalues    EBANDS =      -606.49115080
  atomic energy  EATOM  =      9704.95859309
  Solvation  Ediel_sol  =         0.00000000
  ---------------------------------------------------
  free energy    TOTEN  =       -36.07143653 eV

  energy without entropy =      -36.06439527  energy(sigma->0) =      -36.06908945


--------------------------------------------------------------------------------------------------------




--------------------------------------- Iteration      1(  19)  ---------------------------------------


    POTLOK:  cpu time    2.2591: real time    2.2612
    SETDIJ:  cpu time    0.0226: real time    0.0227
     EDDAV:  cpu time    5.1753: real time    5.1830
       DOS:  cpu time    0.0106: real time    0.0106
    CHARGE:  cpu time    0.5463: real time    0.5490
    MIXING:  cpu time    0.1025: real time    0.1049
    --------------------------------------------
      LOOP:  cpu time    8.1163: real time    8.1313

 eigenvalue-minimisations  :   318
 total energy-change (2. order) :-0.5606200E-01  (-0.1107880E-01)
 number of electron     100.0000224 magnetization       8.5762820
 augmentation part       54.5542089 magnetization       6.3665375

 Broyden mixing:
  rms(total) = 0.33905E+00    rms(broyden)= 0.33889E+00
  rms(prec ) = 0.36202E+00
  weight for this iteration     100.00

 eigenvalues of (default mixing * dielectric matrix)
  average eigenvalue GAMMA=   0.5099
  1.7509  1.3953  0.7383  0.7383  0.5377  0.5377  0.4018  0.3278  0.2033  0.1301
  0.1301  0.0879  0.0879  0.0719

 Free energy of the ion-electron system (eV)
  ---------------------------------------------------
  alpha Z        PSCENC =         5.00054001
  Ewald energy   TEWEN  =     12713.68596973
  -Hartree energ DENC   =    -21750.78980445
  -exchange      EXHF   =         0.00000000
  -V(xc)+E(xc)   XCENC  =        61.17490110
  PAW double counting   =     10098.07140746   -10262.32920732
  entropy T*S    EENTRO =        -0.01458315
  eigenvalues    EBANDS =      -605.88531500
  atomic energy  EATOM  =      9704.95859309
  Solvation  Ediel_sol  =         0.00000000
  ---------------------------------------------------
  free energy    TOTEN  =       -36.12749853 eV

  energy without entropy =      -36.11291538  energy(sigma->0) =      -36.12263748


--------------------------------------------------------------------------------------------------------




--------------------------------------- Iteration      1(  20)  ---------------------------------------


    POTLOK:  cpu time    2.2560: real time    2.2912
    SETDIJ:  cpu time    0.0226: real time    0.0226
     EDDAV:  cpu time    5.6935: real time    5.7044
       DOS:  cpu time    0.0105: real time    0.0105
    CHARGE:  cpu time    0.5478: real time    0.5483
    MIXING:  cpu time    0.1183: real time    0.1184
    --------------------------------------------
      LOOP:  cpu time    8.6487: real time    8.6954

 eigenvalue-minimisations  :   358
 total energy-change (2. order) :-0.2286280E+00  (-0.5893002E-02)
 number of electron     100.0000222 magnetization       8.5066239
 augmentation part       54.5382073 magnetization       6.3341811

 Broyden mixing:
  rms(total) = 0.23604E+00    rms(broyden)= 0.23585E+00
  rms(prec ) = 0.25186E+00
  weight for this iteration     100.00

 eigenvalues of (default mixing * dielectric matrix)
  average eigenvalue GAMMA=   0.5396
  1.9416  1.5237  0.7853  0.7853  0.6633  0.4792  0.4792  0.3873  0.3377  0.2032
  0.1301  0.1301  0.0879  0.0879  0.0719

 Free energy of the ion-electron system (eV)
  ---------------------------------------------------
  alpha Z        PSCENC =         5.00054001
  Ewald energy   TEWEN  =     12713.68596973
  -Hartree energ DENC   =    -21754.64413508
  -exchange      EXHF   =         0.00000000
  -V(xc)+E(xc)   XCENC  =        61.01200132
  PAW double counting   =     10097.04455097   -10261.32743580
  entropy T*S    EENTRO =        -0.01171526
  eigenvalues    EBANDS =      -602.07449549
  atomic energy  EATOM  =      9704.95859309
  Solvation  Ediel_sol  =         0.00000000
  ---------------------------------------------------
  free energy    TOTEN  =       -36.35612650 eV

  energy without entropy =      -36.34441124  energy(sigma->0) =      -36.35222141


--------------------------------------------------------------------------------------------------------




--------------------------------------- Iteration      1(  21)  ---------------------------------------


    POTLOK:  cpu time    2.2478: real time    2.2585
    SETDIJ:  cpu time    0.0226: real time    0.0226
     EDDAV:  cpu time    5.7763: real time    5.7844
       DOS:  cpu time    0.0105: real time    0.0105
    CHARGE:  cpu time    0.5452: real time    0.5457
    MIXING:  cpu time    0.1213: real time    0.1215
    --------------------------------------------
      LOOP:  cpu time    8.7237: real time    8.7432

 eigenvalue-minimisations  :   367
 total energy-change (2. order) :-0.1647708E+00  (-0.2592052E-02)
 number of electron     100.0000223 magnetization       8.4554051
 augmentation part       54.5202954 magnetization       6.3082820

 Broyden mixing:
  rms(total) = 0.83536E-01    rms(broyden)= 0.83375E-01
  rms(prec ) = 0.88979E-01
  weight for this iteration     100.00

 eigenvalues of (default mixing * dielectric matrix)
  average eigenvalue GAMMA=   0.5686
  2.1811  1.2032  1.2032  0.7601  0.7601  0.5064  0.5064  0.5434  0.3866  0.3357
  0.2032  0.1301  0.1301  0.0879  0.0879  0.0719

 Free energy of the ion-electron system (eV)
  ---------------------------------------------------
  alpha Z        PSCENC =         5.00054001
  Ewald energy   TEWEN  =     12713.68596973
  -Hartree energ DENC   =    -21757.29858727
  -exchange      EXHF   =         0.00000000
  -V(xc)+E(xc)   XCENC  =        60.89467394
  PAW double counting   =     10094.33600420   -10258.65170289
  entropy T*S    EENTRO =        -0.01187268
  eigenvalues    EBANDS =      -599.43451539
  atomic energy  EATOM  =      9704.95859309
  Solvation  Ediel_sol  =         0.00000000
  ---------------------------------------------------
  free energy    TOTEN  =       -36.52089726 eV

  energy without entropy =      -36.50902458  energy(sigma->0) =      -36.51693970


--------------------------------------------------------------------------------------------------------




--------------------------------------- Iteration      1(  22)  ---------------------------------------


    POTLOK:  cpu time    2.2643: real time    2.2690
    SETDIJ:  cpu time    0.0236: real time    0.0236
     EDDAV:  cpu time    5.5087: real time    5.5145
       DOS:  cpu time    0.0105: real time    0.0105
    CHARGE:  cpu time    0.5458: real time    0.5464
    MIXING:  cpu time    0.1404: real time    0.1405
    --------------------------------------------
      LOOP:  cpu time    8.4932: real time    8.5045

 eigenvalue-minimisations  :   344
 total energy-change (2. order) :-0.1129969E+00  (-0.9099756E-03)
 number of electron     100.0000224 magnetization       8.3924961
 augmentation part       54.5329086 magnetization       6.2545673

 Broyden mixing:
  rms(total) = 0.54259E-01    rms(broyden)= 0.54208E-01
  rms(prec ) = 0.58295E-01
  weight for this iteration     100.00

 eigenvalues of (default mixing * dielectric matrix)
  average eigenvalue GAMMA=   0.5970
  2.4055  1.6664  0.8574  0.8574  0.7011  0.7011  0.5125  0.5125  0.4980  0.3903
  0.3353  0.2032  0.1301  0.1301  0.0879  0.0879  0.0719

 Free energy of the ion-electron system (eV)
  ---------------------------------------------------
  alpha Z        PSCENC =         5.00054001
  Ewald energy   TEWEN  =     12713.68596973
  -Hartree energ DENC   =    -21758.78069259
  -exchange      EXHF   =         0.00000000
  -V(xc)+E(xc)   XCENC  =        60.79735942
  PAW double counting   =     10092.37600375   -10256.65830669
  entropy T*S    EENTRO =        -0.01205257
  eigenvalues    EBANDS =      -598.00130833
  atomic energy  EATOM  =      9704.95859309
  Solvation  Ediel_sol  =         0.00000000
  ---------------------------------------------------
  free energy    TOTEN  =       -36.63389419 eV

  energy without entropy =      -36.62184162  energy(sigma->0) =      -36.62987667


--------------------------------------------------------------------------------------------------------




--------------------------------------- Iteration      1(  23)  ---------------------------------------


    POTLOK:  cpu time    2.2464: real time    2.2505
    SETDIJ:  cpu time    0.0227: real time    0.0227
     EDDAV:  cpu time    5.1787: real time    5.1862
       DOS:  cpu time    0.0105: real time    0.0105
    CHARGE:  cpu time    0.5492: real time    0.5498
    MIXING:  cpu time    0.1400: real time    0.1401
    --------------------------------------------
      LOOP:  cpu time    8.1475: real time    8.1598

 eigenvalue-minimisations  :   318
 total energy-change (2. order) :-0.1347637E+00  (-0.7214150E-03)
 number of electron     100.0000224 magnetization       8.3458417
 augmentation part       54.5145099 magnetization       6.2221872

 Broyden mixing:
  rms(total) = 0.65649E-01    rms(broyden)= 0.65614E-01
  rms(prec ) = 0.70252E-01
  weight for this iteration     100.00

 eigenvalues of (default mixing * dielectric matrix)
  average eigenvalue GAMMA=   0.6189
  2.5017  1.7586  0.9096  0.9096  0.7723  0.7243  0.7243  0.4993  0.4993  0.3982
  0.3982  0.3331  0.2032  0.1301  0.1301  0.0879  0.0879  0.0719

 Free energy of the ion-electron system (eV)
  ---------------------------------------------------
  alpha Z        PSCENC =         5.00054001
  Ewald energy   TEWEN  =     12713.68596973
  -Hartree energ DENC   =    -21760.95059495
  -exchange      EXHF   =         0.00000000
  -V(xc)+E(xc)   XCENC  =        60.69706371
  PAW double counting   =     10088.78154787   -10253.07944348
  entropy T*S    EENTRO =        -0.01007301
  eigenvalues    EBANDS =      -595.85226090
  atomic energy  EATOM  =      9704.95859309
  Solvation  Ediel_sol  =         0.00000000
  ---------------------------------------------------
  free energy    TOTEN  =       -36.76865792 eV

  energy without entropy =      -36.75858491  energy(sigma->0) =      -36.76530025


--------------------------------------------------------------------------------------------------------




--------------------------------------- Iteration      1(  24)  ---------------------------------------


    POTLOK:  cpu time    2.2650: real time    2.2704
    SETDIJ:  cpu time    0.0227: real time    0.0228
     EDDAV:  cpu time    5.0051: real time    5.0125
       DOS:  cpu time    0.0105: real time    0.0105
    CHARGE:  cpu time    0.5474: real time    0.5479
    MIXING:  cpu time    0.1574: real time    0.1575
    --------------------------------------------
      LOOP:  cpu time    8.0081: real time    8.0216

 eigenvalue-minimisations  :   302
 total energy-change (2. order) :-0.9124334E-01  (-0.3310759E-03)
 number of electron     100.0000224 magnetization       8.2968559
 augmentation part       54.5044798 magnetization       6.1828474

 Broyden mixing:
  rms(total) = 0.33757E-01    rms(broyden)= 0.33720E-01
  rms(prec ) = 0.36347E-01
  weight for this iteration     100.00

 eigenvalues of (default mixing * dielectric matrix)
  average eigenvalue GAMMA=   0.6455
  2.6544  1.4321  1.4321  0.9593  0.9593  0.6835  0.6835  0.6242  0.4982  0.4982
  0.3975  0.3975  0.3342  0.2032  0.1301  0.1301  0.0879  0.0879  0.0719

 Free energy of the ion-electron system (eV)
  ---------------------------------------------------
  alpha Z        PSCENC =         5.00054001
  Ewald energy   TEWEN  =     12713.68596973
  -Hartree energ DENC   =    -21762.24531941
  -exchange      EXHF   =         0.00000000
  -V(xc)+E(xc)   XCENC  =        60.62451504
  PAW double counting   =     10086.34309477   -10250.65449803
  entropy T*S    EENTRO =        -0.00970448
  eigenvalues    EBANDS =      -594.56309198
  atomic energy  EATOM  =      9704.95859309
  Solvation  Ediel_sol  =         0.00000000
  ---------------------------------------------------
  free energy    TOTEN  =       -36.85990126 eV

  energy without entropy =      -36.85019679  energy(sigma->0) =      -36.85666644


--------------------------------------------------------------------------------------------------------




--------------------------------------- Iteration      1(  25)  ---------------------------------------


    POTLOK:  cpu time    2.2570: real time    2.2594
    SETDIJ:  cpu time    0.0227: real time    0.0227
     EDDAV:  cpu time    4.9535: real time    4.9586
       DOS:  cpu time    0.0105: real time    0.0105
    CHARGE:  cpu time    0.5462: real time    0.5468
    MIXING:  cpu time    0.1613: real time    0.1615
    --------------------------------------------
      LOOP:  cpu time    7.9512: real time    7.9595

 eigenvalue-minimisations  :   300
 total energy-change (2. order) :-0.8248990E-01  (-0.2376446E-03)
 number of electron     100.0000225 magnetization       8.2171677
 augmentation part       54.5143672 magnetization       6.1098782

 Broyden mixing:
  rms(total) = 0.23386E-01    rms(broyden)= 0.23364E-01
  rms(prec ) = 0.25308E-01
  weight for this iteration     100.00

 eigenvalues of (default mixing * dielectric matrix)
  average eigenvalue GAMMA=   0.6944
  2.9745  1.8309  1.2522  1.2522  0.9037  0.9037  0.6538  0.6538  0.6240  0.4999
  0.4999  0.3974  0.3974  0.3343  0.2032  0.1301  0.1301  0.0879  0.0879  0.0719

 Free energy of the ion-electron system (eV)
  ---------------------------------------------------
  alpha Z        PSCENC =         5.00054001
  Ewald energy   TEWEN  =     12713.68596973
  -Hartree energ DENC   =    -21763.18566361
  -exchange      EXHF   =         0.00000000
  -V(xc)+E(xc)   XCENC  =        60.54689236
  PAW double counting   =     10084.36742064   -10248.65098656
  entropy T*S    EENTRO =        -0.00971619
  eigenvalues    EBANDS =      -593.65544064
  atomic energy  EATOM  =      9704.95859309
  Solvation  Ediel_sol  =         0.00000000
  ---------------------------------------------------
  free energy    TOTEN  =       -36.94239116 eV

  energy without entropy =      -36.93267498  energy(sigma->0) =      -36.93915244


--------------------------------------------------------------------------------------------------------




--------------------------------------- Iteration      1(  26)  ---------------------------------------


    POTLOK:  cpu time    2.2494: real time    2.2608
    SETDIJ:  cpu time    0.0226: real time    0.0226
     EDDAV:  cpu time    5.1339: real time    5.1413
       DOS:  cpu time    0.0040: real time    0.0040
    CHARGE:  cpu time    0.5582: real time    0.5587
    MIXING:  cpu time    0.1879: real time    0.1884
    --------------------------------------------
      LOOP:  cpu time    8.1561: real time    8.1759

 eigenvalue-minimisations  :   309
 total energy-change (2. order) :-0.1101842E+00  (-0.5111581E-03)
 number of electron     100.0000225 magnetization       8.1649625
 augmentation part       54.5063428 magnetization       6.0723740

 Broyden mixing:
  rms(total) = 0.18654E-01    rms(broyden)= 0.18592E-01
  rms(prec ) = 0.20069E-01
  weight for this iteration     100.00

 eigenvalues of (default mixing * dielectric matrix)
  average eigenvalue GAMMA=   0.7184
  3.0420  1.8077  1.8077  0.9322  0.9322  0.8710  0.8710  0.6810  0.6810  0.6108
  0.5006  0.5006  0.4011  0.4011  0.3344  0.2032  0.1301  0.1301  0.0879  0.0879
  0.0719

 Free energy of the ion-electron system (eV)
  ---------------------------------------------------
  alpha Z        PSCENC =         5.00054001
  Ewald energy   TEWEN  =     12713.68596973
  -Hartree energ DENC   =    -21765.04290796
  -exchange      EXHF   =         0.00000000
  -V(xc)+E(xc)   XCENC  =        60.45844137
  PAW double counting   =     10080.91025921   -10245.20529048
  entropy T*S    EENTRO =        -0.00843901
  eigenvalues    EBANDS =      -591.80974129
  atomic energy  EATOM  =      9704.95859309
  Solvation  Ediel_sol  =         0.00000000
  ---------------------------------------------------
  free energy    TOTEN  =       -37.05257533 eV

  energy without entropy =      -37.04413632  energy(sigma->0) =      -37.04976232


--------------------------------------------------------------------------------------------------------




--------------------------------------- Iteration      1(  27)  ---------------------------------------


    POTLOK:  cpu time    2.2610: real time    2.2632
    SETDIJ:  cpu time    0.0227: real time    0.0228
     EDDAV:  cpu time    4.4832: real time    4.4946
       DOS:  cpu time    0.0039: real time    0.0039
    CHARGE:  cpu time    0.5462: real time    0.5467
    MIXING:  cpu time    0.1890: real time    0.1892
    --------------------------------------------
      LOOP:  cpu time    7.5061: real time    7.5204

 eigenvalue-minimisations  :   261
 total energy-change (2. order) :-0.5678951E-01  (-0.1572029E-03)
 number of electron     100.0000225 magnetization       8.1174002
 augmentation part       54.5078381 magnetization       6.0320747

 Broyden mixing:
  rms(total) = 0.21111E-01    rms(broyden)= 0.21096E-01
  rms(prec ) = 0.22590E-01
  weight for this iteration     100.00

 eigenvalues of (default mixing * dielectric matrix)
  average eigenvalue GAMMA=   0.7503
  3.3333  2.1119  1.7890  0.9390  0.9390  0.9236  0.8321  0.8321  0.6524  0.6524
  0.6530  0.5005  0.5005  0.4006  0.4006  0.3344  0.2032  0.1301  0.1301  0.0879
  0.0879  0.0719

 Free energy of the ion-electron system (eV)
  ---------------------------------------------------
[...]

 eigenvalue-minimisations  :   166
 total energy-change (2. order) :-0.1433926E-04  (-0.4003893E-04)
 number of electron      99.9999849 magnetization       7.9450426
 augmentation part       54.4343390 magnetization       5.9508072

 Free energy of the ion-electron system (eV)
  ---------------------------------------------------
  alpha Z        PSCENC =         5.00054001
  Ewald energy   TEWEN  =     12904.29783429
  -Hartree energ DENC   =    -21949.86494602
  -exchange      EXHF   =         0.00000000
  -V(xc)+E(xc)   XCENC  =        60.42256233
  PAW double counting   =     10143.57545375   -10308.44141106
  entropy T*S    EENTRO =        -0.03520033
  eigenvalues    EBANDS =      -597.56500919
  atomic energy  EATOM  =      9704.95859309
  Solvation  Ediel_sol  =         0.00000000
  ---------------------------------------------------
  free energy    TOTEN  =       -37.65158313 eV

  energy without entropy =      -37.61638280  energy(sigma->0) =      -37.63984968


--------------------------------------------------------------------------------------------------------




 average (electrostatic) potential at core
  the test charge radii are     0.9791  1.1199
  (the norm of the test charge is              1.0000)
       1 -95.5687       2 -95.3282       3 -95.2552       4 -95.3478       5 -95.1148
       6 -95.2129       7 -83.6830       8 -83.5128       9 -83.8587      10 -83.7345
 
 
 
 E-fermi :  -4.1334     XC(G=0):  -0.3350     alpha+bet : -0.1817


 spin component 1

 k-point     1 :       0.0000    0.0000    0.0000
  band No.  band energies     occupation 
      1      -9.8898      1.00000
      2      -8.3477      1.00000
      3      -8.2885      1.00000
      4      -8.0459      1.00000
      5      -7.9540      1.00000
      6      -7.8465      1.00000
      7      -7.6351      1.00000
      8      -7.4967      1.00000
      9      -7.4134      1.00000
     10      -7.3774      1.00000
     11      -7.3077      1.00000
     12      -7.2410      1.00000
     13      -7.0837      1.00000
     14      -7.0475      1.00000
     15      -6.9330      1.00000
     16      -6.8322      1.00000
     17      -6.7605      1.00000
     18      -6.6269      1.00000
     19      -6.5885      1.00000
     20      -6.5292      1.00000
     21      -6.4725      1.00000
     22      -6.3982      1.00000
     23      -6.3027      1.00000
     24      -6.2140      1.00000
     25      -6.1001      1.00000
     26      -5.9970      1.00000
     27      -5.8753      1.00000
     28      -5.7787      1.00000
     29      -5.7065      1.00000
     30      -5.5965      1.00000
     31      -5.5622      1.00000
     32      -5.4950      1.00000
     33      -5.4736      1.00000
     34      -5.4487      1.00000
     35      -5.3685      1.00000
     36      -5.3423      1.00000
     37      -5.3106      1.00000
     38      -5.2751      1.00000
     39      -5.2583      1.00000
     40      -5.2296      1.00000
     41      -5.1854      1.00000
     42      -5.0882      1.00000
     43      -5.0630      1.00000
     44      -5.0544      1.00000
     45      -5.0323      1.00000
     46      -4.9895      1.00000
     47      -4.9646      1.00000
     48      -4.8950      1.00000
     49      -4.8288      1.00001
     50      -4.8133      1.00001
     51      -4.7487      1.00006
     52      -4.7350      1.00009
     53      -4.6775      1.00041
     54      -4.2788      0.96882
     55      -3.1197     -0.00000
     56      -3.0967     -0.00000
     57      -2.6982     -0.00000
     58      -2.3842     -0.00000
     59      -2.2085     -0.00000
     60      -1.6578     -0.00000
     61      -0.9239     -0.00000
     62      -0.8817     -0.00000
     63      -0.7114     -0.00000
     64      -0.6483     -0.00000
     65      -0.2906     -0.00000

 spin component 2

 k-point     1 :       0.0000    0.0000    0.0000
  band No.  band energies     occupation 
      1      -9.8039      1.00000
      2      -8.0707      1.00000
      3      -7.9423      1.00000
      4      -7.5622      1.00000
      5      -7.4767      1.00000
      6      -7.3788      1.00000
      7      -7.1086      1.00000
      8      -6.9319      1.00000
      9      -6.8172      1.00000
     10      -6.7883      1.00000
     11      -6.7210      1.00000
     12      -6.5940      1.00000
     13      -6.5161      1.00000
     14      -6.3834      1.00000
     15      -6.3347      1.00000
     16      -6.2140      1.00000
     17      -6.2023      1.00000
     18      -6.0989      1.00000
     19      -6.0544      1.00000
     20      -5.9827      1.00000
     21      -5.7658      1.00000
     22      -5.7271      1.00000
     23      -5.6448      1.00000
     24      -5.5618      1.00000
     25      -5.4514      1.00000
     26      -5.3267      1.00000
     27      -5.2426      1.00000
     28      -5.1963      1.00000
     29      -5.1340      1.00000
     30      -5.0821      1.00000
     31      -4.9548      1.00000
     32      -4.9219      1.00000
     33      -4.8456      1.00000
     34      -4.8147      1.00001
     35      -4.6874      1.00032
     36      -4.6705      1.00049
     37      -4.6431      1.00093
     38      -4.5999      1.00237
     39      -4.4915      1.01481
     40      -4.4584      1.02192
     41      -4.3807      1.03544
     42      -4.3415      1.02883
     43      -4.2724      0.95798
     44      -4.2397      0.88692
     45      -4.1979      0.75756
     46      -4.1463      0.55431
     47      -4.1171      0.43097
     48      -4.0764      0.26929
     49      -4.0522      0.18565
     50      -3.9335     -0.02508
     51      -3.9293     -0.02715
     52      -3.8538     -0.03184
     53      -3.8170     -0.02389
     54      -3.7425     -0.00923
     55      -2.8880     -0.00000
     56      -2.8220     -0.00000
     57      -2.4848     -0.00000
     58      -2.0816     -0.00000
     59      -1.8882     -0.00000
     60      -1.3457     -0.00000
     61      -0.7783     -0.00000
     62      -0.7384     -0.00000
     63      -0.5970     -0.00000
     64      -0.4649     -0.00000
     65      -0.0944     -0.00000


--------------------------------------------------------------------------------------------------------


 soft charge-density along one line, spin component            1
         0         1         2         3         4         5         6         7         8         9
 total charge-density along one line
 
 soft charge-density along one line, spin component            2
         0         1         2         3         4         5         6         7         8         9
 total charge-density along one line
 
 pseudopotential strength for first ion, spin component:            1
-10.391   0.003  -0.060   0.021   0.096 -10.655   0.003  -0.058
  0.003 -10.397   0.068  -0.095  -0.014   0.003 -10.661   0.065
 -0.060   0.068 -10.408   0.053  -0.132  -0.058   0.065 -10.671
  0.021  -0.095   0.053 -10.398  -0.048   0.020  -0.091   0.051
  0.096  -0.014  -0.132  -0.048 -10.330   0.091  -0.014  -0.126
-10.655   0.003  -0.058   0.020   0.091 -10.865   0.003  -0.055
  0.003 -10.661   0.065  -0.091  -0.014   0.003 -10.870   0.062
 -0.058   0.065 -10.671   0.051  -0.126  -0.055   0.062 -10.881
  0.020  -0.091   0.051 -10.662  -0.047   0.019  -0.087   0.049
  0.091  -0.014  -0.126  -0.047 -10.597   0.088  -0.013  -0.120
  0.003  -0.007   0.005  -0.002  -0.020   0.003  -0.007   0.005
  0.006  -0.013   0.009  -0.004  -0.035   0.005  -0.012   0.009
  0.003   0.005  -0.006   0.000  -0.007   0.003   0.004  -0.006
  0.000   0.004   0.006  -0.001  -0.002   0.000   0.004   0.005
  0.007   0.000  -0.003   0.000   0.001   0.007   0.000  -0.003
  0.003   0.005  -0.007   0.000  -0.008   0.002   0.004  -0.007
  0.000   0.005   0.006  -0.002  -0.003   0.000   0.005   0.005
  0.009   0.000  -0.003  -0.001  -0.000   0.009   0.000  -0.002
 pseudopotential strength for first ion, spin component:            2
 -9.555   0.011   0.050   0.021  -0.041  -9.858   0.011   0.048
  0.011  -9.692  -0.010   0.039  -0.034   0.011  -9.989  -0.010
  0.050  -0.010  -9.618  -0.021  -0.034   0.048  -0.010  -9.919
  0.021   0.039  -0.021  -9.528   0.027   0.020   0.038  -0.020
 -0.041  -0.034  -0.034   0.027  -9.582  -0.040  -0.033  -0.032
 -9.858   0.011   0.048   0.020  -0.040 -10.105   0.010   0.046
  0.011  -9.989  -0.010   0.038  -0.033   0.010 -10.232  -0.010
  0.048  -0.010  -9.919  -0.020  -0.032   0.046  -0.010 -10.164
  0.020   0.038  -0.020  -9.833   0.026   0.020   0.037  -0.020
 -0.040  -0.033  -0.032   0.026  -9.884  -0.038  -0.031  -0.031
  0.000  -0.004   0.005  -0.005  -0.013   0.000  -0.004   0.005
  0.001  -0.006   0.008  -0.008  -0.022   0.001  -0.006   0.008
  0.007   0.006  -0.003   0.000  -0.005   0.006   0.005  -0.003
  0.000   0.005   0.007   0.007   0.001   0.000   0.005   0.006
  0.004   0.000  -0.004   0.008   0.008   0.004   0.000  -0.004
  0.008   0.007  -0.003   0.000  -0.006   0.007   0.006  -0.003
  0.000   0.006   0.008   0.009   0.001   0.000   0.006   0.007
  0.005   0.000  -0.004   0.009   0.009   0.005   0.000  -0.004
 total augmentation occupancy for first ion, spin component:            1
  3.110   0.081  -0.157  -0.115   0.432  -1.368   0.017   0.052   0.096  -0.186   0.033  -0.009   0.232  -0.026   0.008  -0.021
  0.081   3.411   0.316  -0.345   0.050   0.021  -1.669  -0.153   0.168  -0.071   0.109  -0.021   0.182  -0.023  -0.022  -0.015
 -0.157   0.316   3.184   0.243  -0.328   0.057  -0.154  -1.480  -0.071   0.051  -0.190   0.016   0.019   0.199  -0.105  -0.003
 -0.115  -0.345   0.243   3.162  -0.098   0.097   0.178  -0.072  -1.481   0.034   0.231   0.032  -0.034   0.214   0.089   0.002
  0.432   0.050  -0.328  -0.098   3.507  -0.191  -0.070   0.055   0.038  -1.615   0.443  -0.002   0.061  -0.042   0.152  -0.008
 -1.368   0.021   0.057   0.097  -0.191   1.349  -0.098  -0.013  -0.088   0.047   0.007   0.006  -0.239   0.033   0.010   0.028
  0.017  -1.669  -0.154   0.178  -0.070  -0.098   1.707   0.044  -0.075   0.095  -0.132   0.020  -0.191   0.010   0.028   0.021
  0.052  -0.153  -1.480  -0.072   0.055  -0.013   0.044   1.525  -0.043   0.133   0.209  -0.022  -0.045  -0.200   0.098   0.003
  0.096   0.168  -0.071  -1.481   0.038  -0.088  -0.075  -0.043   1.512  -0.015  -0.262  -0.004   0.037  -0.254  -0.134  -0.002
 -0.186  -0.071   0.051   0.034  -1.615   0.047   0.095   0.133  -0.015   1.519  -0.460   0.026  -0.075   0.023  -0.175   0.007
  0.033   0.109  -0.190   0.231   0.443   0.007  -0.132   0.209  -0.262  -0.460   2.112  -0.261   0.035  -0.154  -0.187  -0.005
 -0.009  -0.021   0.016   0.032  -0.002   0.006   0.020  -0.022  -0.004   0.026  -0.261   0.040  -0.008   0.032   0.044   0.001
  0.232   0.182   0.019  -0.034   0.061  -0.239  -0.191  -0.045   0.037  -0.075   0.035  -0.008   0.307  -0.009   0.002  -0.029
 -0.026  -0.023   0.199   0.214  -0.042   0.033   0.010  -0.200  -0.254   0.023  -0.154   0.032  -0.009   0.289  -0.042   0.001
  0.008  -0.022  -0.105   0.089   0.152   0.010   0.028   0.098  -0.134  -0.175  -0.187   0.044   0.002  -0.042   0.204   0.000
 -0.021  -0.015  -0.003   0.002  -0.008   0.028   0.021   0.003  -0.002   0.007  -0.005   0.001  -0.029   0.001   0.000   0.003
  0.001   0.003  -0.018  -0.015   0.009  -0.002  -0.003   0.025   0.024  -0.007   0.028  -0.005   0.001  -0.028   0.003  -0.000
 -0.000   0.003   0.007   0.001  -0.006  -0.001  -0.003  -0.011   0.009   0.015   0.036  -0.006   0.000   0.003  -0.021  -0.000
 total augmentation occupancy for first ion, spin component:            2
  1.286   0.044   0.378  -0.008  -0.442  -0.653  -0.027  -0.199   0.001   0.218  -0.042  -0.007   0.013  -0.006  -0.020   0.003
  0.044   0.903  -0.327   0.535  -0.098  -0.035  -0.455   0.184  -0.292   0.069   0.000  -0.002  -0.004   0.022   0.004   0.003
  0.378  -0.327   1.215  -0.301   0.388  -0.206   0.186  -0.630   0.169  -0.207  -0.004  -0.006   0.027  -0.003   0.004  -0.001
 -0.008   0.535  -0.301   1.362   0.205   0.005  -0.309   0.169  -0.678  -0.092   0.075   0.033   0.004   0.048   0.056   0.000
 -0.442  -0.098   0.388   0.205   1.006   0.230   0.061  -0.214  -0.094  -0.511   0.038   0.025   0.007   0.034   0.042  -0.001
 -0.653  -0.035  -0.206   0.005   0.230   0.246   0.028   0.107   0.002  -0.102   0.019   0.003  -0.003   0.003   0.007  -0.003
 -0.027  -0.455   0.186  -0.309   0.061   0.028   0.138  -0.097   0.158  -0.046   0.008  -0.000   0.007  -0.013  -0.003  -0.002
 -0.199   0.184  -0.630   0.169  -0.214   0.107  -0.097   0.237  -0.086   0.099  -0.006   0.004  -0.011   0.004  -0.003   0.001
  0.001  -0.292   0.169  -0.678  -0.094   0.002   0.158  -0.086   0.245   0.039  -0.040  -0.019  -0.003  -0.016  -0.023  -0.000
  0.218   0.069  -0.207  -0.092  -0.511  -0.102  -0.046   0.099   0.039   0.180  -0.013  -0.017   0.000  -0.016  -0.017   0.001
 -0.042   0.000  -0.004   0.075   0.038   0.019   0.008  -0.006  -0.040  -0.013  -0.130   0.051  -0.010   0.022   0.030   0.000
 -0.007  -0.002  -0.006   0.033   0.025   0.003  -0.000   0.004  -0.019  -0.017   0.051  -0.008  -0.000  -0.002  -0.001  -0.000
  0.013  -0.004   0.027   0.004   0.007  -0.003   0.007  -0.011  -0.003   0.000  -0.010  -0.000  -0.013   0.003  -0.002   0.003
 -0.006   0.022  -0.003   0.048   0.034   0.003  -0.013   0.004  -0.016  -0.016   0.022  -0.002   0.003  -0.010   0.008  -0.000
 -0.020   0.004   0.004   0.056   0.042   0.007  -0.003  -0.003  -0.023  -0.017   0.030  -0.001  -0.002   0.008  -0.000  -0.000
  0.003   0.003  -0.001   0.000  -0.001  -0.003  -0.002   0.001  -0.000   0.001   0.000  -0.000   0.003  -0.000  -0.000  -0.000
  0.000  -0.001   0.003   0.003   0.000  -0.000   0.001  -0.003  -0.001   0.000  -0.002   0.001  -0.000   0.002  -0.001   0.000
  0.000  -0.000  -0.002   0.004   0.003  -0.000   0.000   0.002  -0.002  -0.001  -0.003   0.001  -0.000  -0.001   0.002   0.000


------------------------ aborting loop because EDIFF is reached ----------------------------------------


    CHARGE:  cpu time    0.5549: real time    0.5554
    FORLOC:  cpu time    0.0793: real time    0.0794
    FORNL :  cpu time    2.6518: real time    2.6532
    FORCOR:  cpu time    2.1871: real time    2.1917
    FORHAR:  cpu time    0.2987: real time    0.2989
    MIXING:  cpu time    0.0574: real time    0.0574
    OFIELD:  cpu time    0.0000: real time    0.0000

 VOLUME and BASIS-vectors are now :
 -----------------------------------------------------------------------------
  energy-cutoff  :      400.00
  volume of cell :    11332.72
      direct lattice vectors                 reciprocal lattice vectors
    22.701899031  0.000000000  0.000000000     0.044049178  0.000000000  0.000000000
     0.000000000 22.099665432  0.000000000     0.000000000  0.045249554  0.000000000
     0.000000000  0.000000000 22.588446045     0.000000000  0.000000000  0.044270420

  length of vectors
    22.701899031 22.099665432 22.588446045     0.044049178  0.045249554  0.044270420


 FORCES acting on ions
    electron-ion (+dipol)            ewald-force                    non-local-force                 convergence-correction
 -----------------------------------------------------------------------------------------------
   -.637E+03 0.802E+02 -.384E+03   0.637E+03 -.807E+02 0.384E+03   0.121E-01 0.590E+00 0.377E+00   -.869E-01 -.752E-01 0.102E+00
   0.433E+03 0.454E+03 0.821E+03   -.431E+03 -.452E+03 -.818E+03   -.226E+01 -.146E+01 -.326E+01   -.741E-01 -.123E+00 0.679E-01
   -.504E+03 -.431E+03 0.853E+03   0.502E+03 0.428E+03 -.848E+03   0.240E+01 0.260E+01 -.473E+01   -.387E-01 0.200E-01 -.527E-01
   0.698E+03 -.670E+03 0.402E+03   -.696E+03 0.668E+03 -.401E+03   -.243E+01 0.260E+01 -.162E+01   -.829E-01 -.208E-01 0.915E-01
   -.515E+03 -.935E+03 -.158E+03   0.511E+03 0.929E+03 0.156E+03   0.423E+01 0.600E+01 0.178E+01   0.136E-01 0.118E+00 0.138E+00
   0.299E+02 0.361E+03 -.956E+03   -.308E+02 -.359E+03 0.949E+03   0.979E+00 -.211E+01 0.645E+01   -.122E+00 -.249E-01 0.287E-01
   -.415E+02 0.985E+03 -.137E+03   0.413E+02 -.978E+03 0.136E+03   0.247E+00 -.699E+01 0.493E+00   -.488E-01 -.208E-01 0.318E-01
   -.740E+03 0.511E+03 0.429E+03   0.734E+03 -.507E+03 -.426E+03   0.625E+01 -.443E+01 -.241E+01   0.637E-02 -.138E+00 0.140E-02
   0.983E+03 0.247E+03 -.122E+03   -.977E+03 -.245E+03 0.121E+03   -.620E+01 -.156E+01 0.826E+00   -.129E-01 -.911E-01 0.588E-01
   0.294E+03 -.600E+03 -.751E+03   -.291E+03 0.596E+03 0.746E+03   -.262E+01 0.410E+01 0.509E+01   -.140E-01 -.673E-02 0.795E-01
 -----------------------------------------------------------------------------------------------
   -.158E+00 0.104E+01 -.352E+01   0.114E-12 0.341E-12 -.227E-12   0.615E+00 -.676E+00 0.300E+01   -.460E+00 -.362E+00 0.547E+00
 
 
 POSITION                                       TOTAL-FORCE (eV/Angst)
 -----------------------------------------------------------------------------------
     12.56099     10.88543     11.00454         0.014719      0.004685      0.024863
     11.27952     10.07384      9.19761        -0.013826     -0.016791     -0.010122
     12.88588     11.84239      8.90621         0.009718      0.019778     -0.032421
     10.83260     12.22457     10.02085        -0.009961      0.001628      0.022346
     12.77442     13.18347     10.80835         0.014774      0.002577      0.011927
     11.42476     10.03904     12.81545        -0.020498      0.012549     -0.012528
     11.82072      8.44761     10.99573         0.008872     -0.014041      0.008822
     13.68728      9.52435      9.19676         0.025724     -0.013244     -0.015040
      9.68994     10.29487     11.14314        -0.034713     -0.015321     -0.016661
     11.04275     12.44379     12.49874         0.005191      0.018181      0.018814
 -----------------------------------------------------------------------------------
    total drift:                               -0.002689      0.001252      0.024519


--------------------------------------------------------------------------------------------------------



  FREE ENERGIE OF THE ION-ELECTRON SYSTEM (eV)
  ---------------------------------------------------
  free  energy   TOTEN  =       -37.65158313 eV

  energy  without entropy=      -37.61638280  energy(sigma->0) =      -37.63984968
 
 d Force = 0.2461679E-03[ 0.741E-04, 0.418E-03]  d Energy = 0.5966805E-04 0.186E-03
 d Force =-0.6412821E+01[-0.641E+01,-0.641E+01]  d Ewald  =-0.6412821E+01-0.318E-06


--------------------------------------------------------------------------------------------------------


    POTLOK:  cpu time    2.2953: real time    2.2975


--------------------------------------------------------------------------------------------------------




--------------------------------------------------------------------------------------------------------


  
 reached required accuracy - stopping structural energy minimisation
     LOOP+:  cpu time   60.4078: real time   60.5057
    4ORBIT:  cpu time    0.0000: real time    0.0000

 total amount of memory used by VASP MPI-rank0   132422. kBytes
=======================================================================

   base      :      30000. kBytes
   nonl-proj :       2884. kBytes
   fftplans  :      24725. kBytes
   grid      :      61389. kBytes
   one-center:         15. kBytes
   wavefun   :      13409. kBytes
 
  
  
 General timing and accounting informations for this job:
 ========================================================
  
                  Total CPU time used (sec):     2578.165
                            User time (sec):     2548.429
                          System time (sec):       29.736
                         Elapsed time (sec):     2589.421
  
                   Maximum memory used (kb):      287600.
                   Average memory used (kb):           0.
  
                          Minor page faults:      7127103
                          Major page faults:       102769
                 Voluntary context switches:         4435
