<?xml version="1.0" encoding="ISO-8859-1"?>
<modeling>
 <generator>
  <i name="program" type="string">vasp </i>
  <i name="version" type="string">6.1.2  </i>
  <i name="subversion" type="string">22Jul20 (build Jan 14 2022 17:24:41) gamma-only                       parallel </i>
  <i name="platform" type="string">LinuxPGI </i>
  <i name="date" type="string">2022 01 24 </i>
  <i name="time" type="string">08:22:57 </i>
 </generator>
 <incar>
  <i type="int" name="ISPIN">     2</i>
  <i type="int" name="IBRION">     2</i>
  <i type="int" name="NSW">  1000</i>
  <i type="int" name="ISIF">     0</i>
  <i type="int" name="ISYM">     0</i>
  <i name="ENCUT">    400.00000000</i>
  <i type="logical" name="LREAL"> F  </i>
  <i type="int" name="ISMEAR">     1</i>
  <i name="SIGMA">      0.20000000</i>
  <i type="logical" name="LWAVE"> F  </i>
  <i type="logical" name="LCHARG"> F  </i>
  <i type="int" name="KPAR">     1</i>
  <i type="int" name="NCORE">    16</i>
  <i type="string" name="GGA"> PE</i>
  <i type="int" name="ISPIN">     2</i>
 </incar>
 <structure name="primitive_cell" >
  <crystal>
   <varray name="basis" >
    <v>      22.70189903       0.00000000       0.00000000 </v>
    <v>       0.00000000      22.09966543       0.00000000 </v>
    <v>       0.00000000       0.00000000      22.58844604 </v>
   </varray>
   <i name="volume">  11332.72216544 </i>
   <varray name="rec_basis" >
    <v>       0.04404918       0.00000000       0.00000000 </v>
    <v>       0.00000000       0.04524955       0.00000000 </v>
    <v>       0.00000000       0.00000000       0.04427042 </v>
   </varray>
  </crystal>
  <varray name="positions" >
   <v>       0.55014960       0.49268774       0.48876179 </v>
   <v>       0.49402665       0.45618134       0.39947131 </v>
   <v>       0.57017451       0.53545516       0.39206223 </v>
   <v>       0.47363126       0.55784034       0.43872915 </v>
   <v>       0.56165841       0.60106296       0.48007130 </v>
   <v>       0.50713456       0.44902572       0.57701381 </v>
   <v>       0.51906767       0.38471283       0.48396977 </v>
   <v>       0.59848390       0.42781509       0.41381177 </v>
   <v>       0.43736213       0.46711066       0.49490051 </v>
   <v>       0.48606447       0.55847115       0.54987624 </v>
  </varray>
 </structure>
 <varray name="primitive_index" >
  <v type="int" >        1 </v>
  <v type="int" >        2 </v>
  <v type="int" >        3 </v>
  <v type="int" >        4 </v>
  <v type="int" >        5 </v>
  <v type="int" >        6 </v>
  <v type="int" >        7 </v>
  <v type="int" >        8 </v>
  <v type="int" >        9 </v>
  <v type="int" >       10 </v>
 </varray>
 <kpoints>
  <generation param="Gamma">
   <v type="int" name="divisions">       1        1        1 </v>
   <v name="usershift">      0.00000000       0.00000000       0.00000000 </v>
   <v name="genvec1">      1.00000000       0.00000000       0.00000000 </v>
   <v name="genvec2">      0.00000000       1.00000000       0.00000000 </v>
   <v name="genvec3">      0.00000000       0.00000000       1.00000000 </v>
   <v name="shift">      0.00000000       0.00000000       0.00000000 </v>
  </generation>
  <varray name="kpointlist" >
   <v>       0.00000000       0.00000000       0.00000000 </v>
  </varray>
  <varray name="weights" >
   <v>       1.00000000 </v>
  </varray>
 </kpoints>
 <parameters>
  <separator name="general" >
   <i type="string" name="SYSTEM">unknown system</i>
   <i type="logical" name="LCOMPAT"> F  </i>
  </separator>
  <separator name="electronic" >
   <i type="string" name="PREC">normal</i>
   <i name="ENMAX">    400.00000000</i>
   <i name="ENAUG">    544.56500000</i>
   <i name="EDIFF">      0.00010000</i>
   <i type="int" name="IALGO">    38</i>
   <i type="int" name="IWAVPR">    11</i>
   <i type="int" name="NBANDS">    65</i>
   <i type="int" name="NBANDSLOW">    -1</i>
   <i type="int" name="NBANDSHIGH">    -1</i>
   <i name="NELECT">    100.00000000</i>
   <i type="int" name="TURBO">     0</i>
   <i type="int" name="IRESTART">     0</i>
   <i type="int" name="NREBOOT">     0</i>
   <i type="int" name="NMIN">     0</i>
   <i name="EREF">      0.00000000</i>
   <separator name="electronic smearing" >
    <i type="int" name="ISMEAR">     1</i>
    <i name="SIGMA">      0.20000000</i>
    <i name="KSPACING">      0.50000000</i>
    <i type="logical" name="KGAMMA"> T  </i>
    <i type="logical" name="KBLOWUP"> T  </i>
   </separator>
   <separator name="electronic projectors" >
    <i type="logical" name="LREAL"> F  </i>
    <v name="ROPT">      0.00000000      0.00000000</v>
    <i type="int" name="LMAXPAW">  -100</i>
    <i type="int" name="LMAXMIX">     2</i>
    <i type="logical" name="NLSPLINE"> F  </i>
   </separator>
   <separator name="electronic startup" >
    <i type="int" name="ISTART">     0</i>
    <i type="int" name="ICHARG">     2</i>
    <i type="int" name="INIWAV">     1</i>
   </separator>
   <separator name="electronic spin" >
    <i type="int" name="ISPIN">     2</i>
    <i type="logical" name="LNONCOLLINEAR"> F  </i>
    <v name="MAGMOM">      1.00000000      1.00000000      1.00000000      1.00000000      1.00000000      1.00000000      1.00000000      1.00000000      1.00000000      1.00000000</v>
    <i name="NUPDOWN">     -1.00000000</i>
    <i type="logical" name="LSORBIT"> F  </i>
    <v name="SAXIS">      0.00000000      0.00000000      1.00000000</v>
    <i type="logical" name="LSPIRAL"> F  </i>
    <v name="QSPIRAL">      0.00000000      0.00000000      0.00000000</v>
    <i type="logical" name="LZEROZ"> F  </i>
   </separator>
   <separator name="electronic exchange-correlation" >
    <i type="logical" name="LASPH"> F  </i>
    <i type="logical" name="LMETAGGA"> F  </i>
   </separator>
   <separator name="electronic convergence" >
    <i type="int" name="NELM">    60</i>
    <i type="int" name="NELMDL">     0</i>
    <i type="int" name="NELMIN">     2</i>
    <i name="ENINI">    400.00000000</i>
    <separator name="electronic convergence detail" >
     <i type="logical" name="LDIAG"> T  </i>
     <i type="logical" name="LSUBROT"> F  </i>
     <i name="WEIMIN">      0.00100000</i>
     <i name="EBREAK">      0.00000038</i>
     <i name="DEPER">      0.30000000</i>
     <i type="int" name="NRMM">     4</i>
     <i name="TIME">      0.40000000</i>
    </separator>
   </separator>
   <separator name="electronic mixer" >
    <i name="AMIX">      0.40000000</i>
    <i name="BMIX">      1.00000000</i>
    <i name="AMIN">      0.10000000</i>
    <i name="AMIX_MAG">      1.60000000</i>
    <i name="BMIX_MAG">      1.00000000</i>
    <separator name="electronic mixer details" >
     <i type="int" name="IMIX">     4</i>
     <i type="logical" name="MIXFIRST"> F  </i>
     <i type="int" name="MAXMIX">   -45</i>
     <i name="WC">    100.00000000</i>
     <i type="int" name="INIMIX">     1</i>
     <i type="int" name="MIXPRE">     1</i>
     <i type="int" name="MREMOVE">     5</i>
    </separator>
   </separator>
   <separator name="electronic dipolcorrection" >
    <i type="logical" name="LDIPOL"> F  </i>
    <i type="logical" name="LMONO"> F  </i>
    <i type="int" name="IDIPOL">     0</i>
    <i name="EPSILON">      1.00000000</i>
    <v name="DIPOL">   -100.00000000   -100.00000000   -100.00000000</v>
    <i name="EFIELD">      0.00000000</i>
   </separator>
  </separator>
  <separator name="grids" >
   <i type="int" name="NGX">   112</i>
   <i type="int" name="NGY">   108</i>
   <i type="int" name="NGZ">   112</i>
   <i type="int" name="NGXF">   224</i>
   <i type="int" name="NGYF">   216</i>
   <i type="int" name="NGZF">   224</i>
   <i type="logical" name="ADDGRID"> F  </i>
  </separator>
  <separator name="ionic" >
   <i type="int" name="NSW">  1000</i>
   <i type="int" name="IBRION">     2</i>
   <i type="int" name="MDALGO">     0</i>
   <i type="int" name="ISIF">     0</i>
   <i name="PSTRESS">      0.00000000</i>
   <i name="EDIFFG">      0.00100000</i>
   <i type="int" name="NFREE">     1</i>
   <i name="POTIM">      0.50000000</i>
   <i name="SMASS">     -3.00000000</i>
   <i name="SCALEE">      1.00000000</i>
  </separator>
  <separator name="ionic md" >
   <i name="TEBEG">      0.00010000</i>
   <i name="TEEND">      0.00010000</i>
   <i type="int" name="NBLOCK">     1</i>
   <i type="int" name="KBLOCK">  1000</i>
   <i type="int" name="NPACO">   256</i>
   <i name="APACO">     16.00000000</i>
  </separator>
  <separator name="symmetry" >
   <i type="int" name="ISYM">     0</i>
   <i name="SYMPREC">      0.00001000</i>
  </separator>
  <separator name="dos" >
   <i type="int" name="LORBIT">     0</i>
   <v name="RWIGS">     -1.00000000     -1.00000000</v>
   <i type="int" name="NEDOS">   301</i>
   <i name="EMIN">     10.00000000</i>
   <i name="EMAX">    -10.00000000</i>
   <i name="EFERMI">      0.00000000</i>
  </separator>
  <separator name="writing" >
   <i type="int" name="NWRITE">     2</i>
   <i type="logical" name="LWAVE"> F  </i>
   <i type="logical" name="LDOWNSAMPLE"> F  </i>
   <i type="logical" name="LCHARG"> F  </i>
   <i type="logical" name="LPARD"> F  </i>
   <i type="logical" name="LVTOT"> F  </i>
   <i type="logical" name="LVHAR"> F  </i>
   <i type="logical" name="LELF"> F  </i>
   <i type="logical" name="LOPTICS"> F  </i>
   <v name="STM">      0.00000000      0.00000000      0.00000000      0.00000000      0.00000000      0.00000000      0.00000000</v>
  </separator>
  <separator name="performance" >
   <i type="int" name="NPAR">     1</i>
   <i type="int" name="NSIM">     4</i>
   <i type="int" name="NBLK">    -1</i>
   <i type="logical" name="LPLANE"> T  </i>
   <i type="logical" name="LSCALAPACK"> T  </i>
   <i type="logical" name="LSCAAWARE"> F  </i>
   <i type="logical" name="LSCALU"> F  </i>
   <i type="logical" name="LASYNC"> F  </i>
   <i type="logical" name="LORBITALREAL"> F  </i>
  </separator>
  <separator name="miscellaneous" >
   <i type="int" name="IDIOT">     3</i>
   <i type="int" name="PHON_NSTRUCT">    -1</i>
   <i type="logical" name="LMUSIC"> F  </i>
   <v name="POMASS">     58.69000000    106.42000000</v>
   <v name="DARWINR">      0.00000000      0.00000000</v>
   <v name="DARWINV">      1.00000000      1.00000000</v>
   <i type="logical" name="LCORR"> T  </i>
  </separator>
  <i type="logical" name="GGA_COMPAT"> T  </i>
  <i type="logical" name="LBERRY"> F  </i>
  <i type="int" name="ICORELEVEL">     0</i>
  <i type="logical" name="LDAU"> F  </i>
  <i type="int" name="I_CONSTRAINED_M">     0</i>
  <separator name="electronic exchange-correlation" >
   <i type="string" name="GGA">PE</i>
   <i type="int" name="VOSKOWN">     0</i>
   <i type="logical" name="LHFCALC"> F  </i>
   <i type="string" name="PRECFOCK"></i>
   <i type="logical" name="LSYMGRAD"> F  </i>
   <i type="logical" name="LHFONE"> F  </i>
   <i type="logical" name="LRHFCALC"> F  </i>
   <i type="logical" name="LTHOMAS"> F  </i>
   <i type="logical" name="LMODELHF"> F  </i>
   <i type="logical" name="LFOCKACE"> F  </i>
   <i name="ENCUT4O">     -1.00000000</i>
   <i type="int" name="EXXOEP">     0</i>
   <i type="int" name="FOURORBIT">     0</i>
   <i name="AEXX">      0.00000000</i>
   <i name="HFALPHA">      0.00000000</i>
   <i name="MCALPHA">      0.00000000</i>
   <i name="ALDAX">      1.00000000</i>
   <i name="AGGAX">      1.00000000</i>
   <i name="ALDAC">      1.00000000</i>
   <i name="AGGAC">      1.00000000</i>
   <i type="int" name="NKREDX">     1</i>
   <i type="int" name="NKREDY">     1</i>
   <i type="int" name="NKREDZ">     1</i>
   <i type="logical" name="SHIFTRED"> F  </i>
   <i type="logical" name="ODDONLY"> F  </i>
   <i type="logical" name="EVENONLY"> F  </i>
   <i type="int" name="LMAXFOCK">     0</i>
   <i type="int" name="NMAXFOCKAE">     0</i>
   <i type="logical" name="LFOCKAEDFT"> F  </i>
   <i name="HFSCREEN">      0.00000000</i>
   <i name="HFSCREENC">      0.00000000</i>
   <i type="int" name="NBANDSGWLOW">     0</i>
  </separator>
  <separator name="vdW DFT" >
   <i type="logical" name="LUSE_VDW"> F  </i>
   <i name="Zab_VDW">     -0.84910000</i>
   <i name="PARAM1">      0.12340000</i>
   <i name="PARAM2">      1.00000000</i>
   <i name="PARAM3">      0.00000000</i>
  </separator>
  <separator name="model GW" >
   <i type="int" name="MODEL_GW">     0</i>
   <i name="MODEL_EPS0">    679.96332993</i>
   <i name="MODEL_ALPHA">      1.00000000</i>
  </separator>
  <separator name="linear response parameters" >
   <i type="logical" name="LEPSILON"> F  </i>
   <i type="logical" name="LRPA"> F  </i>
   <i type="logical" name="LNABLA"> F  </i>
   <i type="logical" name="LVEL"> F  </i>
   <i type="int" name="KINTER">     0</i>
   <i name="CSHIFT">      0.10000000</i>
   <i name="OMEGAMAX">     -1.00000000</i>
   <i name="DEG_THRESHOLD">      0.00200000</i>
   <i name="RTIME">     -0.10000000</i>
   <i name="WPLASMAI">      0.00000000</i>
   <v name="DFIELD">      0.00000000      0.00000000      0.00000000</v>
   <v name="WPLASMA">      0.00000000      0.00000000      0.00000000      0.00000000      0.00000000      0.00000000      0.00000000      0.00000000      0.00000000</v>
  </separator>
  <separator name="orbital magnetization" >
   <i type="logical" name="NUCIND"> F  </i>
   <v name="MAGPOS">      0.00000000      0.00000000      0.00000000</v>
   <i type="logical" name="LNICSALL"> T  </i>
   <i type="logical" name="ORBITALMAG"> F  </i>
   <i type="logical" name="LMAGBLOCH"> F  </i>
   <i type="logical" name="LCHIMAG"> F  </i>
   <i type="logical" name="LGAUGE"> T  </i>
   <i type="int" name="MAGATOM">     0</i>
   <v name="MAGDIPOL">      0.00000000      0.00000000      0.00000000</v>
   <v name="AVECCONST">      0.00000000      0.00000000      0.00000000</v>
  </separator>
  <separator name="response functions" >
   <i type="logical" name="LFINITE_TEMPERATURE"> F  </i>
   <i type="logical" name="LADDER"> F  </i>
   <i type="logical" name="LRPAFORCE"> F  </i>
   <i type="logical" name="LFXC"> F  </i>
   <i type="logical" name="LHARTREE"> T  </i>
   <i type="int" name="IBSE">     0</i>
   <v type="int" name="KPOINT">    -1     0     0     0</v>
   <i type="logical" name="LTCTC"> F  </i>
   <i type="logical" name="LTCTE"> F  </i>
   <i type="logical" name="LTETE"> F  </i>
   <i type="logical" name="LTRIPLET"> F  </i>
   <i type="logical" name="LFXCEPS"> F  </i>
   <i type="logical" name="LFXHEG"> F  </i>
   <i type="int" name="NATURALO">     2</i>
   <i type="logical" name="LHOLEGF"> F  </i>
   <i type="logical" name="L2ORDER"> F  </i>
   <i type="logical" name="LDMP1"> F  </i>
   <i type="logical" name="LMP2LT"> F  </i>
   <i type="logical" name="LSMP2LT"> F  </i>
   <i type="logical" name="LGWLF"> F  </i>
   <i name="ENCUTGW">     -2.00000000</i>
   <i name="ENCUTGWSOFT">     -2.00000000</i>
   <i name="ENCUTLF">     -1.00000000</i>
   <i type="logical" name="LESF_SPLINES"> F  </i>
   <i type="int" name="LMAXMP2">    -1</i>
   <i name="SCISSOR">      0.00000000</i>
   <i type="int" name="NOMEGA">     0</i>
   <i type="int" name="NOMEGAR">     0</i>
   <i type="int" name="NBANDSGW">    -1</i>
   <i type="int" name="NBANDSO">    -1</i>
   <i type="int" name="NBANDSV">    -1</i>
   <i type="int" name="NELM">     1</i>
   <i type="int" name="NELMHF">     1</i>
   <i type="int" name="DIM">     3</i>
   <i type="int" name="IESPILON">     4</i>
   <i type="int" name="ANTIRES">     0</i>
   <i name="OMEGAMAX">    -30.00000000</i>
   <i name="OMEGAMIN">    -30.00000000</i>
   <i name="OMEGATL">   -200.00000000</i>
   <i type="int" name="OMEGAGRID">     0</i>
   <i name="CSHIFT">     -0.10000000</i>
   <i type="logical" name="LSELFENERGY"> F  </i>
   <i type="logical" name="LSPECTRAL"> F  </i>
   <i type="logical" name="LSPECTRALGW"> F  </i>
   <i type="logical" name="LSINGLES"> F  </i>
   <i type="logical" name="LFERMIGW"> F  </i>
   <i type="logical" name="ODDONLYGW"> F  </i>
   <i type="logical" name="EVENONLYGW"> F  </i>
   <i type="int" name="NKREDLFX">     1</i>
   <i type="int" name="NKREDLFY">     1</i>
   <i type="int" name="NKREDLFZ">     1</i>
   <i type="int" name="MAXMEM">  2800</i>
   <i type="int" name="TELESCOPE">     0</i>
   <i type="int" name="NTAUPAR">    -1</i>
   <i type="int" name="NOMEGAPAR">    -1</i>
   <i name="LAMBDA">      1.00000000</i>
  </separator>
  <separator name="External order field" >
   <i name="OFIELD_KAPPA">      0.00000000</i>
   <v name="OFIELD_K">      0.00000000      0.00000000      0.00000000</v>
   <i name="OFIELD_Q6_NEAR">      0.00000000</i>
   <i name="OFIELD_Q6_FAR">      0.00000000</i>
   <i name="OFIELD_A">      0.00000000</i>
  </separator>
 </parameters>
 <atominfo>
  <atoms>      10 </atoms>
  <types>       2 </types>
  <array name="atoms" >
   <dimension dim="1">ion</dimension>
   <field type="string">element</field>
   <field type="int">atomtype</field>
   <set>
    <rc><c>Ni</c><c>   1</c></rc>
    <rc><c>Ni</c><c>   1</c></rc>
    <rc><c>Ni</c><c>   1</c></rc>
    <rc><c>Ni</c><c>   1</c></rc>
    <rc><c>Ni</c><c>   1</c></rc>
    <rc><c>Ni</c><c>   1</c></rc>
    <rc><c>Pd</c><c>   2</c></rc>
    <rc><c>Pd</c><c>   2</c></rc>
    <rc><c>Pd</c><c>   2</c></rc>
    <rc><c>Pd</c><c>   2</c></rc>
   </set>
  </array>
  <array name="atomtypes" >
   <dimension dim="1">type</dimension>
   <field type="int">atomspertype</field>
   <field type="string">element</field>
   <field>mass</field>
   <field>valence</field>
   <field type="string">pseudopotential</field>
   <set>
    <rc><c>   6</c><c>Ni</c><c>     58.69000000</c><c>     10.00000000</c><c>  PAW_PBE Ni 02Aug2007                  </c></rc>
    <rc><c>   4</c><c>Pd</c><c>    106.42000000</c><c>     10.00000000</c><c>  PAW_PBE Pd 04Jan2005                  </c></rc>
   </set>
  </array>
 </atominfo>
 <structure name="initialpos" >
  <crystal>
   <varray name="basis" >
    <v>      22.70189903       0.00000000       0.00000000 </v>
    <v>       0.00000000      22.09966543       0.00000000 </v>
    <v>       0.00000000       0.00000000      22.58844604 </v>
   </varray>
   <i name="volume">  11332.72216544 </i>
   <varray name="rec_basis" >
    <v>       0.04404918       0.00000000       0.00000000 </v>
    <v>       0.00000000       0.04524955       0.00000000 </v>
    <v>       0.00000000       0.00000000       0.04427042 </v>
   </varray>
  </crystal>
  <varray name="positions" >
   <v>       0.55014960       0.49268774       0.48876179 </v>
   <v>       0.49402665       0.45618134       0.39947131 </v>
   <v>       0.57017451       0.53545516       0.39206223 </v>
   <v>       0.47363126       0.55784034       0.43872915 </v>
   <v>       0.56165841       0.60106296       0.48007130 </v>
   <v>       0.50713456       0.44902572       0.57701381 </v>
   <v>       0.51906767       0.38471283       0.48396977 </v>
   <v>       0.59848390       0.42781509       0.41381177 </v>
   <v>       0.43736213       0.46711066       0.49490051 </v>
   <v>       0.48606447       0.55847115       0.54987624 </v>
  </varray>
 </structure>
 <calculation>
  <scstep>
   <time name="dav">    4.57    4.58</time>
   <time name="total">    6.83    6.86</time>
   <energy>
    <i name="alphaZ">      5.00054001 </i>
    <i name="ewald">  12713.68596973 </i>
    <i name="hartreedc"> -21692.88478854 </i>
    <i name="XCdc">     62.99406866 </i>
    <i name="pawpsdc">   9003.59075477 </i>
    <i name="pawaedc">  -9155.75339974 </i>
    <i name="eentropy">     -0.03237044 </i>
    <i name="bandstr">     85.81052381 </i>
    <i name="atom">   9704.95859309 </i>
    <i name="e_fr_energy">    727.36989135 </i>
    <i name="e_wo_entrp">    727.40226180 </i>
    <i name="e_0_energy">    727.38068150 </i>
   </energy>
  </scstep>
  <scstep>
   <time name="dav">    7.15    7.15</time>
   <time name="total">    7.16    7.16</time>
   <energy>
    <i name="e_fr_energy">    252.00699636 </i>
    <i name="e_wo_entrp">    251.93284144 </i>
    <i name="e_0_energy">    251.98227805 </i>
   </energy>
  </scstep>
  <scstep>
   <time name="dav">    5.98    5.99</time>
   <time name="total">    5.99    6.00</time>
   <energy>
    <i name="e_fr_energy">     18.67445046 </i>
    <i name="e_wo_entrp">     18.68858112 </i>
    <i name="e_0_energy">     18.67916068 </i>
   </energy>
  </scstep>
  <scstep>
   <time name="dav">    6.55    6.56</time>
   <time name="total">    6.55    6.56</time>
   <energy>
    <i name="e_fr_energy">    -37.40446818 </i>
    <i name="e_wo_entrp">    -37.36487630 </i>
    <i name="e_0_energy">    -37.39127089 </i>
   </energy>
  </scstep>
  <scstep>
   <time name="dav">    5.13    5.14</time>
   <time name="total">    5.73    5.74</time>
   <energy>
    <i name="e_fr_energy">    -43.69420858 </i>
    <i name="e_wo_entrp">    -43.67200398 </i>
    <i name="e_0_energy">    -43.68680705 </i>
   </energy>
  </scstep>
  <scstep>
   <time name="dav">    4.93    4.93</time>
   <time name="total">    7.83    7.84</time>
   <energy>
    <i name="e_fr_energy">    -61.70144485 </i>
    <i name="e_wo_entrp">    -61.68974556 </i>
    <i name="e_0_energy">    -61.69754508 </i>
   </energy>
  </scstep>
  <scstep>
   <time name="dav">    5.42    5.42</time>
   <time name="total">    8.31    8.32</time>
   <energy>
    <i name="e_fr_energy">    -39.03213951 </i>
    <i name="e_wo_entrp">    -38.99748355 </i>
    <i name="e_0_energy">    -39.02058752 </i>
   </energy>
  </scstep>
  <scstep>
   <time name="dav">    5.51    5.51</time>
   <time name="total">    8.41    8.42</time>
   <energy>
    <i name="e_fr_energy">    -38.42668890 </i>
    <i name="e_wo_entrp">    -38.42060625 </i>
    <i name="e_0_energy">    -38.42466135 </i>
   </energy>
  </scstep>
  <scstep>
   <time name="dav">    5.51    5.52</time>
   <time name="total">    8.42    8.44</time>
   <energy>
    <i name="e_fr_energy">    -40.86372111 </i>
    <i name="e_wo_entrp">    -40.84324509 </i>
    <i name="e_0_energy">    -40.85689577 </i>
   </energy>
  </scstep>
  <scstep>
   <time name="dav">    5.45    5.46</time>
   <time name="total">    8.36    8.37</time>
   <energy>
    <i name="e_fr_energy">    -37.06024785 </i>
    <i name="e_wo_entrp">    -37.04907069 </i>
    <i name="e_0_energy">    -37.05652213 </i>
   </energy>
  </scstep>
  <scstep>
   <time name="dav">    5.90    5.91</time>
   <time name="total">    8.80    8.82</time>
   <energy>
    <i name="e_fr_energy">    -35.48623636 </i>
    <i name="e_wo_entrp">    -35.47814578 </i>
    <i name="e_0_energy">    -35.48353950 </i>
   </energy>
  </scstep>
  <scstep>
   <time name="dav">    5.91    5.92</time>
   <time name="total">    8.81    8.82</time>
   <energy>
    <i name="e_fr_energy">    -35.51727014 </i>
    <i name="e_wo_entrp">    -35.50359781 </i>
    <i name="e_0_energy">    -35.51271270 </i>
   </energy>
  </scstep>
  <scstep>
   <time name="dav">    5.17    5.18</time>
   <time name="total">    8.09    8.11</time>
   <energy>
    <i name="e_fr_energy">    -35.33676659 </i>
    <i name="e_wo_entrp">    -35.33107406 </i>
    <i name="e_0_energy">    -35.33486908 </i>
   </energy>
  </scstep>
  <scstep>
   <time name="dav">    5.52    5.52</time>
   <time name="total">    8.40    8.42</time>
   <energy>
    <i name="e_fr_energy">    -35.41671766 </i>
    <i name="e_wo_entrp">    -35.38528836 </i>
    <i name="e_0_energy">    -35.40624123 </i>
   </energy>
  </scstep>
  <scstep>
   <time name="dav">    5.04    5.05</time>
   <time name="total">    7.96    7.97</time>
   <energy>
    <i name="e_fr_energy">    -35.38803108 </i>
    <i name="e_wo_entrp">    -35.35934824 </i>
    <i name="e_0_energy">    -35.37847013 </i>
   </energy>
  </scstep>
  <scstep>
   <time name="dav">    5.41    5.42</time>
   <time name="total">    8.34    8.35</time>
   <energy>
    <i name="e_fr_energy">    -35.56199901 </i>
    <i name="e_wo_entrp">    -35.53704601 </i>
    <i name="e_0_energy">    -35.55368134 </i>
   </energy>
  </scstep>
  <scstep>
   <time name="dav">    5.49    5.49</time>
   <time name="total">    8.41    8.42</time>
   <energy>
    <i name="e_fr_energy">    -35.78590305 </i>
    <i name="e_wo_entrp">    -35.76974148 </i>
    <i name="e_0_energy">    -35.78051586 </i>
   </energy>
  </scstep>
  <scstep>
   <time name="dav">    5.93    5.94</time>
   <time name="total">    8.87    8.89</time>
   <energy>
    <i name="e_fr_energy">    -36.07143653 </i>
    <i name="e_wo_entrp">    -36.06439527 </i>
    <i name="e_0_energy">    -36.06908945 </i>
   </energy>
  </scstep>
  <scstep>
   <time name="dav">    5.18    5.18</time>
   <time name="total">    8.12    8.13</time>
   <energy>
    <i name="e_fr_energy">    -36.12749853 </i>
    <i name="e_wo_entrp">    -36.11291538 </i>
    <i name="e_0_energy">    -36.12263748 </i>
   </energy>
  </scstep>
  <scstep>
   <time name="dav">    5.69    5.70</time>
   <time name="total">    8.65    8.70</time>
   <energy>
    <i name="e_fr_energy">    -36.35612650 </i>
    <i name="e_wo_entrp">    -36.34441124 </i>
    <i name="e_0_energy">    -36.35222141 </i>
   </energy>
  </scstep>
  <scstep>
   <time name="dav">    5.78    5.78</time>
   <time name="total">    8.72    8.74</time>
   <energy>
    <i name="e_fr_energy">    -36.52089726 </i>
    <i name="e_wo_entrp">    -36.50902458 </i>
    <i name="e_0_energy">    -36.51693970 </i>
   </energy>
  </scstep>
  <scstep>
   <time name="dav">    5.51    5.51</time>
   <time name="total">    8.49    8.50</time>
   <energy>
    <i name="e_fr_energy">    -36.63389419 </i>
    <i name="e_wo_entrp">    -36.62184162 </i>
    <i name="e_0_energy">    -36.62987667 </i>
   </energy>
  </scstep>
  <scstep>
   <time name="dav">    5.18    5.19</time>
   <time name="total">    8.15    8.16</time>
   <energy>
    <i name="e_fr_energy">    -36.76865792 </i>
    <i name="e_wo_entrp">    -36.75858491 </i>
    <i name="e_0_energy">    -36.76530025 </i>
   </energy>
  </scstep>
  <scstep>
   <time name="dav">    5.01    5.01</time>
   <time name="total">    8.01    8.02</time>
   <energy>
    <i name="e_fr_energy">    -36.85990126 </i>
    <i name="e_wo_entrp">    -36.85019679 </i>
    <i name="e_0_energy">    -36.85666644 </i>
   </energy>
  </scstep>
  <scstep>
   <time name="dav">    4.95    4.96</time>
   <time name="total">    7.95    7.96</time>
   <energy>
    <i name="e_fr_energy">    -36.94239116 </i>
    <i name="e_wo_entrp">    -36.93267498 </i>
    <i name="e_0_energy">    -36.93915244 </i>
   </energy>
  </scstep>
  <scstep>
   <time name="dav">    5.13    5.14</time>
   <time name="total">    8.16    8.18</time>
   <energy>
    <i name="e_fr_energy">    -37.05257533 </i>
    <i name="e_wo_entrp">    -37.04413632 </i>
    <i name="e_0_energy">    -37.04976232 </i>
   </energy>
  </scstep>
  <scstep>
   <time name="dav">    4.48    4.49</time>
   <time name="total">    7.51    7.52</time>
   <energy>
    <i name="e_fr_energy">    -37.10936484 </i>
    <i name="e_wo_entrp">    -37.10053940 </i>
    <i name="e_0_energy">    -37.10642303 </i>
   </energy>
  </scstep>
  <scstep>
   <time name="dav">    4.31    4.31</time>
   <time name="total">    7.34    7.35</time>
   <energy>
    <i name="e_fr_energy">    -37.15022371 </i>
    <i name="e_wo_entrp">    -37.14146695 </i>
    <i name="e_0_energy">    -37.14730479 </i>
   </energy>
  </scstep>
  <scstep>
   <time name="dav">    4.50    4.51</time>
   <time name="total">    7.57    7.58</time>
   <energy>
    <i name="e_fr_energy">    -37.18181063 </i>
    <i name="e_wo_entrp">    -37.17313906 </i>
    <i name="e_0_energy">    -37.17892011 </i>
   </energy>
  </scstep>
  <scstep>
   <time name="dav">    4.03    4.04</time>
   <time name="total">    7.08    7.10</time>
   <energy>
    <i name="e_fr_energy">    -37.20024967 </i>
    <i name="e_wo_entrp">    -37.19139871 </i>
    <i name="e_0_energy">    -37.19729935 </i>
   </energy>
  </scstep>
  <scstep>
   <time name="dav">    4.09    4.10</time>
   <time name="total">    7.17    7.17</time>
   <energy>
    <i name="e_fr_energy">    -37.21482906 </i>
    <i name="e_wo_entrp">    -37.20593831 </i>
    <i name="e_0_energy">    -37.21186547 </i>
   </energy>
  </scstep>
  <scstep>
   <time name="dav">    3.72    3.72</time>
   <time name="total">    6.81    6.82</time>
   <energy>
    <i name="e_fr_energy">    -37.22411496 </i>
    <i name="e_wo_entrp">    -37.21523439 </i>
    <i name="e_0_energy">    -37.22115477 </i>
   </energy>
  </scstep>
  <scstep>
   <time name="dav">    3.82    3.82</time>
   <time name="total">    6.91    6.92</time>
   <energy>
    <i name="e_fr_energy">    -37.23255101 </i>
    <i name="e_wo_entrp">    -37.22367129 </i>
    <i name="e_0_energy">    -37.22959110 </i>
   </energy>
  </scstep>
  <scstep>
   <time name="dav">    3.45    3.46</time>
   <time name="total">    6.55    6.57</time>
   <energy>
    <i name="e_fr_energy">    -37.23719845 </i>
    <i name="e_wo_entrp">    -37.22823390 </i>
    <i name="e_0_energy">    -37.23421027 </i>
   </energy>
  </scstep>
  <scstep>
   <time name="dav">    3.63    3.63</time>
   <time name="total">    6.75    6.76</time>
   <energy>
    <i name="e_fr_energy">    -37.23999955 </i>
    <i name="e_wo_entrp">    -37.23102956 </i>
    <i name="e_0_energy">    -37.23700955 </i>
   </energy>
  </scstep>
  <scstep>
   <time name="dav">    3.46    3.46</time>
   <time name="total">    6.61    6.62</time>
   <energy>
    <i name="e_fr_energy">    -37.24209661 </i>
    <i name="e_wo_entrp">    -37.23308048 </i>
    <i name="e_0_energy">    -37.23909124 </i>
   </energy>
  </scstep>
  <scstep>
   <time name="dav">    3.42    3.43</time>
   <time name="total">    6.59    6.60</time>
   <energy>
    <i name="e_fr_energy">    -37.24340554 </i>
    <i name="e_wo_entrp">    -37.23439783 </i>
    <i name="e_0_energy">    -37.24040297 </i>
   </energy>
  </scstep>
  <scstep>
   <time name="dav">    3.35    3.36</time>
   <time name="total">    6.53    6.56</time>
   <energy>
    <i name="e_fr_energy">    -37.24437840 </i>
    <i name="e_wo_entrp">    -37.23538116 </i>
    <i name="e_0_energy">    -37.24137932 </i>
   </energy>
  </scstep>
  <scstep>
   <time name="dav">    3.33    3.33</time>
   <time name="total">    6.51    6.54</time>
   <energy>
    <i name="e_fr_energy">    -37.24486439 </i>
    <i name="e_wo_entrp">    -37.23586237 </i>
    <i name="e_0_energy">    -37.24186372 </i>
   </energy>
  </scstep>
  <scstep>
   <time name="dav">    3.39    3.40</time>
   <time name="total">    6.60    6.63</time>
   <energy>
    <i name="e_fr_energy">    -37.24537885 </i>
    <i name="e_wo_entrp">    -37.23636946 </i>
    <i name="e_0_energy">    -37.24237572 </i>
   </energy>
  </scstep>
  <scstep>
   <time name="dav">    3.36    3.36</time>
   <time name="total">    6.59    6.61</time>
   <energy>
    <i name="e_fr_energy">    -37.24572486 </i>
    <i name="e_wo_entrp">    -37.23670454 </i>
    <i name="e_0_energy">    -37.24271809 </i>
   </energy>
  </scstep>
  <scstep>
   <time name="dav">    3.32    3.33</time>
   <time name="total">    6.56    6.57</time>
   <energy>
    <i name="e_fr_energy">    -37.24598813 </i>
    <i name="e_wo_entrp">    -37.23695944 </i>
    <i name="e_0_energy">    -37.24297857 </i>
   </energy>
  </scstep>
  <scstep>
   <time name="dav">    3.45    3.46</time>
   <time name="total">    6.72    6.73</time>
   <energy>
    <i name="e_fr_energy">    -37.24612405 </i>
    <i name="e_wo_entrp">    -37.23709088 </i>
    <i name="e_0_energy">    -37.24311299 </i>
   </energy>
  </scstep>
  <scstep>
   <time name="dav">    3.25    3.27</time>
   <time name="total">    5.52    5.54</time>
   <energy>
    <i name="alphaZ">      5.00054001 </i>
    <i name="ewald">  12713.68596973 </i>
    <i name="hartreedc"> -21768.38204491 </i>
    <i name="XCdc">     60.27656313 </i>
    <i name="pawpsdc">  10077.49957745 </i>
    <i name="pawaedc"> -10241.80388561 </i>
    <i name="eentropy">     -0.00903950 </i>
    <i name="bandstr">   -588.47247092 </i>
    <i name="atom">   9704.95859309 </i>
    <i name="e_fr_energy">    -37.24619753 </i>
    <i name="e_wo_entrp">    -37.23715803 </i>
    <i name="e_0_energy">    -37.24318437 </i>
   </energy>
  </scstep>
  <structure>
   <crystal>
    <varray name="basis" >
     <v>      22.70189903       0.00000000       0.00000000 </v>
     <v>       0.00000000      22.09966543       0.00000000 </v>
     <v>       0.00000000       0.00000000      22.58844604 </v>
    </varray>
    <i name="volume">  11332.72216544 </i>
    <varray name="rec_basis" >
     <v>       0.04404918       0.00000000       0.00000000 </v>
     <v>       0.00000000       0.04524955       0.00000000 </v>
     <v>       0.00000000       0.00000000       0.04427042 </v>
    </varray>
   </crystal>
   <varray name="positions" >
    <v>       0.55014960       0.49268774       0.48876179 </v>
    <v>       0.49402665       0.45618134       0.39947131 </v>
    <v>       0.57017451       0.53545516       0.39206223 </v>
    <v>       0.47363126       0.55784034       0.43872915 </v>
    <v>       0.56165841       0.60106296       0.48007130 </v>
    <v>       0.50713456       0.44902572       0.57701381 </v>
    <v>       0.51906767       0.38471283       0.48396977 </v>
    <v>       0.59848390       0.42781509       0.41381177 </v>
    <v>       0.43736213       0.46711066       0.49490051 </v>
    <v>       0.48606447       0.55847115       0.54987624 </v>
   </varray>
  </structure>
  <varray name="forces" >
   <v>       0.28571884       0.45850001      -0.07575832 </v>
   <v>       0.21819490       0.54334883       0.14969456 </v>
   <v>      -0.70501208      -0.15647791       0.91476325 </v>
   <v>       0.73238769      -0.22420290      -0.14675097 </v>
   <v>      -0.31008390      -0.82851571      -0.40892802 </v>
   <v>       0.16261599       0.22346206      -0.58630543 </v>
   <v>      -0.14080467      -0.49651613       0.44272340 </v>
   <v>       0.46697308       0.26654238      -0.47064609 </v>
   <v>      -0.88424457      -0.19297664      -0.11671389 </v>
   <v>       0.17425472       0.40683599       0.29792152 </v>
  </varray>
  <energy>
   <i name="e_fr_energy">    -37.24619753 </i>
   <i name="e_wo_entrp">    -37.23715803 </i>
   <i name="e_0_energy">    -37.24318437 </i>
  </energy>
  <time name="totalsc">  338.44  339.16</time>
 </calculation>
 <calculation>
  <scstep>
   <time name="dav">    4.46    4.47</time>
   <time name="total">    7.33    7.35</time>
   <energy>
    <i name="alphaZ">      5.00054001 </i>
    <i name="ewald">  12781.57508287 </i>
    <i name="hartreedc"> -21836.10710059 </i>
    <i name="XCdc">     60.40000888 </i>
    <i name="pawpsdc">  10077.51019263 </i>
    <i name="pawaedc"> -10241.81443782 </i>
    <i name="eentropy">     -0.01248126 </i>
    <i name="bandstr">   -588.86501770 </i>
    <i name="atom">   9704.95859309 </i>
    <i name="e_fr_energy">    -37.35461987 </i>
    <i name="e_wo_entrp">    -37.34213861 </i>
    <i name="e_0_energy">    -37.35045945 </i>
   </energy>
  </scstep>
  <scstep>
   <time name="dav">    5.79    5.80</time>
   <time name="total">    8.64    8.66</time>
   <energy>
    <i name="e_fr_energy">    -38.57774103 </i>
    <i name="e_wo_entrp">    -38.49602942 </i>
    <i name="e_0_energy">    -38.55050383 </i>
   </energy>
  </scstep>
  <scstep>
   <time name="dav">    5.21    5.21</time>
   <time name="total">    8.05    8.07</time>
   <energy>
    <i name="e_fr_energy">    -37.45609857 </i>
    <i name="e_wo_entrp">    -37.41533766 </i>
    <i name="e_0_energy">    -37.44251160 </i>
   </energy>
  </scstep>
  <scstep>
   <time name="dav">    5.87    5.88</time>
   <time name="total">    8.74    8.76</time>
   <energy>
    <i name="e_fr_energy">    -37.48200463 </i>
    <i name="e_wo_entrp">    -37.45854353 </i>
    <i name="e_0_energy">    -37.47418426 </i>
   </energy>
  </scstep>
  <scstep>
   <time name="dav">    5.59    5.60</time>
   <time name="total">    8.47    8.49</time>
   <energy>
    <i name="e_fr_energy">    -37.48719028 </i>
    <i name="e_wo_entrp">    -37.46895875 </i>
    <i name="e_0_energy">    -37.48111310 </i>
   </energy>
  </scstep>
  <scstep>
   <time name="dav">    5.40    5.40</time>
   <time name="total">    8.27    8.28</time>
   <energy>
    <i name="e_fr_energy">    -37.46395817 </i>
    <i name="e_wo_entrp">    -37.43875284 </i>
    <i name="e_0_energy">    -37.45555639 </i>
   </energy>
  </scstep>
  <scstep>
   <time name="dav">    5.58    5.59</time>
   <time name="total">    8.47    8.48</time>
   <energy>
    <i name="e_fr_energy">    -37.45981414 </i>
    <i name="e_wo_entrp">    -37.43492492 </i>
    <i name="e_0_energy">    -37.45151774 </i>
   </energy>
  </scstep>
  <scstep>
   <time name="dav">    5.63    5.64</time>
   <time name="total">    8.52    8.54</time>
   <energy>
    <i name="e_fr_energy">    -37.47254347 </i>
    <i name="e_wo_entrp">    -37.45219297 </i>
    <i name="e_0_energy">    -37.46575997 </i>
   </energy>
  </scstep>
  <scstep>
   <time name="dav">    5.68    5.68</time>
   <time name="total">    8.57    8.59</time>
   <energy>
    <i name="e_fr_energy">    -37.46107683 </i>
    <i name="e_wo_entrp">    -37.43612318 </i>
    <i name="e_0_energy">    -37.45275895 </i>
   </energy>
  </scstep>
  <scstep>
   <time name="dav">    5.70    5.70</time>
   <time name="total">    8.60    8.62</time>
   <energy>
    <i name="e_fr_energy">    -37.47384768 </i>
    <i name="e_wo_entrp">    -37.45553739 </i>
    <i name="e_0_energy">    -37.46774425 </i>
   </energy>
  </scstep>
  <scstep>
   <time name="dav">    5.86    5.87</time>
   <time name="total">    8.77    8.79</time>
   <energy>
    <i name="e_fr_energy">    -37.46018161 </i>
    <i name="e_wo_entrp">    -37.43763859 </i>
    <i name="e_0_energy">    -37.45266727 </i>
   </energy>
  </scstep>
  <scstep>
   <time name="dav">    6.10    6.11</time>
   <time name="total">    9.03    9.04</time>
   <energy>
    <i name="e_fr_energy">    -37.46592183 </i>
    <i name="e_wo_entrp">    -37.44331977 </i>
    <i name="e_0_energy">    -37.45838781 </i>
   </energy>
  </scstep>
  <scstep>
   <time name="dav">    5.90    5.92</time>
   <time name="total">    8.84    8.87</time>
   <energy>
    <i name="e_fr_energy">    -37.46441785 </i>
    <i name="e_wo_entrp">    -37.44048218 </i>
    <i name="e_0_energy">    -37.45643929 </i>
   </energy>
  </scstep>
  <scstep>
   <time name="dav">    4.39    4.40</time>
   <time name="total">    7.32    7.35</time>
   <energy>
    <i name="e_fr_energy">    -37.46547900 </i>
    <i name="e_wo_entrp">    -37.44191556 </i>
    <i name="e_0_energy">    -37.45762452 </i>
   </energy>
  </scstep>
  <scstep>
   <time name="dav">    3.43    3.44</time>
   <time name="total">    6.37    6.38</time>
   <energy>
    <i name="e_fr_energy">    -37.46613478 </i>
    <i name="e_wo_entrp">    -37.44281612 </i>
    <i name="e_0_energy">    -37.45836189 </i>
   </energy>
  </scstep>
  <scstep>
   <time name="dav">    3.45    3.46</time>
   <time name="total">    6.39    6.41</time>
   <energy>
    <i name="e_fr_energy">    -37.46663365 </i>
    <i name="e_wo_entrp">    -37.44337356 </i>
    <i name="e_0_energy">    -37.45888029 </i>
   </energy>
  </scstep>
  <scstep>
   <time name="dav">    3.42    3.43</time>
   <time name="total">    6.36    6.39</time>
   <energy>
    <i name="e_fr_energy">    -37.46694151 </i>
    <i name="e_wo_entrp">    -37.44364289 </i>
    <i name="e_0_energy">    -37.45917530 </i>
   </energy>
  </scstep>
  <scstep>
   <time name="dav">    3.35    3.36</time>
   <time name="total">    6.30    6.33</time>
   <energy>
    <i name="e_fr_energy">    -37.46718782 </i>
    <i name="e_wo_entrp">    -37.44397794 </i>
    <i name="e_0_energy">    -37.45945119 </i>
   </energy>
  </scstep>
  <scstep>
   <time name="dav">    3.36    3.37</time>
   <time name="total">    6.32    6.35</time>
   <energy>
    <i name="e_fr_energy">    -37.46736735 </i>
    <i name="e_wo_entrp">    -37.44407845 </i>
    <i name="e_0_energy">    -37.45960438 </i>
   </energy>
  </scstep>
  <scstep>
   <time name="dav">    3.36    3.38</time>
   <time name="total">    6.34    6.36</time>
   <energy>
    <i name="e_fr_energy">    -37.46749248 </i>
    <i name="e_wo_entrp">    -37.44421870 </i>
    <i name="e_0_energy">    -37.45973455 </i>
   </energy>
  </scstep>
  <scstep>
   <time name="dav">    3.33    3.34</time>
   <time name="total">    6.31    6.34</time>
   <energy>
    <i name="e_fr_energy">    -37.46761304 </i>
    <i name="e_wo_entrp">    -37.44434825 </i>
    <i name="e_0_energy">    -37.45985811 </i>
   </energy>
  </scstep>
  <scstep>
   <time name="dav">    3.36    3.37</time>
   <time name="total">    5.63    5.65</time>
   <energy>
    <i name="alphaZ">      5.00054001 </i>
    <i name="ewald">  12781.57508287 </i>
    <i name="hartreedc"> -21835.00218521 </i>
    <i name="XCdc">     60.30772774 </i>
    <i name="pawpsdc">  10092.04969733 </i>
    <i name="pawaedc"> -10256.37499452 </i>
    <i name="eentropy">     -0.02327400 </i>
    <i name="bandstr">   -589.95887286 </i>
    <i name="atom">   9704.95859309 </i>
    <i name="e_fr_energy">    -37.46768555 </i>
    <i name="e_wo_entrp">    -37.44441155 </i>
    <i name="e_0_energy">    -37.45992755 </i>
   </energy>
  </scstep>
  <structure>
   <crystal>
    <varray name="basis" >
     <v>      22.70189903       0.00000000       0.00000000 </v>
     <v>       0.00000000      22.09966543       0.00000000 </v>
     <v>       0.00000000       0.00000000      22.58844604 </v>
    </varray>
    <i name="volume">  11332.72216544 </i>
    <varray name="rec_basis" >
     <v>       0.04404918       0.00000000       0.00000000 </v>
     <v>       0.00000000       0.04524955       0.00000000 </v>
     <v>       0.00000000       0.00000000       0.04427042 </v>
    </varray>
   </crystal>
   <varray name="positions" >
    <v>       0.55075677       0.49368863       0.48859999 </v>
    <v>       0.49449032       0.45736745       0.39979102 </v>
    <v>       0.56867633       0.53511357       0.39401592 </v>
    <v>       0.47518762       0.55735092       0.43841573 </v>
    <v>       0.56099947       0.59925435       0.47919795 </v>
    <v>       0.50748012       0.44951353       0.57576162 </v>
    <v>       0.51876846       0.38362896       0.48491531 </v>
    <v>       0.59947624       0.42839694       0.41280660 </v>
    <v>       0.43548307       0.46668940       0.49465125 </v>
    <v>       0.48643477       0.55935926       0.55051252 </v>
   </varray>
  </structure>
  <varray name="forces" >
   <v>       0.10167313      -0.03574620       0.01884168 </v>
   <v>       0.15745450       0.26997082       0.23659599 </v>
   <v>      -0.35477490      -0.09016267       0.47334243 </v>
   <v>       0.32541566      -0.21557889      -0.03855531 </v>
   <v>      -0.07508973      -0.36212891      -0.21639353 </v>
   <v>       0.07724779       0.23119832      -0.61664999 </v>
   <v>      -0.03419845      -0.06917944       0.22799579 </v>
   <v>       0.21135142       0.15876192      -0.24907825 </v>
   <v>      -0.43695501      -0.07761768      -0.05558851 </v>
   <v>       0.02787559       0.19048274       0.21948971 </v>
  </varray>
  <energy>
   <i name="e_fr_energy">    -37.46768555 </i>
   <i name="e_wo_entrp">    -37.44441155 </i>
   <i name="e_0_energy">    -37.45992755 </i>
  </energy>
  <time name="totalsc">  176.38  176.86</time>
 </calculation>
 <calculation>
  <scstep>
   <time name="dav">    4.46    4.47</time>
   <time name="total">    7.34    7.35</time>
   <energy>
    <i name="alphaZ">      5.00054001 </i>
    <i name="ewald">  12843.86074812 </i>
    <i name="hartreedc"> -21896.42969245 </i>
    <i name="XCdc">     60.44644613 </i>
    <i name="pawpsdc">  10092.04069366 </i>
    <i name="pawaedc"> -10256.36644836 </i>
    <i name="eentropy">     -0.02579492 </i>
    <i name="bandstr">   -590.93226766 </i>
    <i name="atom">   9704.95859309 </i>
    <i name="e_fr_energy">    -37.44718239 </i>
    <i name="e_wo_entrp">    -37.42138747 </i>
    <i name="e_0_energy">    -37.43858408 </i>
   </energy>
  </scstep>
  <scstep>
   <time name="dav">    5.79    5.79</time>
   <time name="total">    8.64    8.65</time>
   <energy>
    <i name="e_fr_energy">    -38.20215658 </i>
    <i name="e_wo_entrp">    -38.12851836 </i>
    <i name="e_0_energy">    -38.17761051 </i>
   </energy>
  </scstep>
  <scstep>
   <time name="dav">    5.13    5.13</time>
   <time name="total">    8.02    8.03</time>
   <energy>
    <i name="e_fr_energy">    -37.49354554 </i>
    <i name="e_wo_entrp">    -37.44842868 </i>
    <i name="e_0_energy">    -37.47850658 </i>
   </energy>
  </scstep>
  <scstep>
   <time name="dav">    5.85    5.85</time>
   <time name="total">    8.70    8.72</time>
   <energy>
    <i name="e_fr_energy">    -37.53434959 </i>
    <i name="e_wo_entrp">    -37.50136860 </i>
    <i name="e_0_energy">    -37.52335593 </i>
   </energy>
  </scstep>
  <scstep>
   <time name="dav">    5.68    5.69</time>
   <time name="total">    8.55    8.57</time>
   <energy>
    <i name="e_fr_energy">    -37.56345189 </i>
    <i name="e_wo_entrp">    -37.53396527 </i>
    <i name="e_0_energy">    -37.55362302 </i>
   </energy>
  </scstep>
  <scstep>
   <time name="dav">    5.39    5.40</time>
   <time name="total">    8.26    8.27</time>
   <energy>
    <i name="e_fr_energy">    -37.52584894 </i>
    <i name="e_wo_entrp">    -37.49190127 </i>
    <i name="e_0_energy">    -37.51453305 </i>
   </energy>
  </scstep>
  <scstep>
   <time name="dav">    5.58    5.59</time>
   <time name="total">    8.48    8.49</time>
   <energy>
    <i name="e_fr_energy">    -37.52099706 </i>
    <i name="e_wo_entrp">    -37.48297273 </i>
    <i name="e_0_energy">    -37.50832229 </i>
   </energy>
  </scstep>
  <scstep>
   <time name="dav">    5.88    5.89</time>
   <time name="total">    8.78    8.79</time>
   <energy>
    <i name="e_fr_energy">    -37.53407881 </i>
    <i name="e_wo_entrp">    -37.49655622 </i>
    <i name="e_0_energy">    -37.52157128 </i>
   </energy>
  </scstep>
  <scstep>
   <time name="dav">    5.59    5.59</time>
   <time name="total">    8.49    8.50</time>
   <energy>
    <i name="e_fr_energy">    -37.52778197 </i>
    <i name="e_wo_entrp">    -37.48950805 </i>
    <i name="e_0_energy">    -37.51502400 </i>
   </energy>
  </scstep>
  <scstep>
   <time name="dav">    5.78    5.79</time>
   <time name="total">    8.68    8.70</time>
   <energy>
    <i name="e_fr_energy">    -37.53508732 </i>
    <i name="e_wo_entrp">    -37.49306883 </i>
    <i name="e_0_energy">    -37.52108116 </i>
   </energy>
  </scstep>
  <scstep>
   <time name="dav">    5.76    5.77</time>
   <time name="total">    8.66    8.68</time>
   <energy>
    <i name="e_fr_energy">    -37.52536948 </i>
    <i name="e_wo_entrp">    -37.49016330 </i>
    <i name="e_0_energy">    -37.51363408 </i>
   </energy>
  </scstep>
  <scstep>
   <time name="dav">    5.86    5.87</time>
   <time name="total">    8.79    8.81</time>
   <energy>
    <i name="e_fr_energy">    -37.52894732 </i>
    <i name="e_wo_entrp">    -37.49310528 </i>
    <i name="e_0_energy">    -37.51699998 </i>
   </energy>
  </scstep>
  <scstep>
   <time name="dav">    5.68    5.69</time>
   <time name="total">    8.60    8.61</time>
   <energy>
    <i name="e_fr_energy">    -37.52820080 </i>
    <i name="e_wo_entrp">    -37.49037080 </i>
    <i name="e_0_energy">    -37.51559080 </i>
   </energy>
  </scstep>
  <scstep>
   <time name="dav">    3.61    3.62</time>
   <time name="total">    6.54    6.55</time>
   <energy>
    <i name="e_fr_energy">    -37.52893532 </i>
    <i name="e_wo_entrp">    -37.49155062 </i>
    <i name="e_0_energy">    -37.51647376 </i>
   </energy>
  </scstep>
  <scstep>
   <time name="dav">    3.45    3.45</time>
   <time name="total">    6.38    6.38</time>
   <energy>
    <i name="e_fr_energy">    -37.52930529 </i>
    <i name="e_wo_entrp">    -37.49219126 </i>
    <i name="e_0_energy">    -37.51693394 </i>
   </energy>
  </scstep>
  <scstep>
   <time name="dav">    3.36    3.37</time>
   <time name="total">    6.31    6.32</time>
   <energy>
    <i name="e_fr_energy">    -37.52955493 </i>
    <i name="e_wo_entrp">    -37.49239146 </i>
    <i name="e_0_energy">    -37.51716711 </i>
   </energy>
  </scstep>
  <scstep>
   <time name="dav">    3.45    3.45</time>
   <time name="total">    6.41    6.42</time>
   <energy>
    <i name="e_fr_energy">    -37.52979660 </i>
    <i name="e_wo_entrp">    -37.49267237 </i>
    <i name="e_0_energy">    -37.51742186 </i>
   </energy>
  </scstep>
  <scstep>
   <time name="dav">    3.46    3.46</time>
   <time name="total">    6.41    6.42</time>
   <energy>
    <i name="e_fr_energy">    -37.52995647 </i>
    <i name="e_wo_entrp">    -37.49283825 </i>
    <i name="e_0_energy">    -37.51758373 </i>
   </energy>
  </scstep>
  <scstep>
   <time name="dav">    3.36    3.37</time>
   <time name="total">    5.64    5.66</time>
   <energy>
    <i name="alphaZ">      5.00054001 </i>
    <i name="ewald">  12843.86074812 </i>
    <i name="hartreedc"> -21895.50498000 </i>
    <i name="XCdc">     60.37519035 </i>
    <i name="pawpsdc">  10117.56636859 </i>
    <i name="pawaedc"> -10282.08569956 </i>
    <i name="eentropy">     -0.03715083 </i>
    <i name="bandstr">   -591.66366135 </i>
    <i name="atom">   9704.95859309 </i>
    <i name="e_fr_energy">    -37.53005158 </i>
    <i name="e_wo_entrp">    -37.49290076 </i>
    <i name="e_0_energy">    -37.51766797 </i>
   </energy>
  </scstep>
  <structure>
   <crystal>
    <varray name="basis" >
     <v>      22.70189903       0.00000000       0.00000000 </v>
     <v>       0.00000000      22.09966543       0.00000000 </v>
     <v>       0.00000000       0.00000000      22.58844604 </v>
    </varray>
    <i name="volume">  11332.72216544 </i>
    <varray name="rec_basis" >
     <v>       0.04404918       0.00000000       0.00000000 </v>
     <v>       0.00000000       0.04524955       0.00000000 </v>
     <v>       0.00000000       0.00000000       0.04427042 </v>
    </varray>
   </crystal>
   <varray name="positions" >
    <v>       0.55127196       0.49453790       0.48846270 </v>
    <v>       0.49488376       0.45837389       0.40006230 </v>
    <v>       0.56740509       0.53482373       0.39567365 </v>
    <v>       0.47650822       0.55693563       0.43814979 </v>
    <v>       0.56044034       0.59771970       0.47845688 </v>
    <v>       0.50777335       0.44992744       0.57469911 </v>
    <v>       0.51851457       0.38270927       0.48571761 </v>
    <v>       0.60031826       0.42889065       0.41195369 </v>
    <v>       0.43388864       0.46633195       0.49443974 </v>
    <v>       0.48674898       0.56011283       0.55105241 </v>
   </varray>
  </structure>
  <varray name="forces" >
   <v>      -0.02030315      -0.51655046       0.18965075 </v>
   <v>       0.06656080      -0.01679717       0.29123013 </v>
   <v>       0.07531828      -0.03873014      -0.07610218 </v>
   <v>      -0.18901045      -0.18337765       0.07852207 </v>
   <v>       0.17609779       0.15153228       0.00661273 </v>
   <v>       0.00693441       0.23366283      -0.62653091 </v>
   <v>       0.02974498       0.23235310       0.07705585 </v>
   <v>       0.03564250       0.09099698      -0.09693920 </v>
   <v>      -0.10156562       0.00343121      -0.01921106 </v>
   <v>      -0.07941954       0.04347903       0.17571182 </v>
  </varray>
  <energy>
   <i name="e_fr_energy">    -37.53005158 </i>
   <i name="e_wo_entrp">    -37.49290076 </i>
   <i name="e_0_energy">    -37.51766797 </i>
  </energy>
  <time name="totalsc">  156.35  156.68</time>
 </calculation>
 <calculation>
  <scstep>
   <time name="dav">    4.46    4.46</time>
   <time name="total">    7.33    7.34</time>
   <energy>
    <i name="alphaZ">      5.00054001 </i>
    <i name="ewald">  12886.49211506 </i>
    <i name="hartreedc"> -21937.93998196 </i>
    <i name="XCdc">     60.47045159 </i>
    <i name="pawpsdc">  10117.54787340 </i>
    <i name="pawaedc"> -10282.06762527 </i>
    <i name="eentropy">     -0.03440734 </i>
    <i name="bandstr">   -591.97297448 </i>
    <i name="atom">   9704.95859309 </i>
    <i name="e_fr_energy">    -37.54541590 </i>
    <i name="e_wo_entrp">    -37.51100856 </i>
    <i name="e_0_energy">    -37.53394679 </i>
   </energy>
  </scstep>
  <scstep>
   <time name="dav">    5.39    5.40</time>
   <time name="total">    8.25    8.26</time>
   <energy>
    <i name="e_fr_energy">    -38.58424510 </i>
    <i name="e_wo_entrp">    -38.55300189 </i>
    <i name="e_0_energy">    -38.57383069 </i>
   </energy>
  </scstep>
  <scstep>
   <time name="dav">    5.38    5.39</time>
   <time name="total">    8.26    8.28</time>
   <energy>
    <i name="e_fr_energy">    -37.62279392 </i>
    <i name="e_wo_entrp">    -37.57180769 </i>
    <i name="e_0_energy">    -37.60579851 </i>
   </energy>
  </scstep>
  <scstep>
   <time name="dav">    5.87    5.88</time>
   <time name="total">    8.76    8.78</time>
   <energy>
    <i name="e_fr_energy">    -37.56008835 </i>
    <i name="e_wo_entrp">    -37.49862815 </i>
    <i name="e_0_energy">    -37.53960162 </i>
   </energy>
  </scstep>
  <scstep>
   <time name="dav">    5.79    5.80</time>
   <time name="total">    8.66    8.67</time>
   <energy>
    <i name="e_fr_energy">    -37.57395881 </i>
    <i name="e_wo_entrp">    -37.53477794 </i>
    <i name="e_0_energy">    -37.56089852 </i>
   </energy>
  </scstep>
  <scstep>
   <time name="dav">    5.88    5.89</time>
   <time name="total">    8.73    8.75</time>
   <energy>
    <i name="e_fr_energy">    -37.58469343 </i>
    <i name="e_wo_entrp">    -37.54021478 </i>
    <i name="e_0_energy">    -37.56986721 </i>
   </energy>
  </scstep>
  <scstep>
   <time name="dav">    5.48    5.49</time>
   <time name="total">    8.35    8.37</time>
   <energy>
    <i name="e_fr_energy">    -37.56837833 </i>
    <i name="e_wo_entrp">    -37.52433913 </i>
    <i name="e_0_energy">    -37.55369859 </i>
   </energy>
  </scstep>
  <scstep>
   <time name="dav">    6.03    6.05</time>
   <time name="total">    8.92    8.95</time>
   <energy>
    <i name="e_fr_energy">    -37.57444684 </i>
    <i name="e_wo_entrp">    -37.53136911 </i>
    <i name="e_0_energy">    -37.56008760 </i>
   </energy>
  </scstep>
  <scstep>
   <time name="dav">    5.86    5.87</time>
   <time name="total">    8.76    8.77</time>
   <energy>
    <i name="e_fr_energy">    -37.57278059 </i>
    <i name="e_wo_entrp">    -37.52850372 </i>
    <i name="e_0_energy">    -37.55802163 </i>
   </energy>
  </scstep>
  <scstep>
   <time name="dav">    5.78    5.78</time>
   <time name="total">    8.67    8.69</time>
   <energy>
    <i name="e_fr_energy">    -37.57538267 </i>
    <i name="e_wo_entrp">    -37.53199183 </i>
    <i name="e_0_energy">    -37.56091906 </i>
   </energy>
  </scstep>
  <scstep>
   <time name="dav">    5.81    5.83</time>
   <time name="total">    8.73    8.75</time>
   <energy>
    <i name="e_fr_energy">    -37.57297228 </i>
    <i name="e_wo_entrp">    -37.52934036 </i>
    <i name="e_0_energy">    -37.55842831 </i>
   </energy>
  </scstep>
  <scstep>
   <time name="dav">    5.89    5.89</time>
   <time name="total">    8.82    8.83</time>
   <energy>
    <i name="e_fr_energy">    -37.57436060 </i>
    <i name="e_wo_entrp">    -37.53179873 </i>
    <i name="e_0_energy">    -37.56017331 </i>
   </energy>
  </scstep>
  <scstep>
   <time name="dav">    4.24    4.24</time>
   <time name="total">    7.16    7.17</time>
   <energy>
    <i name="e_fr_energy">    -37.57417596 </i>
    <i name="e_wo_entrp">    -37.53070997 </i>
    <i name="e_0_energy">    -37.55968730 </i>
   </energy>
  </scstep>
  <scstep>
   <time name="dav">    3.55    3.55</time>
   <time name="total">    5.83    5.84</time>
   <energy>
    <i name="alphaZ">      5.00054001 </i>
    <i name="ewald">  12886.49211506 </i>
    <i name="hartreedc"> -21936.81433618 </i>
    <i name="XCdc">     60.43358526 </i>
    <i name="pawpsdc">  10131.53014807 </i>
    <i name="pawaedc"> -10296.23290301 </i>
    <i name="eentropy">     -0.04373477 </i>
    <i name="bandstr">   -592.89825522 </i>
    <i name="atom">   9704.95859309 </i>
    <i name="e_fr_energy">    -37.57424769 </i>
    <i name="e_wo_entrp">    -37.53051292 </i>
    <i name="e_0_energy">    -37.55966943 </i>
   </energy>
  </scstep>
  <structure>
   <crystal>
    <varray name="basis" >
     <v>      22.70189903       0.00000000       0.00000000 </v>
     <v>       0.00000000      22.09966543       0.00000000 </v>
     <v>       0.00000000       0.00000000      22.58844604 </v>
    </varray>
    <i name="volume">  11332.72216544 </i>
    <varray name="rec_basis" >
     <v>       0.04404918       0.00000000       0.00000000 </v>
     <v>       0.00000000       0.04524955       0.00000000 </v>
     <v>       0.00000000       0.00000000       0.04427042 </v>
    </varray>
   </crystal>
   <varray name="positions" >
    <v>       0.55135666       0.49344175       0.48890046 </v>
    <v>       0.49515243       0.45859504       0.40086101 </v>
    <v>       0.56725879       0.53464880       0.39591845 </v>
    <v>       0.47638487       0.55635844       0.43827618 </v>
    <v>       0.56073137       0.59770400       0.47827898 </v>
    <v>       0.50786751       0.45063267       0.57285518 </v>
    <v>       0.51852189       0.38306128       0.48612060 </v>
    <v>       0.60062777       0.42925253       0.41148776 </v>
    <v>       0.43321788       0.46624694       0.49433625 </v>
    <v>       0.48663400       0.56042156       0.55163301 </v>
   </varray>
  </structure>
  <varray name="forces" >
   <v>       0.03392503      -0.19007054       0.02192289 </v>
   <v>       0.03493119      -0.07311093       0.21172179 </v>
   <v>       0.11521616       0.01746051      -0.07481614 </v>
   <v>      -0.15454990      -0.09665783       0.15078892 </v>
   <v>       0.07322965      -0.00103107       0.03607216 </v>
   <v>      -0.02947948       0.15960806      -0.25097435 </v>
   <v>       0.05158662       0.05327977      -0.02755919 </v>
   <v>       0.04931384       0.03605159      -0.08491803 </v>
   <v>      -0.13720594       0.04257604      -0.01498855 </v>
   <v>      -0.03696717       0.05189439       0.03275050 </v>
  </varray>
  <energy>
   <i name="e_fr_energy">    -37.57424769 </i>
   <i name="e_wo_entrp">    -37.53051292 </i>
   <i name="e_0_energy">    -37.55966943 </i>
  </energy>
  <time name="totalsc">  123.88  124.14</time>
 </calculation>
 <calculation>
  <scstep>
   <time name="dav">    4.47    4.48</time>
   <time name="total">    7.36    7.37</time>
   <energy>
    <i name="alphaZ">      5.00054001 </i>
    <i name="ewald">  12934.31625775 </i>
    <i name="hartreedc"> -21984.16941077 </i>
    <i name="XCdc">     60.54876377 </i>
    <i name="pawpsdc">  10131.62408584 </i>
    <i name="pawaedc"> -10296.33463025 </i>
    <i name="eentropy">     -0.04115097 </i>
    <i name="bandstr">   -593.44889040 </i>
    <i name="atom">   9704.95859309 </i>
    <i name="e_fr_energy">    -37.54584193 </i>
    <i name="e_wo_entrp">    -37.50469096 </i>
    <i name="e_0_energy">    -37.53212494 </i>
   </energy>
  </scstep>
  <scstep>
   <time name="dav">    5.42    5.43</time>
   <time name="total">    8.28    8.29</time>
   <energy>
    <i name="e_fr_energy">    -38.64265724 </i>
    <i name="e_wo_entrp">    -38.61833234 </i>
    <i name="e_0_energy">    -38.63454894 </i>
   </energy>
  </scstep>
  <scstep>
   <time name="dav">    5.18    5.19</time>
   <time name="total">    8.05    8.07</time>
   <energy>
    <i name="e_fr_energy">    -37.65603383 </i>
    <i name="e_wo_entrp">    -37.60223058 </i>
    <i name="e_0_energy">    -37.63809941 </i>
   </energy>
  </scstep>
  <scstep>
   <time name="dav">    5.97    5.98</time>
   <time name="total">    8.86    8.87</time>
   <energy>
    <i name="e_fr_energy">    -37.56706147 </i>
    <i name="e_wo_entrp">    -37.49709601 </i>
    <i name="e_0_energy">    -37.54373965 </i>
   </energy>
  </scstep>
  <scstep>
   <time name="dav">    5.68    5.68</time>
   <time name="total">    8.56    8.57</time>
   <energy>
    <i name="e_fr_energy">    -37.58335876 </i>
    <i name="e_wo_entrp">    -37.54069547 </i>
    <i name="e_0_energy">    -37.56913766 </i>
   </energy>
  </scstep>
  <scstep>
   <time name="dav">    5.98    5.99</time>
   <time name="total">    8.85    8.87</time>
   <energy>
    <i name="e_fr_energy">    -37.59565795 </i>
    <i name="e_wo_entrp">    -37.54569370 </i>
    <i name="e_0_energy">    -37.57900320 </i>
   </energy>
  </scstep>
  <scstep>
   <time name="dav">    5.41    5.42</time>
   <time name="total">    8.30    8.32</time>
   <energy>
    <i name="e_fr_energy">    -37.57609594 </i>
    <i name="e_wo_entrp">    -37.52630394 </i>
    <i name="e_0_energy">    -37.55949860 </i>
   </energy>
  </scstep>
  <scstep>
   <time name="dav">    6.05    6.07</time>
   <time name="total">    8.95    8.96</time>
   <energy>
    <i name="e_fr_energy">    -37.58112730 </i>
    <i name="e_wo_entrp">    -37.53246119 </i>
    <i name="e_0_energy">    -37.56490526 </i>
   </energy>
  </scstep>
  <scstep>
   <time name="dav">    6.07    6.08</time>
   <time name="total">    8.97    8.99</time>
   <energy>
    <i name="e_fr_energy">    -37.58190909 </i>
    <i name="e_wo_entrp">    -37.53202237 </i>
    <i name="e_0_energy">    -37.56528018 </i>
   </energy>
  </scstep>
  <scstep>
   <time name="dav">    5.69    5.70</time>
   <time name="total">    8.59    8.60</time>
   <energy>
    <i name="e_fr_energy">    -37.58236625 </i>
    <i name="e_wo_entrp">    -37.53386151 </i>
    <i name="e_0_energy">    -37.56619800 </i>
   </energy>
  </scstep>
  <scstep>
   <time name="dav">    6.03    6.04</time>
   <time name="total">    8.95    8.96</time>
   <energy>
    <i name="e_fr_energy">    -37.58135078 </i>
    <i name="e_wo_entrp">    -37.53245663 </i>
    <i name="e_0_energy">    -37.56505273 </i>
   </energy>
  </scstep>
  <scstep>
   <time name="dav">    5.91    5.92</time>
   <time name="total">    8.83    8.84</time>
   <energy>
    <i name="e_fr_energy">    -37.58262308 </i>
    <i name="e_wo_entrp">    -37.53417793 </i>
    <i name="e_0_energy">    -37.56647470 </i>
   </energy>
  </scstep>
  <scstep>
   <time name="dav">    4.25    4.26</time>
   <time name="total">    7.17    7.18</time>
   <energy>
    <i name="e_fr_energy">    -37.58234769 </i>
    <i name="e_wo_entrp">    -37.53302146 </i>
    <i name="e_0_energy">    -37.56590561 </i>
   </energy>
  </scstep>
  <scstep>
   <time name="dav">    3.63    3.63</time>
   <time name="total">    6.56    6.57</time>
   <energy>
    <i name="e_fr_energy">    -37.58248576 </i>
    <i name="e_wo_entrp">    -37.53324981 </i>
    <i name="e_0_energy">    -37.56607377 </i>
   </energy>
  </scstep>
  <scstep>
   <time name="dav">    3.56    3.57</time>
   <time name="total">    6.50    6.51</time>
   <energy>
    <i name="e_fr_energy">    -37.58279013 </i>
    <i name="e_wo_entrp">    -37.53387675 </i>
    <i name="e_0_energy">    -37.56648567 </i>
   </energy>
  </scstep>
  <scstep>
   <time name="dav">    3.37    3.38</time>
   <time name="total">    6.33    6.34</time>
   <energy>
    <i name="e_fr_energy">    -37.58293254 </i>
    <i name="e_wo_entrp">    -37.53391416 </i>
    <i name="e_0_energy">    -37.56659308 </i>
   </energy>
  </scstep>
  <scstep>
   <time name="dav">    3.39    3.39</time>
   <time name="total">    6.35    6.36</time>
   <energy>
    <i name="e_fr_energy">    -37.58314153 </i>
    <i name="e_wo_entrp">    -37.53408328 </i>
    <i name="e_0_energy">    -37.56678878 </i>
   </energy>
  </scstep>
  <scstep>
   <time name="dav">    3.46    3.46</time>
   <time name="total">    6.43    6.44</time>
   <energy>
    <i name="e_fr_energy">    -37.58340760 </i>
    <i name="e_wo_entrp">    -37.53438540 </i>
    <i name="e_0_energy">    -37.56706687 </i>
   </energy>
  </scstep>
  <scstep>
   <time name="dav">    3.36    3.37</time>
   <time name="total">    6.37    6.38</time>
   <energy>
    <i name="e_fr_energy">    -37.58366259 </i>
    <i name="e_wo_entrp">    -37.53461287 </i>
    <i name="e_0_energy">    -37.56731269 </i>
   </energy>
  </scstep>
  <scstep>
   <time name="dav">    3.48    3.48</time>
   <time name="total">    6.49    6.50</time>
   <energy>
    <i name="e_fr_energy">    -37.58389361 </i>
    <i name="e_wo_entrp">    -37.53484778 </i>
    <i name="e_0_energy">    -37.56754500 </i>
   </energy>
  </scstep>
  <scstep>
   <time name="dav">    3.35    3.36</time>
   <time name="total">    6.34    6.36</time>
   <energy>
    <i name="e_fr_energy">    -37.58413201 </i>
    <i name="e_wo_entrp">    -37.53509392 </i>
    <i name="e_0_energy">    -37.56778598 </i>
   </energy>
  </scstep>
  <scstep>
   <time name="dav">    3.35    3.36</time>
   <time name="total">    6.36    6.37</time>
   <energy>
    <i name="e_fr_energy">    -37.58430453 </i>
    <i name="e_wo_entrp">    -37.53527435 </i>
    <i name="e_0_energy">    -37.56796114 </i>
   </energy>
  </scstep>
  <scstep>
   <time name="dav">    3.26    3.26</time>
   <time name="total">    6.28    6.30</time>
   <energy>
    <i name="e_fr_energy">    -37.58445083 </i>
    <i name="e_wo_entrp">    -37.53542331 </i>
    <i name="e_0_energy">    -37.56810832 </i>
   </energy>
  </scstep>
  <scstep>
   <time name="dav">    3.35    3.35</time>
   <time name="total">    6.39    6.39</time>
   <energy>
    <i name="e_fr_energy">    -37.58460659 </i>
    <i name="e_wo_entrp">    -37.53558936 </i>
    <i name="e_0_energy">    -37.56826751 </i>
   </energy>
  </scstep>
  <scstep>
   <time name="dav">    3.35    3.35</time>
   <time name="total">    6.39    6.41</time>
   <energy>
    <i name="e_fr_energy">    -37.58482037 </i>
    <i name="e_wo_entrp">    -37.53580540 </i>
    <i name="e_0_energy">    -37.56848204 </i>
   </energy>
  </scstep>
  <scstep>
   <time name="dav">    3.34    3.35</time>
   <time name="total">    6.41    6.42</time>
   <energy>
    <i name="e_fr_energy">    -37.58494320 </i>
    <i name="e_wo_entrp">    -37.53592894 </i>
    <i name="e_0_energy">    -37.56860511 </i>
   </energy>
  </scstep>
  <scstep>
   <time name="dav">    3.34    3.35</time>
   <time name="total">    6.42    6.43</time>
   <energy>
    <i name="e_fr_energy">    -37.58507739 </i>
    <i name="e_wo_entrp">    -37.53606147 </i>
    <i name="e_0_energy">    -37.56873875 </i>
   </energy>
  </scstep>
  <scstep>
   <time name="dav">    3.37    3.37</time>
   <time name="total">    5.66    5.67</time>
   <energy>
    <i name="alphaZ">      5.00054001 </i>
    <i name="ewald">  12934.31625775 </i>
    <i name="hartreedc"> -21982.57153157 </i>
    <i name="XCdc">     60.50337881 </i>
    <i name="pawpsdc">  10150.92629631 </i>
    <i name="pawaedc"> -10315.87964512 </i>
    <i name="eentropy">     -0.04901519 </i>
    <i name="bandstr">   -594.79003939 </i>
    <i name="atom">   9704.95859309 </i>
    <i name="e_fr_energy">    -37.58516530 </i>
    <i name="e_wo_entrp">    -37.53615011 </i>
    <i name="e_0_energy">    -37.56882690 </i>
   </energy>
  </scstep>
  <structure>
   <crystal>
    <varray name="basis" >
     <v>      22.70189903       0.00000000       0.00000000 </v>
     <v>       0.00000000      22.09966543       0.00000000 </v>
     <v>       0.00000000       0.00000000      22.58844604 </v>
    </varray>
    <i name="volume">  11332.72216544 </i>
    <varray name="rec_basis" >
     <v>       0.04404918       0.00000000       0.00000000 </v>
     <v>       0.00000000       0.04524955       0.00000000 </v>
     <v>       0.00000000       0.00000000       0.04427042 </v>
    </varray>
   </crystal>
   <varray name="positions" >
    <v>       0.55144929       0.49224293       0.48937922 </v>
    <v>       0.49544626       0.45883691       0.40173452 </v>
    <v>       0.56709879       0.53445748       0.39618618 </v>
    <v>       0.47624996       0.55572719       0.43841441 </v>
    <v>       0.56104966       0.59768683       0.47808442 </v>
    <v>       0.50797049       0.45140395       0.57083856 </v>
    <v>       0.51852990       0.38344625       0.48656133 </v>
    <v>       0.60096626       0.42964830       0.41097819 </v>
    <v>       0.43248429       0.46615396       0.49422308 </v>
    <v>       0.48650825       0.56075920       0.55226799 </v>
   </varray>
  </structure>
  <varray name="forces" >
   <v>       0.13701380       0.18753038      -0.21510382 </v>
   <v>       0.00565799      -0.13812626       0.15382490 </v>
   <v>       0.16189812       0.09163312      -0.07825246 </v>
   <v>      -0.11797431       0.00220825       0.23340317 </v>
   <v>      -0.02951116      -0.14373333       0.06260309 </v>
   <v>      -0.11860149       0.07235952       0.18171399 </v>
   <v>       0.07089963      -0.19181157      -0.15219952 </v>
   <v>       0.06730590      -0.02772614      -0.07102136 </v>
   <v>      -0.18189776       0.08060565      -0.00944750 </v>
   <v>       0.00520928       0.06706037      -0.10552049 </v>
  </varray>
  <energy>
   <i name="e_fr_energy">    -37.58516530 </i>
   <i name="e_wo_entrp">    -37.53615011 </i>
   <i name="e_0_energy">    -37.56882690 </i>
  </energy>
  <time name="totalsc">  213.84  214.24</time>
 </calculation>
 <calculation>
  <scstep>
   <time name="dav">    4.50    4.51</time>
   <time name="total">    7.38    7.40</time>
   <energy>
    <i name="alphaZ">      5.00054001 </i>
    <i name="ewald">  12919.80103630 </i>
    <i name="hartreedc"> -21968.24471212 </i>
    <i name="XCdc">     60.47123382 </i>
    <i name="pawpsdc">  10150.92550656 </i>
    <i name="pawaedc"> -10315.87891750 </i>
    <i name="eentropy">     -0.04902388 </i>
    <i name="bandstr">   -594.56799921 </i>
    <i name="atom">   9704.95859309 </i>
    <i name="e_fr_energy">    -37.58374293 </i>
    <i name="e_wo_entrp">    -37.53471905 </i>
    <i name="e_0_energy">    -37.56740164 </i>
   </energy>
  </scstep>
  <scstep>
   <time name="dav">    5.87    5.87</time>
   <time name="total">    8.72    8.73</time>
   <energy>
    <i name="e_fr_energy">    -37.68122356 </i>
    <i name="e_wo_entrp">    -37.65562557 </i>
    <i name="e_0_energy">    -37.67269090 </i>
   </energy>
  </scstep>
  <scstep>
   <time name="dav">    5.09    5.09</time>
   <time name="total">    7.96    7.97</time>
   <energy>
    <i name="e_fr_energy">    -37.55887546 </i>
    <i name="e_wo_entrp">    -37.51623499 </i>
    <i name="e_0_energy">    -37.54466197 </i>
   </energy>
  </scstep>
  <scstep>
   <time name="dav">    6.07    6.07</time>
   <time name="total">    8.94    8.95</time>
   <energy>
    <i name="e_fr_energy">    -37.58424657 </i>
    <i name="e_wo_entrp">    -37.53480897 </i>
    <i name="e_0_energy">    -37.56776737 </i>
   </energy>
  </scstep>
  <scstep>
   <time name="dav">    5.59    5.60</time>
   <time name="total">    8.47    8.48</time>
   <energy>
    <i name="e_fr_energy">    -37.58869255 </i>
    <i name="e_wo_entrp">    -37.54018727 </i>
    <i name="e_0_energy">    -37.57252413 </i>
   </energy>
  </scstep>
  <scstep>
   <time name="dav">    5.40    5.41</time>
   <time name="total">    8.30    8.31</time>
   <energy>
    <i name="e_fr_energy">    -37.58513572 </i>
    <i name="e_wo_entrp">    -37.53582435 </i>
    <i name="e_0_energy">    -37.56869860 </i>
   </energy>
  </scstep>
  <scstep>
   <time name="dav">    5.10    5.11</time>
   <time name="total">    8.01    8.02</time>
   <energy>
    <i name="e_fr_energy">    -37.58653137 </i>
    <i name="e_wo_entrp">    -37.53947792 </i>
    <i name="e_0_energy">    -37.57084688 </i>
   </energy>
  </scstep>
  <scstep>
   <time name="dav">    5.21    5.21</time>
   <time name="total">    8.12    8.13</time>
   <energy>
    <i name="e_fr_energy">    -37.58654311 </i>
    <i name="e_wo_entrp">    -37.53938840 </i>
    <i name="e_0_energy">    -37.57082488 </i>
   </energy>
  </scstep>
  <scstep>
   <time name="dav">    4.41    4.41</time>
   <time name="total">    7.32    7.33</time>
   <energy>
    <i name="e_fr_energy">    -37.58691654 </i>
    <i name="e_wo_entrp">    -37.54000737 </i>
    <i name="e_0_energy">    -37.57128015 </i>
   </energy>
  </scstep>
  <scstep>
   <time name="dav">    4.50    4.50</time>
   <time name="total">    7.42    7.43</time>
   <energy>
    <i name="e_fr_energy">    -37.58656113 </i>
    <i name="e_wo_entrp">    -37.53913612 </i>
    <i name="e_0_energy">    -37.57075279 </i>
   </energy>
  </scstep>
  <scstep>
   <time name="dav">    3.53    3.53</time>
   <time name="total">    5.82    5.83</time>
   <energy>
    <i name="alphaZ">      5.00054001 </i>
    <i name="ewald">  12919.80103630 </i>
    <i name="hartreedc"> -21968.59250231 </i>
    <i name="XCdc">     60.48024844 </i>
    <i name="pawpsdc">  10145.31682431 </i>
    <i name="pawaedc"> -10310.20007965 </i>
    <i name="eentropy">     -0.04735072 </i>
    <i name="bandstr">   -594.30385397 </i>
    <i name="atom">   9704.95859309 </i>
    <i name="e_fr_energy">    -37.58654449 </i>
    <i name="e_wo_entrp">    -37.53919377 </i>
    <i name="e_0_energy">    -37.57076092 </i>
   </energy>
  </scstep>
  <structure>
   <crystal>
    <varray name="basis" >
     <v>      22.70189903       0.00000000       0.00000000 </v>
     <v>       0.00000000      22.09966543       0.00000000 </v>
     <v>       0.00000000       0.00000000      22.58844604 </v>
    </varray>
    <i name="volume">  11332.72216544 </i>
    <varray name="rec_basis" >
     <v>       0.04404918       0.00000000       0.00000000 </v>
     <v>       0.00000000       0.04524955       0.00000000 </v>
     <v>       0.00000000       0.00000000       0.04427042 </v>
    </varray>
   </crystal>
   <varray name="positions" >
    <v>       0.55142143       0.49260345       0.48923524 </v>
    <v>       0.49535790       0.45876417       0.40147183 </v>
    <v>       0.56714690       0.53451501       0.39610567 </v>
    <v>       0.47629053       0.55591702       0.43837284 </v>
    <v>       0.56095394       0.59769200       0.47814293 </v>
    <v>       0.50793952       0.45117201       0.57144502 </v>
    <v>       0.51852750       0.38333048       0.48642879 </v>
    <v>       0.60086446       0.42952928       0.41113143 </v>
    <v>       0.43270491       0.46618192       0.49425711 </v>
    <v>       0.48654607       0.56065766       0.55207703 </v>
   </varray>
  </structure>
  <varray name="forces" >
   <v>       0.10031449       0.07379454      -0.13688330 </v>
   <v>       0.01625918      -0.11322489       0.17349352 </v>
   <v>       0.14845597       0.06958760      -0.07916238 </v>
   <v>      -0.12710013      -0.02965787       0.20935565 </v>
   <v>       0.00379046      -0.09929047       0.05944411 </v>
   <v>      -0.09335014       0.10410089       0.03041226 </v>
   <v>       0.06536768      -0.12278789      -0.11031527 </v>
   <v>       0.06561025      -0.01221395      -0.07518167 </v>
   <v>      -0.17244066       0.06852036      -0.00663267 </v>
   <v>      -0.00690710       0.06117168      -0.06453024 </v>
  </varray>
  <energy>
   <i name="e_fr_energy">    -37.58654449 </i>
   <i name="e_wo_entrp">    -37.53919377 </i>
   <i name="e_0_energy">    -37.57076092 </i>
  </energy>
  <time name="totalsc">   95.08   95.42</time>
 </calculation>
 <calculation>
  <scstep>
   <time name="dav">    4.47    4.48</time>
   <time name="total">    7.36    7.38</time>
   <energy>
    <i name="alphaZ">      5.00054001 </i>
    <i name="ewald">  12912.22643415 </i>
    <i name="hartreedc"> -21961.38015034 </i>
    <i name="XCdc">     60.45031511 </i>
    <i name="pawpsdc">  10144.95562787 </i>
    <i name="pawaedc"> -10309.82496273 </i>
    <i name="eentropy">     -0.04768235 </i>
    <i name="bandstr">   -593.92915589 </i>
    <i name="atom">   9704.95859309 </i>
    <i name="e_fr_energy">    -37.59044108 </i>
    <i name="e_wo_entrp">    -37.54275873 </i>
    <i name="e_0_energy">    -37.57454696 </i>
   </energy>
  </scstep>
  <scstep>
   <time name="dav">    5.96    5.97</time>
   <time name="total">    8.81    8.84</time>
   <energy>
    <i name="e_fr_energy">    -37.77439495 </i>
    <i name="e_wo_entrp">    -37.73340171 </i>
    <i name="e_0_energy">    -37.76073053 </i>
   </energy>
  </scstep>
  <scstep>
   <time name="dav">    5.30    5.31</time>
   <time name="total">    8.18    8.19</time>
   <energy>
    <i name="e_fr_energy">    -37.57227780 </i>
    <i name="e_wo_entrp">    -37.51189963 </i>
    <i name="e_0_energy">    -37.55215174 </i>
   </energy>
  </scstep>
  <scstep>
   <time name="dav">    5.91    5.92</time>
   <time name="total">    8.77    8.79</time>
   <energy>
    <i name="e_fr_energy">    -37.60603908 </i>
    <i name="e_wo_entrp">    -37.55998194 </i>
    <i name="e_0_energy">    -37.59068670 </i>
   </energy>
  </scstep>
  <scstep>
   <time name="dav">    5.57    5.58</time>
   <time name="total">    8.44    8.46</time>
   <energy>
    <i name="e_fr_energy">    -37.60502768 </i>
    <i name="e_wo_entrp">    -37.55626277 </i>
    <i name="e_0_energy">    -37.58877271 </i>
   </energy>
  </scstep>
  <scstep>
   <time name="dav">    5.39    5.40</time>
   <time name="total">    8.26    8.28</time>
   <energy>
    <i name="e_fr_energy">    -37.60363381 </i>
    <i name="e_wo_entrp">    -37.55538686 </i>
    <i name="e_0_energy">    -37.58755150 </i>
   </energy>
  </scstep>
  <scstep>
   <time name="dav">    5.27    5.28</time>
   <time name="total">    8.16    8.18</time>
   <energy>
    <i name="e_fr_energy">    -37.60030931 </i>
    <i name="e_wo_entrp">    -37.54881651 </i>
    <i name="e_0_energy">    -37.58314505 </i>
   </energy>
  </scstep>
  <scstep>
   <time name="dav">    5.89    5.90</time>
   <time name="total">    8.77    8.80</time>
   <energy>
    <i name="e_fr_energy">    -37.60164644 </i>
    <i name="e_wo_entrp">    -37.55107057 </i>
    <i name="e_0_energy">    -37.58478782 </i>
   </energy>
  </scstep>
  <scstep>
   <time name="dav">    5.40    5.41</time>
   <time name="total">    8.30    8.32</time>
   <energy>
    <i name="e_fr_energy">    -37.60235320 </i>
    <i name="e_wo_entrp">    -37.55237130 </i>
    <i name="e_0_energy">    -37.58569256 </i>
   </energy>
  </scstep>
  <scstep>
   <time name="dav">    4.61    4.62</time>
   <time name="total">    7.51    7.54</time>
   <energy>
    <i name="e_fr_energy">    -37.60221388 </i>
    <i name="e_wo_entrp">    -37.55207298 </i>
    <i name="e_0_energy">    -37.58550025 </i>
   </energy>
  </scstep>
  <scstep>
   <time name="dav">    4.68    4.69</time>
   <time name="total">    7.61    7.63</time>
   <energy>
    <i name="e_fr_energy">    -37.60200635 </i>
    <i name="e_wo_entrp">    -37.55246909 </i>
    <i name="e_0_energy">    -37.58549393 </i>
   </energy>
  </scstep>
  <scstep>
   <time name="dav">    3.54    3.55</time>
   <time name="total">    6.45    6.48</time>
   <energy>
    <i name="e_fr_energy">    -37.60243112 </i>
    <i name="e_wo_entrp">    -37.55293985 </i>
    <i name="e_0_energy">    -37.58593403 </i>
   </energy>
  </scstep>
  <scstep>
   <time name="dav">    3.56    3.57</time>
   <time name="total">    5.84    5.86</time>
   <energy>
    <i name="alphaZ">      5.00054001 </i>
    <i name="ewald">  12912.22643415 </i>
    <i name="hartreedc"> -21960.86116341 </i>
    <i name="XCdc">     60.45044340 </i>
    <i name="pawpsdc">  10139.36732611 </i>
    <i name="pawaedc"> -10304.19029321 </i>
    <i name="eentropy">     -0.05012610 </i>
    <i name="bandstr">   -594.50413764 </i>
    <i name="atom">   9704.95859309 </i>
    <i name="e_fr_energy">    -37.60238360 </i>
    <i name="e_wo_entrp">    -37.55225750 </i>
    <i name="e_0_energy">    -37.58567490 </i>
   </energy>
  </scstep>
  <structure>
   <crystal>
    <varray name="basis" >
     <v>      22.70189903       0.00000000       0.00000000 </v>
     <v>       0.00000000      22.09966543       0.00000000 </v>
     <v>       0.00000000       0.00000000      22.58844604 </v>
[...]
       <r>    -1.6812     3.8169    59.4024 </r>
       <r>    -1.6352     4.1912    59.5951 </r>
       <r>    -1.5892     3.8503    59.7722 </r>
       <r>    -1.5432     2.9406    59.9074 </r>
       <r>    -1.4973     1.8074    59.9905 </r>
       <r>    -1.4513     0.8018    60.0274 </r>
       <r>    -1.4053     0.1190    60.0328 </r>
       <r>    -1.3593    -0.2411    60.0217 </r>
       <r>    -1.3133    -0.3992    60.0034 </r>
       <r>    -1.2673    -0.4842    59.9811 </r>
       <r>    -1.2213    -0.5400    59.9563 </r>
       <r>    -1.1754    -0.4794    59.9342 </r>
       <r>    -1.1294    -0.0978    59.9298 </r>
       <r>    -1.0834     0.8354    59.9682 </r>
       <r>    -1.0374     2.4212    60.0795 </r>
       <r>    -0.9914     4.4933    60.2861 </r>
       <r>    -0.9454     6.6273    60.5909 </r>
       <r>    -0.8994     8.3417    60.9745 </r>
       <r>    -0.8535     9.3687    61.4053 </r>
       <r>    -0.8075     9.7636    61.8543 </r>
       <r>    -0.7615     9.7493    62.3026 </r>
       <r>    -0.7155     9.4419    62.7368 </r>
       <r>    -0.6695     8.7346    63.1384 </r>
       <r>    -0.6235     7.4593    63.4814 </r>
       <r>    -0.5776     5.6652    63.7420 </r>
       <r>    -0.5316     3.7406    63.9140 </r>
       <r>    -0.4856     2.2549    64.0177 </r>
       <r>    -0.4396     1.6412    64.0931 </r>
       <r>    -0.3936     1.9449    64.1826 </r>
       <r>    -0.3476     2.7977    64.3112 </r>
       <r>    -0.3016     3.6177    64.4776 </r>
       <r>    -0.2557     3.9115    64.6574 </r>
       <r>    -0.2097     3.5046    64.8186 </r>
       <r>    -0.1637     2.5739    64.9370 </r>
       <r>    -0.1177     1.4895    65.0055 </r>
       <r>    -0.0717     0.5895    65.0326 </r>
       <r>    -0.0257     0.0351    65.0342 </r>
       <r>     0.0202    -0.1955    65.0252 </r>
       <r>     0.0662    -0.2206    65.0150 </r>
       <r>     0.1122    -0.1612    65.0076 </r>
       <r>     0.1582    -0.0929    65.0034 </r>
       <r>     0.2042    -0.0448    65.0013 </r>
       <r>     0.2502    -0.0186    65.0004 </r>
       <r>     0.2962    -0.0067    65.0001 </r>
       <r>     0.3421    -0.0021    65.0000 </r>
       <r>     0.3881    -0.0006    65.0000 </r>
       <r>     0.4341    -0.0001    65.0000 </r>
       <r>     0.4801    -0.0000    65.0000 </r>
       <r>     0.5261    -0.0000    65.0000 </r>
       <r>     0.5721    -0.0000    65.0000 </r>
       <r>     0.6180    -0.0000    65.0000 </r>
       <r>     0.6640    -0.0000    65.0000 </r>
       <r>     0.7100    -0.0000    65.0000 </r>
       <r>     0.7560    -0.0000    65.0000 </r>
       <r>     0.8020    -0.0000    65.0000 </r>
       <r>     0.8480    -0.0000    65.0000 </r>
       <r>     0.8940    -0.0000    65.0000 </r>
       <r>     0.9399    -0.0000    65.0000 </r>
       <r>     0.9859     0.0000    65.0000 </r>
       <r>     1.0319     0.0000    65.0000 </r>
       <r>     1.0779     0.0000    65.0000 </r>
       <r>     1.1239     0.0000    65.0000 </r>
       <r>     1.1699     0.0000    65.0000 </r>
       <r>     1.2159     0.0000    65.0000 </r>
       <r>     1.2618     0.0000    65.0000 </r>
       <r>     1.3078     0.0000    65.0000 </r>
       <r>     1.3538     0.0000    65.0000 </r>
       <r>     1.3998     0.0000    65.0000 </r>
       <r>     1.4458     0.0000    65.0000 </r>
       <r>     1.4918     0.0000    65.0000 </r>
       <r>     1.5377     0.0000    65.0000 </r>
       <r>     1.5837     0.0000    65.0000 </r>
       <r>     1.6297     0.0000    65.0000 </r>
       <r>     1.6757     0.0000    65.0000 </r>
       <r>     1.7217     0.0000    65.0000 </r>
       <r>     1.7677     0.0000    65.0000 </r>
       <r>     1.8137     0.0000    65.0000 </r>
       <r>     1.8596     0.0000    65.0000 </r>
       <r>     1.9056     0.0000    65.0000 </r>
      </set>
      <set comment="spin 2">
       <r>   -11.8898     0.0000     0.0000 </r>
       <r>   -11.8438     0.0000     0.0000 </r>
       <r>   -11.7978     0.0000     0.0000 </r>
       <r>   -11.7519     0.0000     0.0000 </r>
       <r>   -11.7059     0.0000     0.0000 </r>
       <r>   -11.6599     0.0000     0.0000 </r>
       <r>   -11.6139     0.0000     0.0000 </r>
       <r>   -11.5679     0.0000     0.0000 </r>
       <r>   -11.5219     0.0000     0.0000 </r>
       <r>   -11.4760     0.0000     0.0000 </r>
       <r>   -11.4300    -0.0000    -0.0000 </r>
       <r>   -11.3840    -0.0000    -0.0000 </r>
       <r>   -11.3380    -0.0000    -0.0000 </r>
       <r>   -11.2920    -0.0000    -0.0000 </r>
       <r>   -11.2460    -0.0000    -0.0000 </r>
       <r>   -11.2000    -0.0000    -0.0000 </r>
       <r>   -11.1541    -0.0000    -0.0000 </r>
       <r>   -11.1081    -0.0000    -0.0000 </r>
       <r>   -11.0621    -0.0000    -0.0000 </r>
       <r>   -11.0161    -0.0000    -0.0000 </r>
       <r>   -10.9701    -0.0000    -0.0000 </r>
       <r>   -10.9241    -0.0000    -0.0000 </r>
       <r>   -10.8782    -0.0000    -0.0000 </r>
       <r>   -10.8322    -0.0000    -0.0000 </r>
       <r>   -10.7862    -0.0000    -0.0000 </r>
       <r>   -10.7402    -0.0000    -0.0000 </r>
       <r>   -10.6942    -0.0000    -0.0000 </r>
       <r>   -10.6482    -0.0000    -0.0000 </r>
       <r>   -10.6022    -0.0000    -0.0000 </r>
       <r>   -10.5563    -0.0000    -0.0000 </r>
       <r>   -10.5103    -0.0001    -0.0000 </r>
       <r>   -10.4643    -0.0003    -0.0000 </r>
       <r>   -10.4183    -0.0010    -0.0001 </r>
       <r>   -10.3723    -0.0034    -0.0002 </r>
       <r>   -10.3263    -0.0103    -0.0007 </r>
       <r>   -10.2803    -0.0269    -0.0019 </r>
       <r>   -10.2344    -0.0612    -0.0047 </r>
       <r>   -10.1884    -0.1186    -0.0102 </r>
       <r>   -10.1424    -0.1890    -0.0189 </r>
       <r>   -10.0964    -0.2263    -0.0293 </r>
       <r>   -10.0504    -0.1339    -0.0354 </r>
       <r>   -10.0044     0.2188    -0.0254 </r>
       <r>    -9.9585     0.9283     0.0173 </r>
       <r>    -9.9125     1.9588     0.1074 </r>
       <r>    -9.8665     3.0829     0.2491 </r>
       <r>    -9.8205     3.9370     0.4302 </r>
       <r>    -9.7745     4.1934     0.6230 </r>
       <r>    -9.7285     3.7470     0.7953 </r>
       <r>    -9.6825     2.7790     0.9231 </r>
       <r>    -9.6366     1.6479     0.9989 </r>
       <r>    -9.5906     0.6927     1.0307 </r>
       <r>    -9.5446     0.0868     1.0347 </r>
       <r>    -9.4986    -0.1802     1.0264 </r>
       <r>    -9.4526    -0.2239     1.0162 </r>
       <r>    -9.4066    -0.1697     1.0083 </r>
       <r>    -9.3607    -0.1003     1.0037 </r>
       <r>    -9.3147    -0.0494     1.0015 </r>
       <r>    -9.2687    -0.0208     1.0005 </r>
       <r>    -9.2227    -0.0077     1.0002 </r>
       <r>    -9.1767    -0.0025     1.0000 </r>
       <r>    -9.1307    -0.0007     1.0000 </r>
       <r>    -9.0847    -0.0002     1.0000 </r>
       <r>    -9.0388    -0.0000     1.0000 </r>
       <r>    -8.9928    -0.0000     1.0000 </r>
       <r>    -8.9468    -0.0000     1.0000 </r>
       <r>    -8.9008    -0.0000     1.0000 </r>
       <r>    -8.8548    -0.0000     1.0000 </r>
       <r>    -8.8088    -0.0000     1.0000 </r>
       <r>    -8.7629    -0.0001     1.0000 </r>
       <r>    -8.7169    -0.0004     1.0000 </r>
       <r>    -8.6709    -0.0015     0.9999 </r>
       <r>    -8.6249    -0.0050     0.9997 </r>
       <r>    -8.5789    -0.0146     0.9990 </r>
       <r>    -8.5329    -0.0372     0.9973 </r>
       <r>    -8.4869    -0.0826     0.9935 </r>
       <r>    -8.4410    -0.1574     0.9863 </r>
       <r>    -8.3950    -0.2495     0.9748 </r>
       <r>    -8.3490    -0.3054     0.9607 </r>
       <r>    -8.3030    -0.2137     0.9509 </r>
       <r>    -8.2570     0.1810     0.9592 </r>
       <r>    -8.2110     1.0165     1.0060 </r>
       <r>    -8.1650     2.3185     1.1126 </r>
       <r>    -8.1191     3.9279     1.2932 </r>
       <r>    -8.0731     5.5064     1.5464 </r>
       <r>    -8.0271     6.6374     1.8517 </r>
       <r>    -7.9811     6.9803     2.1726 </r>
       <r>    -7.9351     6.4076     2.4673 </r>
       <r>    -7.8891     5.0680     2.7003 </r>
       <r>    -7.8432     3.3561     2.8547 </r>
       <r>    -7.7972     1.8021     2.9375 </r>
       <r>    -7.7512     0.9173     2.9797 </r>
       <r>    -7.7052     1.0422     3.0277 </r>
       <r>    -7.6592     2.2375     3.1305 </r>
       <r>    -7.6132     4.2488     3.3259 </r>
       <r>    -7.5672     6.5638     3.6278 </r>
       <r>    -7.5213     8.5585     4.0213 </r>
       <r>    -7.4753     9.6909     4.4670 </r>
       <r>    -7.4293     9.6777     4.9120 </r>
       <r>    -7.3833     8.5904     5.3070 </r>
       <r>    -7.3373     6.8341     5.6213 </r>
       <r>    -7.2913     5.0035     5.8514 </r>
       <r>    -7.2454     3.6513     6.0193 </r>
       <r>    -7.1994     3.0692     6.1604 </r>
       <r>    -7.1534     3.2082     6.3079 </r>
       <r>    -7.1074     3.8023     6.4828 </r>
       <r>    -7.0614     4.6114     6.6948 </r>
       <r>    -7.0154     5.5950     6.9521 </r>
       <r>    -6.9694     6.8799     7.2685 </r>
       <r>    -6.9235     8.5541     7.6618 </r>
       <r>    -6.8775    10.4648     8.1431 </r>
       <r>    -6.8315    12.1977     8.7040 </r>
       <r>    -6.7855    13.2735     9.3144 </r>
       <r>    -6.7395    13.4265     9.9318 </r>
       <r>    -6.6935    12.7606    10.5186 </r>
       <r>    -6.6475    11.6724    11.0553 </r>
       <r>    -6.6016    10.6147    11.5434 </r>
       <r>    -6.5556     9.8914    11.9983 </r>
       <r>    -6.5096     9.6083    12.4401 </r>
       <r>    -6.4636     9.7494    12.8884 </r>
       <r>    -6.4176    10.2585    13.3602 </r>
       <r>    -6.3716    11.0635    13.8689 </r>
       <r>    -6.3257    12.0698    14.4240 </r>
       <r>    -6.2797    13.1608    15.0292 </r>
       <r>    -6.2337    14.2021    15.6822 </r>
       <r>    -6.1877    15.0268    16.3732 </r>
       <r>    -6.1417    15.4158    17.0821 </r>
       <r>    -6.0957    15.1219    17.7775 </r>
       <r>    -6.0497    13.9774    18.4203 </r>
       <r>    -6.0038    12.0577    18.9747 </r>
       <r>    -5.9578     9.7928    19.4250 </r>
       <r>    -5.9118     7.8890    19.7878 </r>
       <r>    -5.8658     7.0288    20.1110 </r>
       <r>    -5.8198     7.4994    20.4559 </r>
       <r>    -5.7738     9.0046    20.8700 </r>
       <r>    -5.7279    10.8133    21.3672 </r>
       <r>    -5.6819    12.1512    21.9260 </r>
       <r>    -5.6359    12.5689    22.5040 </r>
       <r>    -5.5899    12.0746    23.0592 </r>
       <r>    -5.5439    11.0185    23.5659 </r>
       <r>    -5.4979     9.8804    24.0202 </r>
       <r>    -5.4519     9.1008    24.4387 </r>
       <r>    -5.4060     8.9906    24.8522 </r>
       <r>    -5.3600     9.6748    25.2971 </r>
       <r>    -5.3140    11.0414    25.8048 </r>
       <r>    -5.2680    12.7322    26.3903 </r>
       <r>    -5.2220    14.2392    27.0451 </r>
       <r>    -5.1760    15.1132    27.7400 </r>
       <r>    -5.1301    15.1925    28.4387 </r>
       <r>    -5.0841    14.6994    29.1146 </r>
       <r>    -5.0381    14.1093    29.7634 </r>
       <r>    -4.9921    13.8594    30.4008 </r>
       <r>    -4.9461    14.1030    31.0493 </r>
       <r>    -4.9001    14.6987    31.7252 </r>
       <r>    -4.8541    15.4205    32.4343 </r>
       <r>    -4.8082    16.1688    33.1778 </r>
       <r>    -4.7622    16.9724    33.9583 </r>
       <r>    -4.7162    17.8032    34.7770 </r>
       <r>    -4.6702    18.4459    35.6252 </r>
       <r>    -4.6242    18.6077    36.4809 </r>
       <r>    -4.5782    18.1838    37.3171 </r>
       <r>    -4.5322    17.4083    38.1176 </r>
       <r>    -4.4863    16.7369    38.8872 </r>
       <r>    -4.4403    16.5774    39.6495 </r>
       <r>    -4.3943    17.1012    40.4359 </r>
       <r>    -4.3483    18.2388    41.2746 </r>
       <r>    -4.3023    19.7734    42.1839 </r>
       <r>    -4.2563    21.4085    43.1684 </r>
       <r>    -4.2104    22.7921    44.2165 </r>
       <r>    -4.1644    23.5715    45.3004 </r>
       <r>    -4.1184    23.5273    46.3823 </r>
       <r>    -4.0724    22.7183    47.4270 </r>
       <r>    -4.0264    21.4946    48.4154 </r>
       <r>    -3.9804    20.3042    49.3491 </r>
       <r>    -3.9344    19.3915    50.2408 </r>
       <r>    -3.8885    18.6097    51.0966 </r>
       <r>    -3.8425    17.5062    51.9016 </r>
       <r>    -3.7965    15.6300    52.6203 </r>
       <r>    -3.7505    12.8439    53.2110 </r>
       <r>    -3.7045     9.4338    53.6448 </r>
       <r>    -3.6585     5.9700    53.9193 </r>
       <r>    -3.6126     3.0328    54.0588 </r>
       <r>    -3.5666     0.9745    54.1036 </r>
       <r>    -3.5206    -0.1662    54.0959 </r>
       <r>    -3.4746    -0.5926    54.0687 </r>
       <r>    -3.4286    -0.6015    54.0410 </r>
       <r>    -3.3826    -0.4530    54.0202 </r>
       <r>    -3.3366    -0.3121    54.0058 </r>
       <r>    -3.2907    -0.2533    53.9942 </r>
       <r>    -3.2447    -0.2874    53.9810 </r>
       <r>    -3.1987    -0.3728    53.9638 </r>
       <r>    -3.1527    -0.4015    53.9454 </r>
       <r>    -3.1067    -0.1865    53.9368 </r>
       <r>    -3.0607     0.5032    53.9599 </r>
       <r>    -3.0148     1.8260    54.0439 </r>
       <r>    -2.9688     3.7087    54.2144 </r>
       <r>    -2.9228     5.7525    54.4790 </r>
       <r>    -2.8768     7.3260    54.8158 </r>
       <r>    -2.8308     7.8534    55.1770 </r>
       <r>    -2.7848     7.1437    55.5055 </r>
       <r>    -2.7388     5.5388    55.7602 </r>
       <r>    -2.6929     3.7595    55.9331 </r>
       <r>    -2.6469     2.5312    56.0495 </r>
       <r>    -2.6009     2.2181    56.1515 </r>
       <r>    -2.5549     2.6726    56.2744 </r>
       <r>    -2.5089     3.3693    56.4293 </r>
       <r>    -2.4629     3.7290    56.6008 </r>
       <r>    -2.4169     3.4380    56.7589 </r>
       <r>    -2.3710     2.5910    56.8780 </r>
       <r>    -2.3250     1.6001    56.9516 </r>
       <r>    -2.2790     0.9518    56.9954 </r>
       <r>    -2.2330     0.9627    57.0396 </r>
       <r>    -2.1870     1.6510    57.1156 </r>
       <r>    -2.1410     2.7667    57.2428 </r>
       <r>    -2.0951     3.9444    57.4242 </r>
       <r>    -2.0491     4.8828    57.6487 </r>
       <r>    -2.0031     5.4430    57.8990 </r>
       <r>    -1.9571     5.6142    58.1572 </r>
       <r>    -1.9111     5.4118    58.4060 </r>
       <r>    -1.8651     4.8270    58.6280 </r>
       <r>    -1.8191     3.8761    58.8062 </r>
       <r>    -1.7732     2.6777    58.9294 </r>
       <r>    -1.7272     1.4544    58.9963 </r>
       <r>    -1.6812     0.4471    59.0168 </r>
       <r>    -1.6352    -0.1735    59.0088 </r>
       <r>    -1.5892    -0.3272    58.9938 </r>
       <r>    -1.5432     0.0071    58.9941 </r>
       <r>    -1.4973     0.7991    59.0309 </r>
       <r>    -1.4513     1.9192    59.1191 </r>
       <r>    -1.4053     3.0927    59.2613 </r>
       <r>    -1.3593     3.9464    59.4428 </r>
       <r>    -1.3133     4.1659    59.6344 </r>
       <r>    -1.2673     3.6649    59.8029 </r>
       <r>    -1.2213     2.6331    59.9240 </r>
       <r>    -1.1754     1.4207    59.9893 </r>
       <r>    -1.1294     0.3554    60.0057 </r>
       <r>    -1.0834    -0.3657    59.9888 </r>
       <r>    -1.0374    -0.6488    59.9590 </r>
       <r>    -0.9914    -0.4068    59.9403 </r>
       <r>    -0.9454     0.4803    59.9624 </r>
       <r>    -0.8994     2.0792    60.0580 </r>
       <r>    -0.8535     4.2523    60.2535 </r>
       <r>    -0.8075     6.5920    60.5567 </r>
       <r>    -0.7615     8.5487    60.9498 </r>
       <r>    -0.7155     9.6967    61.3957 </r>
       <r>    -0.6695     9.9450    61.8530 </r>
       <r>    -0.6235     9.5226    62.2909 </r>
       <r>    -0.5776     8.7604    62.6938 </r>
       <r>    -0.5316     7.8557    63.0550 </r>
       <r>    -0.4856     6.8040    63.3679 </r>
       <r>    -0.4396     5.5237    63.6219 </r>
       <r>    -0.3936     4.0459    63.8079 </r>
       <r>    -0.3476     2.6077    63.9278 </r>
       <r>    -0.3016     1.5769    64.0004 </r>
       <r>    -0.2557     1.2584    64.0582 </r>
       <r>    -0.2097     1.7014    64.1365 </r>
       <r>    -0.1637     2.6311    64.2575 </r>
       <r>    -0.1177     3.5547    64.4209 </r>
       <r>    -0.0717     3.9978    64.6048 </r>
       <r>    -0.0257     3.7367    64.7766 </r>
       <r>     0.0202     2.8848    64.9092 </r>
       <r>     0.0662     1.7865    64.9914 </r>
       <r>     0.1122     0.8046    65.0284 </r>
       <r>     0.1582     0.1500    65.0353 </r>
       <r>     0.2042    -0.1590    65.0280 </r>
       <r>     0.2502    -0.2264    65.0176 </r>
       <r>     0.2962    -0.1801    65.0093 </r>
       <r>     0.3421    -0.1097    65.0042 </r>
       <r>     0.3881    -0.0554    65.0017 </r>
       <r>     0.4341    -0.0239    65.0006 </r>
       <r>     0.4801    -0.0089    65.0002 </r>
       <r>     0.5261    -0.0029    65.0001 </r>
       <r>     0.5721    -0.0009    65.0000 </r>
       <r>     0.6180    -0.0002    65.0000 </r>
       <r>     0.6640    -0.0000    65.0000 </r>
       <r>     0.7100    -0.0000    65.0000 </r>
       <r>     0.7560    -0.0000    65.0000 </r>
       <r>     0.8020    -0.0000    65.0000 </r>
       <r>     0.8480    -0.0000    65.0000 </r>
       <r>     0.8940    -0.0000    65.0000 </r>
       <r>     0.9399    -0.0000    65.0000 </r>
       <r>     0.9859    -0.0000    65.0000 </r>
       <r>     1.0319    -0.0000    65.0000 </r>
       <r>     1.0779    -0.0000    65.0000 </r>
       <r>     1.1239    -0.0000    65.0000 </r>
       <r>     1.1699    -0.0000    65.0000 </r>
       <r>     1.2159     0.0000    65.0000 </r>
       <r>     1.2618     0.0000    65.0000 </r>
       <r>     1.3078     0.0000    65.0000 </r>
       <r>     1.3538     0.0000    65.0000 </r>
       <r>     1.3998     0.0000    65.0000 </r>
       <r>     1.4458     0.0000    65.0000 </r>
       <r>     1.4918     0.0000    65.0000 </r>
       <r>     1.5377     0.0000    65.0000 </r>
       <r>     1.5837     0.0000    65.0000 </r>
       <r>     1.6297     0.0000    65.0000 </r>
       <r>     1.6757     0.0000    65.0000 </r>
       <r>     1.7217     0.0000    65.0000 </r>
       <r>     1.7677     0.0000    65.0000 </r>
       <r>     1.8137     0.0000    65.0000 </r>
       <r>     1.8596     0.0000    65.0000 </r>
       <r>     1.9056     0.0000    65.0000 </r>
      </set>
     </set>
    </array>
   </total>
  </dos>
 </calculation>
 <structure name="finalpos" >
  <crystal>
   <varray name="basis" >
    <v>      22.70189903       0.00000000       0.00000000 </v>
    <v>       0.00000000      22.09966543       0.00000000 </v>
    <v>       0.00000000       0.00000000      22.58844604 </v>
   </varray>
   <i name="volume">  11332.72216544 </i>
   <varray name="rec_basis" >
    <v>       0.04404918       0.00000000       0.00000000 </v>
    <v>       0.00000000       0.04524955       0.00000000 </v>
    <v>       0.00000000       0.00000000       0.04427042 </v>
   </varray>
  </crystal>
  <varray name="positions" >
   <v>       0.55330115       0.49256082       0.48717561 </v>
   <v>       0.49685359       0.45583672       0.40718192 </v>
   <v>       0.56761241       0.53586271       0.39428168 </v>
   <v>       0.47716733       0.55315622       0.44362746 </v>
   <v>       0.56270268       0.59654621       0.47849016 </v>
   <v>       0.50325136       0.45426227       0.56734536 </v>
   <v>       0.52069317       0.38225069       0.48678562 </v>
   <v>       0.60291323       0.43097280       0.40714424 </v>
   <v>       0.42683403       0.46583841       0.49331156 </v>
   <v>       0.48642421       0.56307614       0.55332429 </v>
  </varray>
 </structure>
</modeling>
