unknown system                          
            1
    22.701899    0.000000    0.000000
     0.000000   22.099665    0.000000
     0.000000    0.000000   22.588446
   Ni   Pd
     6     4
Direct configuration=     1
   0.55014960  0.49268774  0.48876179
   0.49402665  0.45618134  0.39947131
   0.57017451  0.53545516  0.39206223
   0.47363126  0.55784034  0.43872915
   0.56165841  0.60106296  0.48007130
   0.50713456  0.44902572  0.57701381
   0.51906767  0.38471283  0.48396977
   0.59848390  0.42781509  0.41381177
   0.43736213  0.46711066  0.49490051
   0.48606447  0.55847115  0.54987624
Direct configuration=     2
   0.55075677  0.49368863  0.48859999
   0.49449032  0.45736745  0.39979102
   0.56867633  0.53511357  0.39401592
   0.47518762  0.55735092  0.43841573
   0.56099947  0.59925435  0.47919795
   0.50748012  0.44951353  0.57576162
   0.51876846  0.38362896  0.48491531
   0.59947624  0.42839694  0.41280660
   0.43548307  0.46668940  0.49465125
   0.48643477  0.55935926  0.55051252
Direct configuration=     3
   0.55127196  0.49453790  0.48846270
   0.49488376  0.45837389  0.40006230
   0.56740509  0.53482373  0.39567365
   0.47650822  0.55693563  0.43814979
   0.56044034  0.59771970  0.47845688
   0.50777335  0.44992744  0.57469911
   0.51851457  0.38270927  0.48571761
   0.60031826  0.42889065  0.41195369
   0.43388864  0.46633195  0.49443974
   0.48674898  0.56011283  0.55105241
Direct configuration=     4
   0.55135666  0.49344175  0.48890046
   0.49515243  0.45859504  0.40086101
   0.56725879  0.53464880  0.39591845
   0.47638487  0.55635844  0.43827618
   0.56073137  0.59770400  0.47827898
   0.50786751  0.45063267  0.57285518
   0.51852189  0.38306128  0.48612060
   0.60062777  0.42925253  0.41148776
   0.43321788  0.46624694  0.49433625
   0.48663400  0.56042156  0.55163301
Direct configuration=     5
   0.55144929  0.49224293  0.48937922
   0.49544626  0.45883691  0.40173452
   0.56709879  0.53445748  0.39618618
   0.47624996  0.55572719  0.43841441
   0.56104966  0.59768683  0.47808442
   0.50797049  0.45140395  0.57083856
   0.51852990  0.38344625  0.48656133
   0.60096626  0.42964830  0.41097819
   0.43248429  0.46615396  0.49422308
   0.48650825  0.56075920  0.55226799
Direct configuration=     6
   0.55142143  0.49260345  0.48923524
   0.49535790  0.45876417  0.40147183
   0.56714690  0.53451501  0.39610567
   0.47629053  0.55591702  0.43837284
   0.56095394  0.59769200  0.47814293
   0.50793952  0.45117201  0.57144502
   0.51852750  0.38333048  0.48642879
   0.60086446  0.42952928  0.41113143
   0.43270491  0.46618192  0.49425711
   0.48654607  0.56065766  0.55207703
Direct configuration=     7
   0.55173243  0.49251637  0.48896252
   0.49547908  0.45849224  0.40219329
   0.56753174  0.53467131  0.39594562
   0.47589203  0.55566946  0.43901093
   0.56104561  0.59739533  0.47826476
   0.50769814  0.45167427  0.57102068
   0.51871686  0.38306672  0.48622293
   0.60113842  0.42959380  0.41078553
   0.43202449  0.46636004  0.49420928
   0.48649435  0.56092346  0.55205236
Direct configuration=     8
   0.55243405  0.49231992  0.48834726
   0.49575248  0.45787877  0.40382087
   0.56839992  0.53502391  0.39558457
   0.47499303  0.55511098  0.44045044
   0.56125240  0.59672606  0.47853958
   0.50715358  0.45280737  0.57006338
   0.51914408  0.38247170  0.48575853
   0.60175647  0.42973933  0.41000519
   0.43048948  0.46676187  0.49410137
   0.48637768  0.56152309  0.55199671
Direct configuration=     9
   0.55262186  0.49238126  0.48765199
   0.49632941  0.45777148  0.40495820
   0.56817236  0.53520611  0.39553543
   0.47560239  0.55490098  0.44092910
   0.56118609  0.59628174  0.47852505
   0.50650526  0.45307665  0.56956509
   0.51923362  0.38249629  0.48567375
   0.60208915  0.42980158  0.40943394
   0.42970968  0.46652593  0.49433438
   0.48630333  0.56192098  0.55206095
Direct configuration=    10
   0.55266170  0.49239428  0.48750450
   0.49645181  0.45774872  0.40519947
   0.56812408  0.53524476  0.39552501
   0.47573166  0.55485643  0.44103065
   0.56117202  0.59618749  0.47852197
   0.50636773  0.45313377  0.56945938
   0.51925262  0.38250150  0.48565577
   0.60215972  0.42981479  0.40931276
   0.42954426  0.46647587  0.49438381
   0.48628756  0.56200538  0.55207458
Direct configuration=    11
   0.55265944  0.49216269  0.48752805
   0.49675014  0.45748963  0.40594479
   0.56804698  0.53555349  0.39480852
   0.47620399  0.55468654  0.44128145
   0.56144745  0.59644962  0.47863765
   0.50571015  0.45329080  0.56886720
   0.51928484  0.38256957  0.48589112
   0.60260988  0.42979447  0.40866579
   0.42890003  0.46616559  0.49463756
   0.48614026  0.56220058  0.55240576
Direct configuration=    12
   0.55265884  0.49210074  0.48753435
   0.49682995  0.45742032  0.40614417
   0.56802635  0.53563608  0.39461685
   0.47633034  0.55464110  0.44134854
   0.56152114  0.59651975  0.47866860
   0.50553423  0.45333280  0.56870879
   0.51929346  0.38258779  0.48595408
   0.60273030  0.42978904  0.40849272
   0.42872769  0.46608259  0.49470544
   0.48610085  0.56225280  0.55249436
Direct configuration=    13
   0.55289822  0.49234181  0.48733219
   0.49701553  0.45708400  0.40662944
   0.56801793  0.53575470  0.39424998
   0.47660788  0.55438195  0.44177271
   0.56181652  0.59651929  0.47864014
   0.50486923  0.45348658  0.56852429
   0.51948410  0.38225918  0.48621138
   0.60294619  0.43010029  0.40791617
   0.42808546  0.46603021  0.49463760
   0.48601211  0.56240499  0.55275400
Direct configuration=    14
   0.55295413  0.49239811  0.48728497
   0.49705887  0.45700545  0.40674278
   0.56801596  0.53578240  0.39416429
   0.47667270  0.55432143  0.44187177
   0.56188550  0.59651919  0.47863350
   0.50471392  0.45352250  0.56848120
   0.51952863  0.38218243  0.48627147
   0.60299661  0.43017298  0.40778152
   0.42793546  0.46601798  0.49462175
   0.48599138  0.56244053  0.55281464
Direct configuration=    15
   0.55305439  0.49248914  0.48721162
   0.49699883  0.45672370  0.40687946
   0.56802944  0.53570859  0.39432443
   0.47665262  0.55402824  0.44234071
   0.56203005  0.59640802  0.47851759
   0.50447741  0.45367927  0.56825885
   0.51975829  0.38219850  0.48640362
   0.60285904  0.43051242  0.40766530
   0.42783787  0.46616303  0.49426299
   0.48605522  0.56245210  0.55280333
Direct configuration=    16
   0.55313890  0.49256586  0.48714980
   0.49694823  0.45648620  0.40699467
   0.56804081  0.53564637  0.39445941
   0.47663569  0.55378110  0.44273599
   0.56215189  0.59631431  0.47841989
   0.50427806  0.45381141  0.56807142
   0.51995188  0.38221204  0.48651501
   0.60274308  0.43079855  0.40756734
   0.42775560  0.46628530  0.49396057
   0.48610902  0.56246186  0.55279379
Direct configuration=    17
   0.55320446  0.49254461  0.48724096
   0.49683731  0.45625008  0.40699569
   0.56800250  0.53568667  0.39446454
   0.47666436  0.55360725  0.44301672
   0.56231413  0.59636898  0.47837943
   0.50410047  0.45392644  0.56786357
   0.52015605  0.38221704  0.48664344
   0.60275686  0.43091963  0.40745384
   0.42754792  0.46628273  0.49371087
   0.48616909  0.56255956  0.55289884
Direct configuration=    18
   0.55329911  0.49251392  0.48737259
   0.49667714  0.45590915  0.40699716
   0.56794719  0.53574485  0.39447195
   0.47670576  0.55335623  0.44342207
   0.56254840  0.59644792  0.47832101
   0.50384406  0.45409254  0.56756344
   0.52045085  0.38222427  0.48682888
   0.60277677  0.43109446  0.40728994
   0.42724805  0.46627902  0.49335031
   0.48625583  0.56270064  0.55305053
Direct configuration=    19
   0.55333982  0.49251929  0.48735471
   0.49668129  0.45581001  0.40700075
   0.56778750  0.53585042  0.39439037
   0.47694289  0.55326410  0.44352388
   0.56264288  0.59650797  0.47834101
   0.50360307  0.45415342  0.56747449
   0.52062765  0.38219312  0.48687957
   0.60287148  0.43105319  0.40718412
   0.42692858  0.46608161  0.49326826
   0.48632800  0.56292987  0.55325073
Direct configuration=    20
   0.55335066  0.49252072  0.48734995
   0.49668240  0.45578360  0.40700170
   0.56774495  0.53587854  0.39436863
   0.47700606  0.55323956  0.44355100
   0.56266805  0.59652397  0.47834634
   0.50353887  0.45416964  0.56745079
   0.52067475  0.38218482  0.48689308
   0.60289671  0.43104220  0.40715593
   0.42684348  0.46602902  0.49324640
   0.48634722  0.56299094  0.55330407
Direct configuration=    21
   0.55332779  0.49253925  0.48726940
   0.49676149  0.45580814  0.40708497
   0.56768372  0.53587122  0.39432846
   0.47708057  0.55320105  0.44358632
   0.56268405  0.59653425  0.47841279
   0.50340603  0.45421244  0.56740208
   0.52068326  0.38221525  0.48684343
   0.60290434  0.43101013  0.40715053
   0.42683911  0.46594096  0.49327651
   0.48638279  0.56303030  0.55331341
Direct configuration=    22
   0.55330115  0.49256082  0.48717561
   0.49685359  0.45583672  0.40718192
   0.56761241  0.53586271  0.39428168
   0.47716733  0.55315622  0.44362746
   0.56270268  0.59654621  0.47849016
   0.50325136  0.45426227  0.56734536
   0.52069317  0.38225069  0.48678562
   0.60291323  0.43097280  0.40714424
   0.42683403  0.46583841  0.49331156
   0.48642421  0.56307614  0.55332429
