  13  13   0   0
  0.9460763E+03  0.2434901E-08  0.2277539E-08  0.2217800E-08  0.5000000E-15
   1.0000000000000000E-004
  CAR 
 unknown system                          
      2.34663359    -12.48818944  301     -3.86297366      1.00000000
    -12.488  0.0000E+00  0.0000E+00  0.0000E+00  0.0000E+00
    -12.439  0.0000E+00  0.0000E+00  0.0000E+00  0.0000E+00
    -12.389  0.0000E+00  0.0000E+00  0.0000E+00  0.0000E+00
    -12.340  0.0000E+00  0.0000E+00  0.0000E+00  0.0000E+00
    -12.290  0.0000E+00  0.0000E+00  0.0000E+00  0.0000E+00
    -12.241  0.0000E+00  0.0000E+00  0.0000E+00  0.0000E+00
    -12.191  0.0000E+00  0.0000E+00  0.0000E+00  0.0000E+00
    -12.142  0.0000E+00  0.0000E+00  0.0000E+00  0.0000E+00
    -12.093 -0.5157E-29 -0.1521E-29 -0.2550E-30 -0.7520E-31
    -12.043 -0.2432E-27 -0.7455E-28 -0.1228E-28 -0.3762E-29
    -11.994 -0.1032E-25 -0.3288E-26 -0.5228E-27 -0.1663E-27
    -11.944 -0.3872E-24 -0.1281E-24 -0.1967E-25 -0.6503E-26
    -11.895 -0.1283E-22 -0.4412E-23 -0.6543E-24 -0.2247E-24
    -11.845 -0.3757E-21 -0.1342E-21 -0.1923E-22 -0.6862E-23
    -11.796 -0.9716E-20 -0.3606E-20 -0.4997E-21 -0.1852E-21
    -11.746 -0.2219E-18 -0.8558E-19 -0.1147E-19 -0.4417E-20
    -11.697 -0.4473E-17 -0.1793E-17 -0.2327E-18 -0.9308E-19
    -11.648 -0.7736E-16 -0.3204E-16 -0.4058E-17 -0.1677E-17
    -11.598 -0.1210E-14 -0.5245E-15 -0.6388E-16 -0.2761E-16
    -11.549 -0.1671E-13 -0.7528E-14 -0.8901E-15 -0.3999E-15
    -11.499 -0.2034E-12 -0.9529E-13 -0.1095E-13 -0.5112E-14
    -11.450 -0.2181E-11 -0.1063E-11 -0.1188E-12 -0.5766E-13
    -11.400 -0.2059E-10 -0.1044E-10 -0.1137E-11 -0.5737E-12
    -11.351 -0.1710E-09 -0.9017E-10 -0.9592E-11 -0.5032E-11
    -11.301 -0.1248E-08 -0.6849E-09 -0.7130E-10 -0.3890E-10
    -11.252 -0.7995E-08 -0.4569E-08 -0.4666E-09 -0.2648E-09
    -11.203 -0.4489E-07 -0.2673E-07 -0.2686E-08 -0.1586E-08
    -11.153 -0.2205E-06 -0.1368E-06 -0.1359E-07 -0.8353E-08
    -11.104 -0.9447E-06 -0.6117E-06 -0.6030E-07 -0.3860E-07
    -11.054 -0.3518E-05 -0.2380E-05 -0.2343E-06 -0.1563E-06
    -11.005 -0.1133E-04 -0.8021E-05 -0.7944E-06 -0.5529E-06
    -10.955 -0.3127E-04 -0.2325E-04 -0.2341E-05 -0.1703E-05
    -10.906 -0.7304E-04 -0.5729E-04 -0.5952E-05 -0.4535E-05
    -10.856 -0.1407E-03 -0.1176E-03 -0.1291E-04 -0.1035E-04
    -10.807 -0.2113E-03 -0.1926E-03 -0.2336E-04 -0.1988E-04
    -10.757 -0.2058E-03 -0.2232E-03 -0.3354E-04 -0.3091E-04
    -10.708  0.1914E-04 -0.8381E-04 -0.3259E-04 -0.3506E-04
    -10.659  0.6156E-03  0.3858E-03 -0.2151E-05 -0.1598E-04
    -10.609  0.1619E-02  0.1273E-02  0.7793E-04  0.4695E-04
    -10.560  0.2831E-02  0.2457E-02  0.2179E-03  0.1685E-03
    -10.510  0.3833E-02  0.3574E-02  0.4074E-03  0.3452E-03
    -10.461  0.4194E-02  0.4169E-02  0.6148E-03  0.5513E-03
    -10.411  0.3748E-02  0.3966E-02  0.8002E-03  0.7475E-03
    -10.362  0.2700E-02  0.3063E-02  0.9337E-03  0.8989E-03
    -10.312  0.1494E-02  0.1856E-02  0.1008E-02  0.9907E-03
    -10.263  0.5295E-03  0.7859E-03  0.1034E-02  0.1030E-02
    -10.214 -0.2123E-04  0.1047E-03  0.1033E-02  0.1035E-02
    -10.164 -0.2141E-03 -0.1838E-03  0.1022E-02  0.1026E-02
    -10.115 -0.2053E-03 -0.2201E-03  0.1012E-02  0.1015E-02
    -10.065 -0.1324E-03 -0.1561E-03  0.1005E-02  0.1007E-02
    -10.016 -0.6716E-04 -0.8464E-04  0.1002E-02  0.1003E-02
     -9.966 -0.2821E-04 -0.3756E-04  0.1001E-02  0.1001E-02
     -9.917 -0.1004E-04 -0.1405E-04  0.1000E-02  0.1000E-02
     -9.867 -0.3069E-05 -0.4495E-05  0.1000E-02  0.1000E-02
     -9.818 -0.8128E-06 -0.1243E-05  0.1000E-02  0.1000E-02
     -9.768 -0.1960E-06 -0.3042E-06  0.1000E-02  0.1000E-02
     -9.719 -0.9024E-07 -0.9761E-07  0.1000E-02  0.1000E-02
     -9.670 -0.2626E-06 -0.1881E-06  0.1000E-02  0.1000E-02
     -9.620 -0.1083E-05 -0.7740E-06  0.9999E-03  0.1000E-02
     -9.571 -0.3973E-05 -0.2936E-05  0.9997E-03  0.9998E-03
     -9.521 -0.1261E-04 -0.9656E-05  0.9991E-03  0.9993E-03
     -9.472 -0.3426E-04 -0.2728E-04  0.9974E-03  0.9980E-03
     -9.422 -0.7864E-04 -0.6535E-04  0.9935E-03  0.9947E-03
     -9.373 -0.1484E-03 -0.1298E-03  0.9862E-03  0.9883E-03
     -9.323 -0.2164E-03 -0.2034E-03  0.9755E-03  0.9783E-03
     -9.274 -0.1975E-03 -0.2171E-03  0.9657E-03  0.9675E-03
     -9.225  0.5443E-04 -0.3655E-04  0.9684E-03  0.9657E-03
     -9.175  0.6821E-03  0.4923E-03  0.1002E-02  0.9901E-03
     -9.126  0.1694E-02  0.1424E-02  0.1086E-02  0.1061E-02
     -9.076  0.2857E-02  0.2588E-02  0.1227E-02  0.1188E-02
     -9.027  0.3739E-02  0.3583E-02  0.1412E-02  0.1366E-02
     -8.977  0.3963E-02  0.3984E-02  0.1608E-02  0.1563E-02
     -8.928  0.3494E-02  0.3647E-02  0.1781E-02  0.1743E-02
     -8.878  0.2727E-02  0.2869E-02  0.1916E-02  0.1885E-02
     -8.829  0.2248E-02  0.2227E-02  0.2027E-02  0.1995E-02
     -8.779  0.2416E-02  0.2193E-02  0.2146E-02  0.2103E-02
     -8.730  0.3106E-02  0.2791E-02  0.2300E-02  0.2241E-02
     -8.681  0.3796E-02  0.3583E-02  0.2488E-02  0.2419E-02
     -8.631  0.3946E-02  0.3981E-02  0.2683E-02  0.2616E-02
     -8.582  0.3361E-02  0.3648E-02  0.2849E-02  0.2796E-02
     -8.532  0.2269E-02  0.2684E-02  0.2961E-02  0.2929E-02
     -8.483  0.1103E-02  0.1491E-02  0.3016E-02  0.3002E-02
     -8.433  0.2066E-03  0.4714E-03  0.3026E-02  0.3026E-02
     -8.384 -0.3133E-03 -0.1821E-03  0.3010E-02  0.3017E-02
     -8.334 -0.5112E-03 -0.4833E-03  0.2985E-02  0.2993E-02
     -8.285 -0.4420E-03 -0.4988E-03  0.2963E-02  0.2968E-02
     -8.236 -0.6299E-04 -0.2167E-03  0.2960E-02  0.2957E-02
     -8.186  0.7266E-03  0.4587E-03  0.2996E-02  0.2980E-02
     -8.137  0.1956E-02  0.1593E-02  0.3093E-02  0.3059E-02
     -8.087  0.3484E-02  0.3100E-02  0.3265E-02  0.3212E-02
     -8.038  0.5034E-02  0.4723E-02  0.3514E-02  0.3446E-02
     -7.988  0.6335E-02  0.6159E-02  0.3827E-02  0.3750E-02
     -7.939  0.7262E-02  0.7208E-02  0.4186E-02  0.4107E-02
     -7.889  0.7845E-02  0.7842E-02  0.4574E-02  0.4494E-02
     -7.840  0.8167E-02  0.8139E-02  0.4978E-02  0.4897E-02
     -7.790  0.8242E-02  0.8167E-02  0.5386E-02  0.5301E-02
     -7.741  0.7995E-02  0.7917E-02  0.5781E-02  0.5692E-02
     -7.692  0.7354E-02  0.7354E-02  0.6145E-02  0.6056E-02
     -7.642  0.6411E-02  0.6535E-02  0.6462E-02  0.6379E-02
     -7.593  0.5519E-02  0.5725E-02  0.6735E-02  0.6662E-02
     -7.543  0.5189E-02  0.5356E-02  0.6991E-02  0.6927E-02
     -7.494  0.5837E-02  0.5840E-02  0.7280E-02  0.7216E-02
     -7.444  0.7517E-02  0.7305E-02  0.7652E-02  0.7577E-02
     -7.395  0.9864E-02  0.9486E-02  0.8139E-02  0.8046E-02
     -7.345  0.1231E-01  0.1187E-01  0.8748E-02  0.8633E-02
     -7.296  0.1440E-01  0.1398E-01  0.9460E-02  0.9324E-02
     -7.247  0.1602E-01  0.1564E-01  0.1025E-01  0.1010E-01
     -7.197  0.1729E-01  0.1693E-01  0.1111E-01  0.1093E-01
     -7.148  0.1835E-01  0.1802E-01  0.1201E-01  0.1183E-01
     -7.098  0.1920E-01  0.1892E-01  0.1296E-01  0.1276E-01
     -7.049  0.1974E-01  0.1954E-01  0.1394E-01  0.1373E-01
     -6.999  0.2001E-01  0.1989E-01  0.1493E-01  0.1471E-01
     -6.950  0.2015E-01  0.2009E-01  0.1593E-01  0.1570E-01
     -6.900  0.2022E-01  0.2025E-01  0.1693E-01  0.1671E-01
     -6.851  0.2010E-01  0.2026E-01  0.1792E-01  0.1771E-01
     -6.802  0.1963E-01  0.1991E-01  0.1889E-01  0.1869E-01
     -6.752  0.1893E-01  0.1922E-01  0.1983E-01  0.1964E-01
     -6.703  0.1834E-01  0.1852E-01  0.2073E-01  0.2056E-01
     -6.653  0.1816E-01  0.1816E-01  0.2163E-01  0.2146E-01
     -6.604  0.1826E-01  0.1815E-01  0.2253E-01  0.2235E-01
     -6.554  0.1815E-01  0.1811E-01  0.2343E-01  0.2325E-01
     -6.505  0.1752E-01  0.1761E-01  0.2430E-01  0.2412E-01
     -6.455  0.1662E-01  0.1677E-01  0.2512E-01  0.2495E-01
     -6.406  0.1626E-01  0.1628E-01  0.2592E-01  0.2575E-01
     -6.356  0.1728E-01  0.1702E-01  0.2678E-01  0.2660E-01
     -6.307  0.1987E-01  0.1932E-01  0.2776E-01  0.2755E-01
     -6.258  0.2333E-01  0.2266E-01  0.2891E-01  0.2867E-01
     -6.208  0.2645E-01  0.2589E-01  0.3022E-01  0.2995E-01
     -6.159  0.2821E-01  0.2792E-01  0.3162E-01  0.3133E-01
     -6.109  0.2833E-01  0.2834E-01  0.3302E-01  0.3273E-01
     -6.060  0.2737E-01  0.2756E-01  0.3437E-01  0.3410E-01
     -6.010  0.2633E-01  0.2652E-01  0.3567E-01  0.3541E-01
     -5.961  0.2619E-01  0.2621E-01  0.3697E-01  0.3670E-01
     -5.911  0.2743E-01  0.2722E-01  0.3832E-01  0.3805E-01
     -5.862  0.2998E-01  0.2958E-01  0.3981E-01  0.3951E-01
     -5.813  0.3330E-01  0.3281E-01  0.4145E-01  0.4114E-01
     -5.763  0.3664E-01  0.3621E-01  0.4327E-01  0.4293E-01
     -5.714  0.3936E-01  0.3907E-01  0.4521E-01  0.4486E-01
     -5.664  0.4098E-01  0.4088E-01  0.4724E-01  0.4688E-01
     -5.615  0.4143E-01  0.4147E-01  0.4929E-01  0.4893E-01
     -5.565  0.4104E-01  0.4112E-01  0.5132E-01  0.5096E-01
     -5.516  0.4050E-01  0.4046E-01  0.5332E-01  0.5296E-01
     -5.466  0.4045E-01  0.4023E-01  0.5532E-01  0.5495E-01
     -5.417  0.4112E-01  0.4075E-01  0.5735E-01  0.5697E-01
     -5.367  0.4200E-01  0.4168E-01  0.5943E-01  0.5903E-01
     -5.318  0.4206E-01  0.4206E-01  0.6151E-01  0.6111E-01
     -5.269  0.4008E-01  0.4062E-01  0.6349E-01  0.6312E-01
     -5.219  0.3537E-01  0.3649E-01  0.6524E-01  0.6492E-01
     -5.170  0.2824E-01  0.2974E-01  0.6664E-01  0.6639E-01
     -5.120  0.2008E-01  0.2160E-01  0.6763E-01  0.6746E-01
     -5.071  0.1266E-01  0.1387E-01  0.6826E-01  0.6815E-01
     -5.021  0.7280E-02  0.8041E-02  0.6862E-01  0.6855E-01
     -4.972  0.4263E-02  0.4598E-02  0.6883E-01  0.6877E-01
     -4.922  0.3118E-02  0.3155E-02  0.6898E-01  0.6893E-01
     -4.873  0.3076E-02  0.2953E-02  0.6913E-01  0.6907E-01
     -4.824  0.3463E-02  0.3303E-02  0.6930E-01  0.6924E-01
     -4.774  0.3811E-02  0.3713E-02  0.6949E-01  0.6942E-01
     -4.725  0.3903E-02  0.3900E-02  0.6969E-01  0.6961E-01
     -4.675  0.3799E-02  0.3833E-02  0.6987E-01  0.6980E-01
     -4.626  0.3740E-02  0.3715E-02  0.7006E-01  0.6999E-01
     -4.576  0.3883E-02  0.3777E-02  0.7025E-01  0.7017E-01
     -4.527  0.4100E-02  0.4008E-02  0.7045E-01  0.7037E-01
     -4.477  0.4046E-02  0.4114E-02  0.7065E-01  0.7058E-01
     -4.428  0.3472E-02  0.3767E-02  0.7082E-01  0.7076E-01
     -4.378  0.2443E-02  0.2898E-02  0.7095E-01  0.7091E-01
     -4.329  0.1282E-02  0.1760E-02  0.7101E-01  0.7099E-01
     -4.280  0.3260E-03  0.7206E-03  0.7102E-01  0.7103E-01
     -4.230 -0.2625E-03  0.1043E-04  0.7101E-01  0.7103E-01
     -4.181 -0.4865E-03 -0.3591E-03  0.7099E-01  0.7101E-01
     -4.131 -0.3785E-03 -0.4971E-03  0.7097E-01  0.7099E-01
     -4.082  0.9214E-04 -0.4721E-03  0.7097E-01  0.7096E-01
     -4.032  0.9812E-03 -0.2182E-03  0.7102E-01  0.7095E-01
     -3.983  0.2250E-02  0.4363E-03  0.7113E-01  0.7097E-01
     -3.933  0.3696E-02  0.1632E-02  0.7132E-01  0.7105E-01
     -3.884  0.5008E-02  0.3313E-02  0.7156E-01  0.7122E-01
     -3.835  0.5899E-02  0.5148E-02  0.7186E-01  0.7147E-01
     -3.785  0.6200E-02  0.6610E-02  0.7216E-01  0.7180E-01
     -3.736  0.5857E-02  0.7211E-02  0.7245E-01  0.7216E-01
     -3.686  0.4924E-02  0.6730E-02  0.7270E-01  0.7249E-01
     -3.637  0.3573E-02  0.5331E-02  0.7287E-01  0.7275E-01
     -3.587  0.2093E-02  0.3474E-02  0.7298E-01  0.7292E-01
     -3.538  0.8075E-03  0.1691E-02  0.7302E-01  0.7301E-01
     -3.488 -0.3895E-04  0.3776E-03  0.7301E-01  0.7303E-01
     -3.439 -0.3240E-03 -0.2898E-03  0.7300E-01  0.7301E-01
     -3.389 -0.1903E-04 -0.2921E-03  0.7300E-01  0.7300E-01
     -3.340  0.8259E-03  0.3154E-03  0.7304E-01  0.7301E-01
     -3.291  0.2023E-02  0.1394E-02  0.7314E-01  0.7308E-01
     -3.241  0.3198E-02  0.2648E-02  0.7330E-01  0.7321E-01
     -3.192  0.3896E-02  0.3635E-02  0.7349E-01  0.7339E-01
     -3.142  0.3844E-02  0.3961E-02  0.7368E-01  0.7359E-01
     -3.093  0.3182E-02  0.3554E-02  0.7384E-01  0.7376E-01
     -3.043  0.2423E-02  0.2778E-02  0.7396E-01  0.7390E-01
     -2.994  0.2118E-02  0.2216E-02  0.7406E-01  0.7401E-01
     -2.944  0.2465E-02  0.2268E-02  0.7418E-01  0.7412E-01
     -2.895  0.3173E-02  0.2862E-02  0.7434E-01  0.7427E-01
     -2.846  0.3691E-02  0.3520E-02  0.7452E-01  0.7444E-01
     -2.796  0.3649E-02  0.3740E-02  0.7470E-01  0.7462E-01
     -2.747  0.3141E-02  0.3397E-02  0.7486E-01  0.7479E-01
     -2.697  0.2632E-02  0.2825E-02  0.7499E-01  0.7493E-01
     -2.648  0.2564E-02  0.2530E-02  0.7511E-01  0.7506E-01
     -2.598  0.3012E-02  0.2771E-02  0.7526E-01  0.7519E-01
     -2.549  0.3676E-02  0.3391E-02  0.7545E-01  0.7536E-01
     -2.499  0.4188E-02  0.4012E-02  0.7565E-01  0.7556E-01
     -2.450  0.4409E-02  0.4372E-02  0.7587E-01  0.7578E-01
     -2.401  0.4441E-02  0.4483E-02  0.7609E-01  0.7600E-01
     -2.351  0.4404E-02  0.4470E-02  0.7631E-01  0.7622E-01
     -2.302  0.4292E-02  0.4351E-02  0.7652E-01  0.7643E-01
     -2.252  0.4055E-02  0.4038E-02  0.7672E-01  0.7663E-01
     -2.203  0.3771E-02  0.3538E-02  0.7691E-01  0.7681E-01
     -2.153  0.3620E-02  0.3082E-02  0.7709E-01  0.7696E-01
     -2.104  0.3687E-02  0.2966E-02  0.7727E-01  0.7711E-01
     -2.054  0.3841E-02  0.3275E-02  0.7746E-01  0.7727E-01
     -2.005  0.3895E-02  0.3801E-02  0.7765E-01  0.7746E-01
     -1.955  0.3861E-02  0.4245E-02  0.7784E-01  0.7767E-01
     -1.906  0.4003E-02  0.4488E-02  0.7804E-01  0.7789E-01
     -1.857  0.4577E-02  0.4630E-02  0.7827E-01  0.7812E-01
     -1.807  0.5528E-02  0.4820E-02  0.7854E-01  0.7836E-01
     -1.758  0.6430E-02  0.5086E-02  0.7886E-01  0.7861E-01
     -1.708  0.6746E-02  0.5322E-02  0.7919E-01  0.7887E-01
     -1.659  0.6176E-02  0.5379E-02  0.7950E-01  0.7914E-01
     -1.609  0.4873E-02  0.5148E-02  0.7974E-01  0.7939E-01
     -1.560  0.3383E-02  0.4626E-02  0.7990E-01  0.7962E-01
     -1.510  0.2352E-02  0.3978E-02  0.8002E-01  0.7982E-01
     -1.461  0.2154E-02  0.3496E-02  0.8013E-01  0.7999E-01
     -1.412  0.2671E-02  0.3401E-02  0.8026E-01  0.8016E-01
     -1.362  0.3371E-02  0.3618E-02  0.8043E-01  0.8034E-01
     -1.313  0.3687E-02  0.3796E-02  0.8061E-01  0.8053E-01
     -1.263  0.3418E-02  0.3598E-02  0.8078E-01  0.8070E-01
     -1.214  0.2852E-02  0.3033E-02  0.8092E-01  0.8085E-01
     -1.164  0.2499E-02  0.2476E-02  0.8104E-01  0.8098E-01
     -1.115  0.2653E-02  0.2349E-02  0.8117E-01  0.8109E-01
     -1.065  0.3163E-02  0.2738E-02  0.8133E-01  0.8123E-01
     -1.016  0.3600E-02  0.3308E-02  0.8151E-01  0.8139E-01
     -0.966  0.3667E-02  0.3605E-02  0.8169E-01  0.8157E-01
     -0.917  0.3490E-02  0.3479E-02  0.8186E-01  0.8174E-01
     -0.868  0.3517E-02  0.3249E-02  0.8204E-01  0.8190E-01
     -0.818  0.4152E-02  0.3464E-02  0.8224E-01  0.8207E-01
     -0.769  0.5442E-02  0.4467E-02  0.8251E-01  0.8229E-01
     -0.719  0.7043E-02  0.6119E-02  0.8286E-01  0.8260E-01
     -0.670  0.8415E-02  0.7874E-02  0.8327E-01  0.8299E-01
     -0.620  0.9055E-02  0.9076E-02  0.8372E-01  0.8343E-01
     -0.571  0.8665E-02  0.9263E-02  0.8415E-01  0.8389E-01
     -0.521  0.7270E-02  0.8321E-02  0.8451E-01  0.8430E-01
     -0.472  0.5266E-02  0.6503E-02  0.8477E-01  0.8463E-01
     -0.423  0.3307E-02  0.4355E-02  0.8493E-01  0.8484E-01
     -0.373  0.2031E-02  0.2533E-02  0.8503E-01  0.8497E-01
     -0.324  0.1742E-02  0.1545E-02  0.8512E-01  0.8504E-01
     -0.274  0.2291E-02  0.1545E-02  0.8523E-01  0.8512E-01
     -0.225  0.3267E-02  0.2331E-02  0.8540E-01  0.8523E-01
     -0.175  0.4346E-02  0.3583E-02  0.8561E-01  0.8541E-01
     -0.126  0.5493E-02  0.5138E-02  0.8588E-01  0.8567E-01
     -0.076  0.6825E-02  0.7011E-02  0.8622E-01  0.8601E-01
     -0.027  0.8307E-02  0.9138E-02  0.8663E-01  0.8646E-01
      0.023  0.9630E-02  0.1115E-01  0.8711E-01  0.8702E-01
      0.072  0.1047E-01  0.1255E-01  0.8762E-01  0.8764E-01
      0.121  0.1085E-01  0.1313E-01  0.8816E-01  0.8829E-01
      0.171  0.1117E-01  0.1316E-01  0.8871E-01  0.8894E-01
      0.220  0.1181E-01  0.1310E-01  0.8930E-01  0.8958E-01
      0.270  0.1261E-01  0.1299E-01  0.8992E-01  0.9023E-01
      0.319  0.1288E-01  0.1234E-01  0.9056E-01  0.9084E-01
      0.369  0.1188E-01  0.1064E-01  0.9115E-01  0.9136E-01
      0.418  0.9428E-02  0.7879E-02  0.9161E-01  0.9175E-01
      0.468  0.6143E-02  0.4715E-02  0.9192E-01  0.9199E-01
      0.517  0.3011E-02  0.2001E-02  0.9206E-01  0.9208E-01
      0.566  0.7872E-03  0.2615E-03  0.9210E-01  0.9210E-01
      0.616 -0.3399E-03 -0.4965E-03  0.9209E-01  0.9207E-01
      0.665 -0.6404E-03 -0.6055E-03  0.9205E-01  0.9204E-01
      0.715 -0.5293E-03 -0.4416E-03  0.9203E-01  0.9202E-01
      0.764 -0.3197E-03 -0.2471E-03  0.9201E-01  0.9201E-01
      0.814 -0.1559E-03 -0.1136E-03  0.9200E-01  0.9200E-01
      0.863 -0.6372E-04 -0.4410E-04  0.9200E-01  0.9200E-01
      0.913 -0.2223E-04 -0.1469E-04  0.9200E-01  0.9200E-01
      0.962 -0.6691E-05 -0.4231E-05  0.9200E-01  0.9200E-01
      1.011 -0.1748E-05 -0.1060E-05  0.9200E-01  0.9200E-01
      1.061 -0.3982E-06 -0.2320E-06  0.9200E-01  0.9200E-01
      1.110 -0.7933E-07 -0.4444E-07  0.9200E-01  0.9200E-01
      1.160 -0.1385E-07 -0.7467E-08  0.9200E-01  0.9200E-01
      1.209 -0.2123E-08 -0.1102E-08  0.9200E-01  0.9200E-01
      1.259 -0.2860E-09 -0.1431E-09  0.9200E-01  0.9200E-01
      1.308 -0.3391E-10 -0.1636E-10  0.9200E-01  0.9200E-01
      1.358 -0.3539E-11 -0.1647E-11  0.9200E-01  0.9200E-01
      1.407 -0.3255E-12 -0.1462E-12  0.9200E-01  0.9200E-01
      1.457 -0.2639E-13 -0.1144E-13  0.9200E-01  0.9200E-01
      1.506 -0.1890E-14 -0.7858E-15  0.9200E-01  0.9200E-01
      1.555 -0.1167E-15 -0.5388E-16  0.9200E-01  0.9200E-01
      1.605 -0.8981E-17  0.0000E+00  0.9200E-01  0.9200E-01
      1.654  0.0000E+00  0.0000E+00  0.9200E-01  0.9200E-01
      1.704  0.0000E+00  0.0000E+00  0.9200E-01  0.9200E-01
      1.753  0.0000E+00  0.0000E+00  0.9200E-01  0.9200E-01
      1.803  0.0000E+00  0.0000E+00  0.9200E-01  0.9200E-01
      1.852  0.0000E+00  0.0000E+00  0.9200E-01  0.9200E-01
      1.902  0.0000E+00  0.0000E+00  0.9200E-01  0.9200E-01
      1.951  0.0000E+00  0.0000E+00  0.9200E-01  0.9200E-01
      2.000  0.0000E+00  0.0000E+00  0.9200E-01  0.9200E-01
      2.050  0.0000E+00  0.0000E+00  0.9200E-01  0.9200E-01
      2.099  0.0000E+00  0.0000E+00  0.9200E-01  0.9200E-01
      2.149  0.0000E+00  0.0000E+00  0.9200E-01  0.9200E-01
      2.198  0.0000E+00  0.0000E+00  0.9200E-01  0.9200E-01
      2.248  0.0000E+00  0.0000E+00  0.9200E-01  0.9200E-01
      2.297  0.0000E+00  0.0000E+00  0.9200E-01  0.9200E-01
      2.347  0.0000E+00  0.0000E+00  0.9200E-01  0.9200E-01
