   13   13 1000    2
  0.9460763E+03  0.2434901E-08  0.2277539E-08  0.2217800E-08  0.5000000E-15
   1.0000000000000000E-004
  CAR 
 unknown system                          
    143      1     92
 
  0.1262379E-14  0.1262379E-14  0.1262379E-14  0.1000000E+01
    1      -10.488189    -10.472921   1.000000   1.000000
    2       -9.009577     -8.997564   1.000000   1.000000
    3       -8.672697     -8.655526   1.000000   1.000000
    4       -8.041394     -8.028010   1.000000   1.000000
    5       -7.899594     -7.890482   1.000000   1.000000
    6       -7.774431     -7.765533   1.000000   1.000000
    7       -7.654855     -7.638784   1.000000   1.000000
    8       -7.448007     -7.439628   1.000000   1.000000
    9       -7.351649     -7.343481   1.000000   1.000000
   10       -7.296969     -7.287941   1.000000   1.000000
   11       -7.249732     -7.239107   1.000000   1.000000
   12       -7.162103     -7.153371   1.000000   1.000000
   13       -7.100718     -7.090125   1.000000   1.000000
   14       -7.085191     -7.074690   1.000000   1.000000
   15       -7.039768     -7.028225   1.000000   1.000000
   16       -6.972440     -6.961969   1.000000   1.000000
   17       -6.901481     -6.890627   1.000000   1.000000
   18       -6.863510     -6.850737   1.000000   1.000000
   19       -6.825386     -6.814806   1.000000   1.000000
   20       -6.802028     -6.793130   1.000000   1.000000
   21       -6.707902     -6.700567   1.000000   1.000000
   22       -6.651568     -6.642007   1.000000   1.000000
   23       -6.589987     -6.578554   1.000000   1.000000
   24       -6.544405     -6.534376   1.000000   1.000000
   25       -6.527460     -6.517240   1.000000   1.000000
   26       -6.447842     -6.437332   1.000000   1.000000
   27       -6.367719     -6.356307   1.000000   1.000000
   28       -6.283770     -6.274954   1.000000   1.000000
   29       -6.252006     -6.242868   1.000000   1.000000
   30       -6.226583     -6.217306   1.000000   1.000000
   31       -6.214597     -6.204999   1.000000   1.000000
   32       -6.182419     -6.172321   1.000000   1.000000
   33       -6.126185     -6.113650   1.000000   1.000000
   34       -6.089965     -6.080769   1.000000   1.000000
   35       -6.069254     -6.060335   1.000000   1.000000
   36       -6.035153     -6.023936   1.000000   1.000000
   37       -5.985380     -5.974571   1.000000   1.000000
   38       -5.927072     -5.917416   1.000000   1.000000
   39       -5.884441     -5.875421   1.000000   1.000000
   40       -5.868244     -5.859138   1.000000   1.000000
   41       -5.844788     -5.835179   1.000000   1.000000
   42       -5.815771     -5.806756   1.000000   1.000000
   43       -5.768990     -5.759047   1.000000   1.000000
   44       -5.759951     -5.751516   1.000000   1.000000
   45       -5.728460     -5.718940   1.000000   1.000000
   46       -5.700235     -5.691026   1.000000   1.000000
   47       -5.676951     -5.669430   1.000000   1.000000
   48       -5.661755     -5.652691   1.000000   1.000000
   49       -5.636779     -5.630156   1.000000   1.000000
   50       -5.611293     -5.602333   1.000000   1.000000
   51       -5.593673     -5.585127   1.000000   1.000000
   52       -5.573979     -5.564146   1.000000   1.000000
   53       -5.553156     -5.542945   1.000000   1.000000
   54       -5.500961     -5.493447   1.000000   1.000000
   55       -5.472831     -5.465621   1.000000   1.000000
   56       -5.453346     -5.445998   1.000000   1.000000
   57       -5.444737     -5.434867   1.000000   1.000000
   58       -5.397942     -5.387488   1.000000   1.000000
   59       -5.380188     -5.368073   1.000000   1.000000
   60       -5.366776     -5.356419   1.000000   1.000000
   61       -5.348950     -5.341577   1.000000   1.000000
   62       -5.311807     -5.300660   1.000000   1.000000
   63       -5.269589     -5.260325   1.000000   1.000000
   64       -5.255013     -5.246458   1.000000   1.000000
   65       -5.249100     -5.240479   1.000000   1.000000
   66       -5.220901     -5.209723   1.000000   1.000000
   67       -5.209193     -5.199026   1.000000   1.000000
   68       -5.185023     -5.176429   1.000000   1.000000
   69       -4.997271     -4.983361   1.000000   1.000000
   70       -4.767531     -4.749807   1.000000   1.000000
   71       -4.506704     -4.487289   1.000026   1.000047
   72       -3.895962     -3.817494   0.637503   0.312969
   73       -3.726620     -3.697103   0.046653   0.002820
   74       -3.193253     -3.169444  -0.000012  -0.000005
   75       -2.852914     -2.831013  -0.000000  -0.000000
   76       -2.538153     -2.516521  -0.000000  -0.000000
   77       -2.306424     -2.284966  -0.000000  -0.000000
   78       -2.046401     -1.996846  -0.000000  -0.000000
   79       -1.796971     -1.775967  -0.000000  -0.000000
   80       -1.671413     -1.588809  -0.000000  -0.000000
   81       -1.341854     -1.315838  -0.000000  -0.000000
   82       -1.023853     -0.991907  -0.000000  -0.000000
   83       -0.758111     -0.714406  -0.000000  -0.000000
   84       -0.635720     -0.613179  -0.000000  -0.000000
   85       -0.543650     -0.510031  -0.000000  -0.000000
   86       -0.211884     -0.172273  -0.000000  -0.000000
   87       -0.009227      0.023191  -0.000000  -0.000000
   88        0.038839      0.053540  -0.000000  -0.000000
   89        0.138464      0.094957  -0.000000  -0.000000
   90        0.276753      0.249971  -0.000000  -0.000000
   91        0.335373      0.313151  -0.000000  -0.000000
   92        0.346634      0.333659  -0.000000  -0.000000
