       N       E                     dE             d eps       ncg     rms          rms(c)
DAV:   1     0.976858046803E+03    0.97686E+03   -0.25726E+04   368   0.752E+02
DAV:   2     0.224992125876E+03   -0.75187E+03   -0.66866E+03   384   0.222E+02
DAV:   3     0.286647691770E+01   -0.22213E+03   -0.21282E+03   456   0.135E+02
DAV:   4    -0.354385889788E+02   -0.38305E+02   -0.35863E+02   432   0.104E+02
DAV:   5    -0.369971563257E+02   -0.15586E+01   -0.15454E+01   472   0.187E+01    0.286E+01
DAV:   6    -0.157272991133E+02    0.21270E+02   -0.13616E+02   404   0.947E+01    0.124E+01
DAV:   7    -0.110082223633E+02    0.47191E+01   -0.32936E+01   448   0.713E+01    0.481E+00
DAV:   8    -0.104145537478E+02    0.59367E+00   -0.64964E+00   448   0.499E+01    0.458E+00
DAV:   9    -0.115775436890E+02   -0.11630E+01   -0.16026E+00   464   0.296E+01    0.295E+00
DAV:  10    -0.162410704898E+02   -0.46635E+01   -0.24749E+00   516   0.151E+01    0.227E+00
DAV:  11    -0.191796440682E+02   -0.29386E+01   -0.14088E+00   480   0.141E+01    0.204E+00
DAV:  12    -0.201788330280E+02   -0.99919E+00   -0.30247E-01   520   0.475E+00    0.178E+00
DAV:  13    -0.234766135744E+02   -0.32978E+01   -0.14746E+00   472   0.493E+00    0.134E+00
DAV:  14    -0.267033503848E+02   -0.32267E+01   -0.13925E+00   536   0.925E+00    0.100E+00
DAV:  15    -0.281645286724E+02   -0.14612E+01   -0.36954E-01   512   0.681E+00    0.834E-01
DAV:  16    -0.299065233002E+02   -0.17420E+01   -0.39638E-01   488   0.323E+00    0.611E-01
DAV:  17    -0.309524330214E+02   -0.10459E+01   -0.20304E-01   448   0.388E+00    0.462E-01
DAV:  18    -0.314804694137E+02   -0.52804E+00   -0.75766E-02   552   0.293E+00    0.333E-01
DAV:  19    -0.319870622732E+02   -0.50659E+00   -0.38380E-02   536   0.153E+00    0.219E-01
DAV:  20    -0.323173334831E+02   -0.33027E+00   -0.97282E-03   520   0.117E+00    0.150E-01
DAV:  21    -0.325673114542E+02   -0.24998E+00   -0.59758E-03   528   0.120E+00    0.108E-01
DAV:  22    -0.326856207073E+02   -0.11831E+00   -0.37626E-03   524   0.740E-01    0.768E-02
DAV:  23    -0.327374476461E+02   -0.51827E-01   -0.14448E-03   460   0.366E-01    0.525E-02
DAV:  24    -0.327620427637E+02   -0.24595E-01   -0.76951E-04   392   0.389E-01    0.361E-02
DAV:  25    -0.327753036062E+02   -0.13261E-01   -0.45646E-04   328   0.253E-01    0.293E-02
DAV:  26    -0.327862359090E+02   -0.10932E-01   -0.32161E-04   312   0.162E-01    0.254E-02
DAV:  27    -0.327952256561E+02   -0.89897E-02   -0.30331E-04   312   0.195E-01    0.208E-02
DAV:  28    -0.328009149153E+02   -0.56893E-02   -0.29227E-04   320   0.146E-01    0.170E-02
DAV:  29    -0.328044349335E+02   -0.35200E-02   -0.15888E-04   288   0.990E-02    0.127E-02
DAV:  30    -0.328067269925E+02   -0.22921E-02   -0.11596E-04   284   0.931E-02    0.115E-02
DAV:  31    -0.328084537970E+02   -0.17268E-02   -0.95587E-05   288   0.848E-02    0.108E-02
DAV:  32    -0.328093619896E+02   -0.90819E-03   -0.64935E-05   288   0.584E-02    0.813E-03
DAV:  33    -0.328102447986E+02   -0.88281E-03   -0.56024E-05   264   0.575E-02    0.882E-03
DAV:  34    -0.328106571371E+02   -0.41234E-03   -0.43895E-05   272   0.561E-02    0.719E-03
DAV:  35    -0.328108304010E+02   -0.17326E-03   -0.42099E-05   260   0.467E-02    0.550E-03
DAV:  36    -0.328108456939E+02   -0.15293E-04   -0.37582E-05   272   0.399E-02
   1 F= -.32810846E+02 E0= -.32795736E+02  d E =-.328108E+02  mag=     0.3725
       N       E                     dE             d eps       ncg     rms          rms(c)
DAV:   1    -0.328109512413E+02   -0.12084E-03   -0.53821E-02   408   0.792E-01    0.161E-02
DAV:   2    -0.328111315784E+02   -0.18034E-03   -0.87151E-04   488   0.267E-01    0.198E-02
DAV:   3    -0.328111614840E+02   -0.29906E-04   -0.72839E-05   264   0.177E-01
   2 F= -.32811161E+02 E0= -.32795915E+02  d E =-.315790E-03  mag=     0.3724
       N       E                     dE             d eps       ncg     rms          rms(c)
DAV:   1    -0.328112208332E+02   -0.89255E-04   -0.72158E-03   408   0.292E-01    0.102E-02
DAV:   2    -0.328112667805E+02   -0.45947E-04   -0.76645E-05   264   0.858E-02
   3 F= -.32811267E+02 E0= -.32795988E+02  d E =-.421087E-03  mag=     0.3719
