 vasp.6.1.2 22Jul20 (build Aug  2 2021 21:04:21) gamma-only                      
 executed on             LinuxPGI date 2021.12.25  08:21:52
 running on   16 total cores
 distrk:  each k-point on   16 cores,    1 groups
 distr:  one band on NCORE=   8 cores,    2 groups


--------------------------------------------------------------------------------------------------------


 INCAR:
 POTCAR:    PAW_PBE Cu 22Jun2005                  
 -----------------------------------------------------------------------------
|                                                                             |
|           W    W    AA    RRRRR   N    N  II  N    N   GGGG   !!!           |
|           W    W   A  A   R    R  NN   N  II  NN   N  G    G  !!!           |
|           W    W  A    A  R    R  N N  N  II  N N  N  G       !!!           |
|           W WW W  AAAAAA  RRRRR   N  N N  II  N  N N  G  GGG   !            |
|           WW  WW  A    A  R   R   N   NN  II  N   NN  G    G                |
|           W    W  A    A  R    R  N    N  II  N    N   GGGG   !!!           |
|                                                                             |
|     You use a magnetic or noncollinear calculation, but did not specify     |
|     the initial magnetic moment with the MAGMOM tag. Note that a            |
|     default of 1 will be used for all atoms. This ferromagnetic setup       |
|     may break the symmetry of the crystal, in particular it may rule        |
|     out finding an antiferromagnetic solution. Thence, we recommend         |
|     setting the initial magnetic moment manually or verifying carefully     |
|     that this magnetic setup is desired.                                    |
|                                                                             |
 -----------------------------------------------------------------------------

 POTCAR:    PAW_PBE Cu 22Jun2005                  
   SHA256 =  0e71e558f37a4e8407882b4609ceaae59938afaad9ced71dfe8490308a0ab630 Cu/POTCAR             
   COPYR  = (c) Copyright 22Jun2005 Georg Kresse                                                    
   COPYR  = This file is part of the software VASP. Any use, copying, and all other rights are regul
   COPYR  = If you do not have a valid VASP license, you may not use, copy or distribute this file. 
   VRHFIN =Cu: d10 p1                                                                               
   LEXCH  = PE                                                                                      
   EATOM  =  1390.9808 eV,  102.2342 Ry                                                             
                                                                                                    
   TITEL  = PAW_PBE Cu 22Jun2005                                                                    
   LULTRA =        F    use ultrasoft PP ?                                                          
   IUNSCR =        1    unscreen: 0-lin 1-nonlin 2-no                                               
   RPACOR =    2.000    partial core radius                                                         
   POMASS =   63.546; ZVAL   =   11.000    mass and valenz                                          
   RCORE  =    2.300    outmost cutoff radius                                                       
   RWIGS  =    2.200; RWIGS  =    1.164    wigner-seitz radius (au A)                               
   ENMAX  =  295.446; ENMIN  =  221.585 eV                                                          
   ICORE  =        3    local potential                                                             
   LCOR   =        T    correct aug charges                                                         
   LPAW   =        T    paw PP                                                                      
   EAUG   =  586.980                                                                                
   DEXC   =    0.000                                                                                
   RMAX   =    2.344    core radius for proj-oper                                                   
   RAUG   =    1.300    factor for augmentation sphere                                              
   RDEP   =    2.302    radius for radial grids                                                     
   RDEPT  =    1.771    core radius for aug-charge                                                  
                                                                                                    
   Atomic configuration                                                                             
    9 entries                                                                                       
     n  l   j            E        occ.                                                              
     1  0  0.50     -8850.2468   2.0000                                                             
     2  0  0.50     -1062.3498   2.0000                                                             
     2  1  1.50      -916.8226   6.0000                                                             
     3  0  0.50      -114.6929   2.0000                                                             
     3  1  1.50       -72.1325   6.0000                                                             
     3  2  2.50        -5.0394  10.0000                                                             
     4  0  0.50        -4.6097   1.0000                                                             
     4  1  0.50        -4.0817   0.0000                                                             
     4  3  2.50        -1.3606   0.0000                                                             
   Description                                                                                      
     l       E           TYP  RCUT    TYP  RCUT                                                     
     2     -5.0393973     23  2.200                                                                 
     2     10.8846608     23  2.200                                                                 
     0     -4.6097109     23  2.200                                                                 
     0      8.2520465     23  2.200                                                                 
     1     -2.7211652     23  2.200                                                                 
     1     21.7055443     23  2.200                                                                 
     3      2.7211652     23  2.300                                                                 
  local pseudopotential read in
  partial core-charges read in
  partial kinetic energy density read in
  atomic valenz-charges read in
  non local Contribution for L=            2  read in
    real space projection operators read in
  non local Contribution for L=            2  read in
    real space projection operators read in
  non local Contribution for L=            0  read in
    real space projection operators read in
  non local Contribution for L=            0  read in
    real space projection operators read in
  non local Contribution for L=            1  read in
    real space projection operators read in
  non local Contribution for L=            1  read in
    real space projection operators read in
    PAW grid and wavefunctions read in
 
   number of l-projection  operators is LMAX  =            6
   number of lm-projection operators is LMMAX =           18
 
  PAW_PBE Cu 22Jun2005                  :
 energy of atom  1       EATOM=-1390.9808
 kinetic energy error for atom=    0.0232 (will be added to EATOM!!)
 
 
 POSCAR: Cu
  positions in cartesian coordinates
  No initial velocities read in
 exchange correlation table for  LEXCH =        8
   RHO(1)=    0.500       N(1)  =     2000
   RHO(2)=  100.500       N(2)  =     4000
 


--------------------------------------------------------------------------------------------------------


 ion  position               nearest neighbor table
   1  0.513  0.546  0.511-   2 2.43   5 2.43   4 2.46   6 2.46  12 2.48   9 2.51  10 2.52
   2  0.466  0.452  0.518-   9 2.42   1 2.43   7 2.44   8 2.47   3 2.52   5 2.53  10 2.53
   3  0.516  0.460  0.419-   6 2.37   8 2.39   7 2.43  11 2.46  12 2.51   2 2.52
   4  0.608  0.508  0.513-   8 2.37   6 2.43   1 2.46  11 2.47   5 2.47
   5  0.542  0.479  0.591-   8 2.43   1 2.43   9 2.45   4 2.47   2 2.53
   6  0.570  0.547  0.419-   3 2.37  12 2.42   4 2.43  11 2.45   1 2.46
   7  0.417  0.472  0.424-  10 2.40  13 2.40  12 2.41   3 2.43   2 2.44
   8  0.561  0.418  0.504-   4 2.37   3 2.39   5 2.43  11 2.45   2 2.47
   9  0.450  0.523  0.598-  10 2.38   2 2.42   5 2.45   1 2.51
  10  0.410  0.545  0.502-   9 2.38   7 2.40  13 2.41   1 2.52   2 2.53  12 2.55
  11  0.616  0.451  0.418-   6 2.45   8 2.45   3 2.46   4 2.47
  12  0.472  0.559  0.410-  13 2.40   7 2.41   6 2.42   1 2.48   3 2.51  10 2.55
  13  0.373  0.565  0.403-  12 2.40   7 2.40  10 2.41
 

IMPORTANT INFORMATION: All symmetrisations will be switched off!
NOSYMM: (Re-)initialisation of all symmetry stuff for point group C_1.


----------------------------------------------------------------------------------------

                                     Primitive cell                                     

  volume of cell :   12298.9917

  direct lattice vectors                    reciprocal lattice vectors
    24.349007592  0.000000000  0.000000000     0.041069436  0.000000000  0.000000000
     0.000000000 22.775387750  0.000000000     0.000000000  0.043907046  0.000000000
     0.000000000  0.000000000 22.178004379     0.000000000  0.000000000  0.045089720

  length of vectors
    24.349007592 22.775387750 22.178004379     0.041069436  0.043907046  0.045089720

  position of ions in fractional coordinates (direct lattice)
     0.513450031  0.545729728  0.511283199
     0.465772106  0.452172447  0.517998166
     0.515638663  0.460145025  0.418720033
     0.608196933  0.508273529  0.512510193
     0.541589156  0.478619766  0.590925879
     0.570092099  0.546626181  0.419283793
     0.416808930  0.472104280  0.424420624
     0.561234346  0.417682008  0.503875742
     0.450240210  0.522882991  0.597611315
     0.410208190  0.544883315  0.502323245
     0.616357852  0.451339772  0.418365345
     0.471610912  0.559232002  0.410351528
     0.373384137  0.564705909  0.403446270

  ion indices of the primitive-cell ions
   primitive index   ion index
                 1           1
                 2           2
                 3           3
                 4           4
                 5           5
                 6           6
                 7           7
                 8           8
                 9           9
                10          10
                11          11
                12          12
                13          13

----------------------------------------------------------------------------------------

 
 
 KPOINTS: KPOINTS created by Atomic Simulation Env

Automatic generation of k-mesh.
Space group operators:
 irot       det(A)        alpha          n_x          n_y          n_z        tau_x        tau_y        tau_z
    1     1.000000     0.000000     1.000000     0.000000     0.000000     0.000000     0.000000     0.000000
 
 Subroutine IBZKPT returns following result:
 ===========================================
 
 Found      1 irreducible k-points:
 
 Following reciprocal coordinates:
            Coordinates               Weight
  0.000000  0.000000  0.000000      1.000000
 
 Following cartesian coordinates:
            Coordinates               Weight
  0.000000  0.000000  0.000000      1.000000
 


--------------------------------------------------------------------------------------------------------




 Dimension of arrays:
   k-points           NKPTS =      1   k-points in BZ     NKDIM =      1   number of bands    NBANDS=     92
   number of dos      NEDOS =    301   number of ions     NIONS =     13
   non local maximal  LDIM  =      6   non local SUM 2l+1 LMDIM =     18
   total plane-waves  NPLWV = ******
   max r-space proj   IRMAX =      1   max aug-charges    IRDMAX=   3744
   dimension x,y,z NGX =   120 NGY =  112 NGZ =  112
   dimension x,y,z NGXF=   240 NGYF=  224 NGZF=  224
   support grid    NGXF=   240 NGYF=  224 NGZF=  224
   ions per type =              13
   NGX,Y,Z   is equivalent  to a cutoff of   8.19,  8.18,  8.40 a.u.
   NGXF,Y,Z  is equivalent  to a cutoff of  16.39, 16.35, 16.79 a.u.

 SYSTEM =  unknown system                          
 POSCAR =  Cu                                      

 Startparameter for this run:
   NWRITE =      2    write-flag & timer
   PREC   = normal    normal or accurate (medium, high low for compatibility)
   ISTART =      0    job   : 0-new  1-cont  2-samecut
   ICHARG =      2    charge: 1-file 2-atom 10-const
   ISPIN  =      2    spin polarized calculation?
   LNONCOLLINEAR =      F non collinear calculations
   LSORBIT =      F    spin-orbit coupling
   INIWAV =      1    electr: 0-lowe 1-rand  2-diag
   LASPH  =      F    aspherical Exc in radial PAW
   METAGGA=      F    non-selfconsistent MetaGGA calc.

 Electronic Relaxation 1
   ENCUT  =  400.0 eV  29.40 Ry    5.42 a.u.  39.71 37.14 36.17*2*pi/ulx,y,z
   ENINI  =  400.0     initial cutoff
   ENAUG  =  587.0 eV  augmentation charge cutoff
   NELM   =     60;   NELMIN=  2; NELMDL=  0     # of ELM steps 
   EDIFF  = 0.1E-03   stopping-criterion for ELM
   LREAL  =      F    real-space projection
   NLSPLINE    = F    spline interpolate recip. space projectors
   LCOMPAT=      F    compatible to vasp.4.4
   GGA_COMPAT  = T    GGA compatible to vasp.4.4-vasp.4.6
   LMAXPAW     = -100 max onsite density
   LMAXMIX     =    2 max onsite mixed and CHGCAR
   VOSKOWN=      0    Vosko Wilk Nusair interpolation
   ROPT   =    0.00000
 Ionic relaxation
   EDIFFG = 0.1E-02   stopping-criterion for IOM
   NSW    =   1000    number of steps for IOM
   NBLOCK =      1;   KBLOCK =   1000    inner block; outer block 
   IBRION =      2    ionic relax: 0-MD 1-quasi-New 2-CG
   NFREE  =      1    steps in history (QN), initial steepest desc. (CG)
   ISIF   =      0    stress and relaxation
   IWAVPR =     11    prediction:  0-non 1-charg 2-wave 3-comb
   ISYM   =      0    0-nonsym 1-usesym 2-fastsym
   LCORR  =      T    Harris-Foulkes like correction to forces

   POTIM  = 0.5000    time-step for ionic-motion
   TEIN   =    0.0    initial temperature
   TEBEG  =    0.0;   TEEND  =   0.0 temperature during run
   SMASS  =  -3.00    Nose mass-parameter (am)
   estimated Nose-frequenzy (Omega)   =  0.10E-29 period in steps = 0.13E+47 mass=  -0.135E-25a.u.
   SCALEE = 1.0000    scale energy and forces
   NPACO  =    256;   APACO  = 16.0  distance and # of slots for P.C.
   PSTRESS=    0.0 pullay stress

  Mass of Ions in am
   POMASS =  63.55
  Ionic Valenz
   ZVAL   =  11.00
  Atomic Wigner-Seitz radii
   RWIGS  =  -1.00
  virtual crystal weights 
   VCA    =   1.00
   NELECT =     143.0000    total number of electrons
   NUPDOWN=      -1.0000    fix difference up-down

 DOS related values:
   EMIN   =  10.00;   EMAX   =-10.00  energy-range for DOS
   EFERMI =   0.00
   ISMEAR =     1;   SIGMA  =   0.20  broadening in eV -4-tet -1-fermi 0-gaus

 Electronic relaxation 2 (details)
   IALGO  =     38    algorithm
   LDIAG  =      T    sub-space diagonalisation (order eigenvalues)
   LSUBROT=      F    optimize rotation matrix (better conditioning)
   TURBO    =      0    0=normal 1=particle mesh
   IRESTART =      0    0=no restart 2=restart with 2 vectors
   NREBOOT  =      0    no. of reboots
   NMIN     =      0    reboot dimension
   EREF     =   0.00    reference energy to select bands
   IMIX   =      4    mixing-type and parameters
     AMIX     =   0.40;   BMIX     =  1.00
     AMIX_MAG =   1.60;   BMIX_MAG =  1.00
     AMIN     =   0.10
     WC   =   100.;   INIMIX=   1;  MIXPRE=   1;  MAXMIX= -45

 Intra band minimization:
   WEIMIN = 0.0010     energy-eigenvalue tresh-hold
   EBREAK =  0.27E-06  absolut break condition
   DEPER  =   0.30     relativ break condition  

   TIME   =   0.40     timestep for ELM

  volume/ion in A,a.u.               =     946.08      6384.44
  Fermi-wavevector in a.u.,A,eV,Ry     =   0.370877  0.700857  1.871482  0.137550
  Thomas-Fermi vector in A             =   1.298581
 
 Write flags
   LWAVE        =      F    write WAVECAR
   LDOWNSAMPLE  =      F    k-point downsampling of WAVECAR
   LCHARG       =      F    write CHGCAR
   LVTOT        =      F    write LOCPOT, total local potential
   LVHAR        =      F    write LOCPOT, Hartree potential only
   LELF         =      F    write electronic localiz. function (ELF)
   LORBIT       =      0    0 simple, 1 ext, 2 COOP (PROOUT), +10 PAW based schemes


 Dipole corrections
   LMONO  =      F    monopole corrections only (constant potential shift)
   LDIPOL =      F    correct potential (dipole corrections)
   IDIPOL =      0    1-x, 2-y, 3-z, 4-all directions 
   EPSILON=  1.0000000 bulk dielectric constant

 Exchange correlation treatment:
   GGA     =    PE    GGA type
   LEXCH   =     8    internal setting for exchange type
   VOSKOWN=      0    Vosko Wilk Nusair interpolation
   LHFCALC =     F    Hartree Fock is set to
   LHFONE  =     F    Hartree Fock one center treatment
   AEXX    =    0.0000 exact exchange contribution

 Linear response parameters
   LEPSILON=     F    determine dielectric tensor
   LRPA    =     F    only Hartree local field effects (RPA)
   LNABLA  =     F    use nabla operator in PAW spheres
   LVEL    =     F    velocity operator in full k-point grid
   LINTERFAST=   F  fast interpolation
   KINTER  =     0    interpolate to denser k-point grid
   CSHIFT  =0.1000    complex shift for real part using Kramers Kronig
   OMEGAMAX=  -1.0    maximum frequency
   DEG_THRESHOLD= 0.2000000E-02 threshold for treating states as degnerate
   RTIME   =   -0.100 relaxation time in fs
  (WPLASMAI=    0.000 imaginary part of plasma frequency in eV, 0.658/RTIME)
   DFIELD  = 0.0000000 0.0000000 0.0000000 field for delta impulse in time
 
 Orbital magnetization related:
   ORBITALMAG=     F  switch on orbital magnetization
   LCHIMAG   =     F  perturbation theory with respect to B field
   DQ        =  0.001000  dq finite difference perturbation B field
   LLRAUG    =     F  two centre corrections for induced B field



--------------------------------------------------------------------------------------------------------


 conjugate gradient relaxation of ions
 charge density and potential will be updated during run
 spin polarized calculation
 Variant of blocked Davidson
 Davidson routine will perform the subspace rotation
 perform sub-space diagonalisation
    after iterative eigenvector-optimisation
 modified Broyden-mixing scheme, WC =      100.0
 initial mixing is a Kerker type mixing with AMIX =  0.4000 and BMIX =      1.0000
 Hartree-type preconditioning will be used
 using additional bands            20
 reciprocal scheme for non local part
 use partial core corrections
 calculate Harris-corrections to forces 
   (improved forces if not selfconsistent)
 use gradient corrections 
 use of overlap-Matrix (Vanderbilt PP)
 Methfessel and Paxton  Order N= 1 SIGMA  =   0.20


--------------------------------------------------------------------------------------------------------


  energy-cutoff  :      400.00
  volume of cell :    12298.99
      direct lattice vectors                 reciprocal lattice vectors
    24.349007592  0.000000000  0.000000000     0.041069436  0.000000000  0.000000000
     0.000000000 22.775387750  0.000000000     0.000000000  0.043907046  0.000000000
     0.000000000  0.000000000 22.178004379     0.000000000  0.000000000  0.045089720

  length of vectors
    24.349007592 22.775387750 22.178004379     0.041069436  0.043907046  0.045089720


 
 k-points in units of 2pi/SCALE and weight: KPOINTS created by Atomic Simulation Env
   0.00000000  0.00000000  0.00000000       1.000
 
 k-points in reciprocal lattice and weights: KPOINTS created by Atomic Simulation Env
   0.00000000  0.00000000  0.00000000       1.000
 
 position of ions in fractional coordinates (direct lattice) 
   0.51345003  0.54572973  0.51128320
   0.46577211  0.45217245  0.51799817
   0.51563866  0.46014502  0.41872003
   0.60819693  0.50827353  0.51251019
   0.54158916  0.47861977  0.59092588
   0.57009210  0.54662618  0.41928379
   0.41680893  0.47210428  0.42442062
   0.56123435  0.41768201  0.50387574
   0.45024021  0.52288299  0.59761132
   0.41020819  0.54488332  0.50232325
   0.61635785  0.45133977  0.41836535
   0.47161091  0.55923200  0.41035153
   0.37338414  0.56470591  0.40344627
 
 position of ions in cartesian coordinates  (Angst):
  12.50199870 12.42920617 11.33924103
  11.34108854 10.29840280 11.48816560
  12.55528971 10.47998137  9.28637472
  14.80899174 11.57612672 11.36645331
  13.18715848 10.90075075 13.10555673
  13.88117684 12.44962322  9.29887780
  10.14888379 10.75235804  9.41280246
  13.66549934  9.51286970 11.17495841
  10.96290230 11.90886286 13.25382637
   9.98816234 12.40992879 11.14052713
  15.00770202 10.27943831  9.27850846
  11.48325768 12.73672569  9.10077799
   9.09153318 12.86139603  8.94763315
 


--------------------------------------------------------------------------------------------------------


 use parallel FFT for orbitals z direction half grid
 k-point   1 :   0.0000 0.0000 0.0000  plane waves:  111739

 maximum and minimum number of plane-waves per node :     13973    13964

 maximum number of plane-waves:    111739
 maximum index in each direction: 
   IXMAX=   39   IYMAX=   37   IZMAX=   36
   IXMIN=  -39   IYMIN=  -37   IZMIN=    0


 parallel 3D FFT for wavefunctions:
    minimum data exchange during FFTs selected (reduces bandwidth)
 parallel 3D FFT for charge:
    minimum data exchange during FFTs selected (reduces bandwidth)


 total amount of memory used by VASP MPI-rank0   154754. kBytes
=======================================================================

   base      :      30000. kBytes
   nonl-proj :       4916. kBytes
   fftplans  :      29551. kBytes
   grid      :      69672. kBytes
   one-center:         31. kBytes
   wavefun   :      20584. kBytes
 
     INWAV:  cpu time    0.0000: real time    0.0000
 Broyden mixing: mesh for mixing (old mesh)
   NGX = 79   NGY = 75   NGZ = 73
  (NGX  =240   NGY  =224   NGZ  =224)
  gives a total of 432525 points

 initial charge density was supplied:
 charge density of overlapping atoms calculated
 number of electron     143.0000000 magnetization      13.0000000
 keeping initial charge density in first step


--------------------------------------------------------------------------------------------------------


 Maximum index for augmentation-charges           277 (set IRDMAX)


--------------------------------------------------------------------------------------------------------


 First call to EWALD:  gamma=   0.077
 Maximum number of real-space cells 3x 3x 3
 Maximum number of reciprocal cells 3x 3x 3

    FEWALD:  cpu time    0.0071: real time    0.0071


--------------------------------------- Iteration      1(   1)  ---------------------------------------


    POTLOK:  cpu time    2.5075: real time    2.5286
    SETDIJ:  cpu time    0.0227: real time    0.0227
     EDDAV:  cpu time   15.5774: real time   15.6080
       DOS:  cpu time    0.0140: real time    0.0140
    --------------------------------------------
      LOOP:  cpu time   18.1216: real time   18.1734

 eigenvalue-minimisations  :   368
 total energy-change (2. order) : 0.9768580E+03  (-0.2572637E+04)
 number of electron     143.0000000 magnetization      13.0000000
 augmentation part      143.0000000 magnetization      13.0000000

 Free energy of the ion-electron system (eV)
  ---------------------------------------------------
  alpha Z        PSCENC =        10.04915207
  Ewald energy   TEWEN  =     24309.94384867
  -Hartree energ DENC   =    -40770.58205529
  -exchange      EXHF   =         0.00000000
  -V(xc)+E(xc)   XCENC  =       584.73309885
  PAW double counting   =     15965.26744864   -17340.97210982
  entropy T*S    EENTRO =         0.03111621
  eigenvalues    EBANDS =       135.93822488
  atomic energy  EATOM  =     18082.44932260
  Solvation  Ediel_sol  =         0.00000000
  ---------------------------------------------------
  free energy    TOTEN  =       976.85804680 eV

  energy without entropy =      976.82693060  energy(sigma->0) =      976.84767473


--------------------------------------------------------------------------------------------------------




--------------------------------------- Iteration      1(   2)  ---------------------------------------


     EDDAV:  cpu time   13.4326: real time   13.8915
       DOS:  cpu time    0.0237: real time    0.0237
    --------------------------------------------
      LOOP:  cpu time   13.4562: real time   13.9151

 eigenvalue-minimisations  :   384
 total energy-change (2. order) :-0.7518659E+03  (-0.6686571E+03)
 number of electron     143.0000000 magnetization      13.0000000
 augmentation part      143.0000000 magnetization      13.0000000

 Free energy of the ion-electron system (eV)
  ---------------------------------------------------
  alpha Z        PSCENC =        10.04915207
  Ewald energy   TEWEN  =     24309.94384867
  -Hartree energ DENC   =    -40770.58205529
  -exchange      EXHF   =         0.00000000
  -V(xc)+E(xc)   XCENC  =       584.73309885
  PAW double counting   =     15965.26744864   -17340.97210982
  entropy T*S    EENTRO =        -0.00532916
  eigenvalues    EBANDS =      -615.89125068
  atomic energy  EATOM  =     18082.44932260
  Solvation  Ediel_sol  =         0.00000000
  ---------------------------------------------------
  free energy    TOTEN  =       224.99212588 eV

  energy without entropy =      224.99745503  energy(sigma->0) =      224.99390226


--------------------------------------------------------------------------------------------------------




--------------------------------------- Iteration      1(   3)  ---------------------------------------


     EDDAV:  cpu time   14.4563: real time   14.4971
       DOS:  cpu time    0.0273: real time    0.0273
    --------------------------------------------
      LOOP:  cpu time   14.4835: real time   14.5244

 eigenvalue-minimisations  :   456
 total energy-change (2. order) :-0.2221256E+03  (-0.2128215E+03)
 number of electron     143.0000000 magnetization      13.0000000
 augmentation part      143.0000000 magnetization      13.0000000

 Free energy of the ion-electron system (eV)
  ---------------------------------------------------
  alpha Z        PSCENC =        10.04915207
  Ewald energy   TEWEN  =     24309.94384867
  -Hartree energ DENC   =    -40770.58205529
  -exchange      EXHF   =         0.00000000
  -V(xc)+E(xc)   XCENC  =       584.73309885
  PAW double counting   =     15965.26744864   -17340.97210982
  entropy T*S    EENTRO =        -0.01504895
  eigenvalues    EBANDS =      -838.00717984
  atomic energy  EATOM  =     18082.44932260
  Solvation  Ediel_sol  =         0.00000000
  ---------------------------------------------------
  free energy    TOTEN  =         2.86647692 eV

  energy without entropy =        2.88152587  energy(sigma->0) =        2.87149324


--------------------------------------------------------------------------------------------------------




--------------------------------------- Iteration      1(   4)  ---------------------------------------


     EDDAV:  cpu time   16.1062: real time   16.5262
       DOS:  cpu time    0.0133: real time    0.0133
    --------------------------------------------
      LOOP:  cpu time   16.1194: real time   16.5395

 eigenvalue-minimisations  :   432
 total energy-change (2. order) :-0.3830507E+02  (-0.3586336E+02)
 number of electron     143.0000000 magnetization      13.0000000
 augmentation part      143.0000000 magnetization      13.0000000

 Free energy of the ion-electron system (eV)
  ---------------------------------------------------
  alpha Z        PSCENC =        10.04915207
  Ewald energy   TEWEN  =     24309.94384867
  -Hartree energ DENC   =    -40770.58205529
  -exchange      EXHF   =         0.00000000
  -V(xc)+E(xc)   XCENC  =       584.73309885
  PAW double counting   =     15965.26744864   -17340.97210982
  entropy T*S    EENTRO =         0.03460919
  eigenvalues    EBANDS =      -876.36190389
  atomic energy  EATOM  =     18082.44932260
  Solvation  Ediel_sol  =         0.00000000
  ---------------------------------------------------
  free energy    TOTEN  =       -35.43858898 eV

  energy without entropy =      -35.47319817  energy(sigma->0) =      -35.45012538


--------------------------------------------------------------------------------------------------------




--------------------------------------- Iteration      1(   5)  ---------------------------------------


     EDDAV:  cpu time   15.0930: real time   15.2844
       DOS:  cpu time    0.0279: real time    0.0280
    CHARGE:  cpu time    1.0214: real time    1.0237
    MIXING:  cpu time    0.0570: real time    0.0571
    --------------------------------------------
      LOOP:  cpu time   16.1992: real time   16.3932

 eigenvalue-minimisations  :   472
 total energy-change (2. order) :-0.1558567E+01  (-0.1545360E+01)
 number of electron     143.0000437 magnetization      11.8446042
 augmentation part       87.3791732 magnetization      11.8002582

 Broyden mixing:
  rms(total) = 0.28618E+01    rms(broyden)= 0.28617E+01
  rms(prec ) = 0.29329E+01
  weight for this iteration     100.00

 Free energy of the ion-electron system (eV)
  ---------------------------------------------------
  alpha Z        PSCENC =        10.04915207
  Ewald energy   TEWEN  =     24309.94384867
  -Hartree energ DENC   =    -40770.58205529
  -exchange      EXHF   =         0.00000000
  -V(xc)+E(xc)   XCENC  =       584.73309885
  PAW double counting   =     15965.26744864   -17340.97210982
  entropy T*S    EENTRO =         0.03271791
  eigenvalues    EBANDS =      -877.91857995
  atomic energy  EATOM  =     18082.44932260
  Solvation  Ediel_sol  =         0.00000000
  ---------------------------------------------------
  free energy    TOTEN  =       -36.99715633 eV

  energy without entropy =      -37.02987424  energy(sigma->0) =      -37.00806230


--------------------------------------------------------------------------------------------------------




--------------------------------------- Iteration      1(   6)  ---------------------------------------


    POTLOK:  cpu time    2.5623: real time    2.5717
    SETDIJ:  cpu time    0.0298: real time    0.0299
     EDDAV:  cpu time   15.2812: real time   15.6523
       DOS:  cpu time    0.0218: real time    0.0218
    CHARGE:  cpu time    1.0817: real time    1.0861
    MIXING:  cpu time    0.0528: real time    0.0538
    --------------------------------------------
      LOOP:  cpu time   19.0295: real time   19.4155

 eigenvalue-minimisations  :   404
 total energy-change (2. order) : 0.2126986E+02  (-0.1361633E+02)
 number of electron     143.0000477 magnetization      11.1891055
 augmentation part       94.8434358 magnetization       7.0739936

 Broyden mixing:
  rms(total) = 0.12394E+01    rms(broyden)= 0.12391E+01
  rms(prec ) = 0.13075E+01
  weight for this iteration     100.00

 eigenvalues of (default mixing * dielectric matrix)
  average eigenvalue GAMMA=   0.8237
  0.8237

 Free energy of the ion-electron system (eV)
  ---------------------------------------------------
  alpha Z        PSCENC =        10.04915207
  Ewald energy   TEWEN  =     24309.94384867
  -Hartree energ DENC   =    -40553.44540373
  -exchange      EXHF   =         0.00000000
  -V(xc)+E(xc)   XCENC  =       586.30359464
  PAW double counting   =     16145.41619494   -17476.06099826
  entropy T*S    EENTRO =         0.03935963
  eigenvalues    EBANDS =     -1120.42236967
  atomic energy  EATOM  =     18082.44932260
  Solvation  Ediel_sol  =         0.00000000
  ---------------------------------------------------
  free energy    TOTEN  =       -15.72729911 eV

  energy without entropy =      -15.76665875  energy(sigma->0) =      -15.74041899


--------------------------------------------------------------------------------------------------------




--------------------------------------- Iteration      1(   7)  ---------------------------------------


    POTLOK:  cpu time    3.1768: real time    3.1968
    SETDIJ:  cpu time    0.0231: real time    0.0231
     EDDAV:  cpu time   15.0192: real time   15.0967
       DOS:  cpu time    0.0102: real time    0.0128
    CHARGE:  cpu time    1.0425: real time    1.0557
    MIXING:  cpu time    0.0677: real time    0.0686
    --------------------------------------------
      LOOP:  cpu time   19.3395: real time   19.4538

 eigenvalue-minimisations  :   448
 total energy-change (2. order) : 0.4719077E+01  (-0.3293615E+01)
 number of electron     143.0000462 magnetization      10.3608650
 augmentation part       92.1253643 magnetization       6.3052489

 Broyden mixing:
  rms(total) = 0.48138E+00    rms(broyden)= 0.48128E+00
  rms(prec ) = 0.50352E+00
  weight for this iteration     100.00

 eigenvalues of (default mixing * dielectric matrix)
  average eigenvalue GAMMA=   0.8541
  1.0416  0.6667

 Free energy of the ion-electron system (eV)
  ---------------------------------------------------
  alpha Z        PSCENC =        10.04915207
  Ewald energy   TEWEN  =     24309.94384867
  -Hartree energ DENC   =    -40710.54353148
  -exchange      EXHF   =         0.00000000
  -V(xc)+E(xc)   XCENC  =       593.56154917
  PAW double counting   =     16459.87871404   -17843.47864639
  entropy T*S    EENTRO =         0.03295789
  eigenvalues    EBANDS =      -912.90158893
  atomic energy  EATOM  =     18082.44932260
  Solvation  Ediel_sol  =         0.00000000
  ---------------------------------------------------
  free energy    TOTEN  =       -11.00822236 eV

  energy without entropy =      -11.04118026  energy(sigma->0) =      -11.01920833


--------------------------------------------------------------------------------------------------------




--------------------------------------- Iteration      1(   8)  ---------------------------------------


    POTLOK:  cpu time    2.5036: real time    2.5244
    SETDIJ:  cpu time    0.0236: real time    0.0238
     EDDAV:  cpu time   21.2931: real time   21.5121
       DOS:  cpu time    0.0105: real time    0.0105
    CHARGE:  cpu time    1.7490: real time    2.2455
    MIXING:  cpu time    0.2983: real time    0.3185
    --------------------------------------------
      LOOP:  cpu time   25.8780: real time   26.6348

 eigenvalue-minimisations  :   448
 total energy-change (2. order) : 0.5936686E+00  (-0.6496357E+00)
 number of electron     143.0000458 magnetization       9.7895647
 augmentation part       91.4458896 magnetization       5.5583383

 Broyden mixing:
  rms(total) = 0.45833E+00    rms(broyden)= 0.45825E+00
  rms(prec ) = 0.47785E+00
  weight for this iteration     100.00

 eigenvalues of (default mixing * dielectric matrix)
  average eigenvalue GAMMA=   0.7786
  1.1687  0.6263  0.5409

 Free energy of the ion-electron system (eV)
  ---------------------------------------------------
  alpha Z        PSCENC =        10.04915207
  Ewald energy   TEWEN  =     24309.94384867
  -Hartree energ DENC   =    -40749.03518709
  -exchange      EXHF   =         0.00000000
  -V(xc)+E(xc)   XCENC  =       594.34394187
  PAW double counting   =     16673.71479133   -18069.74492319
  entropy T*S    EENTRO =         0.03189585
  eigenvalues    EBANDS =      -862.16739585
  atomic energy  EATOM  =     18082.44932260
  Solvation  Ediel_sol  =         0.00000000
  ---------------------------------------------------
  free energy    TOTEN  =       -10.41455375 eV

  energy without entropy =      -10.44644960  energy(sigma->0) =      -10.42518570


--------------------------------------------------------------------------------------------------------




--------------------------------------- Iteration      1(   9)  ---------------------------------------


    POTLOK:  cpu time    3.1311: real time    3.2917
    SETDIJ:  cpu time    0.0229: real time    0.0229
     EDDAV:  cpu time   16.1459: real time   16.3901
       DOS:  cpu time    0.0243: real time    0.0243
    CHARGE:  cpu time    1.0169: real time    1.0185
    MIXING:  cpu time    0.0720: real time    0.0721
    --------------------------------------------
      LOOP:  cpu time   20.4132: real time   20.8196

 eigenvalue-minimisations  :   464
 total energy-change (2. order) :-0.1162990E+01  (-0.1602585E+00)
 number of electron     143.0000459 magnetization       8.7284554
 augmentation part       91.4626875 magnetization       4.6506012

 Broyden mixing:
  rms(total) = 0.29524E+00    rms(broyden)= 0.29520E+00
  rms(prec ) = 0.30372E+00
  weight for this iteration     100.00

 eigenvalues of (default mixing * dielectric matrix)
  average eigenvalue GAMMA=   0.9323
  1.2458  1.2458  0.7796  0.4577

 Free energy of the ion-electron system (eV)
  ---------------------------------------------------
  alpha Z        PSCENC =        10.04915207
  Ewald energy   TEWEN  =     24309.94384867
  -Hartree energ DENC   =    -40752.30941954
  -exchange      EXHF   =         0.00000000
  -V(xc)+E(xc)   XCENC  =       592.82415551
  PAW double counting   =     16759.40658536   -18156.75318293
  entropy T*S    EENTRO =         0.04322103
  eigenvalues    EBANDS =      -857.23122647
  atomic energy  EATOM  =     18082.44932260
  Solvation  Ediel_sol  =         0.00000000
  ---------------------------------------------------
  free energy    TOTEN  =       -11.57754369 eV

  energy without entropy =      -11.62076472  energy(sigma->0) =      -11.59195070


--------------------------------------------------------------------------------------------------------




--------------------------------------- Iteration      1(  10)  ---------------------------------------


    POTLOK:  cpu time    2.9157: real time    2.9225
    SETDIJ:  cpu time    0.0288: real time    0.0288
     EDDAV:  cpu time   18.1583: real time   18.4984
       DOS:  cpu time    0.0181: real time    0.0181
    CHARGE:  cpu time    1.0269: real time    1.0326
    MIXING:  cpu time    0.0802: real time    0.0804
    --------------------------------------------
      LOOP:  cpu time   22.2281: real time   22.5809

 eigenvalue-minimisations  :   516
 total energy-change (2. order) :-0.4663527E+01  (-0.2474850E+00)
 number of electron     143.0000461 magnetization       7.8465689
 augmentation part       91.8744746 magnetization       4.5904722

 Broyden mixing:
  rms(total) = 0.22746E+00    rms(broyden)= 0.22737E+00
  rms(prec ) = 0.23391E+00
  weight for this iteration     100.00

 eigenvalues of (default mixing * dielectric matrix)
  average eigenvalue GAMMA=   0.9840
  1.6169  1.6169  0.6957  0.4952  0.4952

 Free energy of the ion-electron system (eV)
  ---------------------------------------------------
  alpha Z        PSCENC =        10.04915207
  Ewald energy   TEWEN  =     24309.94384867
  -Hartree energ DENC   =    -40743.69637919
  -exchange      EXHF   =         0.00000000
  -V(xc)+E(xc)   XCENC  =       588.20191833
  PAW double counting   =     16817.26662099   -18210.22713823
  entropy T*S    EENTRO =        -0.02190906
  eigenvalues    EBANDS =      -870.20650667
  atomic energy  EATOM  =     18082.44932260
  Solvation  Ediel_sol  =         0.00000000
  ---------------------------------------------------
  free energy    TOTEN  =       -16.24107049 eV

  energy without entropy =      -16.21916143  energy(sigma->0) =      -16.23376747


--------------------------------------------------------------------------------------------------------




--------------------------------------- Iteration      1(  11)  ---------------------------------------


    POTLOK:  cpu time    2.6861: real time    2.7378
    SETDIJ:  cpu time    0.0278: real time    0.0278
     EDDAV:  cpu time   16.0373: real time   16.2060
       DOS:  cpu time    0.0035: real time    0.0035
    CHARGE:  cpu time    1.0131: real time    1.0160
    MIXING:  cpu time    0.2626: real time    0.2629
    --------------------------------------------
      LOOP:  cpu time   20.0306: real time   20.2541

 eigenvalue-minimisations  :   480
 total energy-change (2. order) :-0.2938574E+01  (-0.1408756E+00)
 number of electron     143.0000461 magnetization       7.4143190
 augmentation part       91.9937508 magnetization       4.8709249

 Broyden mixing:
  rms(total) = 0.20382E+00    rms(broyden)= 0.20374E+00
  rms(prec ) = 0.20950E+00
  weight for this iteration     100.00

 eigenvalues of (default mixing * dielectric matrix)
  average eigenvalue GAMMA=   0.9274
  1.9209  1.3735  0.6024  0.6024  0.6352  0.4298

 Free energy of the ion-electron system (eV)
  ---------------------------------------------------
  alpha Z        PSCENC =        10.04915207
  Ewald energy   TEWEN  =     24309.94384867
  -Hartree energ DENC   =    -40748.27224892
  -exchange      EXHF   =         0.00000000
  -V(xc)+E(xc)   XCENC  =       585.77120190
  PAW double counting   =     16849.51762292   -18241.99698287
  entropy T*S    EENTRO =        -0.03673222
  eigenvalues    EBANDS =      -866.60482822
  atomic energy  EATOM  =     18082.44932260
  Solvation  Ediel_sol  =         0.00000000
  ---------------------------------------------------
  free energy    TOTEN  =       -19.17964407 eV

  energy without entropy =      -19.14291185  energy(sigma->0) =      -19.16740000


--------------------------------------------------------------------------------------------------------




--------------------------------------- Iteration      1(  12)  ---------------------------------------


    POTLOK:  cpu time    2.8758: real time    2.8918
    SETDIJ:  cpu time    0.0234: real time    0.0235
     EDDAV:  cpu time   17.6106: real time   17.6566
       DOS:  cpu time    0.0034: real time    0.0034
    CHARGE:  cpu time    1.0025: real time    1.0063
    MIXING:  cpu time    0.0886: real time    0.0888
    --------------------------------------------
      LOOP:  cpu time   21.6043: real time   21.6704

 eigenvalue-minimisations  :   520
 total energy-change (2. order) :-0.9991890E+00  (-0.3024709E-01)
 number of electron     143.0000461 magnetization       6.0928274
 augmentation part       91.9156048 magnetization       3.8266324

 Broyden mixing:
  rms(total) = 0.17794E+00    rms(broyden)= 0.17791E+00
  rms(prec ) = 0.18199E+00
  weight for this iteration     100.00

 eigenvalues of (default mixing * dielectric matrix)
  average eigenvalue GAMMA=   1.0800
  2.3649  1.7397  0.9218  0.9218  0.6901  0.4608  0.4608

 Free energy of the ion-electron system (eV)
  ---------------------------------------------------
  alpha Z        PSCENC =        10.04915207
  Ewald energy   TEWEN  =     24309.94384867
  -Hartree energ DENC   =    -40756.41207296
  -exchange      EXHF   =         0.00000000
  -V(xc)+E(xc)   XCENC  =       585.25586609
  PAW double counting   =     16859.04976922   -18253.40416090
  entropy T*S    EENTRO =        -0.03338321
  eigenvalues    EBANDS =      -857.07717460
  atomic energy  EATOM  =     18082.44932260
  Solvation  Ediel_sol  =         0.00000000
  ---------------------------------------------------
  free energy    TOTEN  =       -20.17883303 eV

  energy without entropy =      -20.14544982  energy(sigma->0) =      -20.16770529


--------------------------------------------------------------------------------------------------------




--------------------------------------- Iteration      1(  13)  ---------------------------------------


    POTLOK:  cpu time    2.5468: real time    2.5530
    SETDIJ:  cpu time    0.0251: real time    0.0252
     EDDAV:  cpu time   15.4852: real time   15.5349
       DOS:  cpu time    0.0021: real time    0.0021
    CHARGE:  cpu time    1.0169: real time    1.0191
    MIXING:  cpu time    0.0945: real time    0.0947
    --------------------------------------------
      LOOP:  cpu time   19.1706: real time   19.2289

 eigenvalue-minimisations  :   472
 total energy-change (2. order) :-0.3297781E+01  (-0.1474605E+00)
 number of electron     143.0000460 magnetization       4.5126866
 augmentation part       91.7374688 magnetization       2.9975326

 Broyden mixing:
  rms(total) = 0.13445E+00    rms(broyden)= 0.13436E+00
  rms(prec ) = 0.13750E+00
  weight for this iteration     100.00

 eigenvalues of (default mixing * dielectric matrix)
  average eigenvalue GAMMA=   1.2275
  3.8219  1.7555  0.9652  0.9652  0.8204  0.5676  0.4622  0.4622

 Free energy of the ion-electron system (eV)
  ---------------------------------------------------
  alpha Z        PSCENC =        10.04915207
  Ewald energy   TEWEN  =     24309.94384867
  -Hartree energ DENC   =    -40766.93009353
  -exchange      EXHF   =         0.00000000
  -V(xc)+E(xc)   XCENC  =       583.05532299
  PAW double counting   =     16846.51721846   -18242.90728554
  entropy T*S    EENTRO =        -0.00209387
  eigenvalues    EBANDS =      -845.65200541
  atomic energy  EATOM  =     18082.44932260
  Solvation  Ediel_sol  =         0.00000000
  ---------------------------------------------------
  free energy    TOTEN  =       -23.47661357 eV

  energy without entropy =      -23.47451970  energy(sigma->0) =      -23.47591562


--------------------------------------------------------------------------------------------------------




--------------------------------------- Iteration      1(  14)  ---------------------------------------


    POTLOK:  cpu time    3.3765: real time    3.3918
    SETDIJ:  cpu time    0.0266: real time    0.0266
     EDDAV:  cpu time   24.1000: real time   24.5182
       DOS:  cpu time    0.0021: real time    0.0021
    CHARGE:  cpu time    2.3291: real time    2.8724
    MIXING:  cpu time    0.1094: real time    0.1099
    --------------------------------------------
      LOOP:  cpu time   29.9437: real time   30.9210

 eigenvalue-minimisations  :   536
 total energy-change (2. order) :-0.3226737E+01  (-0.1392464E+00)
 number of electron     143.0000459 magnetization       4.4340771
 augmentation part       91.6858640 magnetization       3.1447233

 Broyden mixing:
  rms(total) = 0.10040E+00    rms(broyden)= 0.10038E+00
  rms(prec ) = 0.10453E+00
  weight for this iteration     100.00

 eigenvalues of (default mixing * dielectric matrix)
  average eigenvalue GAMMA=   1.1721
  3.3037  2.1143  1.1522  1.1522  0.7150  0.7150  0.4688  0.4638  0.4638

 Free energy of the ion-electron system (eV)
  ---------------------------------------------------
  alpha Z        PSCENC =        10.04915207
  Ewald energy   TEWEN  =     24309.94384867
  -Hartree energ DENC   =    -40769.62633268
  -exchange      EXHF   =         0.00000000
  -V(xc)+E(xc)   XCENC  =       580.48979395
  PAW double counting   =     16822.17643627   -18218.37200214
  entropy T*S    EENTRO =        -0.00592092
  eigenvalues    EBANDS =      -843.80764820
  atomic energy  EATOM  =     18082.44932260
  Solvation  Ediel_sol  =         0.00000000
  ---------------------------------------------------
  free energy    TOTEN  =       -26.70335038 eV

  energy without entropy =      -26.69742946  energy(sigma->0) =      -26.70137674


--------------------------------------------------------------------------------------------------------




--------------------------------------- Iteration      1(  15)  ---------------------------------------


    POTLOK:  cpu time    3.3259: real time    3.7397
    SETDIJ:  cpu time    0.0282: real time    0.0282
     EDDAV:  cpu time   19.0779: real time   19.7064
       DOS:  cpu time    0.0148: real time    0.0149
    CHARGE:  cpu time    1.0368: real time    1.1268
    MIXING:  cpu time    0.1086: real time    0.1088
    --------------------------------------------
      LOOP:  cpu time   23.5923: real time   24.7248

 eigenvalue-minimisations  :   512
 total energy-change (2. order) :-0.1461178E+01  (-0.3695432E-01)
 number of electron     143.0000460 magnetization       3.7482635
 augmentation part       91.7702718 magnetization       2.5139582

 Broyden mixing:
  rms(total) = 0.83418E-01    rms(broyden)= 0.83411E-01
  rms(prec ) = 0.85722E-01
  weight for this iteration     100.00

 eigenvalues of (default mixing * dielectric matrix)
  average eigenvalue GAMMA=   1.2703
  3.3669  3.3669  1.1701  1.1701  0.8384  0.8384  0.5892  0.4941  0.4431  0.4262

 Free energy of the ion-electron system (eV)
  ---------------------------------------------------
  alpha Z        PSCENC =        10.04915207
  Ewald energy   TEWEN  =     24309.94384867
  -Hartree energ DENC   =    -40760.08403668
  -exchange      EXHF   =         0.00000000
  -V(xc)+E(xc)   XCENC  =       579.12281175
  PAW double counting   =     16795.28965633   -18189.23192731
  entropy T*S    EENTRO =        -0.00565131
  eigenvalues    EBANDS =      -855.69770479
  atomic energy  EATOM  =     18082.44932260
  Solvation  Ediel_sol  =         0.00000000
  ---------------------------------------------------
  free energy    TOTEN  =       -28.16452867 eV

  energy without entropy =      -28.15887737  energy(sigma->0) =      -28.16264490


--------------------------------------------------------------------------------------------------------




--------------------------------------- Iteration      1(  16)  ---------------------------------------


    POTLOK:  cpu time    2.4771: real time    2.4905
    SETDIJ:  cpu time    0.0247: real time    0.0248
     EDDAV:  cpu time   17.0375: real time   17.4970
       DOS:  cpu time    0.0231: real time    0.0232
    CHARGE:  cpu time    1.0229: real time    1.0276
    MIXING:  cpu time    0.1224: real time    0.1228
    --------------------------------------------
      LOOP:  cpu time   20.7076: real time   21.1859

 eigenvalue-minimisations  :   488
 total energy-change (2. order) :-0.1741995E+01  (-0.3963806E-01)
 number of electron     143.0000459 magnetization       3.0633673
 augmentation part       91.8173800 magnetization       1.8862477

 Broyden mixing:
  rms(total) = 0.61100E-01    rms(broyden)= 0.61094E-01
  rms(prec ) = 0.62776E-01
  weight for this iteration     100.00

 eigenvalues of (default mixing * dielectric matrix)
  average eigenvalue GAMMA=   1.3406
  3.8543  3.8543  1.2775  1.1289  1.1289  0.7433  0.7433  0.6571  0.4659  0.4659
  0.4269

 Free energy of the ion-electron system (eV)
  ---------------------------------------------------
  alpha Z        PSCENC =        10.04915207
  Ewald energy   TEWEN  =     24309.94384867
  -Hartree energ DENC   =    -40751.00908558
  -exchange      EXHF   =         0.00000000
  -V(xc)+E(xc)   XCENC  =       577.57045421
  PAW double counting   =     16754.48971403   -18147.50837979
  entropy T*S    EENTRO =         0.00237377
  eigenvalues    EBANDS =      -865.89392327
  atomic energy  EATOM  =     18082.44932260
  Solvation  Ediel_sol  =         0.00000000
  ---------------------------------------------------
  free energy    TOTEN  =       -29.90652330 eV

  energy without entropy =      -29.90889707  energy(sigma->0) =      -29.90731456


--------------------------------------------------------------------------------------------------------




--------------------------------------- Iteration      1(  17)  ---------------------------------------


    POTLOK:  cpu time    3.5519: real time    3.6095
    SETDIJ:  cpu time    0.0196: real time    0.0196
     EDDAV:  cpu time   17.9014: real time   17.9802
       DOS:  cpu time    0.0305: real time    0.0305
    CHARGE:  cpu time    0.9953: real time    0.9987
    MIXING:  cpu time    0.1287: real time    0.1296
    --------------------------------------------
      LOOP:  cpu time   22.6273: real time   22.7681

 eigenvalue-minimisations  :   448
 total energy-change (2. order) :-0.1045910E+01  (-0.2030391E-01)
 number of electron     143.0000460 magnetization       2.3565030
 augmentation part       91.7615017 magnetization       1.2444005

 Broyden mixing:
  rms(total) = 0.46233E-01    rms(broyden)= 0.46229E-01
  rms(prec ) = 0.48074E-01
  weight for this iteration     100.00

 eigenvalues of (default mixing * dielectric matrix)
  average eigenvalue GAMMA=   1.4107
  5.5251  3.1082  1.8918  1.1590  1.1590  0.8004  0.8004  0.6136  0.5150  0.4730
  0.4416  0.4416

 Free energy of the ion-electron system (eV)
  ---------------------------------------------------
  alpha Z        PSCENC =        10.04915207
  Ewald energy   TEWEN  =     24309.94384867
  -Hartree energ DENC   =    -40745.68198267
  -exchange      EXHF   =         0.00000000
  -V(xc)+E(xc)   XCENC  =       576.66524834
  PAW double counting   =     16741.38657748   -18135.42172194
  entropy T*S    EENTRO =         0.00204160
  eigenvalues    EBANDS =      -870.34491917
  atomic energy  EATOM  =     18082.44932260
  Solvation  Ediel_sol  =         0.00000000
  ---------------------------------------------------
  free energy    TOTEN  =       -30.95243302 eV

  energy without entropy =      -30.95447462  energy(sigma->0) =      -30.95311355


--------------------------------------------------------------------------------------------------------




--------------------------------------- Iteration      1(  18)  ---------------------------------------


    POTLOK:  cpu time    2.6765: real time    2.6906
    SETDIJ:  cpu time    0.0223: real time    0.0224
     EDDAV:  cpu time   20.4268: real time   20.7754
       DOS:  cpu time    0.0182: real time    0.0182
    CHARGE:  cpu time    0.9371: real time    0.9543
    MIXING:  cpu time    0.1466: real time    0.1474
    --------------------------------------------
      LOOP:  cpu time   24.2275: real time   24.6083

 eigenvalue-minimisations  :   552
 total energy-change (2. order) :-0.5280364E+00  (-0.7576596E-02)
 number of electron     143.0000459 magnetization       1.8341309
 augmentation part       91.7327335 magnetization       0.8416164

 Broyden mixing:
  rms(total) = 0.33294E-01    rms(broyden)= 0.33288E-01
  rms(prec ) = 0.35171E-01
  weight for this iteration     100.00

 eigenvalues of (default mixing * dielectric matrix)
  average eigenvalue GAMMA=   1.4437
  6.4739  2.6839  2.4358  1.1504  1.1504  0.8671  0.8671  0.6280  0.5878  0.5878
  0.4573  0.4573  0.4214

 Free energy of the ion-electron system (eV)
  ---------------------------------------------------
  alpha Z        PSCENC =        10.04915207
  Ewald energy   TEWEN  =     24309.94384867
  -Hartree energ DENC   =    -40741.57881319
  -exchange      EXHF   =         0.00000000
  -V(xc)+E(xc)   XCENC  =       576.13884332
  PAW double counting   =     16741.55933520   -18136.67114040
  entropy T*S    EENTRO =        -0.00568513
  eigenvalues    EBANDS =      -873.36533254
  atomic energy  EATOM  =     18082.44932260
  Solvation  Ediel_sol  =         0.00000000
  ---------------------------------------------------
  free energy    TOTEN  =       -31.48046941 eV

  energy without entropy =      -31.47478428  energy(sigma->0) =      -31.47857437


--------------------------------------------------------------------------------------------------------




--------------------------------------- Iteration      1(  19)  ---------------------------------------


    POTLOK:  cpu time    2.6848: real time    2.7084
    SETDIJ:  cpu time    0.0205: real time    0.0235
     EDDAV:  cpu time   18.0594: real time   18.3420
       DOS:  cpu time    0.1123: real time    0.1124
    CHARGE:  cpu time    1.0177: real time    1.0239
    MIXING:  cpu time    0.1583: real time    0.1595
    --------------------------------------------
      LOOP:  cpu time   22.0531: real time   22.3696

 eigenvalue-minimisations  :   536
 total energy-change (2. order) :-0.5065929E+00  (-0.3837968E-02)
 number of electron     143.0000459 magnetization       1.4574874
 augmentation part       91.7770858 magnetization       0.5973057

 Broyden mixing:
  rms(total) = 0.21876E-01    rms(broyden)= 0.21865E-01
  rms(prec ) = 0.23348E-01
  weight for this iteration     100.00

 eigenvalues of (default mixing * dielectric matrix)
  average eigenvalue GAMMA=   1.5216
  7.4141  2.7877  2.7877  1.1356  1.1356  1.0461  1.0461  0.8203  0.6500  0.6500
  0.4881  0.4609  0.4609  0.4195

 Free energy of the ion-electron system (eV)
  ---------------------------------------------------
  alpha Z        PSCENC =        10.04915207
  Ewald energy   TEWEN  =     24309.94384867
  -Hartree energ DENC   =    -40735.25030743
  -exchange      EXHF   =         0.00000000
  -V(xc)+E(xc)   XCENC  =       575.50520493
  PAW double counting   =     16742.25085126   -18137.23945868
  entropy T*S    EENTRO =        -0.01449272
  eigenvalues    EBANDS =      -879.68118296
  atomic energy  EATOM  =     18082.44932260
  Solvation  Ediel_sol  =         0.00000000
  ---------------------------------------------------
  free energy    TOTEN  =       -31.98706227 eV

  energy without entropy =      -31.97256955  energy(sigma->0) =      -31.98223137


--------------------------------------------------------------------------------------------------------




--------------------------------------- Iteration      1(  20)  ---------------------------------------


    POTLOK:  cpu time    2.5020: real time    2.5613
    SETDIJ:  cpu time    0.0209: real time    0.0210
     EDDAV:  cpu time   16.5281: real time   17.0125
       DOS:  cpu time    0.0067: real time    0.0067
    CHARGE:  cpu time    0.9784: real time    1.1379
    MIXING:  cpu time    0.1648: real time    0.1658
    --------------------------------------------
      LOOP:  cpu time   20.2009: real time   20.9051

 eigenvalue-minimisations  :   520
 total energy-change (2. order) :-0.3302712E+00  (-0.9728211E-03)
 number of electron     143.0000459 magnetization       1.1816601
 augmentation part       91.7663332 magnetization       0.4109931

 Broyden mixing:
  rms(total) = 0.15013E-01    rms(broyden)= 0.15002E-01
  rms(prec ) = 0.16423E-01
  weight for this iteration     100.00

 eigenvalues of (default mixing * dielectric matrix)
  average eigenvalue GAMMA=   1.6127
  8.5676  3.0899  3.0899  1.4766  1.1373  1.1373  0.9182  0.9182  0.6840  0.6840
  0.6660  0.4741  0.4634  0.4634  0.4207

 Free energy of the ion-electron system (eV)
  ---------------------------------------------------
  alpha Z        PSCENC =        10.04915207
  Ewald energy   TEWEN  =     24309.94384867
  -Hartree energ DENC   =    -40732.86399693
  -exchange      EXHF   =         0.00000000
  -V(xc)+E(xc)   XCENC  =       575.16100398
  PAW double counting   =     16750.66701999   -18146.07205551
  entropy T*S    EENTRO =        -0.02189652
  eigenvalues    EBANDS =      -881.62973183
  atomic energy  EATOM  =     18082.44932260
  Solvation  Ediel_sol  =         0.00000000
  ---------------------------------------------------
  free energy    TOTEN  =       -32.31733348 eV

  energy without entropy =      -32.29543696  energy(sigma->0) =      -32.31003464


--------------------------------------------------------------------------------------------------------




--------------------------------------- Iteration      1(  21)  ---------------------------------------


    POTLOK:  cpu time    2.5263: real time    2.5454
    SETDIJ:  cpu time    0.0270: real time    0.0271
     EDDAV:  cpu time   17.6274: real time   17.7679
       DOS:  cpu time    0.0089: real time    0.0089
    CHARGE:  cpu time    1.0071: real time    1.0135
    MIXING:  cpu time    0.1739: real time    0.1746
    --------------------------------------------
      LOOP:  cpu time   21.3707: real time   21.5374

 eigenvalue-minimisations  :   528
 total energy-change (2. order) :-0.2499780E+00  (-0.5975787E-03)
 number of electron     143.0000459 magnetization       0.9760903
 augmentation part       91.7678496 magnetization       0.2711082

 Broyden mixing:
  rms(total) = 0.10814E-01    rms(broyden)= 0.10804E-01
  rms(prec ) = 0.11888E-01
  weight for this iteration     100.00

 eigenvalues of (default mixing * dielectric matrix)
  average eigenvalue GAMMA=   1.6613
  9.5379  3.2829  3.2829  1.8021  1.1456  1.1456  0.9182  0.9182  0.8866  0.6666
  0.6666  0.4984  0.4703  0.4703  0.4706  0.4186

 Free energy of the ion-electron system (eV)
  ---------------------------------------------------
  alpha Z        PSCENC =        10.04915207
  Ewald energy   TEWEN  =     24309.94384867
  -Hartree energ DENC   =    -40729.53124211
  -exchange      EXHF   =         0.00000000
  -V(xc)+E(xc)   XCENC  =       574.88210604
  PAW double counting   =     16752.90380008   -18148.19761751
  entropy T*S    EENTRO =        -0.02657371
  eigenvalues    EBANDS =      -885.04010758
  atomic energy  EATOM  =     18082.44932260
  Solvation  Ediel_sol  =         0.00000000
  ---------------------------------------------------
  free energy    TOTEN  =       -32.56731145 eV

  energy without entropy =      -32.54073774  energy(sigma->0) =      -32.55845355


--------------------------------------------------------------------------------------------------------




--------------------------------------- Iteration      1(  22)  ---------------------------------------


    POTLOK:  cpu time    2.8693: real time    2.8774
    SETDIJ:  cpu time    0.1958: real time    0.1959
     EDDAV:  cpu time   18.9017: real time   19.5289
       DOS:  cpu time    0.0177: real time    0.0177
    CHARGE:  cpu time    0.9893: real time    0.9909
    MIXING:  cpu time    0.2067: real time    0.2072
    --------------------------------------------
      LOOP:  cpu time   23.1804: real time   23.8179

 eigenvalue-minimisations  :   524
 total energy-change (2. order) :-0.1183093E+00  (-0.3762569E-03)
 number of electron     143.0000460 magnetization       0.8186688
 augmentation part       91.7812968 magnetization       0.1731486

 Broyden mixing:
  rms(total) = 0.76799E-02    rms(broyden)= 0.76704E-02
  rms(prec ) = 0.84957E-02
  weight for this iteration     100.00

 eigenvalues of (default mixing * dielectric matrix)
  average eigenvalue GAMMA=   1.6901
 10.1831  3.4937  3.4937  1.9571  1.1260  1.1260  1.2377  0.8907  0.8907  0.7465
  0.6327  0.6327  0.4201  0.4605  0.4605  0.4904  0.4904

 Free energy of the ion-electron system (eV)
  ---------------------------------------------------
  alpha Z        PSCENC =        10.04915207
  Ewald energy   TEWEN  =     24309.94384867
  -Hartree energ DENC   =    -40726.82598050
  -exchange      EXHF   =         0.00000000
  -V(xc)+E(xc)   XCENC  =       574.73248016
  PAW double counting   =     16751.44522131   -18146.42663505
  entropy T*S    EENTRO =        -0.03044822
  eigenvalues    EBANDS =      -888.02258174
  atomic energy  EATOM  =     18082.44932260
  Solvation  Ediel_sol  =         0.00000000
  ---------------------------------------------------
  free energy    TOTEN  =       -32.68562071 eV

  energy without entropy =      -32.65517249  energy(sigma->0) =      -32.67547130


--------------------------------------------------------------------------------------------------------




--------------------------------------- Iteration      1(  23)  ---------------------------------------


    POTLOK:  cpu time    3.0363: real time    3.2199
    SETDIJ:  cpu time    0.0276: real time    0.0276
     EDDAV:  cpu time   14.5795: real time   14.8272
       DOS:  cpu time    0.0233: real time    0.0234
    CHARGE:  cpu time    0.9848: real time    0.9863
    MIXING:  cpu time    0.2083: real time    0.2086
    --------------------------------------------
      LOOP:  cpu time   18.8599: real time   19.2931

 eigenvalue-minimisations  :   460
 total energy-change (2. order) :-0.5182694E-01  (-0.1444763E-03)
 number of electron     143.0000459 magnetization       0.7052670
 augmentation part       91.7820628 magnetization       0.1095414

 Broyden mixing:
  rms(total) = 0.52549E-02    rms(broyden)= 0.52455E-02
  rms(prec ) = 0.59286E-02
  weight for this iteration     100.00

 eigenvalues of (default mixing * dielectric matrix)
  average eigenvalue GAMMA=   1.7235
 10.8675  3.6818  3.6818  2.1236  1.4831  1.1306  1.1306  0.9123  0.9123  0.8346
  0.6808  0.6808  0.6000  0.4208  0.4669  0.4669  0.4902  0.4580

 Free energy of the ion-electron system (eV)
  ---------------------------------------------------
  alpha Z        PSCENC =        10.04915207
  Ewald energy   TEWEN  =     24309.94384867
  -Hartree energ DENC   =    -40725.91577653
  -exchange      EXHF   =         0.00000000
  -V(xc)+E(xc)   XCENC  =       574.67905008
  PAW double counting   =     16752.67273026   -18147.57613086
  entropy T*S    EENTRO =        -0.03351372
  eigenvalues    EBANDS =      -889.00613022
  atomic energy  EATOM  =     18082.44932260
  Solvation  Ediel_sol  =         0.00000000
  ---------------------------------------------------
  free energy    TOTEN  =       -32.73744765 eV

  energy without entropy =      -32.70393393  energy(sigma->0) =      -32.72627641


--------------------------------------------------------------------------------------------------------




--------------------------------------- Iteration      1(  24)  ---------------------------------------


    POTLOK:  cpu time    2.7332: real time    2.9369
    SETDIJ:  cpu time    0.0272: real time    0.0273
     EDDAV:  cpu time   14.7008: real time   15.2924
       DOS:  cpu time    0.0273: real time    0.0273
    CHARGE:  cpu time    1.0339: real time    1.0371
    MIXING:  cpu time    0.2246: real time    0.2250
    --------------------------------------------
      LOOP:  cpu time   18.7471: real time   19.5460

 eigenvalue-minimisations  :   392
 total energy-change (2. order) :-0.2459512E-01  (-0.7695088E-04)
 number of electron     143.0000459 magnetization       0.6365907
 augmentation part       91.7765032 magnetization       0.0835356

 Broyden mixing:
  rms(total) = 0.36084E-02    rms(broyden)= 0.35988E-02
  rms(prec ) = 0.41842E-02
  weight for this iteration     100.00

 eigenvalues of (default mixing * dielectric matrix)
  average eigenvalue GAMMA=   1.7327
 11.4048  3.8403  3.8403  2.1810  1.6953  1.1378  1.1378  0.9748  0.9748  0.8308
  0.8308  0.6464  0.6464  0.4201  0.4997  0.4783  0.4783  0.4516  0.4516

 Free energy of the ion-electron system (eV)
  ---------------------------------------------------
  alpha Z        PSCENC =        10.04915207
  Ewald energy   TEWEN  =     24309.94384867
  -Hartree energ DENC   =    -40725.40103512
  -exchange      EXHF   =         0.00000000
  -V(xc)+E(xc)   XCENC  =       574.66190730
  PAW double counting   =     16753.16045952   -18148.09355934
  entropy T*S    EENTRO =        -0.03589157
  eigenvalues    EBANDS =      -889.49624689
  atomic energy  EATOM  =     18082.44932260
  Solvation  Ediel_sol  =         0.00000000
  ---------------------------------------------------
  free energy    TOTEN  =       -32.76204276 eV

  energy without entropy =      -32.72615120  energy(sigma->0) =      -32.75007891


--------------------------------------------------------------------------------------------------------




--------------------------------------- Iteration      1(  25)  ---------------------------------------


    POTLOK:  cpu time    2.5137: real time    2.5249
    SETDIJ:  cpu time    0.0288: real time    0.0289
     EDDAV:  cpu time   15.1583: real time   15.5988
       DOS:  cpu time    0.0272: real time    0.0272
    CHARGE:  cpu time    1.0093: real time    1.0153
    MIXING:  cpu time    0.2436: real time    0.2445
    --------------------------------------------
      LOOP:  cpu time   18.9808: real time   19.4394

 eigenvalue-minimisations  :   328
 total energy-change (2. order) :-0.1326084E-01  (-0.4564618E-04)
 number of electron     143.0000459 magnetization       0.5955596
 augmentation part       91.7719614 magnetization       0.0714639

 Broyden mixing:
  rms(total) = 0.29276E-02    rms(broyden)= 0.29212E-02
  rms(prec ) = 0.33980E-02
  weight for this iteration     100.00

 eigenvalues of (default mixing * dielectric matrix)
  average eigenvalue GAMMA=   1.7444
 11.7544  3.9762  3.9762  2.1069  2.1069  1.1380  1.1380  1.1188  1.1188  0.9051
  0.9051  0.6408  0.6408  0.6369  0.4851  0.4851  0.4611  0.4611  0.4245  0.4085

 Free energy of the ion-electron system (eV)
  ---------------------------------------------------
  alpha Z        PSCENC =        10.04915207
  Ewald energy   TEWEN  =     24309.94384867
  -Hartree energ DENC   =    -40724.81281729
  -exchange      EXHF   =         0.00000000
  -V(xc)+E(xc)   XCENC  =       574.65168918
  PAW double counting   =     16752.93713288   -18147.90686015
  entropy T*S    EENTRO =        -0.03746383
  eigenvalues    EBANDS =      -890.04930774
  atomic energy  EATOM  =     18082.44932260
  Solvation  Ediel_sol  =         0.00000000
  ---------------------------------------------------
  free energy    TOTEN  =       -32.77530361 eV

  energy without entropy =      -32.73783978  energy(sigma->0) =      -32.76281566


--------------------------------------------------------------------------------------------------------




--------------------------------------- Iteration      1(  26)  ---------------------------------------


    POTLOK:  cpu time    2.6909: real time    2.8051
    SETDIJ:  cpu time    0.0270: real time    0.0270
     EDDAV:  cpu time   13.6647: real time   14.4963
       DOS:  cpu time    0.0211: real time    0.0211
    CHARGE:  cpu time    1.0164: real time    1.1433
    MIXING:  cpu time    0.2490: real time    0.2573
    --------------------------------------------
      LOOP:  cpu time   17.6690: real time   18.7501

 eigenvalue-minimisations  :   312
 total energy-change (2. order) :-0.1093230E-01  (-0.3216053E-04)
 number of electron     143.0000459 magnetization       0.5538014
 augmentation part       91.7729678 magnetization       0.0504975

 Broyden mixing:
  rms(total) = 0.25367E-02    rms(broyden)= 0.25322E-02
  rms(prec ) = 0.28474E-02
  weight for this iteration     100.00

 eigenvalues of (default mixing * dielectric matrix)
  average eigenvalue GAMMA=   1.7618
 12.1147  4.1622  4.1622  2.3788  2.3788  1.1420  1.1420  1.2134  1.2134  0.9036
  0.9036  0.6923  0.6552  0.6552  0.5855  0.4643  0.4643  0.4843  0.4843  0.4197
  0.3778

 Free energy of the ion-electron system (eV)
  ---------------------------------------------------
  alpha Z        PSCENC =        10.04915207
  Ewald energy   TEWEN  =     24309.94384867
  -Hartree energ DENC   =    -40724.02776904
  -exchange      EXHF   =         0.00000000
  -V(xc)+E(xc)   XCENC  =       574.63498848
  PAW double counting   =     16752.17923929   -18147.12970945
  entropy T*S    EENTRO =        -0.03863077
  eigenvalues    EBANDS =      -890.84667776
  atomic energy  EATOM  =     18082.44932260
  Solvation  Ediel_sol  =         0.00000000
  ---------------------------------------------------
  free energy    TOTEN  =       -32.78623591 eV

  energy without entropy =      -32.74760514  energy(sigma->0) =      -32.77335899


--------------------------------------------------------------------------------------------------------




--------------------------------------- Iteration      1(  27)  ---------------------------------------


    POTLOK:  cpu time    2.6102: real time    2.6854
    SETDIJ:  cpu time    0.0250: real time    0.0250
     EDDAV:  cpu time   12.0263: real time   12.0598
       DOS:  cpu time    0.0110: real time    0.0111
    CHARGE:  cpu time    1.0303: real time    1.0322
    MIXING:  cpu time    0.2633: real time    0.2639
    --------------------------------------------
      LOOP:  cpu time   15.9661: real time   16.0774

 eigenvalue-minimisations  :   312
 total energy-change (2. order) :-0.8989747E-02  (-0.3033121E-04)
 number of electron     143.0000459 magnetization       0.5133843
 augmentation part       91.7754684 magnetization       0.0323299

 Broyden mixing:
  rms(total) = 0.20831E-02    rms(broyden)= 0.20776E-02
  rms(prec ) = 0.22658E-02
  weight for this iteration     100.00

 eigenvalues of (default mixing * dielectric matrix)
  average eigenvalue GAMMA=   1.7910
 12.5406  4.4797  4.4797  2.6437  2.6437  1.3304  1.3304  1.1365  1.1365  0.9019
  0.9019  0.7885  0.6679  0.6679  0.6432  0.4884  0.4884  0.4623  0.4623  0.4229
  0.4290  0.3568

 Free energy of the ion-electron system (eV)
  ---------------------------------------------------
  alpha Z        PSCENC =        10.04915207
  Ewald energy   TEWEN  =     24309.94384867
  -Hartree energ DENC   =    -40723.28756500
  -exchange      EXHF   =         0.00000000
  -V(xc)+E(xc)   XCENC  =       574.61797031
  PAW double counting   =     16751.81706521   -18146.73693129
  entropy T*S    EENTRO =        -0.03989739
  eigenvalues    EBANDS =      -891.60819083
  atomic energy  EATOM  =     18082.44932260
  Solvation  Ediel_sol  =         0.00000000
  ---------------------------------------------------
  free energy    TOTEN  =       -32.79522566 eV

  energy without entropy =      -32.75532827  energy(sigma->0) =      -32.78192653


--------------------------------------------------------------------------------------------------------




--------------------------------------- Iteration      1(  28)  ---------------------------------------


    POTLOK:  cpu time    2.4492: real time    2.4704
    SETDIJ:  cpu time    0.0258: real time    0.0258
     EDDAV:  cpu time   12.5037: real time   12.5547
       DOS:  cpu time    0.0231: real time    0.0231
    CHARGE:  cpu time    1.0380: real time    1.0453
    MIXING:  cpu time    0.2672: real time    0.2807
    --------------------------------------------
      LOOP:  cpu time   16.3070: real time   16.4001

 eigenvalue-minimisations  :   320
 total energy-change (2. order) :-0.5689259E-02  (-0.2922689E-04)
 number of electron     143.0000459 magnetization       0.4813664
 augmentation part       91.7772573 magnetization       0.0228089

 Broyden mixing:
  rms(total) = 0.16956E-02    rms(broyden)= 0.16892E-02
  rms(prec ) = 0.18141E-02
  weight for this iteration     100.00

 eigenvalues of (default mixing * dielectric matrix)
  average eigenvalue GAMMA=   1.8003
 12.9598  4.7381  4.7381  2.7784  2.7784  1.3792  1.3792  1.1321  1.1321  0.9155
  0.9155  0.7813  0.7813  0.7199  0.6240  0.6240  0.4830  0.4830  0.4634  0.4634
  0.4208  0.4033  0.3136

 Free energy of the ion-electron system (eV)
  ---------------------------------------------------
  alpha Z        PSCENC =        10.04915207
  Ewald energy   TEWEN  =     24309.94384867
  -Hartree energ DENC   =    -40722.76367146
  -exchange      EXHF   =         0.00000000
  -V(xc)+E(xc)   XCENC  =       574.60675840
  PAW double counting   =     16751.98696041   -18146.91786014
  entropy T*S    EENTRO =        -0.04105929
  eigenvalues    EBANDS =      -892.11436617
  atomic energy  EATOM  =     18082.44932260
  Solvation  Ediel_sol  =         0.00000000
  ---------------------------------------------------
  free energy    TOTEN  =       -32.80091492 eV

  energy without entropy =      -32.75985563  energy(sigma->0) =      -32.78722849


--------------------------------------------------------------------------------------------------------




--------------------------------------- Iteration      1(  29)  ---------------------------------------


    POTLOK:  cpu time    2.4999: real time    2.5302
    SETDIJ:  cpu time    0.0208: real time    0.0209
     EDDAV:  cpu time   12.9962: real time   13.1125
       DOS:  cpu time    0.0090: real time    0.0090
    CHARGE:  cpu time    1.0267: real time    1.0405
    MIXING:  cpu time    0.2898: real time    0.3086
    --------------------------------------------
      LOOP:  cpu time   16.8424: real time   17.0217

 eigenvalue-minimisations  :   288
 total energy-change (2. order) :-0.3520018E-02  (-0.1588849E-04)
 number of electron     143.0000459 magnetization       0.4565479
 augmentation part       91.7755987 magnetization       0.0166149

 Broyden mixing:
  rms(total) = 0.12730E-02    rms(broyden)= 0.12669E-02
  rms(prec ) = 0.13421E-02
  weight for this iteration     100.00

 eigenvalues of (default mixing * dielectric matrix)
  average eigenvalue GAMMA=   1.8192
 13.5606  5.0829  5.0829  2.8773  2.8773  1.5212  1.1323  1.1323  1.1704  0.9527
  0.9527  0.9161  0.9161  0.7100  0.6155  0.6155  0.5165  0.5165  0.4631  0.4631
  0.4626  0.4204  0.3908  0.3124

 Free energy of the ion-electron system (eV)
  ---------------------------------------------------
  alpha Z        PSCENC =        10.04915207
  Ewald energy   TEWEN  =     24309.94384867
  -Hartree energ DENC   =    -40722.46494880
  -exchange      EXHF   =         0.00000000
  -V(xc)+E(xc)   XCENC  =       574.60261347
  PAW double counting   =     16752.24205792   -18147.20290977
  entropy T*S    EENTRO =        -0.04195217
  eigenvalues    EBANDS =      -892.38161891
  atomic energy  EATOM  =     18082.44932260
  Solvation  Ediel_sol  =         0.00000000
  ---------------------------------------------------
  free energy    TOTEN  =       -32.80443493 eV

  energy without entropy =      -32.76248276  energy(sigma->0) =      -32.79045088


--------------------------------------------------------------------------------------------------------




--------------------------------------- Iteration      1(  30)  ---------------------------------------


    POTLOK:  cpu time    2.6532: real time    2.6818
    SETDIJ:  cpu time    0.0222: real time    0.0223
     EDDAV:  cpu time   10.7932: real time   11.0617
       DOS:  cpu time    0.0092: real time    0.0092
    CHARGE:  cpu time    1.3439: real time    1.6177
    MIXING:  cpu time    0.3251: real time    0.3307
    --------------------------------------------
      LOOP:  cpu time   15.1469: real time   15.7234

 eigenvalue-minimisations  :   284
 total energy-change (2. order) :-0.2292059E-02  (-0.1159622E-04)
 number of electron     143.0000459 magnetization       0.4376888
 augmentation part       91.7753814 magnetization       0.0142277

 Broyden mixing:
  rms(total) = 0.11475E-02    rms(broyden)= 0.11427E-02
  rms(prec ) = 0.11946E-02
  weight for this iteration     100.00

 eigenvalues of (default mixing * dielectric matrix)
  average eigenvalue GAMMA=   1.8262
 14.1081  5.4953  5.1577  2.9580  2.9580  1.6902  1.1330  1.1330  1.1323  1.0345
  1.0345  0.9277  0.9277  0.6366  0.6366  0.6648  0.6322  0.4918  0.4699  0.4699
  0.4627  0.4199  0.4373  0.3594  0.2836

 Free energy of the ion-electron system (eV)
  ---------------------------------------------------
  alpha Z        PSCENC =        10.04915207
  Ewald energy   TEWEN  =     24309.94384867
  -Hartree energ DENC   =    -40722.23604864
  -exchange      EXHF   =         0.00000000
  -V(xc)+E(xc)   XCENC  =       574.59939567
  PAW double counting   =     16752.29210616   -18147.26185270
  entropy T*S    EENTRO =        -0.04269171
  eigenvalues    EBANDS =      -892.59995910
  atomic energy  EATOM  =     18082.44932260
  Solvation  Ediel_sol  =         0.00000000
  ---------------------------------------------------
  free energy    TOTEN  =       -32.80672699 eV

  energy without entropy =      -32.76403528  energy(sigma->0) =      -32.79249642


--------------------------------------------------------------------------------------------------------




--------------------------------------- Iteration      1(  31)  ---------------------------------------


    POTLOK:  cpu time    2.7885: real time    2.8099
    SETDIJ:  cpu time    0.1979: real time    0.1982
     EDDAV:  cpu time   12.5812: real time   12.6475
[...]
     26      -6.4478      1.00000
     27      -6.3677      1.00000
     28      -6.2838      1.00000
     29      -6.2520      1.00000
     30      -6.2266      1.00000
     31      -6.2146      1.00000
     32      -6.1824      1.00000
     33      -6.1262      1.00000
     34      -6.0900      1.00000
     35      -6.0693      1.00000
     36      -6.0352      1.00000
     37      -5.9854      1.00000
     38      -5.9271      1.00000
     39      -5.8844      1.00000
     40      -5.8682      1.00000
     41      -5.8448      1.00000
     42      -5.8158      1.00000
     43      -5.7690      1.00000
     44      -5.7600      1.00000
     45      -5.7285      1.00000
     46      -5.7002      1.00000
     47      -5.6770      1.00000
     48      -5.6618      1.00000
     49      -5.6368      1.00000
     50      -5.6113      1.00000
     51      -5.5937      1.00000
     52      -5.5740      1.00000
     53      -5.5532      1.00000
     54      -5.5010      1.00000
     55      -5.4728      1.00000
     56      -5.4533      1.00000
     57      -5.4447      1.00000
     58      -5.3979      1.00000
     59      -5.3802      1.00000
     60      -5.3668      1.00000
     61      -5.3490      1.00000
     62      -5.3118      1.00000
     63      -5.2696      1.00000
     64      -5.2550      1.00000
     65      -5.2491      1.00000
     66      -5.2209      1.00000
     67      -5.2092      1.00000
     68      -5.1850      1.00000
     69      -4.9973      1.00000
     70      -4.7675      1.00000
     71      -4.5067      1.00003
     72      -3.8960      0.63750
     73      -3.7266      0.04665
     74      -3.1933     -0.00001
     75      -2.8529     -0.00000
     76      -2.5382     -0.00000
     77      -2.3064     -0.00000
     78      -2.0464     -0.00000
     79      -1.7970     -0.00000
     80      -1.6714     -0.00000
     81      -1.3419     -0.00000
     82      -1.0239     -0.00000
     83      -0.7581     -0.00000
     84      -0.6357     -0.00000
     85      -0.5436     -0.00000
     86      -0.2119     -0.00000
     87      -0.0092     -0.00000
     88       0.0388     -0.00000
     89       0.1385     -0.00000
     90       0.2768     -0.00000
     91       0.3354     -0.00000
     92       0.3466     -0.00000

 spin component 2

 k-point     1 :       0.0000    0.0000    0.0000
  band No.  band energies     occupation 
      1     -10.4729      1.00000
      2      -8.9976      1.00000
      3      -8.6555      1.00000
      4      -8.0280      1.00000
      5      -7.8905      1.00000
      6      -7.7655      1.00000
      7      -7.6388      1.00000
      8      -7.4396      1.00000
      9      -7.3435      1.00000
     10      -7.2879      1.00000
     11      -7.2391      1.00000
     12      -7.1534      1.00000
     13      -7.0901      1.00000
     14      -7.0747      1.00000
     15      -7.0282      1.00000
     16      -6.9620      1.00000
     17      -6.8906      1.00000
     18      -6.8507      1.00000
     19      -6.8148      1.00000
     20      -6.7931      1.00000
     21      -6.7006      1.00000
     22      -6.6420      1.00000
     23      -6.5786      1.00000
     24      -6.5344      1.00000
     25      -6.5172      1.00000
     26      -6.4373      1.00000
     27      -6.3563      1.00000
     28      -6.2750      1.00000
     29      -6.2429      1.00000
     30      -6.2173      1.00000
     31      -6.2050      1.00000
     32      -6.1723      1.00000
     33      -6.1136      1.00000
     34      -6.0808      1.00000
     35      -6.0603      1.00000
     36      -6.0239      1.00000
     37      -5.9746      1.00000
     38      -5.9174      1.00000
     39      -5.8754      1.00000
     40      -5.8591      1.00000
     41      -5.8352      1.00000
     42      -5.8068      1.00000
     43      -5.7590      1.00000
     44      -5.7515      1.00000
     45      -5.7189      1.00000
     46      -5.6910      1.00000
     47      -5.6694      1.00000
     48      -5.6527      1.00000
     49      -5.6302      1.00000
     50      -5.6023      1.00000
     51      -5.5851      1.00000
     52      -5.5641      1.00000
     53      -5.5429      1.00000
     54      -5.4934      1.00000
     55      -5.4656      1.00000
     56      -5.4460      1.00000
     57      -5.4349      1.00000
     58      -5.3875      1.00000
     59      -5.3681      1.00000
     60      -5.3564      1.00000
     61      -5.3416      1.00000
     62      -5.3007      1.00000
     63      -5.2603      1.00000
     64      -5.2465      1.00000
     65      -5.2405      1.00000
     66      -5.2097      1.00000
     67      -5.1990      1.00000
     68      -5.1764      1.00000
     69      -4.9834      1.00000
     70      -4.7498      1.00000
     71      -4.4873      1.00005
     72      -3.8175      0.31297
     73      -3.6971      0.00282
     74      -3.1694     -0.00001
     75      -2.8310     -0.00000
     76      -2.5165     -0.00000
     77      -2.2850     -0.00000
     78      -1.9968     -0.00000
     79      -1.7760     -0.00000
     80      -1.5888     -0.00000
     81      -1.3158     -0.00000
     82      -0.9919     -0.00000
     83      -0.7144     -0.00000
     84      -0.6132     -0.00000
     85      -0.5100     -0.00000
     86      -0.1723     -0.00000
     87       0.0232     -0.00000
     88       0.0535     -0.00000
     89       0.0950     -0.00000
     90       0.2500     -0.00000
     91       0.3132     -0.00000
     92       0.3337     -0.00000


--------------------------------------------------------------------------------------------------------


 soft charge-density along one line, spin component            1
         0         1         2         3         4         5         6         7         8         9
 total charge-density along one line
 
 soft charge-density along one line, spin component            2
         0         1         2         3         4         5         6         7         8         9
 total charge-density along one line
 
 pseudopotential strength for first ion, spin component:            1
-10.897   0.001   0.008   0.025   0.003   1.309  -0.001  -0.006
  0.001 -10.893   0.018  -0.004  -0.025  -0.001   1.306  -0.014
  0.008   0.018 -10.924   0.001   0.021  -0.006  -0.014   1.330
  0.025  -0.004   0.001 -10.920  -0.003  -0.019   0.003  -0.001
  0.003  -0.025   0.021  -0.003 -10.901  -0.002   0.020  -0.017
  1.309  -0.001  -0.006  -0.019  -0.002   6.082   0.001   0.004
 -0.001   1.306  -0.014   0.003   0.020   0.001   6.085   0.009
 -0.006  -0.014   1.330  -0.001  -0.017   0.004   0.009   6.069
 -0.019   0.003  -0.001   1.329   0.002   0.013  -0.002   0.001
 -0.002   0.020  -0.017   0.002   1.313   0.001  -0.013   0.012
  0.001  -0.008   0.003  -0.001   0.007   0.000   0.001   0.001
  0.002  -0.014   0.005  -0.001   0.013   0.000   0.001   0.001
 -0.001   0.006  -0.008   0.000  -0.013  -0.001  -0.002   0.008
  0.000   0.014   0.007   0.000  -0.001  -0.000  -0.014  -0.005
  0.014   0.000   0.000   0.004   0.001  -0.015  -0.000   0.001
 -0.001   0.006  -0.009   0.000  -0.016  -0.002  -0.002   0.010
  0.000   0.017   0.008   0.000  -0.001  -0.000  -0.019  -0.005
  0.017   0.000  -0.000   0.005   0.001  -0.020  -0.000   0.001
 pseudopotential strength for first ion, spin component:            2
-10.889   0.001   0.007   0.025   0.003   1.302  -0.001  -0.005
  0.001 -10.885   0.013  -0.003  -0.023  -0.001   1.299  -0.010
  0.007   0.013 -10.904  -0.001   0.015  -0.005  -0.010   1.315
  0.025  -0.003  -0.001 -10.913  -0.002  -0.020   0.002   0.001
  0.003  -0.023   0.015  -0.002 -10.890  -0.002   0.018  -0.012
  1.302  -0.001  -0.005  -0.020  -0.002   6.088   0.001   0.003
 -0.001   1.299  -0.010   0.002   0.018   0.001   6.090   0.007
 -0.005  -0.010   1.315   0.001  -0.012   0.003   0.007   6.079
 -0.020   0.002   0.001   1.322   0.001   0.013  -0.002  -0.001
 -0.002   0.018  -0.012   0.001   1.303   0.001  -0.012   0.009
  0.001  -0.008   0.003  -0.001   0.006   0.000   0.001  -0.000
  0.001  -0.014   0.005  -0.002   0.010   0.000   0.002   0.000
 -0.001   0.005  -0.007   0.000  -0.013  -0.001  -0.002   0.008
  0.000   0.014   0.006   0.000  -0.000  -0.000  -0.015  -0.004
  0.014   0.000   0.000   0.004   0.001  -0.015  -0.000   0.001
 -0.001   0.006  -0.009   0.000  -0.016  -0.002  -0.001   0.010
  0.000   0.017   0.007   0.000  -0.000  -0.000  -0.019  -0.004
  0.017   0.000   0.000   0.005   0.001  -0.019  -0.000   0.001
 total augmentation occupancy for first ion, spin component:            1
  1.937   0.007   0.002   0.009  -0.002  -0.023  -0.002  -0.002  -0.007  -0.006  -0.017   0.003  -0.012  -0.000  -0.012  -0.001
  0.007   1.940   0.005  -0.002  -0.010  -0.002  -0.024  -0.005  -0.003   0.005   0.021   0.008  -0.003  -0.010   0.004   0.007
  0.002   0.005   1.921   0.001   0.012  -0.002  -0.005  -0.011  -0.001  -0.007  -0.027  -0.004   0.017  -0.010   0.000  -0.006
  0.009  -0.002   0.001   1.934  -0.005  -0.007  -0.003  -0.001  -0.012  -0.001   0.012   0.004   0.003   0.003  -0.028   0.000
 -0.002  -0.010   0.012  -0.005   1.936  -0.006   0.005  -0.007  -0.001  -0.018  -0.008  -0.013   0.022  -0.001   0.013  -0.011
 -0.023  -0.002  -0.002  -0.007  -0.006   0.012   0.000  -0.000  -0.002  -0.001  -0.001  -0.000  -0.005  -0.000  -0.026   0.000
 -0.002  -0.024  -0.005  -0.003   0.005   0.000   0.012  -0.002  -0.001   0.001  -0.043   0.003   0.003  -0.023  -0.002  -0.001
 -0.002  -0.005  -0.011  -0.001  -0.007  -0.000  -0.002   0.015  -0.001  -0.002   0.022  -0.001   0.012  -0.011   0.002  -0.001
 -0.007  -0.003  -0.001  -0.012  -0.001  -0.002  -0.001  -0.001   0.016  -0.002  -0.015   0.002  -0.002  -0.006   0.001  -0.000
 -0.006   0.005  -0.007  -0.001  -0.018  -0.001   0.001  -0.002  -0.002   0.015   0.043  -0.002   0.019  -0.004  -0.004  -0.001
 -0.017   0.021  -0.027   0.012  -0.008  -0.001  -0.043   0.022  -0.015   0.043   1.692  -0.147  -0.143  -0.050  -0.017   0.021
  0.003   0.008  -0.004   0.004  -0.013  -0.000   0.003  -0.001   0.002  -0.002  -0.147   0.018   0.026   0.003   0.007  -0.003
 -0.012  -0.003   0.017   0.003   0.022  -0.005   0.003   0.012  -0.002   0.019  -0.143   0.026   0.121  -0.036  -0.005  -0.009
 -0.000  -0.010  -0.010   0.003  -0.001  -0.000  -0.023  -0.011  -0.006  -0.004  -0.050   0.003  -0.036   0.195  -0.018   0.002
 -0.012   0.004   0.000  -0.028   0.013  -0.026  -0.002   0.002   0.001  -0.004  -0.017   0.007  -0.005  -0.018   0.206   0.000
 -0.001   0.007  -0.006   0.000  -0.011   0.000  -0.001  -0.001  -0.000  -0.001   0.021  -0.003  -0.009   0.002   0.000   0.001
  0.000   0.010   0.009  -0.001  -0.000  -0.000   0.002   0.001   0.000   0.000   0.006  -0.001   0.002  -0.013   0.001  -0.000
  0.010   0.000   0.001   0.007  -0.002   0.002  -0.000  -0.000   0.000   0.000   0.004  -0.001   0.000   0.001  -0.014   0.000
 total augmentation occupancy for first ion, spin component:            2
 -0.000   0.000  -0.000   0.000   0.000  -0.000  -0.000   0.000  -0.000  -0.000  -0.000   0.000   0.000  -0.000  -0.000   0.000
  0.000   0.001  -0.003   0.001   0.001  -0.000  -0.000   0.001  -0.000  -0.000  -0.003  -0.001  -0.001   0.001  -0.000  -0.000
 -0.000  -0.003   0.007  -0.002  -0.003   0.000   0.001  -0.002   0.000   0.001   0.007   0.002   0.001  -0.003   0.001   0.000
  0.000   0.001  -0.002   0.000   0.001  -0.000  -0.000   0.000  -0.000  -0.000  -0.002  -0.000  -0.000   0.001  -0.000  -0.000
  0.000   0.001  -0.003   0.001   0.002  -0.000  -0.000   0.001  -0.000  -0.001  -0.004  -0.001  -0.000   0.001  -0.001  -0.000
 -0.000  -0.000   0.000  -0.000  -0.000   0.000   0.000  -0.000   0.000   0.000   0.000  -0.000  -0.000   0.000   0.000   0.000
 -0.000  -0.000   0.001  -0.000  -0.000   0.000   0.000  -0.000   0.000   0.000   0.001   0.000   0.000  -0.000   0.000   0.000
  0.000   0.001  -0.002   0.000   0.001  -0.000  -0.000   0.001  -0.000  -0.000  -0.002  -0.000  -0.000   0.001  -0.000   0.000
 -0.000  -0.000   0.000  -0.000  -0.000   0.000   0.000  -0.000  -0.000   0.000   0.001   0.000   0.000  -0.000  -0.000   0.000
 -0.000  -0.000   0.001  -0.000  -0.001   0.000   0.000  -0.000   0.000   0.000   0.001   0.000   0.000  -0.000   0.000   0.000
 -0.000  -0.003   0.007  -0.002  -0.004   0.000   0.001  -0.002   0.001   0.001   0.010   0.001   0.001  -0.005   0.000  -0.000
  0.000  -0.001   0.002  -0.000  -0.001  -0.000   0.000  -0.000   0.000   0.000   0.001   0.000   0.000  -0.000  -0.000  -0.000
  0.000  -0.001   0.001  -0.000  -0.000  -0.000   0.000  -0.000   0.000   0.000   0.001   0.000   0.000  -0.000   0.000   0.000
 -0.000   0.001  -0.003   0.001   0.001   0.000  -0.000   0.001  -0.000  -0.000  -0.005  -0.000  -0.000   0.001   0.000  -0.000
 -0.000  -0.000   0.001  -0.000  -0.001   0.000   0.000  -0.000  -0.000   0.000   0.000  -0.000   0.000   0.000   0.000   0.000
  0.000  -0.000   0.000  -0.000  -0.000   0.000   0.000   0.000   0.000   0.000  -0.000  -0.000   0.000  -0.000   0.000  -0.000
 -0.000   0.000  -0.000   0.000   0.000   0.000   0.000  -0.000   0.000   0.000   0.000   0.000  -0.000   0.000  -0.000   0.000
 -0.000  -0.000   0.000  -0.000  -0.000  -0.000   0.000   0.000   0.000  -0.000  -0.000   0.000  -0.000  -0.000  -0.000  -0.000


------------------------ aborting loop because EDIFF is reached ----------------------------------------


    CHARGE:  cpu time    1.0006: real time    1.0166
    FORLOC:  cpu time    0.0759: real time    0.0760
    FORNL :  cpu time    3.5067: real time    3.6820
    FORCOR:  cpu time    2.4946: real time    2.5103
    FORHAR:  cpu time    0.3173: real time    0.3183
    MIXING:  cpu time    0.0487: real time    0.0487
    OFIELD:  cpu time    0.0000: real time    0.0000

 VOLUME and BASIS-vectors are now :
 -----------------------------------------------------------------------------
  energy-cutoff  :      400.00
  volume of cell :    12298.99
      direct lattice vectors                 reciprocal lattice vectors
    24.349007592  0.000000000  0.000000000     0.041069436  0.000000000  0.000000000
     0.000000000 22.775387750  0.000000000     0.000000000  0.043907046  0.000000000
     0.000000000  0.000000000 22.178004379     0.000000000  0.000000000  0.045089720

  length of vectors
    24.349007592 22.775387750 22.178004379     0.041069436  0.043907046  0.045089720


 FORCES acting on ions
    electron-ion (+dipol)            ewald-force                    non-local-force                 convergence-correction
 -----------------------------------------------------------------------------------------------
   -.219E+03 -.994E+03 -.431E+03   0.220E+03 0.993E+03 0.429E+03   -.670E+00 0.147E+01 0.219E+01   -.199E-01 -.570E-02 -.142E-02
   0.627E+03 0.994E+03 -.461E+03   -.625E+03 -.991E+03 0.457E+03   -.198E+01 -.336E+01 0.382E+01   -.254E-03 -.219E-01 -.435E-02
   -.141E+02 0.734E+03 0.971E+03   0.129E+02 -.732E+03 -.968E+03   0.116E+01 -.177E+01 -.303E+01   -.216E-02 -.836E-03 -.194E-02
   -.125E+04 -.349E+03 -.476E+03   0.125E+04 0.347E+03 0.474E+03   0.638E+01 0.265E+01 0.183E+01   -.121E-01 0.107E-01 0.192E-01
   -.450E+03 0.238E+03 -.129E+04   0.448E+03 -.238E+03 0.128E+04   0.161E+01 -.514E+00 0.779E+01   -.202E-01 -.819E-02 0.807E-02
   -.767E+03 -.847E+03 0.776E+03   0.761E+03 0.842E+03 -.772E+03   0.573E+01 0.470E+01 -.389E+01   0.166E-01 0.514E-02 -.236E-01
   0.925E+03 0.749E+03 0.650E+03   -.920E+03 -.744E+03 -.646E+03   -.509E+01 -.522E+01 -.398E+01   0.614E-02 0.148E-01 -.372E-02
   -.501E+03 0.125E+04 -.286E+03   0.500E+03 -.124E+04 0.285E+03   0.160E+01 -.664E+01 0.745E+00   0.104E-01 0.182E-01 -.940E-03
   0.568E+03 -.288E+03 -.122E+04   -.565E+03 0.286E+03 0.121E+04   -.264E+01 0.203E+01 0.920E+01   0.781E-03 0.200E-03 0.250E-01
   0.104E+04 -.589E+03 -.434E+03   -.103E+04 0.586E+03 0.434E+03   -.286E+01 0.350E+01 0.399E+00   0.659E-02 -.126E-01 -.435E-02
   -.106E+04 0.526E+03 0.707E+03   0.105E+04 -.522E+03 -.701E+03   0.705E+01 -.394E+01 -.541E+01   -.508E-02 0.203E-01 0.666E-02
   0.113E+03 -.882E+03 0.886E+03   -.111E+03 0.878E+03 -.884E+03   -.136E+01 0.418E+01 -.209E+01   0.129E-01 0.940E-02 0.655E-02
   0.995E+03 -.542E+03 0.604E+03   -.986E+03 0.537E+03 -.598E+03   -.883E+01 0.539E+01 -.542E+01   -.151E-01 0.430E-02 -.537E-02
 -----------------------------------------------------------------------------------------------
   -.404E-01 -.256E+01 -.215E+01   -.114E-12 0.796E-12 0.114E-12   0.951E-01 0.247E+01 0.215E+01   -.215E-01 0.340E-01 0.197E-01
 
 
 POSITION                                       TOTAL-FORCE (eV/Angst)
 -----------------------------------------------------------------------------------
     12.50080     12.42905     11.33898        -0.005108     -0.005060     -0.001195
     11.34119     10.29729     11.48721         0.000706     -0.004306      0.000397
     12.55506     10.47981      9.28643         0.000987      0.000986     -0.001373
     14.80870     11.57575     11.36742        -0.002924      0.003941      0.006583
     13.18676     10.90021     13.10580        -0.005707     -0.003188      0.002178
     13.88213     12.44944      9.29741         0.003317     -0.002890     -0.007373
     10.14922     10.75306      9.41283         0.000383      0.002192     -0.005403
     13.66625      9.51386     11.17498         0.004438      0.003465      0.001088
     10.96315     11.90890     13.25543         0.001027     -0.003419      0.002277
      9.98835     12.40946     11.13951         0.003180     -0.002805      0.003641
     15.00747     10.28058      9.27880         0.002181      0.008066     -0.000441
     11.48381     12.73691      9.10131         0.002431      0.003792      0.000591
      9.09076     12.86134      8.94759        -0.004910     -0.000775     -0.000971
 -----------------------------------------------------------------------------------
    total drift:                                0.033281     -0.056521      0.025679


--------------------------------------------------------------------------------------------------------



  FREE ENERGIE OF THE ION-ELECTRON SYSTEM (eV)
  ---------------------------------------------------
  free  energy   TOTEN  =       -32.81126678 eV

  energy  without entropy=      -32.76543027  energy(sigma->0) =      -32.79598794
 
 d Force = 0.1727139E-04[ 0.161E-04, 0.184E-04]  d Energy = 0.1052965E-03-0.880E-04
 d Force = 0.1673656E+00[ 0.167E+00, 0.167E+00]  d Ewald  = 0.1673656E+00 0.114E-07


--------------------------------------------------------------------------------------------------------


    POTLOK:  cpu time    2.5661: real time    2.5819


--------------------------------------------------------------------------------------------------------




--------------------------------------------------------------------------------------------------------


  
 reached required accuracy - stopping structural energy minimisation
     LOOP+:  cpu time   41.0937: real time   41.8013
    4ORBIT:  cpu time    0.0000: real time    0.0000

 total amount of memory used by VASP MPI-rank0   154754. kBytes
=======================================================================

   base      :      30000. kBytes
   nonl-proj :       4916. kBytes
   fftplans  :      29551. kBytes
   grid      :      69672. kBytes
   one-center:         31. kBytes
   wavefun   :      20584. kBytes
 
  
  
 General timing and accounting informations for this job:
 ========================================================
  
                  Total CPU time used (sec):      817.546
                            User time (sec):      803.000
                          System time (sec):       14.546
                         Elapsed time (sec):      833.719
  
                   Maximum memory used (kb):      297736.
                   Average memory used (kb):           0.
  
                          Minor page faults:       912214
                          Major page faults:        31793
                 Voluntary context switches:         9033
