unknown system                          
            1
    24.349008    0.000000    0.000000
     0.000000   22.775388    0.000000
     0.000000    0.000000   22.178004
   Cu
    13
Direct configuration=     1
   0.51345003  0.54572973  0.51128320
   0.46577211  0.45217245  0.51799817
   0.51563866  0.46014502  0.41872003
   0.60819693  0.50827353  0.51251019
   0.54158916  0.47861977  0.59092588
   0.57009210  0.54662618  0.41928379
   0.41680893  0.47210428  0.42442062
   0.56123435  0.41768201  0.50387574
   0.45024021  0.52288299  0.59761132
   0.41020819  0.54488332  0.50232325
   0.61635785  0.45133977  0.41836535
   0.47161091  0.55923200  0.41035153
   0.37338414  0.56470591  0.40344627
Direct configuration=     2
   0.51341368  0.54572478  0.51127441
   0.46577505  0.45213646  0.51796657
   0.51563175  0.46013946  0.41872179
   0.60818810  0.50826122  0.51254237
   0.54157698  0.47860232  0.59093399
   0.57012095  0.54662040  0.41923519
   0.41681911  0.47212693  0.42442140
   0.56125703  0.41771405  0.50387638
   0.45024772  0.52288418  0.59766468
   0.41021383  0.54486819  0.50228939
   0.61635085  0.45137665  0.41837502
   0.47162771  0.55923808  0.41036920
   0.37336081  0.56470422  0.40344494
Direct configuration=     3
   0.51340064  0.54572300  0.51127126
   0.46577610  0.45212356  0.51795523
   0.51562927  0.46013747  0.41872242
   0.60818494  0.50825681  0.51255391
   0.54157262  0.47859607  0.59093691
   0.57013130  0.54661833  0.41921777
   0.41682276  0.47213505  0.42442167
   0.56126517  0.41772554  0.50387660
   0.45025041  0.52288461  0.59768381
   0.41021586  0.54486277  0.50227724
   0.61634833  0.45138988  0.41837849
   0.47163373  0.55924026  0.41037554
   0.37335245  0.56470362  0.40344447
