  13  13   0   0
  0.1017099E+04  0.2338015E-08  0.2520637E-08  0.2243618E-08  0.5000000E-15
   1.0000000000000000E-004
  CAR 
 unknown system                          
      2.39005963    -12.56416630  301     -3.82185144      1.00000000
    -12.564  0.0000E+00  0.0000E+00  0.0000E+00  0.0000E+00
    -12.514  0.0000E+00  0.0000E+00  0.0000E+00  0.0000E+00
    -12.464  0.0000E+00  0.0000E+00  0.0000E+00  0.0000E+00
    -12.415  0.0000E+00  0.0000E+00  0.0000E+00  0.0000E+00
    -12.365  0.0000E+00  0.0000E+00  0.0000E+00  0.0000E+00
    -12.315  0.0000E+00  0.0000E+00  0.0000E+00  0.0000E+00
    -12.265  0.0000E+00  0.0000E+00  0.0000E+00  0.0000E+00
    -12.215  0.0000E+00  0.0000E+00  0.0000E+00  0.0000E+00
    -12.165 -0.6590E-29 -0.1824E-29 -0.3285E-30 -0.9093E-31
    -12.116 -0.3180E-27 -0.9174E-28 -0.1618E-28 -0.4664E-29
    -12.066 -0.1378E-25 -0.4141E-26 -0.7032E-27 -0.2111E-27
    -12.016 -0.5268E-24 -0.1648E-24 -0.2696E-25 -0.8426E-26
    -11.966 -0.1775E-22 -0.5784E-23 -0.9119E-24 -0.2967E-24
    -11.916 -0.5274E-21 -0.1790E-21 -0.2720E-22 -0.9218E-23
    -11.866 -0.1381E-19 -0.4882E-20 -0.7157E-21 -0.2526E-21
    -11.816 -0.3188E-18 -0.1174E-18 -0.1661E-19 -0.6103E-20
    -11.767 -0.6482E-17 -0.2486E-17 -0.3397E-18 -0.1300E-18
    -11.717 -0.1128E-15 -0.4529E-16 -0.5962E-17 -0.2387E-17
    -11.667 -0.1772E-14 -0.7381E-15 -0.9428E-16 -0.3918E-16
    -11.617 -0.2453E-13 -0.1065E-13 -0.1317E-14 -0.5703E-15
    -11.567 -0.2987E-12 -0.1352E-12 -0.1621E-13 -0.7310E-14
    -11.517 -0.3197E-11 -0.1509E-11 -0.1756E-12 -0.8252E-13
    -11.468 -0.3006E-10 -0.1479E-10 -0.1674E-11 -0.8199E-12
    -11.418 -0.2481E-09 -0.1273E-09 -0.1404E-10 -0.7167E-11
    -11.368 -0.1795E-08 -0.9615E-09 -0.1035E-09 -0.5510E-10
    -11.318 -0.1138E-07 -0.6361E-08 -0.6706E-09 -0.3722E-09
    -11.268 -0.6302E-07 -0.3681E-07 -0.3812E-08 -0.2207E-08
    -11.218 -0.3046E-06 -0.1860E-06 -0.1900E-07 -0.1148E-07
    -11.168 -0.1281E-05 -0.8183E-06 -0.8284E-07 -0.5227E-07
    -11.119 -0.4665E-05 -0.3123E-05 -0.3154E-06 -0.2080E-06
    -11.069 -0.1463E-04 -0.1029E-04 -0.1045E-05 -0.7209E-06
    -11.019 -0.3916E-04 -0.2902E-04 -0.2997E-05 -0.2168E-05
    -10.969 -0.8798E-04 -0.6916E-04 -0.7382E-05 -0.5615E-05
    -10.919 -0.1609E-03 -0.1359E-03 -0.1540E-04 -0.1239E-04
    -10.869 -0.2222E-03 -0.2083E-03 -0.2648E-04 -0.2277E-04
    -10.820 -0.1723E-03 -0.2096E-03 -0.3507E-04 -0.3322E-04
    -10.770  0.1469E-03  0.4250E-05 -0.2775E-04 -0.3301E-04
    -10.720  0.8723E-03  0.5905E-03  0.1573E-04 -0.3570E-05
    -10.670  0.1979E-02  0.1592E-02  0.1144E-03  0.7580E-04
    -10.620  0.3186E-02  0.2813E-02  0.2732E-03  0.2160E-03
    -10.570  0.4032E-02  0.3827E-02  0.4742E-03  0.4067E-03
    -10.520  0.4134E-02  0.4194E-02  0.6803E-03  0.6158E-03
    -10.471  0.3445E-02  0.3740E-02  0.8520E-03  0.8022E-03
    -10.421  0.2282E-02  0.2680E-02  0.9657E-03  0.9358E-03
    -10.371  0.1114E-02  0.1466E-02  0.1021E-02  0.1009E-02
    -10.321  0.2841E-03  0.5050E-03  0.1035E-02  0.1034E-02
    -10.271 -0.1256E-03 -0.3496E-04  0.1029E-02  0.1032E-02
    -10.221 -0.2257E-03 -0.2169E-03  0.1018E-02  0.1022E-02
    -10.171 -0.1796E-03 -0.2019E-03  0.1009E-02  0.1011E-02
    -10.122 -0.1041E-03 -0.1275E-03  0.1004E-02  0.1005E-02
    -10.072 -0.4856E-04 -0.6343E-04  0.1001E-02  0.1002E-02
    -10.022 -0.1891E-04 -0.2611E-04  0.1000E-02  0.1001E-02
     -9.972 -0.6261E-05 -0.9097E-05  0.1000E-02  0.1000E-02
     -9.922 -0.1790E-05 -0.2723E-05  0.1000E-02  0.1000E-02
     -9.872 -0.4896E-06 -0.7403E-06  0.1000E-02  0.1000E-02
     -9.823 -0.3443E-06 -0.3572E-06  0.1000E-02  0.1000E-02
     -9.773 -0.1090E-05 -0.9065E-06  0.9999E-03  0.9999E-03
     -9.723 -0.3983E-05 -0.3325E-05  0.9997E-03  0.9998E-03
     -9.673 -0.1273E-04 -0.1086E-04  0.9991E-03  0.9992E-03
     -9.623 -0.3480E-04 -0.3039E-04  0.9974E-03  0.9977E-03
     -9.573 -0.8009E-04 -0.7179E-04  0.9934E-03  0.9941E-03
     -9.523 -0.1508E-03 -0.1396E-03  0.9859E-03  0.9872E-03
     -9.474 -0.2177E-03 -0.2109E-03  0.9750E-03  0.9767E-03
     -9.424 -0.1903E-03 -0.2055E-03  0.9655E-03  0.9664E-03
     -9.374  0.8458E-04  0.2292E-04  0.9697E-03  0.9676E-03
     -9.324  0.7535E-03  0.6296E-03  0.1007E-02  0.9989E-03
     -9.274  0.1820E-02  0.1648E-02  0.1098E-02  0.1081E-02
     -9.224  0.3032E-02  0.2865E-02  0.1249E-02  0.1224E-02
     -9.175  0.3936E-02  0.3846E-02  0.1445E-02  0.1416E-02
     -9.125  0.4112E-02  0.4148E-02  0.1650E-02  0.1622E-02
     -9.075  0.3452E-02  0.3605E-02  0.1822E-02  0.1802E-02
     -9.025  0.2249E-02  0.2452E-02  0.1934E-02  0.1924E-02
     -8.975  0.1029E-02  0.1187E-02  0.1986E-02  0.1983E-02
     -8.925  0.2917E-03  0.3137E-03  0.2000E-02  0.1999E-02
     -8.875  0.3179E-03  0.1493E-03  0.2016E-02  0.2007E-02
     -8.826  0.1098E-02  0.7496E-03  0.2071E-02  0.2044E-02
     -8.776  0.2333E-02  0.1904E-02  0.2187E-02  0.2139E-02
     -8.726  0.3516E-02  0.3171E-02  0.2362E-02  0.2297E-02
     -8.676  0.4126E-02  0.4018E-02  0.2568E-02  0.2497E-02
     -8.626  0.3892E-02  0.4071E-02  0.2762E-02  0.2700E-02
     -8.576  0.2946E-02  0.3325E-02  0.2909E-02  0.2866E-02
     -8.527  0.1709E-02  0.2129E-02  0.2994E-02  0.2972E-02
     -8.477  0.6138E-03  0.9437E-03  0.3025E-02  0.3019E-02
     -8.427 -0.1200E-03  0.7357E-04  0.3019E-02  0.3023E-02
     -8.377 -0.5032E-03 -0.4250E-03  0.2994E-02  0.3001E-02
     -8.327 -0.6194E-03 -0.6264E-03  0.2963E-02  0.2970E-02
     -8.277 -0.4531E-03 -0.5497E-03  0.2940E-02  0.2943E-02
     -8.227  0.1613E-03 -0.5977E-04  0.2948E-02  0.2940E-02
     -8.178  0.1428E-02  0.1063E-02  0.3019E-02  0.2993E-02
     -8.128  0.3385E-02  0.2921E-02  0.3188E-02  0.3138E-02
     -8.078  0.5748E-02  0.5303E-02  0.3475E-02  0.3403E-02
     -8.028  0.7942E-02  0.7659E-02  0.3871E-02  0.3785E-02
     -7.978  0.9333E-02  0.9297E-02  0.4336E-02  0.4248E-02
     -7.928  0.9539E-02  0.9722E-02  0.4811E-02  0.4733E-02
     -7.879  0.8639E-02  0.8906E-02  0.5242E-02  0.5177E-02
     -7.829  0.7177E-02  0.7351E-02  0.5600E-02  0.5543E-02
     -7.779  0.5941E-02  0.5890E-02  0.5896E-02  0.5837E-02
     -7.729  0.5601E-02  0.5311E-02  0.6175E-02  0.6101E-02
     -7.679  0.6360E-02  0.5952E-02  0.6492E-02  0.6398E-02
     -7.629  0.7842E-02  0.7504E-02  0.6883E-02  0.6772E-02
     -7.579  0.9316E-02  0.9191E-02  0.7347E-02  0.7230E-02
     -7.530  0.1018E-01  0.1028E-01  0.7855E-02  0.7743E-02
     -7.480  0.1039E-01  0.1059E-01  0.8373E-02  0.8271E-02
     -7.430  0.1043E-01  0.1056E-01  0.8892E-02  0.8797E-02
     -7.380  0.1089E-01  0.1085E-01  0.9435E-02  0.9338E-02
     -7.330  0.1197E-01  0.1178E-01  0.1003E-01  0.9925E-02
     -7.280  0.1334E-01  0.1308E-01  0.1070E-01  0.1058E-01
     -7.230  0.1455E-01  0.1428E-01  0.1142E-01  0.1129E-01
     -7.181  0.1540E-01  0.1514E-01  0.1219E-01  0.1204E-01
     -7.131  0.1596E-01  0.1573E-01  0.1299E-01  0.1283E-01
     -7.081  0.1634E-01  0.1619E-01  0.1380E-01  0.1363E-01
     -7.031  0.1658E-01  0.1657E-01  0.1463E-01  0.1446E-01
     -6.981  0.1676E-01  0.1686E-01  0.1546E-01  0.1530E-01
     -6.931  0.1704E-01  0.1714E-01  0.1631E-01  0.1616E-01
     -6.882  0.1759E-01  0.1761E-01  0.1719E-01  0.1703E-01
     -6.832  0.1841E-01  0.1833E-01  0.1811E-01  0.1795E-01
     -6.782  0.1931E-01  0.1916E-01  0.1907E-01  0.1890E-01
     -6.732  0.1999E-01  0.1987E-01  0.2006E-01  0.1989E-01
     -6.682  0.2025E-01  0.2023E-01  0.2107E-01  0.2090E-01
     -6.632  0.2001E-01  0.2011E-01  0.2207E-01  0.2190E-01
     -6.582  0.1932E-01  0.1951E-01  0.2303E-01  0.2288E-01
     -6.533  0.1846E-01  0.1867E-01  0.2395E-01  0.2381E-01
     -6.483  0.1799E-01  0.1807E-01  0.2485E-01  0.2471E-01
     -6.433  0.1836E-01  0.1823E-01  0.2577E-01  0.2562E-01
     -6.383  0.1964E-01  0.1930E-01  0.2675E-01  0.2658E-01
     -6.333  0.2129E-01  0.2086E-01  0.2781E-01  0.2762E-01
     -6.283  0.2251E-01  0.2215E-01  0.2893E-01  0.2872E-01
     -6.234  0.2280E-01  0.2263E-01  0.3007E-01  0.2985E-01
     -6.184  0.2224E-01  0.2227E-01  0.3117E-01  0.3096E-01
     -6.134  0.2143E-01  0.2158E-01  0.3224E-01  0.3204E-01
     -6.084  0.2117E-01  0.2129E-01  0.3330E-01  0.3310E-01
     -6.034  0.2212E-01  0.2207E-01  0.3440E-01  0.3420E-01
     -5.984  0.2452E-01  0.2420E-01  0.3562E-01  0.3540E-01
     -5.934  0.2807E-01  0.2751E-01  0.3702E-01  0.3677E-01
     -5.885  0.3214E-01  0.3145E-01  0.3862E-01  0.3834E-01
     -5.835  0.3602E-01  0.3537E-01  0.4042E-01  0.4011E-01
     -5.785  0.3916E-01  0.3869E-01  0.4237E-01  0.4203E-01
     -5.735  0.4121E-01  0.4099E-01  0.4442E-01  0.4408E-01
     -5.685  0.4206E-01  0.4206E-01  0.4652E-01  0.4617E-01
     -5.635  0.4196E-01  0.4205E-01  0.4861E-01  0.4827E-01
     -5.586  0.4154E-01  0.4153E-01  0.5068E-01  0.5034E-01
     -5.536  0.4159E-01  0.4134E-01  0.5276E-01  0.5240E-01
     -5.486  0.4255E-01  0.4204E-01  0.5488E-01  0.5450E-01
     -5.436  0.4408E-01  0.4350E-01  0.5708E-01  0.5667E-01
     -5.386  0.4513E-01  0.4480E-01  0.5932E-01  0.5890E-01
     -5.336  0.4439E-01  0.4462E-01  0.6154E-01  0.6112E-01
     -5.286  0.4095E-01  0.4188E-01  0.6358E-01  0.6321E-01
     -5.237  0.3470E-01  0.3621E-01  0.6531E-01  0.6502E-01
     -5.187  0.2647E-01  0.2823E-01  0.6663E-01  0.6642E-01
     -5.137  0.1783E-01  0.1941E-01  0.6752E-01  0.6739E-01
     -5.087  0.1051E-01  0.1158E-01  0.6804E-01  0.6797E-01
     -5.037  0.5789E-02  0.6207E-02  0.6833E-01  0.6828E-01
     -4.987  0.3912E-02  0.3796E-02  0.6852E-01  0.6847E-01
     -4.938  0.4191E-02  0.3790E-02  0.6873E-01  0.6866E-01
     -4.888  0.5496E-02  0.5054E-02  0.6901E-01  0.6891E-01
     -4.838  0.6842E-02  0.6507E-02  0.6935E-01  0.6923E-01
     -4.788  0.7644E-02  0.7482E-02  0.6973E-01  0.6960E-01
     -4.738  0.7668E-02  0.7714E-02  0.7011E-01  0.6999E-01
     -4.688  0.6894E-02  0.7168E-02  0.7046E-01  0.7035E-01
     -4.638  0.5468E-02  0.5947E-02  0.7073E-01  0.7064E-01
     -4.589  0.3705E-02  0.4291E-02  0.7091E-01  0.7086E-01
     -4.539  0.2013E-02  0.2563E-02  0.7101E-01  0.7098E-01
     -4.489  0.7283E-03  0.1130E-02  0.7105E-01  0.7104E-01
     -4.439 -0.1616E-04  0.2020E-03  0.7105E-01  0.7105E-01
     -4.389 -0.3029E-03 -0.2267E-03  0.7103E-01  0.7104E-01
     -4.339 -0.3259E-03 -0.3146E-03  0.7102E-01  0.7102E-01
     -4.289 -0.2694E-03 -0.2519E-03  0.7100E-01  0.7101E-01
     -4.240 -0.2406E-03 -0.1753E-03  0.7099E-01  0.7100E-01
     -4.190 -0.2536E-03 -0.1493E-03  0.7098E-01  0.7099E-01
     -4.140 -0.2314E-03 -0.1816E-03  0.7097E-01  0.7099E-01
     -4.090 -0.2046E-04 -0.2290E-03  0.7097E-01  0.7097E-01
     -4.040  0.5478E-03 -0.1860E-03  0.7099E-01  0.7097E-01
     -3.990  0.1530E-02  0.1085E-03  0.7107E-01  0.7097E-01
     -3.941  0.2741E-02  0.7980E-03  0.7121E-01  0.7101E-01
     -3.891  0.3757E-02  0.1869E-02  0.7139E-01  0.7110E-01
     -3.841  0.4123E-02  0.3050E-02  0.7160E-01  0.7126E-01
     -3.791  0.3639E-02  0.3877E-02  0.7178E-01  0.7145E-01
     -3.741  0.2520E-02  0.3960E-02  0.7191E-01  0.7165E-01
     -3.691  0.1288E-02  0.3274E-02  0.7197E-01  0.7181E-01
     -3.641  0.4941E-03  0.2234E-02  0.7200E-01  0.7192E-01
     -3.592  0.4697E-03  0.1462E-02  0.7202E-01  0.7199E-01
     -3.542  0.1218E-02  0.1413E-02  0.7208E-01  0.7206E-01
     -3.492  0.2449E-02  0.2116E-02  0.7220E-01  0.7217E-01
     -3.442  0.3735E-02  0.3211E-02  0.7239E-01  0.7233E-01
     -3.392  0.4726E-02  0.4229E-02  0.7262E-01  0.7254E-01
     -3.342  0.5283E-02  0.4890E-02  0.7289E-01  0.7278E-01
     -3.293  0.5434E-02  0.5170E-02  0.7316E-01  0.7304E-01
     -3.243  0.5208E-02  0.5138E-02  0.7342E-01  0.7330E-01
     -3.193  0.4557E-02  0.4768E-02  0.7364E-01  0.7354E-01
     -3.143  0.3464E-02  0.3966E-02  0.7382E-01  0.7373E-01
     -3.093  0.2105E-02  0.2767E-02  0.7392E-01  0.7387E-01
     -3.043  0.8816E-03  0.1470E-02  0.7397E-01  0.7394E-01
     -2.993  0.2808E-03  0.5705E-03  0.7398E-01  0.7397E-01
     -2.944  0.6661E-03  0.5361E-03  0.7401E-01  0.7400E-01
     -2.894  0.2101E-02  0.1577E-02  0.7412E-01  0.7408E-01
     -2.844  0.4241E-02  0.3496E-02  0.7433E-01  0.7425E-01
     -2.794  0.6367E-02  0.5682E-02  0.7465E-01  0.7454E-01
     -2.744  0.7639E-02  0.7299E-02  0.7503E-01  0.7490E-01
     -2.694  0.7503E-02  0.7667E-02  0.7540E-01  0.7528E-01
     -2.645  0.5999E-02  0.6616E-02  0.7570E-01  0.7561E-01
     -2.595  0.3750E-02  0.4577E-02  0.7589E-01  0.7584E-01
     -2.545  0.1651E-02  0.2351E-02  0.7597E-01  0.7596E-01
     -2.495  0.4901E-03  0.7390E-03  0.7599E-01  0.7599E-01
     -2.445  0.7082E-03  0.2678E-03  0.7603E-01  0.7601E-01
     -2.395  0.2279E-02  0.1092E-02  0.7614E-01  0.7606E-01
     -2.345  0.4669E-02  0.2972E-02  0.7638E-01  0.7621E-01
     -2.296  0.6944E-02  0.5283E-02  0.7672E-01  0.7647E-01
     -2.246  0.8126E-02  0.7166E-02  0.7713E-01  0.7683E-01
     -2.196  0.7697E-02  0.7863E-02  0.7751E-01  0.7722E-01
     -2.146  0.5885E-02  0.7101E-02  0.7780E-01  0.7758E-01
     -2.096  0.3485E-02  0.5236E-02  0.7798E-01  0.7784E-01
     -2.046  0.1344E-02  0.3008E-02  0.7804E-01  0.7799E-01
     -1.997 -0.6556E-04  0.1107E-02  0.7804E-01  0.7804E-01
     -1.947 -0.6943E-03 -0.1331E-03  0.7801E-01  0.7804E-01
     -1.897 -0.6802E-03 -0.7261E-03  0.7797E-01  0.7800E-01
     -1.847 -0.1011E-03 -0.7866E-03  0.7797E-01  0.7796E-01
     -1.797  0.1060E-02 -0.3066E-03  0.7802E-01  0.7795E-01
     -1.747  0.2757E-02  0.8544E-03  0.7816E-01  0.7799E-01
     -1.697  0.4715E-02  0.2750E-02  0.7839E-01  0.7812E-01
     -1.648  0.6457E-02  0.5094E-02  0.7872E-01  0.7838E-01
     -1.598  0.7531E-02  0.7246E-02  0.7909E-01  0.7874E-01
     -1.548  0.7771E-02  0.8534E-02  0.7948E-01  0.7917E-01
     -1.498  0.7341E-02  0.8666E-02  0.7984E-01  0.7960E-01
     -1.448  0.6540E-02  0.7861E-02  0.8017E-01  0.7999E-01
     -1.398  0.5560E-02  0.6580E-02  0.8045E-01  0.8032E-01
     -1.348  0.4444E-02  0.5177E-02  0.8067E-01  0.8058E-01
     -1.299  0.3270E-02  0.3811E-02  0.8083E-01  0.8077E-01
     -1.249  0.2295E-02  0.2630E-02  0.8095E-01  0.8090E-01
     -1.199  0.1865E-02  0.1891E-02  0.8104E-01  0.8099E-01
     -1.149  0.2166E-02  0.1848E-02  0.8115E-01  0.8108E-01
     -1.099  0.3092E-02  0.2532E-02  0.8130E-01  0.8121E-01
     -1.049  0.4362E-02  0.3711E-02  0.8152E-01  0.8139E-01
     -1.000  0.5745E-02  0.5071E-02  0.8180E-01  0.8165E-01
     -0.950  0.7096E-02  0.6396E-02  0.8216E-01  0.8197E-01
     -0.900  0.8187E-02  0.7540E-02  0.8257E-01  0.8234E-01
     -0.850  0.8605E-02  0.8263E-02  0.8300E-01  0.8275E-01
     -0.800  0.7958E-02  0.8212E-02  0.8339E-01  0.8316E-01
     -0.750  0.6245E-02  0.7157E-02  0.8370E-01  0.8352E-01
     -0.700  0.4015E-02  0.5267E-02  0.8390E-01  0.8378E-01
     -0.651  0.2120E-02  0.3142E-02  0.8401E-01  0.8394E-01
     -0.601  0.1225E-02  0.1526E-02  0.8407E-01  0.8401E-01
     -0.551  0.1457E-02  0.9211E-03  0.8414E-01  0.8406E-01
     -0.501  0.2386E-02  0.1349E-02  0.8426E-01  0.8413E-01
     -0.451  0.3325E-02  0.2384E-02  0.8443E-01  0.8425E-01
     -0.401  0.3759E-02  0.3416E-02  0.8462E-01  0.8442E-01
     -0.352  0.3643E-02  0.4005E-02  0.8480E-01  0.8462E-01
     -0.302  0.3348E-02  0.4098E-02  0.8496E-01  0.8482E-01
     -0.252  0.3332E-02  0.3983E-02  0.8513E-01  0.8502E-01
     -0.202  0.3817E-02  0.4052E-02  0.8532E-01  0.8522E-01
     -0.152  0.4742E-02  0.4605E-02  0.8556E-01  0.8545E-01
     -0.102  0.5950E-02  0.5800E-02  0.8585E-01  0.8574E-01
     -0.052  0.7323E-02  0.7634E-02  0.8622E-01  0.8612E-01
     -0.003  0.8732E-02  0.9886E-02  0.8665E-01  0.8661E-01
      0.047  0.9946E-02  0.1214E-01  0.8715E-01  0.8722E-01
      0.097  0.1073E-01  0.1397E-01  0.8768E-01  0.8791E-01
      0.147  0.1109E-01  0.1517E-01  0.8824E-01  0.8867E-01
      0.197  0.1135E-01  0.1569E-01  0.8880E-01  0.8945E-01
      0.247  0.1183E-01  0.1537E-01  0.8939E-01  0.9022E-01
      0.296  0.1240E-01  0.1389E-01  0.9001E-01  0.9091E-01
      0.346  0.1246E-01  0.1114E-01  0.9063E-01  0.9147E-01
      0.396  0.1132E-01  0.7563E-02  0.9120E-01  0.9184E-01
      0.446  0.8869E-02  0.4020E-02  0.9164E-01  0.9204E-01
      0.496  0.5710E-02  0.1333E-02  0.9192E-01  0.9211E-01
      0.546  0.2765E-02 -0.1667E-03  0.9206E-01  0.9210E-01
      0.596  0.7063E-03 -0.6744E-03  0.9210E-01  0.9207E-01
      0.645 -0.3213E-03 -0.6262E-03  0.9208E-01  0.9204E-01
      0.695 -0.5887E-03 -0.4029E-03  0.9205E-01  0.9202E-01
      0.745 -0.4835E-03 -0.2057E-03  0.9203E-01  0.9201E-01
      0.795 -0.2915E-03 -0.8733E-04  0.9201E-01  0.9200E-01
      0.845 -0.1423E-03 -0.3148E-04  0.9200E-01  0.9200E-01
      0.895 -0.5833E-04 -0.9759E-05  0.9200E-01  0.9200E-01
      0.944 -0.2045E-04 -0.2620E-05  0.9200E-01  0.9200E-01
      0.994 -0.6190E-05 -0.6120E-06  0.9200E-01  0.9200E-01
      1.044 -0.1628E-05 -0.1248E-06  0.9200E-01  0.9200E-01
      1.094 -0.3738E-06 -0.2229E-07  0.9200E-01  0.9200E-01
      1.144 -0.7505E-07 -0.3490E-08  0.9200E-01  0.9200E-01
      1.194 -0.1321E-07 -0.4798E-09  0.9200E-01  0.9200E-01
      1.244 -0.2040E-08 -0.5799E-10  0.9200E-01  0.9200E-01
      1.293 -0.2768E-09 -0.6166E-11  0.9200E-01  0.9200E-01
      1.343 -0.3302E-10 -0.5770E-12  0.9200E-01  0.9200E-01
      1.393 -0.3465E-11 -0.4756E-13  0.9200E-01  0.9200E-01
      1.443 -0.3201E-12 -0.3452E-14  0.9200E-01  0.9200E-01
      1.493 -0.2604E-13 -0.2227E-15  0.9200E-01  0.9200E-01
      1.543 -0.1866E-14 -0.1336E-16  0.9200E-01  0.9200E-01
      1.593 -0.1158E-15  0.0000E+00  0.9200E-01  0.9200E-01
      1.642 -0.8909E-17  0.0000E+00  0.9200E-01  0.9200E-01
      1.692  0.0000E+00  0.0000E+00  0.9200E-01  0.9200E-01
      1.742  0.0000E+00  0.0000E+00  0.9200E-01  0.9200E-01
      1.792  0.0000E+00  0.0000E+00  0.9200E-01  0.9200E-01
      1.842  0.0000E+00  0.0000E+00  0.9200E-01  0.9200E-01
      1.892  0.0000E+00  0.0000E+00  0.9200E-01  0.9200E-01
      1.941  0.0000E+00  0.0000E+00  0.9200E-01  0.9200E-01
      1.991  0.0000E+00  0.0000E+00  0.9200E-01  0.9200E-01
      2.041  0.0000E+00  0.0000E+00  0.9200E-01  0.9200E-01
      2.091  0.0000E+00  0.0000E+00  0.9200E-01  0.9200E-01
      2.141  0.0000E+00  0.0000E+00  0.9200E-01  0.9200E-01
      2.191  0.0000E+00  0.0000E+00  0.9200E-01  0.9200E-01
      2.241  0.0000E+00  0.0000E+00  0.9200E-01  0.9200E-01
      2.290  0.0000E+00  0.0000E+00  0.9200E-01  0.9200E-01
      2.340  0.0000E+00  0.0000E+00  0.9200E-01  0.9200E-01
      2.390  0.0000E+00  0.0000E+00  0.9200E-01  0.9200E-01
