   13   13 1000    2
  0.1017099E+04  0.2338015E-08  0.2520637E-08  0.2243618E-08  0.5000000E-15
   1.0000000000000000E-004
  CAR 
 unknown system                          
    143      1     92
 
  0.1262379E-14  0.1262379E-14  0.1262379E-14  0.1000000E+01
    1      -10.564166    -10.548079   1.000000   1.000000
    2       -9.161993     -9.154763   1.000000   1.000000
    3       -8.691848     -8.674976   1.000000   1.000000
    4       -8.054711     -8.041572   1.000000   1.000000
    5       -7.969684     -7.962421   1.000000   1.000000
    6       -7.867905     -7.860752   1.000000   1.000000
    7       -7.659482     -7.641922   1.000000   1.000000
    8       -7.533513     -7.525078   1.000000   1.000000
    9       -7.525098     -7.515985   1.000000   1.000000
   10       -7.321741     -7.312429   1.000000   1.000000
   11       -7.316456     -7.306999   1.000000   1.000000
   12       -7.237182     -7.230941   1.000000   1.000000
   13       -7.163328     -7.153307   1.000000   1.000000
   14       -7.064818     -7.055020   1.000000   1.000000
   15       -7.063140     -7.049749   1.000000   1.000000
   16       -6.996824     -6.989253   1.000000   1.000000
   17       -6.912894     -6.903773   1.000000   1.000000
   18       -6.843821     -6.836352   1.000000   1.000000
   19       -6.816317     -6.809035   1.000000   1.000000
   20       -6.771429     -6.762391   1.000000   1.000000
   21       -6.697487     -6.685399   1.000000   1.000000
   22       -6.672678     -6.665886   1.000000   1.000000
   23       -6.589614     -6.583566   1.000000   1.000000
   24       -6.575886     -6.567281   1.000000   1.000000
   25       -6.531580     -6.521271   1.000000   1.000000
   26       -6.431523     -6.424912   1.000000   1.000000
   27       -6.359379     -6.352081   1.000000   1.000000
   28       -6.347222     -6.339196   1.000000   1.000000
   29       -6.315587     -6.306431   1.000000   1.000000
   30       -6.261341     -6.251312   1.000000   1.000000
   31       -6.231681     -6.221428   1.000000   1.000000
   32       -6.155805     -6.146310   1.000000   1.000000
   33       -6.137793     -6.126443   1.000000   1.000000
   34       -6.092082     -6.083675   1.000000   1.000000
   35       -6.022816     -6.012563   1.000000   1.000000
   36       -5.965581     -5.959567   1.000000   1.000000
   37       -5.938369     -5.931069   1.000000   1.000000
   38       -5.923683     -5.915485   1.000000   1.000000
   39       -5.881324     -5.873937   1.000000   1.000000
   40       -5.868554     -5.860096   1.000000   1.000000
   41       -5.834436     -5.824085   1.000000   1.000000
   42       -5.805145     -5.795019   1.000000   1.000000
   43       -5.775513     -5.767435   1.000000   1.000000
   44       -5.744432     -5.734361   1.000000   1.000000
   45       -5.729360     -5.722637   1.000000   1.000000
   46       -5.715875     -5.709281   1.000000   1.000000
   47       -5.683921     -5.676677   1.000000   1.000000
   48       -5.675509     -5.666603   1.000000   1.000000
   49       -5.658959     -5.649221   1.000000   1.000000
   50       -5.607531     -5.600047   1.000000   1.000000
   51       -5.587081     -5.581091   1.000000   1.000000
   52       -5.578659     -5.570091   1.000000   1.000000
   53       -5.545134     -5.534185   1.000000   1.000000
   54       -5.507574     -5.499370   1.000000   1.000000
   55       -5.495423     -5.487309   1.000000   1.000000
   56       -5.457188     -5.450229   1.000000   1.000000
   57       -5.425701     -5.415048   1.000000   1.000000
   58       -5.411964     -5.402595   1.000000   1.000000
   59       -5.394758     -5.387986   1.000000   1.000000
   60       -5.391040     -5.378705   1.000000   1.000000
   61       -5.358948     -5.351170   1.000000   1.000000
   62       -5.345433     -5.335829   1.000000   1.000000
   63       -5.329370     -5.315172   1.000000   1.000000
   64       -5.286574     -5.275594   1.000000   1.000000
   65       -5.247807     -5.237702   1.000000   1.000000
   66       -5.237361     -5.231025   1.000000   1.000000
   67       -5.218774     -5.210513   1.000000   1.000000
   68       -5.189954     -5.182697   1.000000   1.000000
   69       -4.945684     -4.929705   1.000000   1.000000
   70       -4.810748     -4.796637   1.000000   1.000000
   71       -4.686518     -4.668214   1.000000   1.000000
   72       -3.865998     -3.781319   0.681849   0.332339
   73       -3.421962     -3.405108  -0.008009  -0.006043
   74       -3.221260     -3.195691  -0.000092  -0.000044
   75       -2.786776     -2.772553  -0.000000  -0.000000
   76       -2.708984     -2.690091  -0.000000  -0.000000
   77       -2.280285     -2.261082  -0.000000  -0.000000
   78       -2.241110     -2.186608  -0.000000  -0.000000
   79       -1.666115     -1.592488  -0.000000  -0.000000
   80       -1.561736     -1.548254  -0.000000  -0.000000
   81       -1.383732     -1.357952  -0.000000  -0.000000
   82       -1.058900     -1.030612  -0.000000  -0.000000
   83       -0.873162     -0.856545  -0.000000  -0.000000
   84       -0.820162     -0.777827  -0.000000  -0.000000
   85       -0.438116     -0.388646  -0.000000  -0.000000
   86       -0.167759     -0.154825  -0.000000  -0.000000
   87       -0.005883      0.034854  -0.000000  -0.000000
   88        0.087758      0.051698  -0.000000  -0.000000
   89        0.139801      0.110163  -0.000000  -0.000000
   90        0.302358      0.253119  -0.000000  -0.000000
   91        0.334262      0.258982  -0.000000  -0.000000
   92        0.390060      0.299578  -0.000000  -0.000000
