       N       E                     dE             d eps       ncg     rms          rms(c)
DAV:   1     0.982495356960E+03    0.98250E+03   -0.24764E+04   368   0.737E+02
DAV:   2     0.263713520638E+03   -0.71878E+03   -0.64229E+03   376   0.212E+02
DAV:   3     0.113010045979E+02   -0.25241E+03   -0.24285E+03   480   0.139E+02
DAV:   4    -0.350941657344E+02   -0.46395E+02   -0.42519E+02   440   0.113E+02
DAV:   5    -0.373553890432E+02   -0.22612E+01   -0.22385E+01   488   0.241E+01    0.290E+01
DAV:   6    -0.134257913000E+02    0.23930E+02   -0.13976E+02   412   0.898E+01    0.120E+01
DAV:   7    -0.884932337573E+01    0.45765E+01   -0.32305E+01   456   0.590E+01    0.522E+00
DAV:   8    -0.903190614553E+01   -0.18258E+00   -0.58735E+00   448   0.518E+01    0.473E+00
DAV:   9    -0.107842598232E+02   -0.17524E+01   -0.13255E+00   480   0.296E+01    0.299E+00
DAV:  10    -0.153774975787E+02   -0.45932E+01   -0.24415E+00   532   0.160E+01    0.242E+00
DAV:  11    -0.182649648885E+02   -0.28875E+01   -0.12251E+00   480   0.134E+01    0.187E+00
DAV:  12    -0.232899346256E+02   -0.50250E+01   -0.27936E+00   512   0.867E+00    0.136E+00
DAV:  13    -0.267479425552E+02   -0.34580E+01   -0.15557E+00   488   0.706E+00    0.105E+00
DAV:  14    -0.286828496260E+02   -0.19349E+01   -0.55356E-01   480   0.737E+00    0.869E-01
DAV:  15    -0.307814359858E+02   -0.20986E+01   -0.57566E-01   496   0.449E+00    0.646E-01
DAV:  16    -0.315289276727E+02   -0.74749E+00   -0.16476E-01   512   0.438E+00    0.464E-01
DAV:  17    -0.319133789065E+02   -0.38445E+00   -0.55218E-02   504   0.255E+00    0.367E-01
DAV:  18    -0.322894173551E+02   -0.37604E+00   -0.26080E-02   524   0.173E+00    0.230E-01
DAV:  19    -0.327346003726E+02   -0.44518E+00   -0.19510E-02   512   0.125E+00    0.175E-01
DAV:  20    -0.329555708601E+02   -0.22097E+00   -0.71091E-03   512   0.131E+00    0.110E-01
DAV:  21    -0.330600503369E+02   -0.10448E+00   -0.35954E-03   544   0.736E-01    0.760E-02
DAV:  22    -0.331256943265E+02   -0.65644E-01   -0.19703E-03   484   0.319E-01    0.499E-02
DAV:  23    -0.331496377337E+02   -0.23943E-01   -0.60820E-04   348   0.330E-01    0.387E-02
DAV:  24    -0.331678751439E+02   -0.18237E-01   -0.61672E-04   400   0.286E-01    0.297E-02
DAV:  25    -0.331816758105E+02   -0.13801E-01   -0.33326E-04   296   0.162E-01    0.214E-02
DAV:  26    -0.331890854444E+02   -0.74096E-02   -0.22226E-04   284   0.138E-01    0.215E-02
DAV:  27    -0.331933058137E+02   -0.42204E-02   -0.16176E-04   268   0.153E-01    0.170E-02
DAV:  28    -0.331965402663E+02   -0.32345E-02   -0.15739E-04   280   0.114E-01    0.119E-02
DAV:  29    -0.331984769597E+02   -0.19367E-02   -0.12423E-04   280   0.957E-02    0.108E-02
DAV:  30    -0.332004446982E+02   -0.19677E-02   -0.97571E-05   256   0.802E-02    0.925E-03
DAV:  31    -0.332012949878E+02   -0.85029E-03   -0.56813E-05   268   0.687E-02    0.760E-03
DAV:  32    -0.332019668571E+02   -0.67187E-03   -0.42633E-05   244   0.483E-02    0.750E-03
DAV:  33    -0.332023448523E+02   -0.37800E-03   -0.36136E-05   272   0.455E-02    0.659E-03
DAV:  34    -0.332025191648E+02   -0.17431E-03   -0.25511E-05   264   0.392E-02    0.576E-03
DAV:  35    -0.332026682821E+02   -0.14912E-03   -0.22704E-05   248   0.315E-02    0.576E-03
DAV:  36    -0.332027961499E+02   -0.12787E-03   -0.23694E-05   248   0.310E-02    0.491E-03
DAV:  37    -0.332029081202E+02   -0.11197E-03   -0.25477E-05   264   0.334E-02    0.427E-03
DAV:  38    -0.332030510979E+02   -0.14298E-03   -0.30091E-05   272   0.372E-02    0.496E-03
DAV:  39    -0.332031313934E+02   -0.80296E-04   -0.20664E-05   256   0.308E-02
   1 F= -.33203131E+02 E0= -.33189135E+02  d E =-.332031E+02  mag=     0.3465
       N       E                     dE             d eps       ncg     rms          rms(c)
DAV:   1    -0.332033103330E+02   -0.25924E-03   -0.94844E-02   408   0.105E+00    0.195E-02
DAV:   2    -0.332035275296E+02   -0.21720E-03   -0.16046E-03   536   0.293E-01    0.213E-02
DAV:   3    -0.332035459343E+02   -0.18405E-04   -0.62374E-05   256   0.169E-01
   2 F= -.33203546E+02 E0= -.33189407E+02  d E =-.414541E-03  mag=     0.3470
       N       E                     dE             d eps       ncg     rms          rms(c)
DAV:   1    -0.332036095871E+02   -0.82058E-04   -0.10928E-01   400   0.113E+00    0.245E-02
DAV:   2    -0.332038245393E+02   -0.21495E-03   -0.18993E-03   560   0.330E-01    0.293E-02
DAV:   3    -0.332038308281E+02   -0.62887E-05   -0.81094E-05   256   0.185E-01
   3 F= -.33203831E+02 E0= -.33189641E+02  d E =-.699435E-03  mag=     0.3472
