 vasp.6.1.2 22Jul20 (build Aug  2 2021 21:04:21) gamma-only                      
 executed on             LinuxPGI date 2021.12.25  02:05:09
 running on   16 total cores
 distrk:  each k-point on   16 cores,    1 groups
 distr:  one band on NCORE=   8 cores,    2 groups


--------------------------------------------------------------------------------------------------------


 INCAR:
 POTCAR:    PAW_PBE Cu 22Jun2005                  
 -----------------------------------------------------------------------------
|                                                                             |
|           W    W    AA    RRRRR   N    N  II  N    N   GGGG   !!!           |
|           W    W   A  A   R    R  NN   N  II  NN   N  G    G  !!!           |
|           W    W  A    A  R    R  N N  N  II  N N  N  G       !!!           |
|           W WW W  AAAAAA  RRRRR   N  N N  II  N  N N  G  GGG   !            |
|           WW  WW  A    A  R   R   N   NN  II  N   NN  G    G                |
|           W    W  A    A  R    R  N    N  II  N    N   GGGG   !!!           |
|                                                                             |
|     You use a magnetic or noncollinear calculation, but did not specify     |
|     the initial magnetic moment with the MAGMOM tag. Note that a            |
|     default of 1 will be used for all atoms. This ferromagnetic setup       |
|     may break the symmetry of the crystal, in particular it may rule        |
|     out finding an antiferromagnetic solution. Thence, we recommend         |
|     setting the initial magnetic moment manually or verifying carefully     |
|     that this magnetic setup is desired.                                    |
|                                                                             |
 -----------------------------------------------------------------------------

 POTCAR:    PAW_PBE Cu 22Jun2005                  
   SHA256 =  0e71e558f37a4e8407882b4609ceaae59938afaad9ced71dfe8490308a0ab630 Cu/POTCAR             
   COPYR  = (c) Copyright 22Jun2005 Georg Kresse                                                    
   COPYR  = This file is part of the software VASP. Any use, copying, and all other rights are regul
   COPYR  = If you do not have a valid VASP license, you may not use, copy or distribute this file. 
   VRHFIN =Cu: d10 p1                                                                               
   LEXCH  = PE                                                                                      
   EATOM  =  1390.9808 eV,  102.2342 Ry                                                             
                                                                                                    
   TITEL  = PAW_PBE Cu 22Jun2005                                                                    
   LULTRA =        F    use ultrasoft PP ?                                                          
   IUNSCR =        1    unscreen: 0-lin 1-nonlin 2-no                                               
   RPACOR =    2.000    partial core radius                                                         
   POMASS =   63.546; ZVAL   =   11.000    mass and valenz                                          
   RCORE  =    2.300    outmost cutoff radius                                                       
   RWIGS  =    2.200; RWIGS  =    1.164    wigner-seitz radius (au A)                               
   ENMAX  =  295.446; ENMIN  =  221.585 eV                                                          
   ICORE  =        3    local potential                                                             
   LCOR   =        T    correct aug charges                                                         
   LPAW   =        T    paw PP                                                                      
   EAUG   =  586.980                                                                                
   DEXC   =    0.000                                                                                
   RMAX   =    2.344    core radius for proj-oper                                                   
   RAUG   =    1.300    factor for augmentation sphere                                              
   RDEP   =    2.302    radius for radial grids                                                     
   RDEPT  =    1.771    core radius for aug-charge                                                  
                                                                                                    
   Atomic configuration                                                                             
    9 entries                                                                                       
     n  l   j            E        occ.                                                              
     1  0  0.50     -8850.2468   2.0000                                                             
     2  0  0.50     -1062.3498   2.0000                                                             
     2  1  1.50      -916.8226   6.0000                                                             
     3  0  0.50      -114.6929   2.0000                                                             
     3  1  1.50       -72.1325   6.0000                                                             
     3  2  2.50        -5.0394  10.0000                                                             
     4  0  0.50        -4.6097   1.0000                                                             
     4  1  0.50        -4.0817   0.0000                                                             
     4  3  2.50        -1.3606   0.0000                                                             
   Description                                                                                      
     l       E           TYP  RCUT    TYP  RCUT                                                     
     2     -5.0393973     23  2.200                                                                 
     2     10.8846608     23  2.200                                                                 
     0     -4.6097109     23  2.200                                                                 
     0      8.2520465     23  2.200                                                                 
     1     -2.7211652     23  2.200                                                                 
     1     21.7055443     23  2.200                                                                 
     3      2.7211652     23  2.300                                                                 
  local pseudopotential read in
  partial core-charges read in
  partial kinetic energy density read in
  atomic valenz-charges read in
  non local Contribution for L=            2  read in
    real space projection operators read in
  non local Contribution for L=            2  read in
    real space projection operators read in
  non local Contribution for L=            0  read in
    real space projection operators read in
  non local Contribution for L=            0  read in
    real space projection operators read in
  non local Contribution for L=            1  read in
    real space projection operators read in
  non local Contribution for L=            1  read in
    real space projection operators read in
    PAW grid and wavefunctions read in
 
   number of l-projection  operators is LMAX  =            6
   number of lm-projection operators is LMMAX =           18
 
  PAW_PBE Cu 22Jun2005                  :
 energy of atom  1       EATOM=-1390.9808
 kinetic energy error for atom=    0.0232 (will be added to EATOM!!)
 
 
 POSCAR: Cu
  positions in cartesian coordinates
  No initial velocities read in
 exchange correlation table for  LEXCH =        8
   RHO(1)=    0.500       N(1)  =     2000
   RHO(2)=  100.500       N(2)  =     4000
 


--------------------------------------------------------------------------------------------------------


 ion  position               nearest neighbor table
   1  0.409  0.485  0.497-  11 2.39  13 2.40  12 2.45   8 2.46   4 2.52   7 2.59
   2  0.559  0.588  0.520-   3 2.39   5 2.39   9 2.47   7 2.48   4 2.53
   3  0.470  0.629  0.547-   2 2.39  11 2.40   4 2.44   7 2.50
   4  0.478  0.534  0.564-   7 2.41   3 2.44   5 2.44  12 2.47  11 2.49   1 2.52   2 2.53
   5  0.577  0.504  0.565-   2 2.39   6 2.40   4 2.44   9 2.46  12 2.47
   6  0.609  0.433  0.502-   5 2.40  10 2.40   9 2.42  12 2.54
   7  0.472  0.564  0.463-  13 2.41   4 2.41  11 2.43   2 2.48   3 2.50   9 2.50   1 2.59
   8  0.435  0.399  0.455-  13 2.40   1 2.46  12 2.47  10 2.48
   9  0.560  0.508  0.457-  13 2.42   6 2.42   5 2.46   2 2.47  12 2.48   7 2.50  10 2.63
  10  0.538  0.408  0.430-  12 2.39   6 2.40  13 2.41   8 2.48   9 2.63
  11  0.388  0.574  0.526-   1 2.39   3 2.40   7 2.43   4 2.49
  12  0.503  0.447  0.520-  10 2.39   1 2.45   8 2.47   5 2.47   4 2.47   9 2.48   6 2.54  13 2.65

  13  0.471  0.479  0.413-   1 2.40   8 2.40   7 2.41  10 2.41   9 2.42  12 2.65
 

IMPORTANT INFORMATION: All symmetrisations will be switched off!
NOSYMM: (Re-)initialisation of all symmetry stuff for point group C_1.


----------------------------------------------------------------------------------------

                                     Primitive cell                                     

  volume of cell :   13222.2880

  direct lattice vectors                    reciprocal lattice vectors
    23.380148295  0.000000000  0.000000000     0.042771328  0.000000000  0.000000000
     0.000000000 25.206372748  0.000000000     0.000000000  0.039672507  0.000000000
     0.000000000  0.000000000 22.436184200     0.000000000  0.000000000  0.044570859

  length of vectors
    23.380148295 25.206372748 22.436184200     0.042771328  0.039672507  0.044570859

  position of ions in fractional coordinates (direct lattice)
     0.409018370  0.485025607  0.497480615
     0.558507077  0.588074180  0.520307150
     0.470034000  0.628835530  0.546912561
     0.477935070  0.533763902  0.564491079
     0.577293936  0.503737060  0.565177268
     0.609115119  0.433075596  0.501758263
     0.471997863  0.563782388  0.462752879
     0.435409170  0.398525775  0.455159129
     0.560393644  0.507916544  0.456841427
     0.538009378  0.408472956  0.429585242
     0.388365056  0.574345653  0.525584007
     0.502949773  0.447191306  0.519683104
     0.471059970  0.479474508  0.412541630

  ion indices of the primitive-cell ions
   primitive index   ion index
                 1           1
                 2           2
                 3           3
                 4           4
                 5           5
                 6           6
                 7           7
                 8           8
                 9           9
                10          10
                11          11
                12          12
                13          13

----------------------------------------------------------------------------------------

 
 
 KPOINTS: KPOINTS created by Atomic Simulation Env

Automatic generation of k-mesh.
Space group operators:
 irot       det(A)        alpha          n_x          n_y          n_z        tau_x        tau_y        tau_z
    1     1.000000     0.000000     1.000000     0.000000     0.000000     0.000000     0.000000     0.000000
 
 Subroutine IBZKPT returns following result:
 ===========================================
 
 Found      1 irreducible k-points:
 
 Following reciprocal coordinates:
            Coordinates               Weight
  0.000000  0.000000  0.000000      1.000000
 
 Following cartesian coordinates:
            Coordinates               Weight
  0.000000  0.000000  0.000000      1.000000
 


--------------------------------------------------------------------------------------------------------




 Dimension of arrays:
   k-points           NKPTS =      1   k-points in BZ     NKDIM =      1   number of bands    NBANDS=     92
   number of dos      NEDOS =    301   number of ions     NIONS =     13
   non local maximal  LDIM  =      6   non local SUM 2l+1 LMDIM =     18
   total plane-waves  NPLWV = ******
   max r-space proj   IRMAX =      1   max aug-charges    IRDMAX=   3909
   dimension x,y,z NGX =   120 NGY =  126 NGZ =  112
   dimension x,y,z NGXF=   240 NGYF=  252 NGZF=  224
   support grid    NGXF=   240 NGYF=  252 NGZF=  224
   ions per type =              13
   NGX,Y,Z   is equivalent  to a cutoff of   8.53,  8.31,  8.30 a.u.
   NGXF,Y,Z  is equivalent  to a cutoff of  17.07, 16.62, 16.60 a.u.

 SYSTEM =  unknown system                          
 POSCAR =  Cu                                      

 Startparameter for this run:
   NWRITE =      2    write-flag & timer
   PREC   = normal    normal or accurate (medium, high low for compatibility)
   ISTART =      0    job   : 0-new  1-cont  2-samecut
   ICHARG =      2    charge: 1-file 2-atom 10-const
   ISPIN  =      2    spin polarized calculation?
   LNONCOLLINEAR =      F non collinear calculations
   LSORBIT =      F    spin-orbit coupling
   INIWAV =      1    electr: 0-lowe 1-rand  2-diag
   LASPH  =      F    aspherical Exc in radial PAW
   METAGGA=      F    non-selfconsistent MetaGGA calc.

 Electronic Relaxation 1
   ENCUT  =  400.0 eV  29.40 Ry    5.42 a.u.  38.13 41.11 36.59*2*pi/ulx,y,z
   ENINI  =  400.0     initial cutoff
   ENAUG  =  587.0 eV  augmentation charge cutoff
   NELM   =     60;   NELMIN=  2; NELMDL=  0     # of ELM steps 
   EDIFF  = 0.1E-03   stopping-criterion for ELM
   LREAL  =      F    real-space projection
   NLSPLINE    = F    spline interpolate recip. space projectors
   LCOMPAT=      F    compatible to vasp.4.4
   GGA_COMPAT  = T    GGA compatible to vasp.4.4-vasp.4.6
   LMAXPAW     = -100 max onsite density
   LMAXMIX     =    2 max onsite mixed and CHGCAR
   VOSKOWN=      0    Vosko Wilk Nusair interpolation
   ROPT   =    0.00000
 Ionic relaxation
   EDIFFG = 0.1E-02   stopping-criterion for IOM
   NSW    =   1000    number of steps for IOM
   NBLOCK =      1;   KBLOCK =   1000    inner block; outer block 
   IBRION =      2    ionic relax: 0-MD 1-quasi-New 2-CG
   NFREE  =      1    steps in history (QN), initial steepest desc. (CG)
   ISIF   =      0    stress and relaxation
   IWAVPR =     11    prediction:  0-non 1-charg 2-wave 3-comb
   ISYM   =      0    0-nonsym 1-usesym 2-fastsym
   LCORR  =      T    Harris-Foulkes like correction to forces

   POTIM  = 0.5000    time-step for ionic-motion
   TEIN   =    0.0    initial temperature
   TEBEG  =    0.0;   TEEND  =   0.0 temperature during run
   SMASS  =  -3.00    Nose mass-parameter (am)
   estimated Nose-frequenzy (Omega)   =  0.10E-29 period in steps = 0.13E+47 mass=  -0.125E-25a.u.
   SCALEE = 1.0000    scale energy and forces
   NPACO  =    256;   APACO  = 16.0  distance and # of slots for P.C.
   PSTRESS=    0.0 pullay stress

  Mass of Ions in am
   POMASS =  63.55
  Ionic Valenz
   ZVAL   =  11.00
  Atomic Wigner-Seitz radii
   RWIGS  =  -1.00
  virtual crystal weights 
   VCA    =   1.00
   NELECT =     143.0000    total number of electrons
   NUPDOWN=      -1.0000    fix difference up-down

 DOS related values:
   EMIN   =  10.00;   EMAX   =-10.00  energy-range for DOS
   EFERMI =   0.00
   ISMEAR =     1;   SIGMA  =   0.20  broadening in eV -4-tet -1-fermi 0-gaus

 Electronic relaxation 2 (details)
   IALGO  =     38    algorithm
   LDIAG  =      T    sub-space diagonalisation (order eigenvalues)
   LSUBROT=      F    optimize rotation matrix (better conditioning)
   TURBO    =      0    0=normal 1=particle mesh
   IRESTART =      0    0=no restart 2=restart with 2 vectors
   NREBOOT  =      0    no. of reboots
   NMIN     =      0    reboot dimension
   EREF     =   0.00    reference energy to select bands
   IMIX   =      4    mixing-type and parameters
     AMIX     =   0.40;   BMIX     =  1.00
     AMIX_MAG =   1.60;   BMIX_MAG =  1.00
     AMIN     =   0.10
     WC   =   100.;   INIMIX=   1;  MIXPRE=   1;  MAXMIX= -45

 Intra band minimization:
   WEIMIN = 0.0010     energy-eigenvalue tresh-hold
   EBREAK =  0.27E-06  absolut break condition
   DEPER  =   0.30     relativ break condition  

   TIME   =   0.40     timestep for ELM

  volume/ion in A,a.u.               =    1017.10      6863.72
  Fermi-wavevector in a.u.,A,eV,Ry     =   0.362036  0.684148  1.783313  0.131070
  Thomas-Fermi vector in A             =   1.283009
 
 Write flags
   LWAVE        =      F    write WAVECAR
   LDOWNSAMPLE  =      F    k-point downsampling of WAVECAR
   LCHARG       =      F    write CHGCAR
   LVTOT        =      F    write LOCPOT, total local potential
   LVHAR        =      F    write LOCPOT, Hartree potential only
   LELF         =      F    write electronic localiz. function (ELF)
   LORBIT       =      0    0 simple, 1 ext, 2 COOP (PROOUT), +10 PAW based schemes


 Dipole corrections
   LMONO  =      F    monopole corrections only (constant potential shift)
   LDIPOL =      F    correct potential (dipole corrections)
   IDIPOL =      0    1-x, 2-y, 3-z, 4-all directions 
   EPSILON=  1.0000000 bulk dielectric constant

 Exchange correlation treatment:
   GGA     =    PE    GGA type
   LEXCH   =     8    internal setting for exchange type
   VOSKOWN=      0    Vosko Wilk Nusair interpolation
   LHFCALC =     F    Hartree Fock is set to
   LHFONE  =     F    Hartree Fock one center treatment
   AEXX    =    0.0000 exact exchange contribution

 Linear response parameters
   LEPSILON=     F    determine dielectric tensor
   LRPA    =     F    only Hartree local field effects (RPA)
   LNABLA  =     F    use nabla operator in PAW spheres
   LVEL    =     F    velocity operator in full k-point grid
   LINTERFAST=   F  fast interpolation
   KINTER  =     0    interpolate to denser k-point grid
   CSHIFT  =0.1000    complex shift for real part using Kramers Kronig
   OMEGAMAX=  -1.0    maximum frequency
   DEG_THRESHOLD= 0.2000000E-02 threshold for treating states as degnerate
   RTIME   =   -0.100 relaxation time in fs
  (WPLASMAI=    0.000 imaginary part of plasma frequency in eV, 0.658/RTIME)
   DFIELD  = 0.0000000 0.0000000 0.0000000 field for delta impulse in time
 
 Orbital magnetization related:
   ORBITALMAG=     F  switch on orbital magnetization
   LCHIMAG   =     F  perturbation theory with respect to B field
   DQ        =  0.001000  dq finite difference perturbation B field
   LLRAUG    =     F  two centre corrections for induced B field



--------------------------------------------------------------------------------------------------------


 conjugate gradient relaxation of ions
 charge density and potential will be updated during run
 spin polarized calculation
 Variant of blocked Davidson
 Davidson routine will perform the subspace rotation
 perform sub-space diagonalisation
    after iterative eigenvector-optimisation
 modified Broyden-mixing scheme, WC =      100.0
 initial mixing is a Kerker type mixing with AMIX =  0.4000 and BMIX =      1.0000
 Hartree-type preconditioning will be used
 using additional bands            20
 reciprocal scheme for non local part
 use partial core corrections
 calculate Harris-corrections to forces 
   (improved forces if not selfconsistent)
 use gradient corrections 
 use of overlap-Matrix (Vanderbilt PP)
 Methfessel and Paxton  Order N= 1 SIGMA  =   0.20


--------------------------------------------------------------------------------------------------------


  energy-cutoff  :      400.00
  volume of cell :    13222.29
      direct lattice vectors                 reciprocal lattice vectors
    23.380148295  0.000000000  0.000000000     0.042771328  0.000000000  0.000000000
     0.000000000 25.206372748  0.000000000     0.000000000  0.039672507  0.000000000
     0.000000000  0.000000000 22.436184200     0.000000000  0.000000000  0.044570859

  length of vectors
    23.380148295 25.206372748 22.436184200     0.042771328  0.039672507  0.044570859


 
 k-points in units of 2pi/SCALE and weight: KPOINTS created by Atomic Simulation Env
   0.00000000  0.00000000  0.00000000       1.000
 
 k-points in reciprocal lattice and weights: KPOINTS created by Atomic Simulation Env
   0.00000000  0.00000000  0.00000000       1.000
 
 position of ions in fractional coordinates (direct lattice) 
   0.40901837  0.48502561  0.49748061
   0.55850708  0.58807418  0.52030715
   0.47003400  0.62883553  0.54691256
   0.47793507  0.53376390  0.56449108
   0.57729394  0.50373706  0.56517727
   0.60911512  0.43307560  0.50175826
   0.47199786  0.56378239  0.46275288
   0.43540917  0.39852577  0.45515913
   0.56039364  0.50791654  0.45684143
   0.53800938  0.40847296  0.42958524
   0.38836506  0.57434565  0.52558401
   0.50294977  0.44719131  0.51968310
   0.47105997  0.47947451  0.41254163
 
 position of ions in cartesian coordinates  (Angst):
   9.56291014 12.22573624 11.16156670
  13.05797829 14.82321699 11.67370705
  10.98946463 15.85066277 12.27063096
  11.17419282 13.45425187 12.66502583
  13.49721784 12.69738409 12.68042129
  14.24120182 10.91626491 11.25754081
  11.03538003 14.21090902 10.38240884
  10.17993097 10.04538923 10.21203406
  13.10208651 12.80273373 10.24977841
  12.57873903 10.29612160  9.63825362
   9.08003260 14.47717062 11.79209959
  11.75904027 11.27207076 11.65970584
  11.01345194 12.08581317  9.25586000
 


--------------------------------------------------------------------------------------------------------


 use parallel FFT for orbitals z direction half grid
 k-point   1 :   0.0000 0.0000 0.0000  plane waves:  120040

 maximum and minimum number of plane-waves per node :     15009    14999

 maximum number of plane-waves:    120040
 maximum index in each direction: 
   IXMAX=   38   IYMAX=   41   IZMAX=   36
   IXMIN=  -38   IYMIN=  -41   IZMIN=    0


 parallel 3D FFT for wavefunctions:
    minimum data exchange during FFTs selected (reduces bandwidth)
 parallel 3D FFT for charge:
    minimum data exchange during FFTs selected (reduces bandwidth)


 total amount of memory used by VASP MPI-rank0   169063. kBytes
=======================================================================

   base      :      30000. kBytes
   nonl-proj :       5282. kBytes
   fftplans  :      33244. kBytes
   grid      :      78388. kBytes
   one-center:         31. kBytes
   wavefun   :      22118. kBytes
 
     INWAV:  cpu time    0.0000: real time    0.0000
 Broyden mixing: mesh for mixing (old mesh)
   NGX = 77   NGY = 83   NGZ = 73
  (NGX  =240   NGY  =252   NGZ  =224)
  gives a total of 466543 points

 initial charge density was supplied:
 charge density of overlapping atoms calculated
 number of electron     143.0000000 magnetization      13.0000000
 keeping initial charge density in first step


--------------------------------------------------------------------------------------------------------


 Maximum index for augmentation-charges           279 (set IRDMAX)


--------------------------------------------------------------------------------------------------------


 First call to EWALD:  gamma=   0.075
 Maximum number of real-space cells 3x 3x 3
 Maximum number of reciprocal cells 3x 3x 3

    FEWALD:  cpu time    0.0012: real time    0.0012


--------------------------------------- Iteration      1(   1)  ---------------------------------------


    POTLOK:  cpu time    2.8462: real time    2.8568
    SETDIJ:  cpu time    0.0227: real time    0.0227
     EDDAV:  cpu time    9.4021: real time    9.4148
       DOS:  cpu time    0.0024: real time    0.0024
    --------------------------------------------
      LOOP:  cpu time   12.2735: real time   12.2967

 eigenvalue-minimisations  :   368
 total energy-change (2. order) : 0.9824954E+03  (-0.2476440E+04)
 number of electron     143.0000000 magnetization      13.0000000
 augmentation part      143.0000000 magnetization      13.0000000

 Free energy of the ion-electron system (eV)
  ---------------------------------------------------
  alpha Z        PSCENC =         9.34743202
  Ewald energy   TEWEN  =     24932.25472962
  -Hartree energ DENC   =    -41388.15812593
  -exchange      EXHF   =         0.00000000
  -V(xc)+E(xc)   XCENC  =       584.92379209
  PAW double counting   =     15965.26744864   -17340.97210982
  entropy T*S    EENTRO =         0.00360756
  eigenvalues    EBANDS =       137.37926019
  atomic energy  EATOM  =     18082.44932260
  Solvation  Ediel_sol  =         0.00000000
  ---------------------------------------------------
  free energy    TOTEN  =       982.49535696 eV

  energy without entropy =      982.49174940  energy(sigma->0) =      982.49415444


--------------------------------------------------------------------------------------------------------




--------------------------------------- Iteration      1(   2)  ---------------------------------------


     EDDAV:  cpu time    9.4860: real time    9.4998
       DOS:  cpu time    0.0015: real time    0.0015
    --------------------------------------------
      LOOP:  cpu time    9.4874: real time    9.5013

 eigenvalue-minimisations  :   376
 total energy-change (2. order) :-0.7187818E+03  (-0.6422905E+03)
 number of electron     143.0000000 magnetization      13.0000000
 augmentation part      143.0000000 magnetization      13.0000000

 Free energy of the ion-electron system (eV)
  ---------------------------------------------------
  alpha Z        PSCENC =         9.34743202
  Ewald energy   TEWEN  =     24932.25472962
  -Hartree energ DENC   =    -41388.15812593
  -exchange      EXHF   =         0.00000000
  -V(xc)+E(xc)   XCENC  =       584.92379209
  PAW double counting   =     15965.26744864   -17340.97210982
  entropy T*S    EENTRO =        -0.01390965
  eigenvalues    EBANDS =      -581.38505892
  atomic energy  EATOM  =     18082.44932260
  Solvation  Ediel_sol  =         0.00000000
  ---------------------------------------------------
  free energy    TOTEN  =       263.71352064 eV

  energy without entropy =      263.72743029  energy(sigma->0) =      263.71815719


--------------------------------------------------------------------------------------------------------




--------------------------------------- Iteration      1(   3)  ---------------------------------------


     EDDAV:  cpu time   11.4236: real time   11.4368
       DOS:  cpu time    0.0030: real time    0.0030
    --------------------------------------------
      LOOP:  cpu time   11.4266: real time   11.4398

 eigenvalue-minimisations  :   480
 total energy-change (2. order) :-0.2524125E+03  (-0.2428514E+03)
 number of electron     143.0000000 magnetization      13.0000000
 augmentation part      143.0000000 magnetization      13.0000000

 Free energy of the ion-electron system (eV)
  ---------------------------------------------------
  alpha Z        PSCENC =         9.34743202
  Ewald energy   TEWEN  =     24932.25472962
  -Hartree energ DENC   =    -41388.15812593
  -exchange      EXHF   =         0.00000000
  -V(xc)+E(xc)   XCENC  =       584.92379209
  PAW double counting   =     15965.26744864   -17340.97210982
  entropy T*S    EENTRO =        -0.01846257
  eigenvalues    EBANDS =      -833.79302205
  atomic energy  EATOM  =     18082.44932260
  Solvation  Ediel_sol  =         0.00000000
  ---------------------------------------------------
  free energy    TOTEN  =        11.30100460 eV

  energy without entropy =       11.31946717  energy(sigma->0) =       11.30715879


--------------------------------------------------------------------------------------------------------




--------------------------------------- Iteration      1(   4)  ---------------------------------------


     EDDAV:  cpu time   10.6795: real time   10.6960
       DOS:  cpu time    0.0047: real time    0.0047
    --------------------------------------------
      LOOP:  cpu time   10.6842: real time   10.7007

 eigenvalue-minimisations  :   440
 total energy-change (2. order) :-0.4639517E+02  (-0.4251929E+02)
 number of electron     143.0000000 magnetization      13.0000000
 augmentation part      143.0000000 magnetization      13.0000000

 Free energy of the ion-electron system (eV)
  ---------------------------------------------------
  alpha Z        PSCENC =         9.34743202
  Ewald energy   TEWEN  =     24932.25472962
  -Hartree energ DENC   =    -41388.15812593
  -exchange      EXHF   =         0.00000000
  -V(xc)+E(xc)   XCENC  =       584.92379209
  PAW double counting   =     15965.26744864   -17340.97210982
  entropy T*S    EENTRO =         0.07290735
  eigenvalues    EBANDS =      -880.27956230
  atomic energy  EATOM  =     18082.44932260
  Solvation  Ediel_sol  =         0.00000000
  ---------------------------------------------------
  free energy    TOTEN  =       -35.09416573 eV

  energy without entropy =      -35.16707308  energy(sigma->0) =      -35.11846818


--------------------------------------------------------------------------------------------------------




--------------------------------------- Iteration      1(   5)  ---------------------------------------


     EDDAV:  cpu time   11.5623: real time   11.5753
       DOS:  cpu time    0.0038: real time    0.0038
    CHARGE:  cpu time    0.8663: real time    0.8673
    MIXING:  cpu time    0.0404: real time    0.0425
    --------------------------------------------
      LOOP:  cpu time   12.4728: real time   12.4890

 eigenvalue-minimisations  :   488
 total energy-change (2. order) :-0.2261223E+01  (-0.2238500E+01)
 number of electron     142.9999726 magnetization      11.8598849
 augmentation part       87.5448757 magnetization      12.1770650

 Broyden mixing:
  rms(total) = 0.28980E+01    rms(broyden)= 0.28979E+01
  rms(prec ) = 0.29607E+01
  weight for this iteration     100.00

 Free energy of the ion-electron system (eV)
  ---------------------------------------------------
  alpha Z        PSCENC =         9.34743202
  Ewald energy   TEWEN  =     24932.25472962
  -Hartree energ DENC   =    -41388.15812593
  -exchange      EXHF   =         0.00000000
  -V(xc)+E(xc)   XCENC  =       584.92379209
  PAW double counting   =     15965.26744864   -17340.97210982
  entropy T*S    EENTRO =         0.08317373
  eigenvalues    EBANDS =      -882.55105199
  atomic energy  EATOM  =     18082.44932260
  Solvation  Ediel_sol  =         0.00000000
  ---------------------------------------------------
  free energy    TOTEN  =       -37.35538904 eV

  energy without entropy =      -37.43856277  energy(sigma->0) =      -37.38311362


--------------------------------------------------------------------------------------------------------




--------------------------------------- Iteration      1(   6)  ---------------------------------------


    POTLOK:  cpu time    2.8354: real time    2.8383
    SETDIJ:  cpu time    0.0235: real time    0.0236
     EDDAV:  cpu time   10.2602: real time   10.2767
       DOS:  cpu time    0.0009: real time    0.0009
    CHARGE:  cpu time    0.8466: real time    0.8498
    MIXING:  cpu time    0.0447: real time    0.0467
    --------------------------------------------
      LOOP:  cpu time   14.0114: real time   14.0359

 eigenvalue-minimisations  :   412
 total energy-change (2. order) : 0.2392960E+02  (-0.1397574E+02)
 number of electron     142.9999707 magnetization      11.1609697
 augmentation part       94.7497939 magnetization       8.0744133

 Broyden mixing:
  rms(total) = 0.12041E+01    rms(broyden)= 0.12038E+01
  rms(prec ) = 0.12658E+01
  weight for this iteration     100.00

 eigenvalues of (default mixing * dielectric matrix)
  average eigenvalue GAMMA=   0.8175
  0.8175

 Free energy of the ion-electron system (eV)
  ---------------------------------------------------
  alpha Z        PSCENC =         9.34743202
  Ewald energy   TEWEN  =     24932.25472962
  -Hartree energ DENC   =    -41179.05349973
  -exchange      EXHF   =         0.00000000
  -V(xc)+E(xc)   XCENC  =       588.36644350
  PAW double counting   =     16161.31098357   -17493.29179598
  entropy T*S    EENTRO =        -0.03666350
  eigenvalues    EBANDS =     -1114.77274340
  atomic energy  EATOM  =     18082.44932260
  Solvation  Ediel_sol  =         0.00000000
  ---------------------------------------------------
  free energy    TOTEN  =       -13.42579130 eV

  energy without entropy =      -13.38912780  energy(sigma->0) =      -13.41357013


--------------------------------------------------------------------------------------------------------




--------------------------------------- Iteration      1(   7)  ---------------------------------------


    POTLOK:  cpu time    2.8158: real time    2.8213
    SETDIJ:  cpu time    0.0231: real time    0.0232
     EDDAV:  cpu time   11.0290: real time   11.0419
       DOS:  cpu time    0.0009: real time    0.0009
    CHARGE:  cpu time    0.8547: real time    0.8577
    MIXING:  cpu time    0.0494: real time    0.0494
    --------------------------------------------
      LOOP:  cpu time   14.7730: real time   14.7944

 eigenvalue-minimisations  :   456
 total energy-change (2. order) : 0.4576468E+01  (-0.3230515E+01)
 number of electron     142.9999712 magnetization      10.2030318
 augmentation part       91.8324454 magnetization       6.8581426

 Broyden mixing:
  rms(total) = 0.52191E+00    rms(broyden)= 0.52179E+00
  rms(prec ) = 0.54150E+00
  weight for this iteration     100.00

 eigenvalues of (default mixing * dielectric matrix)
  average eigenvalue GAMMA=   0.8939
  1.1329  0.6550

 Free energy of the ion-electron system (eV)
  ---------------------------------------------------
  alpha Z        PSCENC =         9.34743202
  Ewald energy   TEWEN  =     24932.25472962
  -Hartree energ DENC   =    -41336.16886458
  -exchange      EXHF   =         0.00000000
  -V(xc)+E(xc)   XCENC  =       595.80147360
  PAW double counting   =     16477.43635475   -17862.34437621
  entropy T*S    EENTRO =        -0.02861842
  eigenvalues    EBANDS =      -907.59677674
  atomic energy  EATOM  =     18082.44932260
  Solvation  Ediel_sol  =         0.00000000
  ---------------------------------------------------
  free energy    TOTEN  =        -8.84932338 eV

  energy without entropy =       -8.82070495  energy(sigma->0) =       -8.83978390


--------------------------------------------------------------------------------------------------------




--------------------------------------- Iteration      1(   8)  ---------------------------------------


    POTLOK:  cpu time    2.8136: real time    2.8230
    SETDIJ:  cpu time    0.0232: real time    0.0232
     EDDAV:  cpu time   10.9300: real time   10.9449
       DOS:  cpu time    0.0009: real time    0.0009
    CHARGE:  cpu time    0.8598: real time    0.8608
    MIXING:  cpu time    0.0515: real time    0.0516
    --------------------------------------------
      LOOP:  cpu time   14.6790: real time   14.7043

 eigenvalue-minimisations  :   448
 total energy-change (2. order) :-0.1825828E+00  (-0.5873518E+00)
 number of electron     142.9999717 magnetization       9.6607049
 augmentation part       91.5056461 magnetization       5.9848818

 Broyden mixing:
  rms(total) = 0.47270E+00    rms(broyden)= 0.47262E+00
  rms(prec ) = 0.49200E+00
  weight for this iteration     100.00

 eigenvalues of (default mixing * dielectric matrix)
  average eigenvalue GAMMA=   0.8026
  1.2364  0.6585  0.5130

 Free energy of the ion-electron system (eV)
  ---------------------------------------------------
  alpha Z        PSCENC =         9.34743202
  Ewald energy   TEWEN  =     24932.25472962
  -Hartree energ DENC   =    -41369.88271605
  -exchange      EXHF   =         0.00000000
  -V(xc)+E(xc)   XCENC  =       595.38530216
  PAW double counting   =     16712.53125549   -18108.11576798
  entropy T*S    EENTRO =        -0.02516179
  eigenvalues    EBANDS =      -862.97630220
  atomic energy  EATOM  =     18082.44932260
  Solvation  Ediel_sol  =         0.00000000
  ---------------------------------------------------
  free energy    TOTEN  =        -9.03190615 eV

  energy without entropy =       -9.00674436  energy(sigma->0) =       -9.02351888


--------------------------------------------------------------------------------------------------------




--------------------------------------- Iteration      1(   9)  ---------------------------------------


    POTLOK:  cpu time    2.8171: real time    2.8261
    SETDIJ:  cpu time    0.0236: real time    0.0236
     EDDAV:  cpu time   11.4833: real time   11.4968
       DOS:  cpu time    0.0009: real time    0.0009
    CHARGE:  cpu time    0.8578: real time    0.8589
    MIXING:  cpu time    0.0535: real time    0.0535
    --------------------------------------------
      LOOP:  cpu time   15.2362: real time   15.2599

 eigenvalue-minimisations  :   480
 total energy-change (2. order) :-0.1752354E+01  (-0.1325532E+00)
 number of electron     142.9999715 magnetization       8.4709658
 augmentation part       91.5267453 magnetization       5.2412739

 Broyden mixing:
  rms(total) = 0.29861E+00    rms(broyden)= 0.29857E+00
  rms(prec ) = 0.30534E+00
  weight for this iteration     100.00

 eigenvalues of (default mixing * dielectric matrix)
  average eigenvalue GAMMA=   0.9231
  1.2371  1.2371  0.7554  0.4630

 Free energy of the ion-electron system (eV)
  ---------------------------------------------------
  alpha Z        PSCENC =         9.34743202
  Ewald energy   TEWEN  =     24932.25472962
  -Hartree energ DENC   =    -41375.09893359
  -exchange      EXHF   =         0.00000000
  -V(xc)+E(xc)   XCENC  =       593.44451483
  PAW double counting   =     16786.88203700   -18183.58482843
  entropy T*S    EENTRO =        -0.02986165
  eigenvalues    EBANDS =      -856.44867221
  atomic energy  EATOM  =     18082.44932260
  Solvation  Ediel_sol  =         0.00000000
  ---------------------------------------------------
  free energy    TOTEN  =       -10.78425982 eV

  energy without entropy =      -10.75439817  energy(sigma->0) =      -10.77430594


--------------------------------------------------------------------------------------------------------




--------------------------------------- Iteration      1(  10)  ---------------------------------------


    POTLOK:  cpu time    2.8114: real time    2.8172
    SETDIJ:  cpu time    0.0231: real time    0.0232
     EDDAV:  cpu time   12.4903: real time   12.5050
       DOS:  cpu time    0.0009: real time    0.0009
    CHARGE:  cpu time    0.8658: real time    0.8668
    MIXING:  cpu time    0.0606: real time    0.0607
    --------------------------------------------
      LOOP:  cpu time   16.2522: real time   16.2738

 eigenvalue-minimisations  :   532
 total energy-change (2. order) :-0.4593238E+01  (-0.2441484E+00)
 number of electron     142.9999713 magnetization       7.6434215
 augmentation part       91.8308925 magnetization       5.4013247

 Broyden mixing:
  rms(total) = 0.24215E+00    rms(broyden)= 0.24203E+00
  rms(prec ) = 0.24775E+00
  weight for this iteration     100.00

 eigenvalues of (default mixing * dielectric matrix)
  average eigenvalue GAMMA=   0.9694
  1.6514  1.4101  0.6350  0.6350  0.5155

 Free energy of the ion-electron system (eV)
  ---------------------------------------------------
  alpha Z        PSCENC =         9.34743202
  Ewald energy   TEWEN  =     24932.25472962
  -Hartree energ DENC   =    -41376.93345447
  -exchange      EXHF   =         0.00000000
  -V(xc)+E(xc)   XCENC  =       589.25488651
  PAW double counting   =     16857.32192542   -18251.96457334
  entropy T*S    EENTRO =         0.02295098
  eigenvalues    EBANDS =      -857.13071691
  atomic energy  EATOM  =     18082.44932260
  Solvation  Ediel_sol  =         0.00000000
  ---------------------------------------------------
  free energy    TOTEN  =       -15.37749758 eV

  energy without entropy =      -15.40044856  energy(sigma->0) =      -15.38514791


--------------------------------------------------------------------------------------------------------




--------------------------------------- Iteration      1(  11)  ---------------------------------------


    POTLOK:  cpu time    2.8152: real time    2.8206
    SETDIJ:  cpu time    0.0231: real time    0.0251
     EDDAV:  cpu time   11.5088: real time   11.5245
       DOS:  cpu time    0.0009: real time    0.0009
    CHARGE:  cpu time    0.8529: real time    0.8560
    MIXING:  cpu time    0.0627: real time    0.0627
    --------------------------------------------
      LOOP:  cpu time   15.2635: real time   15.2898

 eigenvalue-minimisations  :   480
 total energy-change (2. order) :-0.2887467E+01  (-0.1225128E+00)
 number of electron     142.9999713 magnetization       6.3560295
 augmentation part       91.8551487 magnetization       4.3748418

 Broyden mixing:
  rms(total) = 0.18722E+00    rms(broyden)= 0.18720E+00
  rms(prec ) = 0.19065E+00
  weight for this iteration     100.00

 eigenvalues of (default mixing * dielectric matrix)
  average eigenvalue GAMMA=   1.0758
  2.2355  1.7034  0.7525  0.7525  0.5055  0.5055

 Free energy of the ion-electron system (eV)
  ---------------------------------------------------
  alpha Z        PSCENC =         9.34743202
  Ewald energy   TEWEN  =     24932.25472962
  -Hartree energ DENC   =    -41385.42229430
  -exchange      EXHF   =         0.00000000
  -V(xc)+E(xc)   XCENC  =       587.15569458
  PAW double counting   =     16888.58621062   -18283.81816574
  entropy T*S    EENTRO =         0.02805980
  eigenvalues    EBANDS =      -848.84595409
  atomic energy  EATOM  =     18082.44932260
  Solvation  Ediel_sol  =         0.00000000
  ---------------------------------------------------
  free energy    TOTEN  =       -18.26496489 eV

  energy without entropy =      -18.29302469  energy(sigma->0) =      -18.27431815


--------------------------------------------------------------------------------------------------------




--------------------------------------- Iteration      1(  12)  ---------------------------------------


    POTLOK:  cpu time    2.8113: real time    2.8168
    SETDIJ:  cpu time    0.0232: real time    0.0232
     EDDAV:  cpu time   12.0675: real time   12.0859
       DOS:  cpu time    0.0009: real time    0.0009
    CHARGE:  cpu time    0.8524: real time    0.8534
    MIXING:  cpu time    0.0683: real time    0.0684
    --------------------------------------------
      LOOP:  cpu time   15.8236: real time   15.8487

 eigenvalue-minimisations  :   512
 total energy-change (2. order) :-0.5024970E+01  (-0.2793633E+00)
 number of electron     142.9999714 magnetization       5.3992847
 augmentation part       91.7406462 magnetization       3.7674686

 Broyden mixing:
  rms(total) = 0.13626E+00    rms(broyden)= 0.13625E+00
  rms(prec ) = 0.13866E+00
  weight for this iteration     100.00

 eigenvalues of (default mixing * dielectric matrix)
  average eigenvalue GAMMA=   1.1828
  2.4914  2.4914  0.8088  0.8088  0.6441  0.5514  0.4838

 Free energy of the ion-electron system (eV)
  ---------------------------------------------------
  alpha Z        PSCENC =         9.34743202
  Ewald energy   TEWEN  =     24932.25472962
  -Hartree energ DENC   =    -41395.44172130
  -exchange      EXHF   =         0.00000000
  -V(xc)+E(xc)   XCENC  =       583.62443562
  PAW double counting   =     16880.29003889   -18276.03102582
  entropy T*S    EENTRO =         0.02020891
  eigenvalues    EBANDS =      -839.80335517
  atomic energy  EATOM  =     18082.44932260
  Solvation  Ediel_sol  =         0.00000000
  ---------------------------------------------------
  free energy    TOTEN  =       -23.28993463 eV

  energy without entropy =      -23.31014354  energy(sigma->0) =      -23.29667093


--------------------------------------------------------------------------------------------------------




--------------------------------------- Iteration      1(  13)  ---------------------------------------


    POTLOK:  cpu time    2.8187: real time    2.8212
    SETDIJ:  cpu time    0.0232: real time    0.0232
     EDDAV:  cpu time   11.6285: real time   11.6425
       DOS:  cpu time    0.0009: real time    0.0009
    CHARGE:  cpu time    0.8458: real time    0.8487
    MIXING:  cpu time    0.0742: real time    0.0743
    --------------------------------------------
      LOOP:  cpu time   15.3912: real time   15.4107

 eigenvalue-minimisations  :   488
 total energy-change (2. order) :-0.3458008E+01  (-0.1555742E+00)
 number of electron     142.9999713 magnetization       4.8139357
 augmentation part       91.7536173 magnetization       3.4664951

 Broyden mixing:
  rms(total) = 0.10533E+00    rms(broyden)= 0.10532E+00
  rms(prec ) = 0.10806E+00
  weight for this iteration     100.00

 eigenvalues of (default mixing * dielectric matrix)
  average eigenvalue GAMMA=   1.2181
  2.7882  2.7882  0.9400  0.9400  0.6391  0.6391  0.5331  0.4768

 Free energy of the ion-electron system (eV)
  ---------------------------------------------------
  alpha Z        PSCENC =         9.34743202
  Ewald energy   TEWEN  =     24932.25472962
  -Hartree energ DENC   =    -41389.99890693
  -exchange      EXHF   =         0.00000000
  -V(xc)+E(xc)   XCENC  =       580.90766043
  PAW double counting   =     16832.05996498   -18225.93036764
  entropy T*S    EENTRO =         0.02092961
  eigenvalues    EBANDS =      -847.85870724
  atomic energy  EATOM  =     18082.44932260
  Solvation  Ediel_sol  =         0.00000000
  ---------------------------------------------------
  free energy    TOTEN  =       -26.74794256 eV

  energy without entropy =      -26.76887217  energy(sigma->0) =      -26.75491909


--------------------------------------------------------------------------------------------------------




--------------------------------------- Iteration      1(  14)  ---------------------------------------


    POTLOK:  cpu time    2.8094: real time    2.8127
    SETDIJ:  cpu time    0.0233: real time    0.0233
     EDDAV:  cpu time   11.5055: real time   11.5188
       DOS:  cpu time    0.0009: real time    0.0009
    CHARGE:  cpu time    0.8593: real time    0.8603
    MIXING:  cpu time    0.0789: real time    0.0810
    --------------------------------------------
      LOOP:  cpu time   15.2772: real time   15.2970

 eigenvalue-minimisations  :   480
 total energy-change (2. order) :-0.1934907E+01  (-0.5535599E-01)
 number of electron     142.9999714 magnetization       3.8928574
 augmentation part       91.7879848 magnetization       2.6359583

 Broyden mixing:
  rms(total) = 0.86912E-01    rms(broyden)= 0.86901E-01
  rms(prec ) = 0.89350E-01
  weight for this iteration     100.00

 eigenvalues of (default mixing * dielectric matrix)
  average eigenvalue GAMMA=   1.3002
  3.2476  3.2476  1.1213  1.1213  0.7253  0.7253  0.5907  0.4615  0.4615

 Free energy of the ion-electron system (eV)
  ---------------------------------------------------
  alpha Z        PSCENC =         9.34743202
  Ewald energy   TEWEN  =     24932.25472962
  -Hartree energ DENC   =    -41380.88444397
  -exchange      EXHF   =         0.00000000
  -V(xc)+E(xc)   XCENC  =       579.21387419
  PAW double counting   =     16795.99080332   -18188.92190891
  entropy T*S    EENTRO =         0.02557092
  eigenvalues    EBANDS =      -858.15822941
  atomic energy  EATOM  =     18082.44932260
  Solvation  Ediel_sol  =         0.00000000
  ---------------------------------------------------
  free energy    TOTEN  =       -28.68284963 eV

  energy without entropy =      -28.70842055  energy(sigma->0) =      -28.69137327


--------------------------------------------------------------------------------------------------------




--------------------------------------- Iteration      1(  15)  ---------------------------------------


    POTLOK:  cpu time    2.8151: real time    2.8224
    SETDIJ:  cpu time    0.0235: real time    0.0236
     EDDAV:  cpu time   11.7529: real time   11.7692
       DOS:  cpu time    0.0009: real time    0.0009
    CHARGE:  cpu time    2.0325: real time    2.0337
    MIXING:  cpu time    0.1675: real time    0.1676
    --------------------------------------------
      LOOP:  cpu time   16.7924: real time   16.8174

 eigenvalue-minimisations  :   496
 total energy-change (2. order) :-0.2098586E+01  (-0.5756573E-01)
 number of electron     142.9999713 magnetization       3.1235537
 augmentation part       91.8253470 magnetization       2.0346164

 Broyden mixing:
  rms(total) = 0.64638E-01    rms(broyden)= 0.64630E-01
  rms(prec ) = 0.66230E-01
  weight for this iteration     100.00

 eigenvalues of (default mixing * dielectric matrix)
  average eigenvalue GAMMA=   1.3655
  3.6398  3.6398  1.7168  0.9234  0.9234  0.7382  0.5833  0.5833  0.4536  0.4536

 Free energy of the ion-electron system (eV)
  ---------------------------------------------------
  alpha Z        PSCENC =         9.34743202
  Ewald energy   TEWEN  =     24932.25472962
  -Hartree energ DENC   =    -41367.71894567
  -exchange      EXHF   =         0.00000000
  -V(xc)+E(xc)   XCENC  =       577.25983749
  PAW double counting   =     16756.60903387   -18149.76276966
  entropy T*S    EENTRO =         0.03264786
  eigenvalues    EBANDS =      -871.25272411
  atomic energy  EATOM  =     18082.44932260
  Solvation  Ediel_sol  =         0.00000000
  ---------------------------------------------------
  free energy    TOTEN  =       -30.78143599 eV

  energy without entropy =      -30.81408385  energy(sigma->0) =      -30.79231861


--------------------------------------------------------------------------------------------------------




--------------------------------------- Iteration      1(  16)  ---------------------------------------


    POTLOK:  cpu time    2.8171: real time    2.8216
    SETDIJ:  cpu time    0.0233: real time    0.0233
     EDDAV:  cpu time   12.1391: real time   12.1557
       DOS:  cpu time    0.0043: real time    0.0043
    CHARGE:  cpu time    0.8591: real time    0.8602
    MIXING:  cpu time    0.0948: real time    0.0949
    --------------------------------------------
      LOOP:  cpu time   15.9377: real time   15.9601

 eigenvalue-minimisations  :   512
 total energy-change (2. order) :-0.7474917E+00  (-0.1647555E-01)
 number of electron     142.9999714 magnetization       2.5240024
 augmentation part       91.7784573 magnetization       1.5309834

 Broyden mixing:
  rms(total) = 0.46381E-01    rms(broyden)= 0.46376E-01
  rms(prec ) = 0.48070E-01
  weight for this iteration     100.00

 eigenvalues of (default mixing * dielectric matrix)
  average eigenvalue GAMMA=   1.4211
  5.4039  2.3901  2.3901  1.0177  1.0177  0.7032  0.6449  0.6449  0.4860  0.4860
  0.4472

 Free energy of the ion-electron system (eV)
  ---------------------------------------------------
  alpha Z        PSCENC =         9.34743202
  Ewald energy   TEWEN  =     24932.25472962
  -Hartree energ DENC   =    -41364.49643466
  -exchange      EXHF   =         0.00000000
  -V(xc)+E(xc)   XCENC  =       576.63822158
  PAW double counting   =     16749.34664583   -18143.83853972
  entropy T*S    EENTRO =         0.02016987
  eigenvalues    EBANDS =      -873.25047481
  atomic energy  EATOM  =     18082.44932260
  Solvation  Ediel_sol  =         0.00000000
  ---------------------------------------------------
  free energy    TOTEN  =       -31.52892767 eV

  energy without entropy =      -31.54909754  energy(sigma->0) =      -31.53565096


--------------------------------------------------------------------------------------------------------




--------------------------------------- Iteration      1(  17)  ---------------------------------------


    POTLOK:  cpu time    2.8131: real time    2.8186
    SETDIJ:  cpu time    0.0232: real time    0.0232
     EDDAV:  cpu time   12.7132: real time   12.7317
       DOS:  cpu time    0.0044: real time    0.0044
    CHARGE:  cpu time    0.8545: real time    0.8555
    MIXING:  cpu time    0.1076: real time    0.1098
    --------------------------------------------
      LOOP:  cpu time   16.5159: real time   16.5432

 eigenvalue-minimisations  :   504
 total energy-change (2. order) :-0.3844512E+00  (-0.5521761E-02)
 number of electron     142.9999714 magnetization       2.0343701
 augmentation part       91.7555655 magnetization       1.1399497

 Broyden mixing:
  rms(total) = 0.36690E-01    rms(broyden)= 0.36684E-01
  rms(prec ) = 0.38538E-01
  weight for this iteration     100.00

 eigenvalues of (default mixing * dielectric matrix)
  average eigenvalue GAMMA=   1.4538
  6.2751  2.4875  2.4875  1.0162  1.0162  0.7474  0.7474  0.6897  0.5396  0.5396
  0.4499  0.4499

 Free energy of the ion-electron system (eV)
  ---------------------------------------------------
  alpha Z        PSCENC =         9.34743202
  Ewald energy   TEWEN  =     24932.25472962
  -Hartree energ DENC   =    -41361.99261818
  -exchange      EXHF   =         0.00000000
  -V(xc)+E(xc)   XCENC  =       576.25961186
  PAW double counting   =     16754.13100710   -18149.39267884
  entropy T*S    EENTRO =         0.00718100
  eigenvalues    EBANDS =      -874.97736608
  atomic energy  EATOM  =     18082.44932260
  Solvation  Ediel_sol  =         0.00000000
  ---------------------------------------------------
  free energy    TOTEN  =       -31.91337891 eV

  energy without entropy =      -31.92055991  energy(sigma->0) =      -31.91577257


--------------------------------------------------------------------------------------------------------




--------------------------------------- Iteration      1(  18)  ---------------------------------------


    POTLOK:  cpu time    2.8138: real time    2.8229
    SETDIJ:  cpu time    0.0236: real time    0.0236
     EDDAV:  cpu time   12.3421: real time   12.3584
       DOS:  cpu time    0.0041: real time    0.0041
    CHARGE:  cpu time    0.8646: real time    0.8656
    MIXING:  cpu time    0.1099: real time    0.1100
    --------------------------------------------
      LOOP:  cpu time   16.1581: real time   16.1847

 eigenvalue-minimisations  :   524
 total energy-change (2. order) :-0.3760384E+00  (-0.2607998E-02)
 number of electron     142.9999714 magnetization       1.5677790
 augmentation part       91.7795187 magnetization       0.7551067

 Broyden mixing:
  rms(total) = 0.23013E-01    rms(broyden)= 0.23005E-01
  rms(prec ) = 0.24555E-01
  weight for this iteration     100.00

 eigenvalues of (default mixing * dielectric matrix)
  average eigenvalue GAMMA=   1.5434
  7.1419  2.6887  2.6887  1.3463  1.0368  1.0368  0.7378  0.7378  0.6804  0.5389
  0.5212  0.4544  0.4544

 Free energy of the ion-electron system (eV)
  ---------------------------------------------------
  alpha Z        PSCENC =         9.34743202
  Ewald energy   TEWEN  =     24932.25472962
  -Hartree energ DENC   =    -41357.20866678
  -exchange      EXHF   =         0.00000000
  -V(xc)+E(xc)   XCENC  =       575.79017476
  PAW double counting   =     16759.52346860   -18154.77897888
  entropy T*S    EENTRO =        -0.00256431
  eigenvalues    EBANDS =      -879.66433499
  atomic energy  EATOM  =     18082.44932260
  Solvation  Ediel_sol  =         0.00000000
  ---------------------------------------------------
  free energy    TOTEN  =       -32.28941736 eV

  energy without entropy =      -32.28685305  energy(sigma->0) =      -32.28856259


--------------------------------------------------------------------------------------------------------




--------------------------------------- Iteration      1(  19)  ---------------------------------------


    POTLOK:  cpu time    2.8167: real time    2.8217
    SETDIJ:  cpu time    0.0231: real time    0.0232
     EDDAV:  cpu time   12.1047: real time   12.1211
       DOS:  cpu time    0.0041: real time    0.0041
    CHARGE:  cpu time    0.8595: real time    0.8605
    MIXING:  cpu time    0.1150: real time    0.1171
    --------------------------------------------
      LOOP:  cpu time   15.9232: real time   15.9476

 eigenvalue-minimisations  :   512
 total energy-change (2. order) :-0.4451830E+00  (-0.1951046E-02)
 number of electron     142.9999713 magnetization       1.2742718
 augmentation part       91.8006919 magnetization       0.5386238

 Broyden mixing:
  rms(total) = 0.17491E-01    rms(broyden)= 0.17482E-01
  rms(prec ) = 0.18732E-01
  weight for this iteration     100.00

 eigenvalues of (default mixing * dielectric matrix)
  average eigenvalue GAMMA=   1.6349
  8.2836  2.9043  2.9043  1.8454  0.9933  0.9933  0.8161  0.8161  0.6890  0.6890
  0.5193  0.5193  0.4578  0.4578

 Free energy of the ion-electron system (eV)
  ---------------------------------------------------
  alpha Z        PSCENC =         9.34743202
  Ewald energy   TEWEN  =     24932.25472962
  -Hartree energ DENC   =    -41351.33418319
  -exchange      EXHF   =         0.00000000
  -V(xc)+E(xc)   XCENC  =       575.26787864
  PAW double counting   =     16762.90856365   -18157.90097044
  entropy T*S    EENTRO =        -0.01187468
  eigenvalues    EBANDS =      -885.71549859
  atomic energy  EATOM  =     18082.44932260
  Solvation  Ediel_sol  =         0.00000000
  ---------------------------------------------------
  free energy    TOTEN  =       -32.73460037 eV

  energy without entropy =      -32.72272569  energy(sigma->0) =      -32.73064215


--------------------------------------------------------------------------------------------------------




--------------------------------------- Iteration      1(  20)  ---------------------------------------


    POTLOK:  cpu time    2.8028: real time    2.8076
    SETDIJ:  cpu time    0.0231: real time    0.0232
     EDDAV:  cpu time   12.1313: real time   12.1457
       DOS:  cpu time    0.0040: real time    0.0040
    CHARGE:  cpu time    0.8602: real time    0.8611
    MIXING:  cpu time    0.1251: real time    0.1272
    --------------------------------------------
      LOOP:  cpu time   15.9466: real time   15.9688

 eigenvalue-minimisations  :   512
 total energy-change (2. order) :-0.2209705E+00  (-0.7109145E-03)
 number of electron     142.9999714 magnetization       1.0521552
 augmentation part       91.7937067 magnetization       0.3754519

 Broyden mixing:
  rms(total) = 0.10984E-01    rms(broyden)= 0.10974E-01
  rms(prec ) = 0.11931E-01
  weight for this iteration     100.00

 eigenvalues of (default mixing * dielectric matrix)
  average eigenvalue GAMMA=   1.6776
  9.1903  3.0898  3.0898  2.0661  1.0909  0.9902  0.9902  0.7314  0.7314  0.6969
  0.5513  0.5513  0.4787  0.4583  0.4583

 Free energy of the ion-electron system (eV)
  ---------------------------------------------------
  alpha Z        PSCENC =         9.34743202
  Ewald energy   TEWEN  =     24932.25472962
  -Hartree energ DENC   =    -41348.66339091
  -exchange      EXHF   =         0.00000000
  -V(xc)+E(xc)   XCENC  =       575.05161583
  PAW double counting   =     16763.05207203   -18158.03343311
  entropy T*S    EENTRO =        -0.01782808
  eigenvalues    EBANDS =      -888.39609086
  atomic energy  EATOM  =     18082.44932260
  Solvation  Ediel_sol  =         0.00000000
  ---------------------------------------------------
  free energy    TOTEN  =       -32.95557086 eV

  energy without entropy =      -32.93774278  energy(sigma->0) =      -32.94962817


--------------------------------------------------------------------------------------------------------




--------------------------------------- Iteration      1(  21)  ---------------------------------------


    POTLOK:  cpu time    2.8063: real time    2.8099
    SETDIJ:  cpu time    0.0231: real time    0.0231
     EDDAV:  cpu time   12.6827: real time   12.7010
       DOS:  cpu time    0.0009: real time    0.0009
    CHARGE:  cpu time    0.8962: real time    1.0417
    MIXING:  cpu time    0.1377: real time    0.1379
    --------------------------------------------
      LOOP:  cpu time   16.5469: real time   16.7145

 eigenvalue-minimisations  :   544
 total energy-change (2. order) :-0.1044795E+00  (-0.3595371E-03)
 number of electron     142.9999714 magnetization       0.8575549
 augmentation part       91.7854091 magnetization       0.2336236

 Broyden mixing:
  rms(total) = 0.75998E-02    rms(broyden)= 0.75905E-02
  rms(prec ) = 0.83603E-02
  weight for this iteration     100.00

 eigenvalues of (default mixing * dielectric matrix)
  average eigenvalue GAMMA=   1.7250
 10.0109  3.3309  3.3309  1.9944  1.5243  1.0060  1.0060  0.7921  0.7921  0.6393
  0.6393  0.6278  0.4549  0.4549  0.4979  0.4979

 Free energy of the ion-electron system (eV)
  ---------------------------------------------------
  alpha Z        PSCENC =         9.34743202
  Ewald energy   TEWEN  =     24932.25472962
  -Hartree energ DENC   =    -41347.18515828
  -exchange      EXHF   =         0.00000000
  -V(xc)+E(xc)   XCENC  =       574.95414236
  PAW double counting   =     16763.64392474   -18158.61170261
  entropy T*S    EENTRO =        -0.02262766
  eigenvalues    EBANDS =      -889.89011313
  atomic energy  EATOM  =     18082.44932260
  Solvation  Ediel_sol  =         0.00000000
  ---------------------------------------------------
  free energy    TOTEN  =       -33.06005034 eV

  energy without entropy =      -33.03742268  energy(sigma->0) =      -33.05250778


--------------------------------------------------------------------------------------------------------




--------------------------------------- Iteration      1(  22)  ---------------------------------------


    POTLOK:  cpu time    2.7906: real time    2.7969
    SETDIJ:  cpu time    0.0233: real time    0.0233
     EDDAV:  cpu time   11.6032: real time   11.6177
       DOS:  cpu time    0.0009: real time    0.0009
    CHARGE:  cpu time    0.8640: real time    0.8650
    MIXING:  cpu time    0.1458: real time    0.1460
    --------------------------------------------
      LOOP:  cpu time   15.4279: real time   15.4499

 eigenvalue-minimisations  :   484
 total energy-change (2. order) :-0.6564399E-01  (-0.1970336E-03)
 number of electron     142.9999714 magnetization       0.7568399
 augmentation part       91.7829102 magnetization       0.1840881

 Broyden mixing:
  rms(total) = 0.49945E-02    rms(broyden)= 0.49814E-02
  rms(prec ) = 0.56161E-02
  weight for this iteration     100.00

 eigenvalues of (default mixing * dielectric matrix)
  average eigenvalue GAMMA=   1.7646
 10.7403  3.5189  3.5189  1.9318  1.9318  0.9962  0.9962  0.8766  0.8766  0.7551
  0.7551  0.6308  0.5686  0.4554  0.4554  0.4949  0.4949

 Free energy of the ion-electron system (eV)
  ---------------------------------------------------
  alpha Z        PSCENC =         9.34743202
  Ewald energy   TEWEN  =     24932.25472962
  -Hartree energ DENC   =    -41345.89402365
  -exchange      EXHF   =         0.00000000
  -V(xc)+E(xc)   XCENC  =       574.88148172
  PAW double counting   =     16764.93263901   -18159.87564929
  entropy T*S    EENTRO =        -0.02706444
  eigenvalues    EBANDS =      -891.19456190
  atomic energy  EATOM  =     18082.44932260
  Solvation  Ediel_sol  =         0.00000000
  ---------------------------------------------------
  free energy    TOTEN  =       -33.12569433 eV

  energy without entropy =      -33.09862988  energy(sigma->0) =      -33.11667285


--------------------------------------------------------------------------------------------------------




--------------------------------------- Iteration      1(  23)  ---------------------------------------


    POTLOK:  cpu time    2.7937: real time    2.8019
    SETDIJ:  cpu time    0.0231: real time    0.0231
     EDDAV:  cpu time    9.0632: real time    9.0759
       DOS:  cpu time    0.0009: real time    0.0009
    CHARGE:  cpu time    0.8534: real time    0.8545
    MIXING:  cpu time    0.1612: real time    0.1613
    --------------------------------------------
      LOOP:  cpu time   12.8955: real time   12.9176

 eigenvalue-minimisations  :   348
 total energy-change (2. order) :-0.2394341E-01  (-0.6081978E-04)
 number of electron     142.9999714 magnetization       0.6771254
 augmentation part       91.7877377 magnetization       0.1367592

 Broyden mixing:
  rms(total) = 0.38686E-02    rms(broyden)= 0.38600E-02
  rms(prec ) = 0.43519E-02
  weight for this iteration     100.00

 eigenvalues of (default mixing * dielectric matrix)
  average eigenvalue GAMMA=   1.7788
 11.2105  3.7226  3.7226  2.1333  2.1333  1.0285  1.0285  0.9082  0.9082  0.7647
  0.7647  0.6944  0.5568  0.5568  0.4537  0.4537  0.4886  0.4886

 Free energy of the ion-electron system (eV)
  ---------------------------------------------------
  alpha Z        PSCENC =         9.34743202
  Ewald energy   TEWEN  =     24932.25472962
  -Hartree energ DENC   =    -41344.82445084
  -exchange      EXHF   =         0.00000000
  -V(xc)+E(xc)   XCENC  =       574.84246577
  PAW double counting   =     16764.43807337   -18159.29939277
  entropy T*S    EENTRO =        -0.02962508
  eigenvalues    EBANDS =      -892.32819241
  atomic energy  EATOM  =     18082.44932260
  Solvation  Ediel_sol  =         0.00000000
  ---------------------------------------------------
  free energy    TOTEN  =       -33.14963773 eV

  energy without entropy =      -33.12001265  energy(sigma->0) =      -33.13976271


--------------------------------------------------------------------------------------------------------




--------------------------------------- Iteration      1(  24)  ---------------------------------------


    POTLOK:  cpu time    2.7907: real time    2.7959
    SETDIJ:  cpu time    0.0232: real time    0.0232
     EDDAV:  cpu time   10.0203: real time   10.0352
       DOS:  cpu time    0.0010: real time    0.0010
    CHARGE:  cpu time    0.8501: real time    0.8510
    MIXING:  cpu time    0.1715: real time    0.1727
    --------------------------------------------
      LOOP:  cpu time   13.8568: real time   13.8791

 eigenvalue-minimisations  :   400
 total energy-change (2. order) :-0.1823741E-01  (-0.6167186E-04)
 number of electron     142.9999714 magnetization       0.6070760
 augmentation part       91.7907520 magnetization       0.0929698

 Broyden mixing:
  rms(total) = 0.29727E-02    rms(broyden)= 0.29655E-02
  rms(prec ) = 0.33343E-02
  weight for this iteration     100.00

 eigenvalues of (default mixing * dielectric matrix)
  average eigenvalue GAMMA=   1.8074
 11.7038  4.0027  4.0027  2.3227  2.3227  1.0877  1.0877  0.9897  0.9897  0.7729
  0.7729  0.7699  0.5921  0.5921  0.4939  0.4939  0.4545  0.4545  0.4350

 Free energy of the ion-electron system (eV)
  ---------------------------------------------------
  alpha Z        PSCENC =         9.34743202
  Ewald energy   TEWEN  =     24932.25472962
  -Hartree energ DENC   =    -41344.03083987
  -exchange      EXHF   =         0.00000000
  -V(xc)+E(xc)   XCENC  =       574.81673066
  PAW double counting   =     16764.25328939   -18159.10283657
  entropy T*S    EENTRO =        -0.03160350
  eigenvalues    EBANDS =      -893.12409950
  atomic energy  EATOM  =     18082.44932260
  Solvation  Ediel_sol  =         0.00000000
  ---------------------------------------------------
  free energy    TOTEN  =       -33.16787514 eV

  energy without entropy =      -33.13627165  energy(sigma->0) =      -33.15734065


--------------------------------------------------------------------------------------------------------




--------------------------------------- Iteration      1(  25)  ---------------------------------------


    POTLOK:  cpu time    2.7847: real time    2.7953
    SETDIJ:  cpu time    0.0235: real time    0.0236
     EDDAV:  cpu time    8.1227: real time    8.1321
       DOS:  cpu time    0.0010: real time    0.0010
    CHARGE:  cpu time    0.8560: real time    0.8570
    MIXING:  cpu time    0.1862: real time    0.1864
    --------------------------------------------
      LOOP:  cpu time   11.9742: real time   11.9953

 eigenvalue-minimisations  :   296
 total energy-change (2. order) :-0.1380067E-01  (-0.3332561E-04)
 number of electron     142.9999714 magnetization       0.5505894
 augmentation part       91.7881276 magnetization       0.0621819

 Broyden mixing:
  rms(total) = 0.21387E-02    rms(broyden)= 0.21305E-02
  rms(prec ) = 0.24006E-02
  weight for this iteration     100.00

 eigenvalues of (default mixing * dielectric matrix)
  average eigenvalue GAMMA=   1.8402
 12.1096  4.3723  4.3723  2.4064  2.4064  1.4764  1.0092  1.0092  1.0508  0.8068
  0.8068  0.7422  0.6869  0.6869  0.5448  0.4971  0.4971  0.4568  0.4568  0.4100

 Free energy of the ion-electron system (eV)
  ---------------------------------------------------
  alpha Z        PSCENC =         9.34743202
  Ewald energy   TEWEN  =     24932.25472962
  -Hartree energ DENC   =    -41343.46262610
  -exchange      EXHF   =         0.00000000
  -V(xc)+E(xc)   XCENC  =       574.80517824
  PAW double counting   =     16764.15686479   -18159.05579325
  entropy T*S    EENTRO =        -0.03343191
  eigenvalues    EBANDS =      -893.64335183
  atomic energy  EATOM  =     18082.44932260
  Solvation  Ediel_sol  =         0.00000000
  ---------------------------------------------------
  free energy    TOTEN  =       -33.18167581 eV

  energy without entropy =      -33.14824390  energy(sigma->0) =      -33.17053184


--------------------------------------------------------------------------------------------------------




--------------------------------------- Iteration      1(  26)  ---------------------------------------


    POTLOK:  cpu time    2.8038: real time    2.8115
    SETDIJ:  cpu time    0.0263: real time    0.0263
     EDDAV:  cpu time    7.8176: real time    7.8272
       DOS:  cpu time    0.0035: real time    0.0035
    CHARGE:  cpu time    0.8563: real time    0.8573
    MIXING:  cpu time    0.1899: real time    0.1901
    --------------------------------------------
      LOOP:  cpu time   11.6974: real time   11.7160

 eigenvalue-minimisations  :   284
 total energy-change (2. order) :-0.7409634E-02  (-0.2222584E-04)
 number of electron     142.9999714 magnetization       0.5149153
 augmentation part       91.7873635 magnetization       0.0516259

 Broyden mixing:
  rms(total) = 0.21485E-02    rms(broyden)= 0.21415E-02
  rms(prec ) = 0.23063E-02
  weight for this iteration     100.00

 eigenvalues of (default mixing * dielectric matrix)
  average eigenvalue GAMMA=   1.8373
 12.4188  4.6023  4.6023  2.5063  2.5063  1.6197  1.1773  1.0026  1.0026  0.8412
  0.8412  0.7409  0.7409  0.6439  0.5478  0.5478  0.4533  0.4533  0.4787  0.4787
  0.3772

 Free energy of the ion-electron system (eV)
  ---------------------------------------------------
  alpha Z        PSCENC =         9.34743202
  Ewald energy   TEWEN  =     24932.25472962
  -Hartree energ DENC   =    -41342.90502625
  -exchange      EXHF   =         0.00000000
  -V(xc)+E(xc)   XCENC  =       574.79675262
  PAW double counting   =     16763.72049062   -18158.63133634
  entropy T*S    EENTRO =        -0.03503266
  eigenvalues    EBANDS =      -894.18641768
  atomic energy  EATOM  =     18082.44932260
  Solvation  Ediel_sol  =         0.00000000
  ---------------------------------------------------
  free energy    TOTEN  =       -33.18908544 eV

  energy without entropy =      -33.15405278  energy(sigma->0) =      -33.17740789


--------------------------------------------------------------------------------------------------------




--------------------------------------- Iteration      1(  27)  ---------------------------------------


    POTLOK:  cpu time    2.8007: real time    2.8064
    SETDIJ:  cpu time    0.0231: real time    0.0231
     EDDAV:  cpu time    8.0696: real time    8.2606
       DOS:  cpu time    0.0037: real time    0.0037
    CHARGE:  cpu time    0.8561: real time    0.8590
    MIXING:  cpu time    0.2123: real time    0.2146
    --------------------------------------------
      LOOP:  cpu time   11.9654: real time   12.1673

 eigenvalue-minimisations  :   268
 total energy-change (2. order) :-0.4220369E-02  (-0.1617644E-04)
 number of electron     142.9999714 magnetization       0.4814621
 augmentation part       91.7873158 magnetization       0.0342009

 Broyden mixing:
  rms(total) = 0.16978E-02    rms(broyden)= 0.16930E-02
  rms(prec ) = 0.18046E-02
  weight for this iteration     100.00

 eigenvalues of (default mixing * dielectric matrix)
  average eigenvalue GAMMA=   1.8410
 12.8318  4.8570  4.8570  2.6292  2.6292  1.7691  1.2557  0.9950  0.9950  0.8716
  0.8716  0.7523  0.7523  0.6234  0.5758  0.5758  0.4889  0.4889  0.4547  0.4547
  0.4214  0.3526

 Free energy of the ion-electron system (eV)
  ---------------------------------------------------
  alpha Z        PSCENC =         9.34743202
  Ewald energy   TEWEN  =     24932.25472962
  -Hartree energ DENC   =    -41342.47166648
  -exchange      EXHF   =         0.00000000
  -V(xc)+E(xc)   XCENC  =       574.79020053
  PAW double counting   =     16763.68644045   -18158.59823025
  entropy T*S    EENTRO =        -0.03606648
  eigenvalues    EBANDS =      -894.61546781
  atomic energy  EATOM  =     18082.44932260
  Solvation  Ediel_sol  =         0.00000000
  ---------------------------------------------------
  free energy    TOTEN  =       -33.19330581 eV

  energy without entropy =      -33.15723933  energy(sigma->0) =      -33.18128365


--------------------------------------------------------------------------------------------------------




--------------------------------------- Iteration      1(  28)  ---------------------------------------


    POTLOK:  cpu time    2.8066: real time    2.8540
    SETDIJ:  cpu time    0.0236: real time    0.0236
     EDDAV:  cpu time    7.7563: real time    7.7699
       DOS:  cpu time    0.0035: real time    0.0035
    CHARGE:  cpu time    0.8607: real time    0.8617
    MIXING:  cpu time    0.2186: real time    0.2189
    --------------------------------------------
      LOOP:  cpu time   11.6694: real time   11.7316

 eigenvalue-minimisations  :   280
 total energy-change (2. order) :-0.3234453E-02  (-0.1573875E-04)
 number of electron     142.9999714 magnetization       0.4603038
 augmentation part       91.7878426 magnetization       0.0282963

 Broyden mixing:
  rms(total) = 0.11911E-02    rms(broyden)= 0.11856E-02
  rms(prec ) = 0.12548E-02
  weight for this iteration     100.00

 eigenvalues of (default mixing * dielectric matrix)
  average eigenvalue GAMMA=   1.8718
 13.3367  5.2114  5.2114  2.7459  2.7459  1.9414  1.2843  0.9728  0.9728  0.9544
  0.9544  0.7565  0.7565  0.7317  0.6609  0.6609  0.5674  0.4927  0.4927  0.4552
  0.4552  0.4049  0.2850

 Free energy of the ion-electron system (eV)
  ---------------------------------------------------
  alpha Z        PSCENC =         9.34743202
  Ewald energy   TEWEN  =     24932.25472962
  -Hartree energ DENC   =    -41342.07997716
  -exchange      EXHF   =         0.00000000
  -V(xc)+E(xc)   XCENC  =       574.78339986
  PAW double counting   =     16763.96011882   -18158.87102016
  entropy T*S    EENTRO =        -0.03702605
  eigenvalues    EBANDS =      -895.00351980
  atomic energy  EATOM  =     18082.44932260
  Solvation  Ediel_sol  =         0.00000000
  ---------------------------------------------------
  free energy    TOTEN  =       -33.19654027 eV

  energy without entropy =      -33.15951421  energy(sigma->0) =      -33.18419825


--------------------------------------------------------------------------------------------------------




--------------------------------------- Iteration      1(  29)  ---------------------------------------


    POTLOK:  cpu time    2.7966: real time    2.8005
    SETDIJ:  cpu time    0.0235: real time    0.0235
     EDDAV:  cpu time    7.7662: real time    7.7756
       DOS:  cpu time    0.0035: real time    0.0035
    CHARGE:  cpu time    0.8605: real time    0.8616
    MIXING:  cpu time    0.2267: real time    0.2269
    --------------------------------------------
      LOOP:  cpu time   11.6770: real time   11.6916

 eigenvalue-minimisations  :   280
 total energy-change (2. order) :-0.1936693E-02  (-0.1242281E-04)
 number of electron     142.9999714 magnetization       0.4383487
 augmentation part       91.7878296 magnetization       0.0182497

 Broyden mixing:
  rms(total) = 0.10824E-02    rms(broyden)= 0.10787E-02
  rms(prec ) = 0.11285E-02
  weight for this iteration     100.00

 eigenvalues of (default mixing * dielectric matrix)
  average eigenvalue GAMMA=   1.9168
 14.1762  6.4726  4.7758  2.8469  2.8469  2.0605  1.4030  0.9971  0.9971  0.9873
  0.9873  0.8641  0.7991  0.7991  0.6687  0.6687  0.5596  0.5596  0.4859  0.4859
  0.4541  0.4541  0.3889  0.2639

 Free energy of the ion-electron system (eV)
  ---------------------------------------------------
  alpha Z        PSCENC =         9.34743202
  Ewald energy   TEWEN  =     24932.25472962
  -Hartree energ DENC   =    -41341.85337022
  -exchange      EXHF   =         0.00000000
  -V(xc)+E(xc)   XCENC  =       574.77974298
  PAW double counting   =     16764.01240660   -18158.92428421
  entropy T*S    EENTRO =        -0.03772888
  eigenvalues    EBANDS =      -895.22672747
  atomic energy  EATOM  =     18082.44932260
  Solvation  Ediel_sol  =         0.00000000
  ---------------------------------------------------
  free energy    TOTEN  =       -33.19847696 eV

  energy without entropy =      -33.16074808  energy(sigma->0) =      -33.18590067


--------------------------------------------------------------------------------------------------------




--------------------------------------- Iteration      1(  30)  ---------------------------------------


    POTLOK:  cpu time    2.8012: real time    2.8071
    SETDIJ:  cpu time    0.0234: real time    0.0234
     EDDAV:  cpu time    7.2817: real time    7.2923
       DOS:  cpu time    0.0035: real time    0.0035
    CHARGE:  cpu time    0.8630: real time    0.8660
    MIXING:  cpu time    0.2451: real time    0.2454
    --------------------------------------------
      LOOP:  cpu time   11.2179: real time   11.2378

 eigenvalue-minimisations  :   256
 total energy-change (2. order) :-0.1967738E-02  (-0.9757105E-05)
 number of electron     142.9999714 magnetization       0.4287814
 augmentation part       91.7883940 magnetization       0.0217990

 Broyden mixing:
  rms(total) = 0.92500E-03    rms(broyden)= 0.92041E-03
  rms(prec ) = 0.95388E-03
  weight for this iteration     100.00

 eigenvalues of (default mixing * dielectric matrix)
  average eigenvalue GAMMA=   1.9133
 14.7269  7.1978  4.5012  2.8958  2.8958  2.1280  1.4611  0.9992  0.9992  1.0872
  1.0872  0.8105  0.8105  0.7401  0.7074  0.7074  0.5567  0.5567  0.4889  0.4889
  0.4556  0.4556  0.4310  0.3813  0.2622

 Free energy of the ion-electron system (eV)
  ---------------------------------------------------
  alpha Z        PSCENC =         9.34743202
  Ewald energy   TEWEN  =     24932.25472962
  -Hartree energ DENC   =    -41341.64860333
  -exchange      EXHF   =         0.00000000
  -V(xc)+E(xc)   XCENC  =       574.77545307
  PAW double counting   =     16764.06794821   -18158.97311143
  entropy T*S    EENTRO =        -0.03847759
  eigenvalues    EBANDS =      -895.43513786
  atomic energy  EATOM  =     18082.44932260
  Solvation  Ediel_sol  =         0.00000000
  ---------------------------------------------------
  free energy    TOTEN  =       -33.20044470 eV

  energy without entropy =      -33.16196711  energy(sigma->0) =      -33.18761884


--------------------------------------------------------------------------------------------------------




--------------------------------------- Iteration      1(  31)  ---------------------------------------


    POTLOK:  cpu time    2.8121: real time    2.8234
    SETDIJ:  cpu time    0.0234: real time    0.0234
[...]
     26      -6.4315      1.00000
     27      -6.3594      1.00000
     28      -6.3472      1.00000
     29      -6.3156      1.00000
     30      -6.2613      1.00000
     31      -6.2317      1.00000
     32      -6.1558      1.00000
     33      -6.1378      1.00000
     34      -6.0921      1.00000
     35      -6.0228      1.00000
     36      -5.9656      1.00000
     37      -5.9384      1.00000
     38      -5.9237      1.00000
     39      -5.8813      1.00000
     40      -5.8686      1.00000
     41      -5.8344      1.00000
     42      -5.8051      1.00000
     43      -5.7755      1.00000
     44      -5.7444      1.00000
     45      -5.7294      1.00000
     46      -5.7159      1.00000
     47      -5.6839      1.00000
     48      -5.6755      1.00000
     49      -5.6590      1.00000
     50      -5.6075      1.00000
     51      -5.5871      1.00000
     52      -5.5787      1.00000
     53      -5.5451      1.00000
     54      -5.5076      1.00000
     55      -5.4954      1.00000
     56      -5.4572      1.00000
     57      -5.4257      1.00000
     58      -5.4120      1.00000
     59      -5.3948      1.00000
     60      -5.3910      1.00000
     61      -5.3589      1.00000
     62      -5.3454      1.00000
     63      -5.3294      1.00000
     64      -5.2866      1.00000
     65      -5.2478      1.00000
     66      -5.2374      1.00000
     67      -5.2188      1.00000
     68      -5.1900      1.00000
     69      -4.9457      1.00000
     70      -4.8107      1.00000
     71      -4.6865      1.00000
     72      -3.8660      0.68185
     73      -3.4220     -0.00801
     74      -3.2213     -0.00009
     75      -2.7868     -0.00000
     76      -2.7090     -0.00000
     77      -2.2803     -0.00000
     78      -2.2411     -0.00000
     79      -1.6661     -0.00000
     80      -1.5617     -0.00000
     81      -1.3837     -0.00000
     82      -1.0589     -0.00000
     83      -0.8732     -0.00000
     84      -0.8202     -0.00000
     85      -0.4381     -0.00000
     86      -0.1678     -0.00000
     87      -0.0059     -0.00000
     88       0.0878     -0.00000
     89       0.1398     -0.00000
     90       0.3024     -0.00000
     91       0.3343     -0.00000
     92       0.3901     -0.00000

 spin component 2

 k-point     1 :       0.0000    0.0000    0.0000
  band No.  band energies     occupation 
      1     -10.5481      1.00000
      2      -9.1548      1.00000
      3      -8.6750      1.00000
      4      -8.0416      1.00000
      5      -7.9624      1.00000
      6      -7.8608      1.00000
      7      -7.6419      1.00000
      8      -7.5251      1.00000
      9      -7.5160      1.00000
     10      -7.3124      1.00000
     11      -7.3070      1.00000
     12      -7.2309      1.00000
     13      -7.1533      1.00000
     14      -7.0550      1.00000
     15      -7.0497      1.00000
     16      -6.9893      1.00000
     17      -6.9038      1.00000
     18      -6.8364      1.00000
     19      -6.8090      1.00000
     20      -6.7624      1.00000
     21      -6.6854      1.00000
     22      -6.6659      1.00000
     23      -6.5836      1.00000
     24      -6.5673      1.00000
     25      -6.5213      1.00000
     26      -6.4249      1.00000
     27      -6.3521      1.00000
     28      -6.3392      1.00000
     29      -6.3064      1.00000
     30      -6.2513      1.00000
     31      -6.2214      1.00000
     32      -6.1463      1.00000
     33      -6.1264      1.00000
     34      -6.0837      1.00000
     35      -6.0126      1.00000
     36      -5.9596      1.00000
     37      -5.9311      1.00000
     38      -5.9155      1.00000
     39      -5.8739      1.00000
     40      -5.8601      1.00000
     41      -5.8241      1.00000
     42      -5.7950      1.00000
     43      -5.7674      1.00000
     44      -5.7344      1.00000
     45      -5.7226      1.00000
     46      -5.7093      1.00000
     47      -5.6767      1.00000
     48      -5.6666      1.00000
     49      -5.6492      1.00000
     50      -5.6000      1.00000
     51      -5.5811      1.00000
     52      -5.5701      1.00000
     53      -5.5342      1.00000
     54      -5.4994      1.00000
     55      -5.4873      1.00000
     56      -5.4502      1.00000
     57      -5.4150      1.00000
     58      -5.4026      1.00000
     59      -5.3880      1.00000
     60      -5.3787      1.00000
     61      -5.3512      1.00000
     62      -5.3358      1.00000
     63      -5.3152      1.00000
     64      -5.2756      1.00000
     65      -5.2377      1.00000
     66      -5.2310      1.00000
     67      -5.2105      1.00000
     68      -5.1827      1.00000
     69      -4.9297      1.00000
     70      -4.7966      1.00000
     71      -4.6682      1.00000
     72      -3.7813      0.33234
     73      -3.4051     -0.00604
     74      -3.1957     -0.00004
     75      -2.7726     -0.00000
     76      -2.6901     -0.00000
     77      -2.2611     -0.00000
     78      -2.1866     -0.00000
     79      -1.5925     -0.00000
     80      -1.5483     -0.00000
     81      -1.3580     -0.00000
     82      -1.0306     -0.00000
     83      -0.8565     -0.00000
     84      -0.7778     -0.00000
     85      -0.3886     -0.00000
     86      -0.1548     -0.00000
     87       0.0349     -0.00000
     88       0.0517     -0.00000
     89       0.1102     -0.00000
     90       0.2531     -0.00000
     91       0.2590     -0.00000
     92       0.2996     -0.00000


--------------------------------------------------------------------------------------------------------


 soft charge-density along one line, spin component            1
         0         1         2         3         4         5         6         7         8         9
 total charge-density along one line
 
 soft charge-density along one line, spin component            2
         0         1         2         3         4         5         6         7         8         9
 total charge-density along one line
 
 pseudopotential strength for first ion, spin component:            1
-10.839   0.008  -0.022  -0.012   0.001   1.264  -0.006   0.017
  0.008 -10.842  -0.008   0.014   0.015  -0.006   1.267   0.007
 -0.022  -0.008 -10.832   0.010  -0.014   0.017   0.007   1.259
 -0.012   0.014   0.010 -10.825   0.003   0.010  -0.011  -0.007
  0.001   0.015  -0.014   0.003 -10.840  -0.001  -0.012   0.012
  1.264  -0.006   0.017   0.010  -0.001   6.117   0.003  -0.012
 -0.006   1.267   0.007  -0.011  -0.012   0.003   6.113  -0.005
  0.017   0.007   1.259  -0.007   0.012  -0.012  -0.005   6.119
  0.010  -0.011  -0.007   1.252  -0.002  -0.006   0.008   0.004
 -0.001  -0.012   0.012  -0.002   1.265   0.001   0.007  -0.009
 -0.005   0.005  -0.001  -0.001  -0.005   0.002  -0.000  -0.001
 -0.010   0.009  -0.003  -0.002  -0.010   0.004  -0.001  -0.002
 -0.015   0.005   0.003  -0.000   0.005   0.012  -0.003  -0.002
 -0.000  -0.005   0.004  -0.013   0.000   0.001   0.003  -0.003
 -0.005  -0.000   0.009   0.005  -0.013   0.003   0.001  -0.007
 -0.016   0.005   0.003  -0.001   0.006   0.014  -0.003  -0.003
 -0.001  -0.005   0.005  -0.014   0.000   0.001   0.003  -0.004
 -0.005  -0.001   0.009   0.006  -0.014   0.002   0.001  -0.008
 pseudopotential strength for first ion, spin component:            2
-10.838   0.007  -0.022  -0.011   0.003   1.263  -0.005   0.017
  0.007 -10.839  -0.008   0.013   0.013  -0.005   1.265   0.006
 -0.022  -0.008 -10.831   0.009  -0.014   0.017   0.006   1.257
 -0.011   0.013   0.009 -10.822   0.007   0.009  -0.011  -0.006
  0.003   0.013  -0.014   0.007 -10.832  -0.002  -0.010   0.012
  1.263  -0.005   0.017   0.009  -0.002   6.117   0.003  -0.012
 -0.005   1.265   0.006  -0.011  -0.010   0.003   6.114  -0.005
  0.017   0.006   1.257  -0.006   0.012  -0.012  -0.005   6.120
  0.009  -0.011  -0.006   1.249  -0.005  -0.006   0.008   0.004
 -0.002  -0.010   0.012  -0.005   1.258   0.002   0.006  -0.008
 -0.005   0.005  -0.001  -0.001  -0.005   0.002  -0.000  -0.001
 -0.009   0.008  -0.002  -0.002  -0.009   0.003  -0.000  -0.002
 -0.015   0.005   0.003  -0.000   0.005   0.013  -0.003  -0.002
 -0.000  -0.005   0.004  -0.014  -0.000   0.001   0.003  -0.003
 -0.005  -0.000   0.009   0.005  -0.014   0.003   0.001  -0.008
 -0.017   0.006   0.003  -0.001   0.005   0.015  -0.003  -0.003
 -0.001  -0.005   0.005  -0.015  -0.000   0.001   0.003  -0.003
 -0.005  -0.001   0.010   0.005  -0.016   0.002   0.001  -0.009
 total augmentation occupancy for first ion, spin component:            1
  1.934  -0.001  -0.009  -0.003   0.006  -0.013  -0.003   0.007   0.004  -0.001  -0.010   0.005   0.022  -0.013   0.016  -0.019
 -0.001   1.930  -0.007   0.002   0.001  -0.003  -0.018   0.003  -0.001  -0.008   0.015  -0.011   0.000   0.019  -0.009   0.006
 -0.009  -0.007   1.935   0.006  -0.007   0.007   0.003  -0.021  -0.006   0.007  -0.015   0.007  -0.003  -0.027  -0.011   0.004
 -0.003   0.002   0.006   1.944  -0.004   0.004  -0.001  -0.006  -0.020   0.001  -0.008   0.001  -0.008   0.061   0.002   0.001
  0.006   0.001  -0.007  -0.004   1.941  -0.001  -0.008   0.007   0.001  -0.015  -0.004   0.011  -0.013   0.007   0.042   0.007
 -0.013  -0.003   0.007   0.004  -0.001   0.012  -0.002   0.001   0.001   0.001  -0.021   0.001   0.025   0.003   0.002  -0.002
 -0.003  -0.018   0.003  -0.001  -0.008  -0.002   0.010  -0.000   0.000  -0.003   0.038  -0.003  -0.005   0.005   0.000   0.000
  0.007   0.003  -0.021  -0.006   0.007   0.001  -0.000   0.008  -0.001   0.001  -0.022   0.003  -0.005  -0.006  -0.007   0.000
  0.004  -0.001  -0.006  -0.020   0.001   0.001   0.000  -0.001   0.011  -0.000  -0.015   0.002   0.002   0.026  -0.002  -0.000
 -0.001  -0.008   0.007   0.001  -0.015   0.001  -0.003   0.001  -0.000   0.014  -0.027   0.000  -0.010  -0.000   0.021   0.001
 -0.010   0.015  -0.015  -0.008  -0.004  -0.021   0.038  -0.022  -0.015  -0.027   1.672  -0.122   0.061  -0.042   0.194  -0.008
  0.005  -0.011   0.007   0.001   0.011   0.001  -0.003   0.003   0.002   0.000  -0.122   0.014  -0.007   0.004  -0.029   0.001
  0.022   0.000  -0.003  -0.008  -0.013   0.025  -0.005  -0.005   0.002  -0.010   0.061  -0.007   0.196   0.041  -0.021  -0.012
 -0.013   0.019  -0.027   0.061   0.007   0.003   0.005  -0.006   0.026  -0.000  -0.042   0.004   0.041   0.116  -0.005  -0.002
  0.016  -0.009  -0.011   0.002   0.042   0.002   0.000  -0.007  -0.002   0.021   0.194  -0.029  -0.021  -0.005   0.128   0.001
 -0.019   0.006   0.004   0.001   0.007  -0.002   0.000   0.000  -0.000   0.001  -0.008   0.001  -0.012  -0.002   0.001   0.001
  0.001  -0.008   0.007  -0.021  -0.001  -0.000  -0.000   0.000  -0.001   0.000   0.005  -0.001  -0.002  -0.007   0.001   0.000
 -0.008   0.001   0.010   0.004  -0.019   0.000  -0.000   0.001   0.000  -0.001  -0.027   0.003   0.001   0.001  -0.009   0.000
 total augmentation occupancy for first ion, spin component:            2
 -0.000  -0.000  -0.000   0.000   0.001   0.001   0.000  -0.000  -0.000  -0.000   0.001   0.000  -0.001  -0.001  -0.001  -0.000
 -0.000  -0.000   0.000  -0.000  -0.001   0.000   0.000  -0.000   0.000   0.000  -0.001  -0.000  -0.000   0.001   0.001  -0.000
 -0.000   0.000  -0.000  -0.000  -0.001  -0.000  -0.000   0.001   0.000  -0.000  -0.001  -0.000   0.000  -0.000   0.001   0.000
  0.000  -0.000  -0.000   0.001   0.002  -0.000   0.000   0.000   0.000  -0.000   0.004   0.001  -0.001  -0.003  -0.004   0.000
  0.001  -0.001  -0.001   0.002   0.004  -0.000   0.000  -0.000  -0.000  -0.001   0.007   0.001  -0.001  -0.004  -0.007  -0.000
  0.001   0.000  -0.000  -0.000  -0.000  -0.000  -0.000   0.000   0.000   0.000  -0.000  -0.000  -0.000   0.000   0.000   0.000
  0.000   0.000  -0.000   0.000   0.000  -0.000   0.000   0.000  -0.000  -0.000   0.001   0.000  -0.000  -0.000  -0.000   0.000
 -0.000  -0.000   0.001   0.000  -0.000   0.000   0.000  -0.000  -0.000  -0.000   0.000   0.000  -0.000  -0.000  -0.000   0.000
 -0.000   0.000   0.000   0.000  -0.000   0.000  -0.000  -0.000   0.000   0.000  -0.000  -0.000   0.000   0.000   0.001  -0.000
 -0.000   0.000  -0.000  -0.000  -0.001   0.000  -0.000  -0.000   0.000   0.000  -0.002  -0.000   0.000   0.001   0.001  -0.000
  0.001  -0.001  -0.001   0.004   0.007  -0.000   0.001   0.000  -0.000  -0.002   0.016   0.000  -0.002  -0.008  -0.011   0.000
  0.000  -0.000  -0.000   0.001   0.001  -0.000   0.000   0.000  -0.000  -0.000   0.000   0.000  -0.000  -0.000  -0.001  -0.000
 -0.001  -0.000   0.000  -0.001  -0.001  -0.000  -0.000  -0.000   0.000   0.000  -0.002  -0.000   0.001   0.001   0.001  -0.000
 -0.001   0.001  -0.000  -0.003  -0.004   0.000  -0.000  -0.000   0.000   0.001  -0.008  -0.000   0.001   0.003   0.005  -0.000
 -0.001   0.001   0.001  -0.004  -0.007   0.000  -0.000  -0.000   0.001   0.001  -0.011  -0.001   0.001   0.005   0.007  -0.000
 -0.000  -0.000   0.000   0.000  -0.000   0.000   0.000   0.000  -0.000  -0.000   0.000  -0.000  -0.000  -0.000  -0.000   0.000
  0.000   0.000  -0.000  -0.000  -0.000  -0.000   0.000   0.000  -0.000  -0.000   0.000  -0.000  -0.000  -0.000  -0.000   0.000
 -0.000   0.000   0.000  -0.000  -0.000  -0.000  -0.000  -0.000  -0.000   0.000   0.000  -0.000   0.000  -0.000   0.000   0.000


------------------------ aborting loop because EDIFF is reached ----------------------------------------


    CHARGE:  cpu time    0.8558: real time    0.8568
    FORLOC:  cpu time    0.0948: real time    0.0969
    FORNL :  cpu time    5.3560: real time    5.3626
    FORCOR:  cpu time    2.7399: real time    2.7484
    FORHAR:  cpu time    0.3733: real time    0.3758
    MIXING:  cpu time    0.0520: real time    0.0520
    OFIELD:  cpu time    0.0001: real time    0.0001

 VOLUME and BASIS-vectors are now :
 -----------------------------------------------------------------------------
  energy-cutoff  :      400.00
  volume of cell :    13222.29
      direct lattice vectors                 reciprocal lattice vectors
    23.380148295  0.000000000  0.000000000     0.042771328  0.000000000  0.000000000
     0.000000000 25.206372748  0.000000000     0.000000000  0.039672507  0.000000000
     0.000000000  0.000000000 22.436184200     0.000000000  0.000000000  0.044570859

  length of vectors
    23.380148295 25.206372748 22.436184200     0.042771328  0.039672507  0.044570859


 FORCES acting on ions
    electron-ion (+dipol)            ewald-force                    non-local-force                 convergence-correction
 -----------------------------------------------------------------------------------------------
   0.125E+04 0.335E+03 -.129E+03   -.124E+04 -.333E+03 0.127E+03   -.443E+01 -.196E+01 0.132E+01   -.700E-01 0.450E-01 0.190E-01
   -.909E+03 -.103E+04 -.115E+03   0.904E+03 0.103E+04 0.116E+03   0.550E+01 0.491E+01 -.950E+00   -.641E-02 -.679E-01 0.432E-01
   0.171E+03 -.127E+04 -.457E+03   -.170E+03 0.126E+04 0.454E+03   -.115E+01 0.912E+01 0.322E+01   -.283E-01 -.231E-01 -.143E-01
   0.270E+03 -.100E+03 -.120E+04   -.269E+03 0.985E+02 0.119E+04   -.137E+01 0.165E+01 0.350E+01   -.879E-02 0.302E-01 -.359E-01
   -.915E+03 0.162E+02 -.104E+04   0.911E+03 -.159E+02 0.103E+04   0.384E+01 -.148E+00 0.715E+01   0.268E-01 -.984E-01 -.813E-01
   -.116E+04 0.724E+03 -.144E+03   0.116E+04 -.719E+03 0.143E+03   0.770E+01 -.550E+01 0.165E+01   0.376E-01 0.388E-01 -.481E-01
   0.271E+03 -.862E+03 0.869E+03   -.270E+03 0.857E+03 -.867E+03   -.124E+01 0.441E+01 -.142E+01   0.974E-01 -.253E-01 0.430E-01
   0.757E+03 0.113E+04 0.256E+03   -.752E+03 -.112E+04 -.256E+03   -.507E+01 -.847E+01 -.599E+00   0.310E-01 -.451E-02 0.780E-01
   -.929E+03 -.315E+03 0.799E+03   0.925E+03 0.314E+03 -.797E+03   0.423E+01 0.374E+00 -.172E+01   -.195E-01 -.261E-01 0.667E-01
   -.469E+03 0.103E+04 0.798E+03   0.466E+03 -.103E+04 -.792E+03   0.265E+01 -.515E+01 -.604E+01   0.449E-01 0.656E-01 0.100E-02
   0.121E+04 -.578E+03 -.226E+03   -.121E+04 0.574E+03 0.224E+03   -.875E+01 0.363E+01 0.197E+01   -.663E-01 0.165E-01 -.423E-01
   0.725E+02 0.886E+03 -.727E+03   -.730E+02 -.883E+03 0.726E+03   0.509E+00 -.297E+01 0.519E+00   0.120E-01 -.107E-01 -.514E-01
   0.382E+03 0.324E+02 0.131E+04   -.379E+03 -.313E+02 -.131E+04   -.265E+01 -.122E+01 -.642E+01   -.352E-01 0.624E-01 0.318E-01
 -----------------------------------------------------------------------------------------------
   0.236E+00 0.133E+01 -.223E+01   0.171E-12 -.199E-12 0.000E+00   -.234E+00 -.133E+01 0.220E+01   0.152E-01 0.255E-02 0.944E-02
 
 
 POSITION                                       TOTAL-FORCE (eV/Angst)
 -----------------------------------------------------------------------------------
      9.56092     12.22711     11.16214        -0.006350      0.000966      0.003224
     13.05769     14.82126     11.67476         0.004797     -0.004385      0.013713
     10.98866     15.84991     12.27026        -0.006359     -0.000839     -0.003448
     11.17378     13.45535     12.66402        -0.000877     -0.006599      0.000773
     13.49817     12.69447     12.67800         0.001722     -0.010367      0.001198
     14.24208     10.91744     11.25625         0.019848     -0.006736     -0.012299
     11.03820     14.21027     10.38331         0.002968      0.006744      0.003114
     10.18078     10.04522     10.21430         0.005873      0.004348      0.011352
     13.10169     12.80209     10.25152         0.002590      0.000915     -0.004619
     12.57997     10.29783      9.63841         0.002265      0.009138     -0.009783
      9.07791     14.47752     11.79114        -0.007494      0.005972     -0.010816
     11.75928     11.27148     11.65819        -0.010310      0.001659      0.001702
     11.01251     12.08776      9.25673        -0.008672     -0.000815      0.005889
 -----------------------------------------------------------------------------------
    total drift:                                0.017331      0.003718     -0.015475


--------------------------------------------------------------------------------------------------------



  FREE ENERGIE OF THE ION-ELECTRON SYSTEM (eV)
  ---------------------------------------------------
  free  energy   TOTEN  =       -33.20383083 eV

  energy  without entropy=      -33.16126086  energy(sigma->0) =      -33.18964084
 
 d Force = 0.1385089E-03[ 0.875E-04, 0.190E-03]  d Energy = 0.2848938E-03-0.146E-03
 d Force =-0.4587467E+01[-0.459E+01,-0.459E+01]  d Ewald  =-0.4587467E+01-0.653E-06


--------------------------------------------------------------------------------------------------------


    POTLOK:  cpu time    2.8532: real time    2.8579


--------------------------------------------------------------------------------------------------------




--------------------------------------------------------------------------------------------------------


  
 reached required accuracy - stopping structural energy minimisation
     LOOP+:  cpu time   52.8279: real time   52.9230
    4ORBIT:  cpu time    0.0000: real time    0.0000

 total amount of memory used by VASP MPI-rank0   169063. kBytes
=======================================================================

   base      :      30000. kBytes
   nonl-proj :       5282. kBytes
   fftplans  :      33244. kBytes
   grid      :      78388. kBytes
   one-center:         31. kBytes
   wavefun   :      22118. kBytes
 
  
  
 General timing and accounting informations for this job:
 ========================================================
  
                  Total CPU time used (sec):      649.726
                            User time (sec):      644.390
                          System time (sec):        5.336
                         Elapsed time (sec):      655.157
  
                   Maximum memory used (kb):      338828.
                   Average memory used (kb):           0.
  
                          Minor page faults:      1832656
                          Major page faults:        23631
                 Voluntary context switches:         3525
