<?xml version="1.0" encoding="ISO-8859-1"?>
<modeling>
 <generator>
  <i name="program" type="string">vasp </i>
  <i name="version" type="string">6.1.2  </i>
  <i name="subversion" type="string">22Jul20 (build Aug  2 2021 21:04:21) gamma-only                       parallel </i>
  <i name="platform" type="string">LinuxPGI </i>
  <i name="date" type="string">2021 12 25 </i>
  <i name="time" type="string">02:05:09 </i>
 </generator>
 <incar>
  <i type="int" name="ISPIN">     2</i>
  <i type="int" name="IBRION">     2</i>
  <i type="int" name="NSW">  1000</i>
  <i type="int" name="ISIF">     0</i>
  <i type="int" name="ISYM">     0</i>
  <i name="ENCUT">    400.00000000</i>
  <i type="logical" name="LREAL"> F  </i>
  <i type="int" name="ISMEAR">     1</i>
  <i name="SIGMA">      0.20000000</i>
  <i type="logical" name="LWAVE"> F  </i>
  <i type="logical" name="LCHARG"> F  </i>
  <i type="int" name="KPAR">     1</i>
  <i type="int" name="NCORE">     8</i>
  <i type="string" name="GGA"> PE</i>
  <i type="int" name="ISPIN">     2</i>
 </incar>
 <structure name="primitive_cell" >
  <crystal>
   <varray name="basis" >
    <v>      23.38014829       0.00000000       0.00000000 </v>
    <v>       0.00000000      25.20637275       0.00000000 </v>
    <v>       0.00000000       0.00000000      22.43618420 </v>
   </varray>
   <i name="volume">  13222.28800392 </i>
   <varray name="rec_basis" >
    <v>       0.04277133       0.00000000       0.00000000 </v>
    <v>       0.00000000       0.03967251       0.00000000 </v>
    <v>       0.00000000       0.00000000       0.04457086 </v>
   </varray>
  </crystal>
  <varray name="positions" >
   <v>       0.40901837       0.48502561       0.49748061 </v>
   <v>       0.55850708       0.58807418       0.52030715 </v>
   <v>       0.47003400       0.62883553       0.54691256 </v>
   <v>       0.47793507       0.53376390       0.56449108 </v>
   <v>       0.57729394       0.50373706       0.56517727 </v>
   <v>       0.60911512       0.43307560       0.50175826 </v>
   <v>       0.47199786       0.56378239       0.46275288 </v>
   <v>       0.43540917       0.39852577       0.45515913 </v>
   <v>       0.56039364       0.50791654       0.45684143 </v>
   <v>       0.53800938       0.40847296       0.42958524 </v>
   <v>       0.38836506       0.57434565       0.52558401 </v>
   <v>       0.50294977       0.44719131       0.51968310 </v>
   <v>       0.47105997       0.47947451       0.41254163 </v>
  </varray>
 </structure>
 <varray name="primitive_index" >
  <v type="int" >        1 </v>
  <v type="int" >        2 </v>
  <v type="int" >        3 </v>
  <v type="int" >        4 </v>
  <v type="int" >        5 </v>
  <v type="int" >        6 </v>
  <v type="int" >        7 </v>
  <v type="int" >        8 </v>
  <v type="int" >        9 </v>
  <v type="int" >       10 </v>
  <v type="int" >       11 </v>
  <v type="int" >       12 </v>
  <v type="int" >       13 </v>
 </varray>
 <kpoints>
  <generation param="Gamma">
   <v type="int" name="divisions">       1        1        1 </v>
   <v name="usershift">      0.00000000       0.00000000       0.00000000 </v>
   <v name="genvec1">      1.00000000       0.00000000       0.00000000 </v>
   <v name="genvec2">      0.00000000       1.00000000       0.00000000 </v>
   <v name="genvec3">      0.00000000       0.00000000       1.00000000 </v>
   <v name="shift">      0.00000000       0.00000000       0.00000000 </v>
  </generation>
  <varray name="kpointlist" >
   <v>       0.00000000       0.00000000       0.00000000 </v>
  </varray>
  <varray name="weights" >
   <v>       1.00000000 </v>
  </varray>
 </kpoints>
 <parameters>
  <separator name="general" >
   <i type="string" name="SYSTEM">unknown system</i>
   <i type="logical" name="LCOMPAT"> F  </i>
  </separator>
  <separator name="electronic" >
   <i type="string" name="PREC">normal</i>
   <i name="ENMAX">    400.00000000</i>
   <i name="ENAUG">    586.98000000</i>
   <i name="EDIFF">      0.00010000</i>
   <i type="int" name="IALGO">    38</i>
   <i type="int" name="IWAVPR">    11</i>
   <i type="int" name="NBANDS">    92</i>
   <i type="int" name="NBANDSLOW">    -1</i>
   <i type="int" name="NBANDSHIGH">    -1</i>
   <i name="NELECT">    143.00000000</i>
   <i type="int" name="TURBO">     0</i>
   <i type="int" name="IRESTART">     0</i>
   <i type="int" name="NREBOOT">     0</i>
   <i type="int" name="NMIN">     0</i>
   <i name="EREF">      0.00000000</i>
   <separator name="electronic smearing" >
    <i type="int" name="ISMEAR">     1</i>
    <i name="SIGMA">      0.20000000</i>
    <i name="KSPACING">      0.50000000</i>
    <i type="logical" name="KGAMMA"> T  </i>
    <i type="logical" name="KBLOWUP"> T  </i>
   </separator>
   <separator name="electronic projectors" >
    <i type="logical" name="LREAL"> F  </i>
    <v name="ROPT">      0.00000000</v>
    <i type="int" name="LMAXPAW">  -100</i>
    <i type="int" name="LMAXMIX">     2</i>
    <i type="logical" name="NLSPLINE"> F  </i>
   </separator>
   <separator name="electronic startup" >
    <i type="int" name="ISTART">     0</i>
    <i type="int" name="ICHARG">     2</i>
    <i type="int" name="INIWAV">     1</i>
   </separator>
   <separator name="electronic spin" >
    <i type="int" name="ISPIN">     2</i>
    <i type="logical" name="LNONCOLLINEAR"> F  </i>
    <v name="MAGMOM">      1.00000000      1.00000000      1.00000000      1.00000000      1.00000000      1.00000000      1.00000000      1.00000000      1.00000000      1.00000000      1.00000000      1.00000000      1.00000000</v>
    <i name="NUPDOWN">     -1.00000000</i>
    <i type="logical" name="LSORBIT"> F  </i>
    <v name="SAXIS">      0.00000000      0.00000000      1.00000000</v>
    <i type="logical" name="LSPIRAL"> F  </i>
    <v name="QSPIRAL">      0.00000000      0.00000000      0.00000000</v>
    <i type="logical" name="LZEROZ"> F  </i>
   </separator>
   <separator name="electronic exchange-correlation" >
    <i type="logical" name="LASPH"> F  </i>
    <i type="logical" name="LMETAGGA"> F  </i>
   </separator>
   <separator name="electronic convergence" >
    <i type="int" name="NELM">    60</i>
    <i type="int" name="NELMDL">     0</i>
    <i type="int" name="NELMIN">     2</i>
    <i name="ENINI">    400.00000000</i>
    <separator name="electronic convergence detail" >
     <i type="logical" name="LDIAG"> T  </i>
     <i type="logical" name="LSUBROT"> F  </i>
     <i name="WEIMIN">      0.00100000</i>
     <i name="EBREAK">      0.00000027</i>
     <i name="DEPER">      0.30000000</i>
     <i type="int" name="NRMM">     4</i>
     <i name="TIME">      0.40000000</i>
    </separator>
   </separator>
   <separator name="electronic mixer" >
    <i name="AMIX">      0.40000000</i>
    <i name="BMIX">      1.00000000</i>
    <i name="AMIN">      0.10000000</i>
    <i name="AMIX_MAG">      1.60000000</i>
    <i name="BMIX_MAG">      1.00000000</i>
    <separator name="electronic mixer details" >
     <i type="int" name="IMIX">     4</i>
     <i type="logical" name="MIXFIRST"> F  </i>
     <i type="int" name="MAXMIX">   -45</i>
     <i name="WC">    100.00000000</i>
     <i type="int" name="INIMIX">     1</i>
     <i type="int" name="MIXPRE">     1</i>
     <i type="int" name="MREMOVE">     5</i>
    </separator>
   </separator>
   <separator name="electronic dipolcorrection" >
    <i type="logical" name="LDIPOL"> F  </i>
    <i type="logical" name="LMONO"> F  </i>
    <i type="int" name="IDIPOL">     0</i>
    <i name="EPSILON">      1.00000000</i>
    <v name="DIPOL">   -100.00000000   -100.00000000   -100.00000000</v>
    <i name="EFIELD">      0.00000000</i>
   </separator>
  </separator>
  <separator name="grids" >
   <i type="int" name="NGX">   120</i>
   <i type="int" name="NGY">   126</i>
   <i type="int" name="NGZ">   112</i>
   <i type="int" name="NGXF">   240</i>
   <i type="int" name="NGYF">   252</i>
   <i type="int" name="NGZF">   224</i>
   <i type="logical" name="ADDGRID"> F  </i>
  </separator>
  <separator name="ionic" >
   <i type="int" name="NSW">  1000</i>
   <i type="int" name="IBRION">     2</i>
   <i type="int" name="MDALGO">     0</i>
   <i type="int" name="ISIF">     0</i>
   <i name="PSTRESS">      0.00000000</i>
   <i name="EDIFFG">      0.00100000</i>
   <i type="int" name="NFREE">     1</i>
   <i name="POTIM">      0.50000000</i>
   <i name="SMASS">     -3.00000000</i>
   <i name="SCALEE">      1.00000000</i>
  </separator>
  <separator name="ionic md" >
   <i name="TEBEG">      0.00010000</i>
   <i name="TEEND">      0.00010000</i>
   <i type="int" name="NBLOCK">     1</i>
   <i type="int" name="KBLOCK">  1000</i>
   <i type="int" name="NPACO">   256</i>
   <i name="APACO">     16.00000000</i>
  </separator>
  <separator name="symmetry" >
   <i type="int" name="ISYM">     0</i>
   <i name="SYMPREC">      0.00001000</i>
  </separator>
  <separator name="dos" >
   <i type="int" name="LORBIT">     0</i>
   <v name="RWIGS">     -1.00000000</v>
   <i type="int" name="NEDOS">   301</i>
   <i name="EMIN">     10.00000000</i>
   <i name="EMAX">    -10.00000000</i>
   <i name="EFERMI">      0.00000000</i>
  </separator>
  <separator name="writing" >
   <i type="int" name="NWRITE">     2</i>
   <i type="logical" name="LWAVE"> F  </i>
   <i type="logical" name="LDOWNSAMPLE"> F  </i>
   <i type="logical" name="LCHARG"> F  </i>
   <i type="logical" name="LPARD"> F  </i>
   <i type="logical" name="LVTOT"> F  </i>
   <i type="logical" name="LVHAR"> F  </i>
   <i type="logical" name="LELF"> F  </i>
   <i type="logical" name="LOPTICS"> F  </i>
   <v name="STM">      0.00000000      0.00000000      0.00000000      0.00000000      0.00000000      0.00000000      0.00000000</v>
  </separator>
  <separator name="performance" >
   <i type="int" name="NPAR">     2</i>
   <i type="int" name="NSIM">     4</i>
   <i type="int" name="NBLK">    -1</i>
   <i type="logical" name="LPLANE"> T  </i>
   <i type="logical" name="LSCALAPACK"> T  </i>
   <i type="logical" name="LSCAAWARE"> F  </i>
   <i type="logical" name="LSCALU"> F  </i>
   <i type="logical" name="LASYNC"> F  </i>
   <i type="logical" name="LORBITALREAL"> F  </i>
  </separator>
  <separator name="miscellaneous" >
   <i type="int" name="IDIOT">     3</i>
   <i type="int" name="PHON_NSTRUCT">    -1</i>
   <i type="logical" name="LMUSIC"> F  </i>
   <v name="POMASS">     63.54600000</v>
   <v name="DARWINR">      0.00000000</v>
   <v name="DARWINV">      1.00000000</v>
   <i type="logical" name="LCORR"> T  </i>
  </separator>
  <i type="logical" name="GGA_COMPAT"> T  </i>
  <i type="logical" name="LBERRY"> F  </i>
  <i type="int" name="ICORELEVEL">     0</i>
  <i type="logical" name="LDAU"> F  </i>
  <i type="int" name="I_CONSTRAINED_M">     0</i>
  <separator name="electronic exchange-correlation" >
   <i type="string" name="GGA">PE</i>
   <i type="int" name="VOSKOWN">     0</i>
   <i type="logical" name="LHFCALC"> F  </i>
   <i type="string" name="PRECFOCK"></i>
   <i type="logical" name="LSYMGRAD"> F  </i>
   <i type="logical" name="LHFONE"> F  </i>
   <i type="logical" name="LRHFCALC"> F  </i>
   <i type="logical" name="LTHOMAS"> F  </i>
   <i type="logical" name="LMODELHF"> F  </i>
   <i type="logical" name="LFOCKACE"> F  </i>
   <i name="ENCUT4O">     -1.00000000</i>
   <i type="int" name="EXXOEP">     0</i>
   <i type="int" name="FOURORBIT">     0</i>
   <i name="AEXX">      0.00000000</i>
   <i name="HFALPHA">      0.00000000</i>
   <i name="MCALPHA">      0.00000000</i>
   <i name="ALDAX">      1.00000000</i>
   <i name="AGGAX">      1.00000000</i>
   <i name="ALDAC">      1.00000000</i>
   <i name="AGGAC">      1.00000000</i>
   <i type="int" name="NKREDX">     1</i>
   <i type="int" name="NKREDY">     1</i>
   <i type="int" name="NKREDZ">     1</i>
   <i type="logical" name="SHIFTRED"> F  </i>
   <i type="logical" name="ODDONLY"> F  </i>
   <i type="logical" name="EVENONLY"> F  </i>
   <i type="int" name="LMAXFOCK">     0</i>
   <i type="int" name="NMAXFOCKAE">     0</i>
   <i type="logical" name="LFOCKAEDFT"> F  </i>
   <i name="HFSCREEN">      0.00000000</i>
   <i name="HFSCREENC">      0.00000000</i>
   <i type="int" name="NBANDSGWLOW">     0</i>
  </separator>
  <separator name="vdW DFT" >
   <i type="logical" name="LUSE_VDW"> F  </i>
   <i name="Zab_VDW">     -0.84910000</i>
   <i name="PARAM1">      0.12340000</i>
   <i name="PARAM2">      1.00000000</i>
   <i name="PARAM3">      0.00000000</i>
  </separator>
  <separator name="model GW" >
   <i type="int" name="MODEL_GW">     0</i>
   <i name="MODEL_EPS0">    610.25944633</i>
   <i name="MODEL_ALPHA">      1.00000000</i>
  </separator>
  <separator name="linear response parameters" >
   <i type="logical" name="LEPSILON"> F  </i>
   <i type="logical" name="LRPA"> F  </i>
   <i type="logical" name="LNABLA"> F  </i>
   <i type="logical" name="LVEL"> F  </i>
   <i type="int" name="KINTER">     0</i>
   <i name="CSHIFT">      0.10000000</i>
   <i name="OMEGAMAX">     -1.00000000</i>
   <i name="DEG_THRESHOLD">      0.00200000</i>
   <i name="RTIME">     -0.10000000</i>
   <i name="WPLASMAI">      0.00000000</i>
   <v name="DFIELD">      0.00000000      0.00000000      0.00000000</v>
   <v name="WPLASMA">      0.00000000      0.00000000      0.00000000      0.00000000      0.00000000      0.00000000      0.00000000      0.00000000      0.00000000</v>
  </separator>
  <separator name="orbital magnetization" >
   <i type="logical" name="NUCIND"> F  </i>
   <v name="MAGPOS">      0.00000000      0.00000000      0.00000000</v>
   <i type="logical" name="LNICSALL"> T  </i>
   <i type="logical" name="ORBITALMAG"> F  </i>
   <i type="logical" name="LMAGBLOCH"> F  </i>
   <i type="logical" name="LCHIMAG"> F  </i>
   <i type="logical" name="LGAUGE"> T  </i>
   <i type="int" name="MAGATOM">     0</i>
   <v name="MAGDIPOL">      0.00000000      0.00000000      0.00000000</v>
   <v name="AVECCONST">      0.00000000      0.00000000      0.00000000</v>
  </separator>
  <separator name="response functions" >
   <i type="logical" name="LFINITE_TEMPERATURE"> F  </i>
   <i type="logical" name="LADDER"> F  </i>
   <i type="logical" name="LRPAFORCE"> F  </i>
   <i type="logical" name="LFXC"> F  </i>
   <i type="logical" name="LHARTREE"> T  </i>
   <i type="int" name="IBSE">     0</i>
   <v type="int" name="KPOINT">    -1     0     0     0</v>
   <i type="logical" name="LTCTC"> F  </i>
   <i type="logical" name="LTCTE"> F  </i>
   <i type="logical" name="LTETE"> F  </i>
   <i type="logical" name="LTRIPLET"> F  </i>
   <i type="logical" name="LFXCEPS"> F  </i>
   <i type="logical" name="LFXHEG"> F  </i>
   <i type="int" name="NATURALO">     2</i>
   <i type="logical" name="LHOLEGF"> F  </i>
   <i type="logical" name="L2ORDER"> F  </i>
   <i type="logical" name="LDMP1"> F  </i>
   <i type="logical" name="LMP2LT"> F  </i>
   <i type="logical" name="LSMP2LT"> F  </i>
   <i type="logical" name="LGWLF"> F  </i>
   <i name="ENCUTGW">     -2.00000000</i>
   <i name="ENCUTGWSOFT">     -2.00000000</i>
   <i name="ENCUTLF">     -1.00000000</i>
   <i type="logical" name="LESF_SPLINES"> F  </i>
   <i type="int" name="LMAXMP2">    -1</i>
   <i name="SCISSOR">      0.00000000</i>
   <i type="int" name="NOMEGA">     0</i>
   <i type="int" name="NOMEGAR">     0</i>
   <i type="int" name="NBANDSGW">    -1</i>
   <i type="int" name="NBANDSO">    -1</i>
   <i type="int" name="NBANDSV">    -1</i>
   <i type="int" name="NELM">     1</i>
   <i type="int" name="NELMHF">     1</i>
   <i type="int" name="DIM">     3</i>
   <i type="int" name="IESPILON">     4</i>
   <i type="int" name="ANTIRES">     0</i>
   <i name="OMEGAMAX">    -30.00000000</i>
   <i name="OMEGAMIN">    -30.00000000</i>
   <i name="OMEGATL">   -200.00000000</i>
   <i type="int" name="OMEGAGRID">     0</i>
   <i name="CSHIFT">     -0.10000000</i>
   <i type="logical" name="LSELFENERGY"> F  </i>
   <i type="logical" name="LSPECTRAL"> F  </i>
   <i type="logical" name="LSPECTRALGW"> F  </i>
   <i type="logical" name="LSINGLES"> F  </i>
   <i type="logical" name="LFERMIGW"> F  </i>
   <i type="logical" name="ODDONLYGW"> F  </i>
   <i type="logical" name="EVENONLYGW"> F  </i>
   <i type="int" name="NKREDLFX">     1</i>
   <i type="int" name="NKREDLFY">     1</i>
   <i type="int" name="NKREDLFZ">     1</i>
   <i type="int" name="MAXMEM">  2800</i>
   <i type="int" name="TELESCOPE">     0</i>
   <i type="int" name="NTAUPAR">    -1</i>
   <i type="int" name="NOMEGAPAR">    -1</i>
   <i name="LAMBDA">      1.00000000</i>
  </separator>
  <separator name="External order field" >
   <i name="OFIELD_KAPPA">      0.00000000</i>
   <v name="OFIELD_K">      0.00000000      0.00000000      0.00000000</v>
   <i name="OFIELD_Q6_NEAR">      0.00000000</i>
   <i name="OFIELD_Q6_FAR">      0.00000000</i>
   <i name="OFIELD_A">      0.00000000</i>
  </separator>
 </parameters>
 <atominfo>
  <atoms>      13 </atoms>
  <types>       1 </types>
  <array name="atoms" >
   <dimension dim="1">ion</dimension>
   <field type="string">element</field>
   <field type="int">atomtype</field>
   <set>
    <rc><c>Cu</c><c>   1</c></rc>
    <rc><c>Cu</c><c>   1</c></rc>
    <rc><c>Cu</c><c>   1</c></rc>
    <rc><c>Cu</c><c>   1</c></rc>
    <rc><c>Cu</c><c>   1</c></rc>
    <rc><c>Cu</c><c>   1</c></rc>
    <rc><c>Cu</c><c>   1</c></rc>
    <rc><c>Cu</c><c>   1</c></rc>
    <rc><c>Cu</c><c>   1</c></rc>
    <rc><c>Cu</c><c>   1</c></rc>
    <rc><c>Cu</c><c>   1</c></rc>
    <rc><c>Cu</c><c>   1</c></rc>
    <rc><c>Cu</c><c>   1</c></rc>
   </set>
  </array>
  <array name="atomtypes" >
   <dimension dim="1">type</dimension>
   <field type="int">atomspertype</field>
   <field type="string">element</field>
   <field>mass</field>
   <field>valence</field>
   <field type="string">pseudopotential</field>
   <set>
    <rc><c>  13</c><c>Cu</c><c>     63.54600000</c><c>     11.00000000</c><c>  PAW_PBE Cu 22Jun2005                  </c></rc>
   </set>
  </array>
 </atominfo>
 <structure name="initialpos" >
  <crystal>
   <varray name="basis" >
    <v>      23.38014829       0.00000000       0.00000000 </v>
    <v>       0.00000000      25.20637275       0.00000000 </v>
    <v>       0.00000000       0.00000000      22.43618420 </v>
   </varray>
   <i name="volume">  13222.28800392 </i>
   <varray name="rec_basis" >
    <v>       0.04277133       0.00000000       0.00000000 </v>
    <v>       0.00000000       0.03967251       0.00000000 </v>
    <v>       0.00000000       0.00000000       0.04457086 </v>
   </varray>
  </crystal>
  <varray name="positions" >
   <v>       0.40901837       0.48502561       0.49748061 </v>
   <v>       0.55850708       0.58807418       0.52030715 </v>
   <v>       0.47003400       0.62883553       0.54691256 </v>
   <v>       0.47793507       0.53376390       0.56449108 </v>
   <v>       0.57729394       0.50373706       0.56517727 </v>
   <v>       0.60911512       0.43307560       0.50175826 </v>
   <v>       0.47199786       0.56378239       0.46275288 </v>
   <v>       0.43540917       0.39852577       0.45515913 </v>
   <v>       0.56039364       0.50791654       0.45684143 </v>
   <v>       0.53800938       0.40847296       0.42958524 </v>
   <v>       0.38836506       0.57434565       0.52558401 </v>
   <v>       0.50294977       0.44719131       0.51968310 </v>
   <v>       0.47105997       0.47947451       0.41254163 </v>
  </varray>
 </structure>
 <calculation>
  <scstep>
   <time name="dav">    9.40    9.41</time>
   <time name="total">   12.27   12.30</time>
   <energy>
    <i name="alphaZ">      9.34743202 </i>
    <i name="ewald">  24932.25472962 </i>
    <i name="hartreedc"> -41388.15812593 </i>
    <i name="XCdc">    584.92379209 </i>
    <i name="pawpsdc">  15965.26744864 </i>
    <i name="pawaedc"> -17340.97210982 </i>
    <i name="eentropy">      0.00360756 </i>
    <i name="bandstr">    137.37926019 </i>
    <i name="atom">  18082.44932260 </i>
    <i name="e_fr_energy">    982.49535696 </i>
    <i name="e_wo_entrp">    982.49174940 </i>
    <i name="e_0_energy">    982.49415444 </i>
   </energy>
  </scstep>
  <scstep>
   <time name="dav">    9.49    9.50</time>
   <time name="total">    9.49    9.50</time>
   <energy>
    <i name="e_fr_energy">    263.71352064 </i>
    <i name="e_wo_entrp">    263.72743029 </i>
    <i name="e_0_energy">    263.71815719 </i>
   </energy>
  </scstep>
  <scstep>
   <time name="dav">   11.42   11.44</time>
   <time name="total">   11.43   11.44</time>
   <energy>
    <i name="e_fr_energy">     11.30100460 </i>
    <i name="e_wo_entrp">     11.31946717 </i>
    <i name="e_0_energy">     11.30715879 </i>
   </energy>
  </scstep>
  <scstep>
   <time name="dav">   10.68   10.70</time>
   <time name="total">   10.68   10.70</time>
   <energy>
    <i name="e_fr_energy">    -35.09416573 </i>
    <i name="e_wo_entrp">    -35.16707308 </i>
    <i name="e_0_energy">    -35.11846818 </i>
   </energy>
  </scstep>
  <scstep>
   <time name="dav">   11.56   11.58</time>
   <time name="total">   12.47   12.49</time>
   <energy>
    <i name="e_fr_energy">    -37.35538904 </i>
    <i name="e_wo_entrp">    -37.43856277 </i>
    <i name="e_0_energy">    -37.38311362 </i>
   </energy>
  </scstep>
  <scstep>
   <time name="dav">   10.26   10.28</time>
   <time name="total">   14.01   14.04</time>
   <energy>
    <i name="e_fr_energy">    -13.42579130 </i>
    <i name="e_wo_entrp">    -13.38912780 </i>
    <i name="e_0_energy">    -13.41357013 </i>
   </energy>
  </scstep>
  <scstep>
   <time name="dav">   11.03   11.04</time>
   <time name="total">   14.77   14.79</time>
   <energy>
    <i name="e_fr_energy">     -8.84932338 </i>
    <i name="e_wo_entrp">     -8.82070495 </i>
    <i name="e_0_energy">     -8.83978390 </i>
   </energy>
  </scstep>
  <scstep>
   <time name="dav">   10.93   10.94</time>
   <time name="total">   14.68   14.70</time>
   <energy>
    <i name="e_fr_energy">     -9.03190615 </i>
    <i name="e_wo_entrp">     -9.00674436 </i>
    <i name="e_0_energy">     -9.02351888 </i>
   </energy>
  </scstep>
  <scstep>
   <time name="dav">   11.48   11.50</time>
   <time name="total">   15.24   15.26</time>
   <energy>
    <i name="e_fr_energy">    -10.78425982 </i>
    <i name="e_wo_entrp">    -10.75439817 </i>
    <i name="e_0_energy">    -10.77430594 </i>
   </energy>
  </scstep>
  <scstep>
   <time name="dav">   12.49   12.51</time>
   <time name="total">   16.25   16.27</time>
   <energy>
    <i name="e_fr_energy">    -15.37749758 </i>
    <i name="e_wo_entrp">    -15.40044856 </i>
    <i name="e_0_energy">    -15.38514791 </i>
   </energy>
  </scstep>
  <scstep>
   <time name="dav">   11.51   11.52</time>
   <time name="total">   15.26   15.29</time>
   <energy>
    <i name="e_fr_energy">    -18.26496489 </i>
    <i name="e_wo_entrp">    -18.29302469 </i>
    <i name="e_0_energy">    -18.27431815 </i>
   </energy>
  </scstep>
  <scstep>
   <time name="dav">   12.07   12.09</time>
   <time name="total">   15.82   15.85</time>
   <energy>
    <i name="e_fr_energy">    -23.28993463 </i>
    <i name="e_wo_entrp">    -23.31014354 </i>
    <i name="e_0_energy">    -23.29667093 </i>
   </energy>
  </scstep>
  <scstep>
   <time name="dav">   11.63   11.64</time>
   <time name="total">   15.39   15.41</time>
   <energy>
    <i name="e_fr_energy">    -26.74794256 </i>
    <i name="e_wo_entrp">    -26.76887217 </i>
    <i name="e_0_energy">    -26.75491909 </i>
   </energy>
  </scstep>
  <scstep>
   <time name="dav">   11.51   11.52</time>
   <time name="total">   15.28   15.30</time>
   <energy>
    <i name="e_fr_energy">    -28.68284963 </i>
    <i name="e_wo_entrp">    -28.70842055 </i>
    <i name="e_0_energy">    -28.69137327 </i>
   </energy>
  </scstep>
  <scstep>
   <time name="dav">   11.75   11.77</time>
   <time name="total">   16.79   16.82</time>
   <energy>
    <i name="e_fr_energy">    -30.78143599 </i>
    <i name="e_wo_entrp">    -30.81408385 </i>
    <i name="e_0_energy">    -30.79231861 </i>
   </energy>
  </scstep>
  <scstep>
   <time name="dav">   12.14   12.16</time>
   <time name="total">   15.94   15.96</time>
   <energy>
    <i name="e_fr_energy">    -31.52892767 </i>
    <i name="e_wo_entrp">    -31.54909754 </i>
    <i name="e_0_energy">    -31.53565096 </i>
   </energy>
  </scstep>
  <scstep>
   <time name="dav">   12.71   12.73</time>
   <time name="total">   16.52   16.54</time>
   <energy>
    <i name="e_fr_energy">    -31.91337891 </i>
    <i name="e_wo_entrp">    -31.92055991 </i>
    <i name="e_0_energy">    -31.91577257 </i>
   </energy>
  </scstep>
  <scstep>
   <time name="dav">   12.34   12.36</time>
   <time name="total">   16.16   16.18</time>
   <energy>
    <i name="e_fr_energy">    -32.28941736 </i>
    <i name="e_wo_entrp">    -32.28685305 </i>
    <i name="e_0_energy">    -32.28856259 </i>
   </energy>
  </scstep>
  <scstep>
   <time name="dav">   12.10   12.12</time>
   <time name="total">   15.92   15.95</time>
   <energy>
    <i name="e_fr_energy">    -32.73460037 </i>
    <i name="e_wo_entrp">    -32.72272569 </i>
    <i name="e_0_energy">    -32.73064215 </i>
   </energy>
  </scstep>
  <scstep>
   <time name="dav">   12.13   12.15</time>
   <time name="total">   15.95   15.97</time>
   <energy>
    <i name="e_fr_energy">    -32.95557086 </i>
    <i name="e_wo_entrp">    -32.93774278 </i>
    <i name="e_0_energy">    -32.94962817 </i>
   </energy>
  </scstep>
  <scstep>
   <time name="dav">   12.68   12.70</time>
   <time name="total">   16.55   16.71</time>
   <energy>
    <i name="e_fr_energy">    -33.06005034 </i>
    <i name="e_wo_entrp">    -33.03742268 </i>
    <i name="e_0_energy">    -33.05250778 </i>
   </energy>
  </scstep>
  <scstep>
   <time name="dav">   11.60   11.62</time>
   <time name="total">   15.43   15.45</time>
   <energy>
    <i name="e_fr_energy">    -33.12569433 </i>
    <i name="e_wo_entrp">    -33.09862988 </i>
    <i name="e_0_energy">    -33.11667285 </i>
   </energy>
  </scstep>
  <scstep>
   <time name="dav">    9.06    9.08</time>
   <time name="total">   12.90   12.92</time>
   <energy>
    <i name="e_fr_energy">    -33.14963773 </i>
    <i name="e_wo_entrp">    -33.12001265 </i>
    <i name="e_0_energy">    -33.13976271 </i>
   </energy>
  </scstep>
  <scstep>
   <time name="dav">   10.02   10.04</time>
   <time name="total">   13.86   13.88</time>
   <energy>
    <i name="e_fr_energy">    -33.16787514 </i>
    <i name="e_wo_entrp">    -33.13627165 </i>
    <i name="e_0_energy">    -33.15734065 </i>
   </energy>
  </scstep>
  <scstep>
   <time name="dav">    8.12    8.13</time>
   <time name="total">   11.97   12.00</time>
   <energy>
    <i name="e_fr_energy">    -33.18167581 </i>
    <i name="e_wo_entrp">    -33.14824390 </i>
    <i name="e_0_energy">    -33.17053184 </i>
   </energy>
  </scstep>
  <scstep>
   <time name="dav">    7.82    7.83</time>
   <time name="total">   11.70   11.72</time>
   <energy>
    <i name="e_fr_energy">    -33.18908544 </i>
    <i name="e_wo_entrp">    -33.15405278 </i>
    <i name="e_0_energy">    -33.17740789 </i>
   </energy>
  </scstep>
  <scstep>
   <time name="dav">    8.07    8.26</time>
   <time name="total">   11.97   12.17</time>
   <energy>
    <i name="e_fr_energy">    -33.19330581 </i>
    <i name="e_wo_entrp">    -33.15723933 </i>
    <i name="e_0_energy">    -33.18128365 </i>
   </energy>
  </scstep>
  <scstep>
   <time name="dav">    7.76    7.77</time>
   <time name="total">   11.67   11.73</time>
   <energy>
    <i name="e_fr_energy">    -33.19654027 </i>
    <i name="e_wo_entrp">    -33.15951421 </i>
    <i name="e_0_energy">    -33.18419825 </i>
   </energy>
  </scstep>
  <scstep>
   <time name="dav">    7.77    7.78</time>
   <time name="total">   11.68   11.69</time>
   <energy>
    <i name="e_fr_energy">    -33.19847696 </i>
    <i name="e_wo_entrp">    -33.16074808 </i>
    <i name="e_0_energy">    -33.18590067 </i>
   </energy>
  </scstep>
  <scstep>
   <time name="dav">    7.28    7.29</time>
   <time name="total">   11.22   11.24</time>
   <energy>
    <i name="e_fr_energy">    -33.20044470 </i>
    <i name="e_wo_entrp">    -33.16196711 </i>
    <i name="e_0_energy">    -33.18761884 </i>
   </energy>
  </scstep>
  <scstep>
   <time name="dav">    7.56    7.57</time>
   <time name="total">   11.54   11.56</time>
   <energy>
    <i name="e_fr_energy">    -33.20129499 </i>
    <i name="e_wo_entrp">    -33.16246779 </i>
    <i name="e_0_energy">    -33.18835259 </i>
   </energy>
  </scstep>
  <scstep>
   <time name="dav">    7.09    7.10</time>
   <time name="total">   11.73   12.08</time>
   <energy>
    <i name="e_fr_energy">    -33.20196686 </i>
    <i name="e_wo_entrp">    -33.16274143 </i>
    <i name="e_0_energy">    -33.18889172 </i>
   </energy>
  </scstep>
  <scstep>
   <time name="dav">    7.60    7.61</time>
   <time name="total">   11.58   11.60</time>
   <energy>
    <i name="e_fr_energy">    -33.20234485 </i>
    <i name="e_wo_entrp">    -33.16270350 </i>
    <i name="e_0_energy">    -33.18913107 </i>
   </energy>
  </scstep>
  <scstep>
   <time name="dav">    7.44    7.45</time>
   <time name="total">   11.45   11.47</time>
   <energy>
    <i name="e_fr_energy">    -33.20251916 </i>
    <i name="e_wo_entrp">    -33.16254781 </i>
    <i name="e_0_energy">    -33.18919538 </i>
   </energy>
  </scstep>
  <scstep>
   <time name="dav">    7.15    7.16</time>
   <time name="total">   11.16   11.18</time>
   <energy>
    <i name="e_fr_energy">    -33.20266828 </i>
    <i name="e_wo_entrp">    -33.16235975 </i>
    <i name="e_0_energy">    -33.18923211 </i>
   </energy>
  </scstep>
  <scstep>
   <time name="dav">    7.70    8.04</time>
   <time name="total">   11.72   12.07</time>
   <energy>
    <i name="e_fr_energy">    -33.20279615 </i>
    <i name="e_wo_entrp">    -33.16205557 </i>
    <i name="e_0_energy">    -33.18921596 </i>
   </energy>
  </scstep>
  <scstep>
   <time name="dav">    7.46    7.47</time>
   <time name="total">   11.51   11.52</time>
   <energy>
    <i name="e_fr_energy">    -33.20290812 </i>
    <i name="e_wo_entrp">    -33.16170003 </i>
    <i name="e_0_energy">    -33.18917209 </i>
   </energy>
  </scstep>
  <scstep>
   <time name="dav">    7.60    7.61</time>
   <time name="total">   11.63   11.65</time>
   <energy>
    <i name="e_fr_energy">    -33.20305110 </i>
    <i name="e_wo_entrp">    -33.16130525 </i>
    <i name="e_0_energy">    -33.18913581 </i>
   </energy>
  </scstep>
  <scstep>
   <time name="dav">    7.30    7.31</time>
   <time name="total">   10.14   10.15</time>
   <energy>
    <i name="alphaZ">      9.34743202 </i>
    <i name="ewald">  24932.25472962 </i>
    <i name="hartreedc"> -41341.63163466 </i>
    <i name="XCdc">    574.77093270 </i>
    <i name="pawpsdc">  16764.19168438 </i>
    <i name="pawaedc"> -18159.09592532 </i>
    <i name="eentropy">     -0.04198922 </i>
    <i name="bandstr">   -895.44768351 </i>
    <i name="atom">  18082.44932260 </i>
    <i name="e_fr_energy">    -33.20313139 </i>
    <i name="e_wo_entrp">    -33.16114217 </i>
    <i name="e_0_energy">    -33.18913499 </i>
   </energy>
  </scstep>
  <structure>
   <crystal>
    <varray name="basis" >
     <v>      23.38014829       0.00000000       0.00000000 </v>
     <v>       0.00000000      25.20637275       0.00000000 </v>
     <v>       0.00000000       0.00000000      22.43618420 </v>
    </varray>
    <i name="volume">  13222.28800392 </i>
    <varray name="rec_basis" >
     <v>       0.04277133       0.00000000       0.00000000 </v>
     <v>       0.00000000       0.03967251       0.00000000 </v>
     <v>       0.00000000       0.00000000       0.04457086 </v>
    </varray>
   </crystal>
   <varray name="positions" >
    <v>       0.40901837       0.48502561       0.49748061 </v>
    <v>       0.55850708       0.58807418       0.52030715 </v>
    <v>       0.47003400       0.62883553       0.54691256 </v>
    <v>       0.47793507       0.53376390       0.56449108 </v>
    <v>       0.57729394       0.50373706       0.56517727 </v>
    <v>       0.60911512       0.43307560       0.50175826 </v>
    <v>       0.47199786       0.56378239       0.46275288 </v>
    <v>       0.43540917       0.39852577       0.45515913 </v>
    <v>       0.56039364       0.50791654       0.45684143 </v>
    <v>       0.53800938       0.40847296       0.42958524 </v>
    <v>       0.38836506       0.57434565       0.52558401 </v>
    <v>       0.50294977       0.44719131       0.51968310 </v>
    <v>       0.47105997       0.47947451       0.41254163 </v>
   </varray>
  </structure>
  <varray name="forces" >
   <v>      -0.01997709       0.01379195       0.00574211 </v>
   <v>      -0.00291669      -0.01959666       0.01057852 </v>
   <v>      -0.00809640      -0.00753571      -0.00372331 </v>
   <v>      -0.00417354       0.01103957      -0.01006391 </v>
   <v>       0.00949111      -0.02915193      -0.02422994 </v>
   <v>       0.00883674       0.01179608      -0.01292021 </v>
   <v>       0.02829361      -0.00642531       0.00897871 </v>
   <v>       0.00848157      -0.00166057       0.02269669 </v>
   <v>      -0.00394842      -0.00645002       0.01746832 </v>
   <v>       0.01237434       0.01707785       0.00152370 </v>
   <v>      -0.02128606       0.00351694      -0.00960745 </v>
   <v>       0.00240588      -0.00593219      -0.01516822 </v>
   <v>      -0.00948506       0.01952998       0.00872500 </v>
  </varray>
  <energy>
   <i name="e_fr_energy">    -33.20313139 </i>
   <i name="e_wo_entrp">    -33.16114217 </i>
   <i name="e_0_energy">    -33.18913499 </i>
  </energy>
  <time name="totalsc">  535.34  537.23</time>
 </calculation>
 <calculation>
  <scstep>
   <time name="dav">   10.13   10.14</time>
   <time name="total">   13.90   13.93</time>
   <energy>
    <i name="alphaZ">      9.34743202 </i>
    <i name="ewald">  24936.54555942 </i>
    <i name="hartreedc"> -41345.87808212 </i>
    <i name="XCdc">    574.77787962 </i>
    <i name="pawpsdc">  16764.16444263 </i>
    <i name="pawaedc"> -18159.06636547 </i>
    <i name="eentropy">     -0.04234830 </i>
    <i name="bandstr">   -895.50115073 </i>
    <i name="atom">  18082.44932260 </i>
    <i name="e_fr_energy">    -33.20331033 </i>
    <i name="e_wo_entrp">    -33.16096204 </i>
    <i name="e_0_energy">    -33.18919423 </i>
   </energy>
  </scstep>
  <scstep>
   <time name="dav">   12.44   12.46</time>
   <time name="total">   16.19   16.23</time>
   <energy>
    <i name="e_fr_energy">    -33.20352753 </i>
    <i name="e_wo_entrp">    -33.16112504 </i>
    <i name="e_0_energy">    -33.18939337 </i>
   </energy>
  </scstep>
  <scstep>
   <time name="dav">    7.32    7.33</time>
   <time name="total">   10.16   10.17</time>
   <energy>
    <i name="alphaZ">      9.34743202 </i>
    <i name="ewald">  24936.54555942 </i>
    <i name="hartreedc"> -41345.84526100 </i>
    <i name="XCdc">    574.77558372 </i>
    <i name="pawpsdc">  16764.56614711 </i>
    <i name="pawaedc"> -18159.46460268 </i>
    <i name="eentropy">     -0.04241670 </i>
    <i name="bandstr">   -895.53531041 </i>
    <i name="atom">  18082.44932260 </i>
    <i name="e_fr_energy">    -33.20354593 </i>
    <i name="e_wo_entrp">    -33.16112923 </i>
    <i name="e_0_energy">    -33.18940703 </i>
   </energy>
  </scstep>
  <structure>
   <crystal>
    <varray name="basis" >
     <v>      23.38014829       0.00000000       0.00000000 </v>
     <v>       0.00000000      25.20637275       0.00000000 </v>
     <v>       0.00000000       0.00000000      22.43618420 </v>
    </varray>
    <i name="volume">  13222.28800392 </i>
    <varray name="rec_basis" >
     <v>       0.04277133       0.00000000       0.00000000 </v>
     <v>       0.00000000       0.03967251       0.00000000 </v>
     <v>       0.00000000       0.00000000       0.04457086 </v>
    </varray>
   </crystal>
   <varray name="positions" >
    <v>       0.40897715       0.48505200       0.49749296 </v>
    <v>       0.55850106       0.58803667       0.52032990 </v>
    <v>       0.47001729       0.62882111       0.54690456 </v>
    <v>       0.47792646       0.53378503       0.56446944 </v>
    <v>       0.57731352       0.50368127       0.56512517 </v>
    <v>       0.60913335       0.43309817       0.50173048 </v>
    <v>       0.47205624       0.56377009       0.46277219 </v>
    <v>       0.43542667       0.39852260       0.45520793 </v>
    <v>       0.56038550       0.50790420       0.45687899 </v>
    <v>       0.53803491       0.40850564       0.42958852 </v>
    <v>       0.38832113       0.57435238       0.52556335 </v>
    <v>       0.50295474       0.44717995       0.51965049 </v>
    <v>       0.47104040       0.47951189       0.41256039 </v>
   </varray>
  </structure>
  <varray name="forces" >
   <v>      -0.01122452       0.00624404       0.00402645 </v>
   <v>       0.00135138      -0.00999714       0.01089388 </v>
   <v>      -0.00637087      -0.00346568      -0.00324580 </v>
   <v>      -0.00205911       0.00109342      -0.00355049 </v>
   <v>       0.00468170      -0.01684850      -0.00881248 </v>
   <v>       0.01374673       0.00100383      -0.01096199 </v>
   <v>       0.01275688       0.00077369       0.00508843 </v>
   <v>       0.00635528       0.00152541       0.01461313 </v>
   <v>      -0.00010921      -0.00202460       0.00450923 </v>
   <v>       0.00586929       0.01137558      -0.00413982 </v>
   <v>      -0.01285307       0.00451304      -0.00954839 </v>
   <v>      -0.00408769      -0.00140741      -0.00500526 </v>
   <v>      -0.00805678       0.00721430       0.00613311 </v>
  </varray>
  <energy>
   <i name="e_fr_energy">    -33.20354593 </i>
   <i name="e_wo_entrp">    -33.16112923 </i>
   <i name="e_0_energy">    -33.18940703 </i>
  </energy>
  <time name="totalsc">   53.58   53.69</time>
 </calculation>
 <calculation>
  <scstep>
   <time name="dav">    9.95    9.96</time>
   <time name="total">   13.71   13.73</time>
   <energy>
    <i name="alphaZ">      9.34743202 </i>
    <i name="ewald">  24941.13302596 </i>
    <i name="hartreedc"> -41350.38087455 </i>
    <i name="XCdc">    574.78345602 </i>
    <i name="pawpsdc">  16764.62824192 </i>
    <i name="pawaedc"> -18159.52977283 </i>
    <i name="eentropy">     -0.04253264 </i>
    <i name="bandstr">   -895.59190810 </i>
    <i name="atom">  18082.44932260 </i>
    <i name="e_fr_energy">    -33.20360959 </i>
    <i name="e_wo_entrp">    -33.16107694 </i>
    <i name="e_0_energy">    -33.18943204 </i>
   </energy>
  </scstep>
  <scstep>
   <time name="dav">   12.88   12.90</time>
   <time name="total">   16.62   16.65</time>
   <energy>
    <i name="e_fr_energy">    -33.20382454 </i>
    <i name="e_wo_entrp">    -33.16126679 </i>
    <i name="e_0_energy">    -33.18963862 </i>
   </energy>
  </scstep>
  <scstep>
   <time name="dav">    7.33    7.34</time>
   <time name="total">   10.17   10.19</time>
   <energy>
    <i name="alphaZ">      9.34743202 </i>
    <i name="ewald">  24941.13302596 </i>
    <i name="hartreedc"> -41350.34952701 </i>
    <i name="XCdc">    574.78130607 </i>
    <i name="pawpsdc">  16765.27487685 </i>
    <i name="pawaedc"> -18160.18576580 </i>
    <i name="eentropy">     -0.04256997 </i>
    <i name="bandstr">   -895.61193155 </i>
    <i name="atom">  18082.44932260 </i>
    <i name="e_fr_energy">    -33.20383083 </i>
    <i name="e_wo_entrp">    -33.16126086 </i>
    <i name="e_0_energy">    -33.18964084 </i>
   </energy>
  </scstep>
  <structure>
   <crystal>
    <varray name="basis" >
     <v>      23.38014829       0.00000000       0.00000000 </v>
     <v>       0.00000000      25.20637275       0.00000000 </v>
     <v>       0.00000000       0.00000000      22.43618420 </v>
    </varray>
    <i name="volume">  13222.28800392 </i>
    <varray name="rec_basis" >
     <v>       0.04277133       0.00000000       0.00000000 </v>
     <v>       0.00000000       0.03967251       0.00000000 </v>
     <v>       0.00000000       0.00000000       0.04457086 </v>
    </varray>
   </crystal>
   <varray name="positions" >
    <v>       0.40893308       0.48508022       0.49750616 </v>
    <v>       0.55849463       0.58799658       0.52035421 </v>
    <v>       0.46999944       0.62880569       0.54689600 </v>
    <v>       0.47791725       0.53380762       0.56444631 </v>
    <v>       0.57733446       0.50362162       0.56506947 </v>
    <v>       0.60915284       0.43312231       0.50170078 </v>
    <v>       0.47211865       0.56375694       0.46279282 </v>
    <v>       0.43544538       0.39851920       0.45526010 </v>
    <v>       0.56037679       0.50789100       0.45691914 </v>
    <v>       0.53806221       0.40854058       0.42959202 </v>
    <v>       0.38827418       0.57435958       0.52554127 </v>
    <v>       0.50296004       0.44716782       0.51961562 </v>
    <v>       0.47101948       0.47955184       0.41258045 </v>
   </varray>
  </structure>
  <varray name="forces" >
   <v>      -0.00634998       0.00096569       0.00322436 </v>
   <v>       0.00479678      -0.00438506       0.01371346 </v>
   <v>      -0.00635892      -0.00083875      -0.00344835 </v>
   <v>      -0.00087730      -0.00659939       0.00077292 </v>
   <v>       0.00172163      -0.01036696       0.00119761 </v>
   <v>       0.01984797      -0.00673648      -0.01229885 </v>
   <v>       0.00296756       0.00674445       0.00311368 </v>
   <v>       0.00587321       0.00434815       0.01135189 </v>
   <v>       0.00259003       0.00091469      -0.00461863 </v>
   <v>       0.00226516       0.00913755      -0.00978329 </v>
   <v>      -0.00749425       0.00597240      -0.01081634 </v>
   <v>      -0.01030994       0.00165898       0.00170209 </v>
   <v>      -0.00867196      -0.00081525       0.00588946 </v>
  </varray>
  <energy>
   <i name="e_fr_energy">    -33.20383083 </i>
   <i name="e_wo_entrp">    -33.16126086 </i>
   <i name="e_0_energy">    -33.18964084 </i>
  </energy>
  <time name="totalsc">   52.83   52.92</time>
  <eigenvalues>
   <array>
    <dimension dim="1">band</dimension>
    <dimension dim="2">kpoint</dimension>
    <dimension dim="3">spin</dimension>
    <field>eigene</field>
    <field>occ</field>
    <set>
     <set comment="spin 1">
      <set comment="kpoint 1">
       <r>  -10.5642    1.0000 </r>
       <r>   -9.1620    1.0000 </r>
       <r>   -8.6918    1.0000 </r>
       <r>   -8.0547    1.0000 </r>
       <r>   -7.9697    1.0000 </r>
       <r>   -7.8679    1.0000 </r>
       <r>   -7.6595    1.0000 </r>
       <r>   -7.5335    1.0000 </r>
       <r>   -7.5251    1.0000 </r>
       <r>   -7.3217    1.0000 </r>
       <r>   -7.3165    1.0000 </r>
       <r>   -7.2372    1.0000 </r>
       <r>   -7.1633    1.0000 </r>
       <r>   -7.0648    1.0000 </r>
       <r>   -7.0631    1.0000 </r>
       <r>   -6.9968    1.0000 </r>
       <r>   -6.9129    1.0000 </r>
       <r>   -6.8438    1.0000 </r>
       <r>   -6.8163    1.0000 </r>
       <r>   -6.7714    1.0000 </r>
       <r>   -6.6975    1.0000 </r>
       <r>   -6.6727    1.0000 </r>
       <r>   -6.5896    1.0000 </r>
       <r>   -6.5759    1.0000 </r>
       <r>   -6.5316    1.0000 </r>
       <r>   -6.4315    1.0000 </r>
       <r>   -6.3594    1.0000 </r>
       <r>   -6.3472    1.0000 </r>
       <r>   -6.3156    1.0000 </r>
       <r>   -6.2613    1.0000 </r>
       <r>   -6.2317    1.0000 </r>
       <r>   -6.1558    1.0000 </r>
       <r>   -6.1378    1.0000 </r>
       <r>   -6.0921    1.0000 </r>
       <r>   -6.0228    1.0000 </r>
       <r>   -5.9656    1.0000 </r>
       <r>   -5.9384    1.0000 </r>
       <r>   -5.9237    1.0000 </r>
       <r>   -5.8813    1.0000 </r>
       <r>   -5.8686    1.0000 </r>
       <r>   -5.8344    1.0000 </r>
       <r>   -5.8051    1.0000 </r>
       <r>   -5.7755    1.0000 </r>
       <r>   -5.7444    1.0000 </r>
       <r>   -5.7294    1.0000 </r>
       <r>   -5.7159    1.0000 </r>
       <r>   -5.6839    1.0000 </r>
       <r>   -5.6755    1.0000 </r>
       <r>   -5.6590    1.0000 </r>
       <r>   -5.6075    1.0000 </r>
       <r>   -5.5871    1.0000 </r>
       <r>   -5.5787    1.0000 </r>
       <r>   -5.5451    1.0000 </r>
       <r>   -5.5076    1.0000 </r>
       <r>   -5.4954    1.0000 </r>
       <r>   -5.4572    1.0000 </r>
       <r>   -5.4257    1.0000 </r>
       <r>   -5.4120    1.0000 </r>
       <r>   -5.3948    1.0000 </r>
       <r>   -5.3910    1.0000 </r>
       <r>   -5.3589    1.0000 </r>
       <r>   -5.3454    1.0000 </r>
       <r>   -5.3294    1.0000 </r>
       <r>   -5.2866    1.0000 </r>
       <r>   -5.2478    1.0000 </r>
       <r>   -5.2374    1.0000 </r>
       <r>   -5.2188    1.0000 </r>
       <r>   -5.1900    1.0000 </r>
       <r>   -4.9457    1.0000 </r>
       <r>   -4.8107    1.0000 </r>
       <r>   -4.6865    1.0000 </r>
       <r>   -3.8660    0.6818 </r>
       <r>   -3.4220   -0.0080 </r>
       <r>   -3.2213   -0.0001 </r>
       <r>   -2.7868   -0.0000 </r>
       <r>   -2.7090   -0.0000 </r>
       <r>   -2.2803   -0.0000 </r>
       <r>   -2.2411   -0.0000 </r>
       <r>   -1.6661   -0.0000 </r>
       <r>   -1.5617   -0.0000 </r>
       <r>   -1.3837   -0.0000 </r>
       <r>   -1.0589   -0.0000 </r>
       <r>   -0.8732   -0.0000 </r>
       <r>   -0.8202   -0.0000 </r>
       <r>   -0.4381   -0.0000 </r>
       <r>   -0.1678   -0.0000 </r>
       <r>   -0.0059   -0.0000 </r>
       <r>    0.0878   -0.0000 </r>
       <r>    0.1398   -0.0000 </r>
       <r>    0.3024   -0.0000 </r>
       <r>    0.3343   -0.0000 </r>
       <r>    0.3901   -0.0000 </r>
      </set>
     </set>
     <set comment="spin 2">
      <set comment="kpoint 1">
       <r>  -10.5481    1.0000 </r>
       <r>   -9.1548    1.0000 </r>
       <r>   -8.6750    1.0000 </r>
       <r>   -8.0416    1.0000 </r>
       <r>   -7.9624    1.0000 </r>
       <r>   -7.8608    1.0000 </r>
       <r>   -7.6419    1.0000 </r>
       <r>   -7.5251    1.0000 </r>
       <r>   -7.5160    1.0000 </r>
       <r>   -7.3124    1.0000 </r>
       <r>   -7.3070    1.0000 </r>
       <r>   -7.2309    1.0000 </r>
       <r>   -7.1533    1.0000 </r>
       <r>   -7.0550    1.0000 </r>
       <r>   -7.0497    1.0000 </r>
       <r>   -6.9893    1.0000 </r>
       <r>   -6.9038    1.0000 </r>
       <r>   -6.8364    1.0000 </r>
       <r>   -6.8090    1.0000 </r>
       <r>   -6.7624    1.0000 </r>
       <r>   -6.6854    1.0000 </r>
       <r>   -6.6659    1.0000 </r>
       <r>   -6.5836    1.0000 </r>
       <r>   -6.5673    1.0000 </r>
       <r>   -6.5213    1.0000 </r>
       <r>   -6.4249    1.0000 </r>
       <r>   -6.3521    1.0000 </r>
       <r>   -6.3392    1.0000 </r>
       <r>   -6.3064    1.0000 </r>
       <r>   -6.2513    1.0000 </r>
       <r>   -6.2214    1.0000 </r>
       <r>   -6.1463    1.0000 </r>
       <r>   -6.1264    1.0000 </r>
       <r>   -6.0837    1.0000 </r>
       <r>   -6.0126    1.0000 </r>
       <r>   -5.9596    1.0000 </r>
       <r>   -5.9311    1.0000 </r>
       <r>   -5.9155    1.0000 </r>
       <r>   -5.8739    1.0000 </r>
       <r>   -5.8601    1.0000 </r>
       <r>   -5.8241    1.0000 </r>
       <r>   -5.7950    1.0000 </r>
       <r>   -5.7674    1.0000 </r>
       <r>   -5.7344    1.0000 </r>
       <r>   -5.7226    1.0000 </r>
       <r>   -5.7093    1.0000 </r>
       <r>   -5.6767    1.0000 </r>
       <r>   -5.6666    1.0000 </r>
       <r>   -5.6492    1.0000 </r>
       <r>   -5.6000    1.0000 </r>
       <r>   -5.5811    1.0000 </r>
       <r>   -5.5701    1.0000 </r>
       <r>   -5.5342    1.0000 </r>
       <r>   -5.4994    1.0000 </r>
       <r>   -5.4873    1.0000 </r>
       <r>   -5.4502    1.0000 </r>
       <r>   -5.4150    1.0000 </r>
       <r>   -5.4026    1.0000 </r>
       <r>   -5.3880    1.0000 </r>
       <r>   -5.3787    1.0000 </r>
       <r>   -5.3512    1.0000 </r>
       <r>   -5.3358    1.0000 </r>
       <r>   -5.3152    1.0000 </r>
       <r>   -5.2756    1.0000 </r>
       <r>   -5.2377    1.0000 </r>
       <r>   -5.2310    1.0000 </r>
       <r>   -5.2105    1.0000 </r>
       <r>   -5.1827    1.0000 </r>
       <r>   -4.9297    1.0000 </r>
       <r>   -4.7966    1.0000 </r>
       <r>   -4.6682    1.0000 </r>
       <r>   -3.7813    0.3323 </r>
       <r>   -3.4051   -0.0060 </r>
       <r>   -3.1957   -0.0000 </r>
       <r>   -2.7726   -0.0000 </r>
       <r>   -2.6901   -0.0000 </r>
       <r>   -2.2611   -0.0000 </r>
       <r>   -2.1866   -0.0000 </r>
       <r>   -1.5925   -0.0000 </r>
       <r>   -1.5483   -0.0000 </r>
       <r>   -1.3580   -0.0000 </r>
       <r>   -1.0306   -0.0000 </r>
       <r>   -0.8565   -0.0000 </r>
       <r>   -0.7778   -0.0000 </r>
       <r>   -0.3886   -0.0000 </r>
       <r>   -0.1548   -0.0000 </r>
       <r>    0.0349   -0.0000 </r>
       <r>    0.0517   -0.0000 </r>
       <r>    0.1102   -0.0000 </r>
       <r>    0.2531   -0.0000 </r>
       <r>    0.2590   -0.0000 </r>
       <r>    0.2996   -0.0000 </r>
      </set>
     </set>
    </set>
   </array>
  </eigenvalues>
  <separator name="orbital magnetization" >
   <v name="MAGDIPOLOUT">      0.00000000      0.00000000      0.00000000</v>
  </separator>
  <dos>
   <i name="efermi">     -3.82185144 </i>
   <total>
    <array>
     <dimension dim="1">gridpoints</dimension>
     <dimension dim="2">spin</dimension>
     <field>energy</field>
     <field>total</field>
     <field>integrated</field>
     <set>
      <set comment="spin 1">
       <r>   -12.5642     0.0000     0.0000 </r>
       <r>   -12.5143     0.0000     0.0000 </r>
       <r>   -12.4645     0.0000     0.0000 </r>
       <r>   -12.4146     0.0000     0.0000 </r>
       <r>   -12.3648     0.0000     0.0000 </r>
       <r>   -12.3149     0.0000     0.0000 </r>
       <r>   -12.2651     0.0000     0.0000 </r>
       <r>   -12.2152     0.0000     0.0000 </r>
       <r>   -12.1654    -0.0000    -0.0000 </r>
       <r>   -12.1155    -0.0000    -0.0000 </r>
       <r>   -12.0657    -0.0000    -0.0000 </r>
       <r>   -12.0158    -0.0000    -0.0000 </r>
       <r>   -11.9660    -0.0000    -0.0000 </r>
       <r>   -11.9161    -0.0000    -0.0000 </r>
       <r>   -11.8663    -0.0000    -0.0000 </r>
       <r>   -11.8165    -0.0000    -0.0000 </r>
       <r>   -11.7666    -0.0000    -0.0000 </r>
       <r>   -11.7168    -0.0000    -0.0000 </r>
       <r>   -11.6669    -0.0000    -0.0000 </r>
       <r>   -11.6171    -0.0000    -0.0000 </r>
       <r>   -11.5672    -0.0000    -0.0000 </r>
       <r>   -11.5174    -0.0000    -0.0000 </r>
       <r>   -11.4675    -0.0000    -0.0000 </r>
       <r>   -11.4177    -0.0000    -0.0000 </r>
       <r>   -11.3678    -0.0000    -0.0000 </r>
       <r>   -11.3180    -0.0000    -0.0000 </r>
       <r>   -11.2681    -0.0001    -0.0000 </r>
       <r>   -11.2183    -0.0003    -0.0000 </r>
       <r>   -11.1684    -0.0013    -0.0001 </r>
       <r>   -11.1186    -0.0047    -0.0003 </r>
       <r>   -11.0687    -0.0146    -0.0010 </r>
       <r>   -11.0189    -0.0392    -0.0030 </r>
       <r>   -10.9690    -0.0880    -0.0074 </r>
       <r>   -10.9192    -0.1609    -0.0154 </r>
       <r>   -10.8694    -0.2222    -0.0265 </r>
       <r>   -10.8195    -0.1723    -0.0351 </r>
       <r>   -10.7697     0.1469    -0.0277 </r>
       <r>   -10.7198     0.8723     0.0157 </r>
       <r>   -10.6700     1.9793     0.1144 </r>
       <r>   -10.6201     3.1860     0.2732 </r>
       <r>   -10.5703     4.0318     0.4742 </r>
       <r>   -10.5204     4.1344     0.6803 </r>
       <r>   -10.4706     3.4448     0.8520 </r>
       <r>   -10.4207     2.2817     0.9657 </r>
       <r>   -10.3709     1.1144     1.0213 </r>
       <r>   -10.3210     0.2841     1.0354 </r>
       <r>   -10.2712    -0.1256     1.0292 </r>
       <r>   -10.2213    -0.2257     1.0179 </r>
       <r>   -10.1715    -0.1796     1.0090 </r>
       <r>   -10.1216    -0.1041     1.0038 </r>
       <r>   -10.0718    -0.0486     1.0014 </r>
       <r>   -10.0219    -0.0189     1.0004 </r>
       <r>    -9.9721    -0.0063     1.0001 </r>
       <r>    -9.9223    -0.0018     1.0000 </r>
       <r>    -9.8724    -0.0005     1.0000 </r>
       <r>    -9.8226    -0.0003     1.0000 </r>
       <r>    -9.7727    -0.0011     0.9999 </r>
       <r>    -9.7229    -0.0040     0.9997 </r>
       <r>    -9.6730    -0.0127     0.9991 </r>
       <r>    -9.6232    -0.0348     0.9974 </r>
       <r>    -9.5733    -0.0801     0.9934 </r>
       <r>    -9.5235    -0.1508     0.9859 </r>
       <r>    -9.4736    -0.2177     0.9750 </r>
       <r>    -9.4238    -0.1903     0.9655 </r>
       <r>    -9.3739     0.0846     0.9697 </r>
       <r>    -9.3241     0.7535     1.0073 </r>
       <r>    -9.2742     1.8197     1.0980 </r>
       <r>    -9.2244     3.0322     1.2491 </r>
       <r>    -9.1745     3.9357     1.4453 </r>
       <r>    -9.1247     4.1116     1.6503 </r>
       <r>    -9.0748     3.4522     1.8224 </r>
       <r>    -9.0250     2.2486     1.9345 </r>
       <r>    -8.9752     1.0287     1.9857 </r>
       <r>    -8.9253     0.2917     2.0003 </r>
       <r>    -8.8755     0.3179     2.0161 </r>
       <r>    -8.8256     1.0976     2.0708 </r>
       <r>    -8.7758     2.3332     2.1871 </r>
       <r>    -8.7259     3.5162     2.3624 </r>
       <r>    -8.6761     4.1257     2.5681 </r>
       <r>    -8.6262     3.8925     2.7621 </r>
       <r>    -8.5764     2.9462     2.9090 </r>
       <r>    -8.5265     1.7089     2.9941 </r>
       <r>    -8.4767     0.6138     3.0247 </r>
       <r>    -8.4268    -0.1200     3.0188 </r>
       <r>    -8.3770    -0.5032     2.9937 </r>
       <r>    -8.3271    -0.6194     2.9628 </r>
       <r>    -8.2773    -0.4531     2.9402 </r>
       <r>    -8.2274     0.1613     2.9483 </r>
       <r>    -8.1776     1.4281     3.0194 </r>
       <r>    -8.1277     3.3850     3.1882 </r>
       <r>    -8.0779     5.7478     3.4747 </r>
       <r>    -8.0281     7.9415     3.8706 </r>
       <r>    -7.9782     9.3328     4.3358 </r>
       <r>    -7.9284     9.5390     4.8113 </r>
       <r>    -7.8785     8.6391     5.2419 </r>
       <r>    -7.8287     7.1771     5.5997 </r>
       <r>    -7.7788     5.9413     5.8958 </r>
       <r>    -7.7290     5.6006     6.1750 </r>
       <r>    -7.6791     6.3603     6.4920 </r>
       <r>    -7.6293     7.8422     6.8829 </r>
       <r>    -7.5794     9.3157     7.3473 </r>
       <r>    -7.5296    10.1817     7.8548 </r>
       <r>    -7.4797    10.3872     8.3726 </r>
       <r>    -7.4299    10.4258     8.8923 </r>
       <r>    -7.3800    10.8898     9.4351 </r>
       <r>    -7.3302    11.9652    10.0316 </r>
       <r>    -7.2803    13.3380    10.6964 </r>
       <r>    -7.2305    14.5535    11.4219 </r>
       <r>    -7.1806    15.4029    12.1897 </r>
       <r>    -7.1308    15.9561    12.9851 </r>
       <r>    -7.0810    16.3350    13.7993 </r>
       <r>    -7.0311    16.5833    14.6260 </r>
       <r>    -6.9813    16.7603    15.4614 </r>
       <r>    -6.9314    17.0356    16.3106 </r>
       <r>    -6.8816    17.5871    17.1873 </r>
       <r>    -6.8317    18.4149    18.1052 </r>
       <r>    -6.7819    19.3083    19.0677 </r>
       <r>    -6.7320    19.9896    20.0641 </r>
       <r>    -6.6822    20.2544    21.0737 </r>
       <r>    -6.6323    20.0112    22.0712 </r>
       <r>    -6.5825    19.3161    23.0341 </r>
       <r>    -6.5326    18.4647    23.9545 </r>
       <r>    -6.4828    17.9853    24.8510 </r>
       <r>    -6.4329    18.3634    25.7664 </r>
       <r>    -6.3831    19.6421    26.7455 </r>
       <r>    -6.3332    21.2868    27.8066 </r>
       <r>    -6.2834    22.5096    28.9286 </r>
       <r>    -6.2335    22.7999    30.0652 </r>
       <r>    -6.1837    22.2382    31.1737 </r>
       <r>    -6.1338    21.4258    32.2417 </r>
       <r>    -6.0840    21.1692    33.2969 </r>
       <r>    -6.0342    22.1238    34.3997 </r>
       <r>    -5.9843    24.5186    35.6219 </r>
       <r>    -5.9345    28.0695    37.0211 </r>
       <r>    -5.8846    32.1366    38.6231 </r>
       <r>    -5.8348    36.0178    40.4185 </r>
       <r>    -5.7849    39.1593    42.3704 </r>
       <r>    -5.7351    41.2111    44.4247 </r>
       <r>    -5.6852    42.0632    46.5214 </r>
       <r>    -5.6354    41.9595    48.6130 </r>
       <r>    -5.5855    41.5406    50.6837 </r>
       <r>    -5.5357    41.5937    52.7571 </r>
       <r>    -5.4858    42.5502    54.8781 </r>
       <r>    -5.4360    44.0801    57.0753 </r>
       <r>    -5.3861    45.1269    59.3248 </r>
       <r>    -5.3363    44.3913    61.5376 </r>
       <r>    -5.2864    40.9519    63.5789 </r>
       <r>    -5.2366    34.7026    65.3088 </r>
       <r>    -5.1867    26.4744    66.6285 </r>
       <r>    -5.1369    17.8258    67.5170 </r>
       <r>    -5.0871    10.5126    68.0411 </r>
       <r>    -5.0372     5.7886    68.3296 </r>
       <r>    -4.9874     3.9125    68.5246 </r>
       <r>    -4.9375     4.1906    68.7335 </r>
       <r>    -4.8877     5.4960    69.0075 </r>
       <r>    -4.8378     6.8419    69.3485 </r>
       <r>    -4.7880     7.6444    69.7296 </r>
       <r>    -4.7381     7.6684    70.1118 </r>
       <r>    -4.6883     6.8935    70.4555 </r>
       <r>    -4.6384     5.4676    70.7280 </r>
       <r>    -4.5886     3.7051    70.9127 </r>
       <r>    -4.5387     2.0128    71.0130 </r>
       <r>    -4.4889     0.7283    71.0493 </r>
       <r>    -4.4390    -0.0162    71.0485 </r>
       <r>    -4.3892    -0.3029    71.0334 </r>
       <r>    -4.3393    -0.3259    71.0172 </r>
       <r>    -4.2895    -0.2694    71.0037 </r>
       <r>    -4.2396    -0.2406    70.9917 </r>
       <r>    -4.1898    -0.2536    70.9791 </r>
       <r>    -4.1400    -0.2314    70.9676 </r>
       <r>    -4.0901    -0.0205    70.9666 </r>
       <r>    -4.0403     0.5478    70.9939 </r>
       <r>    -3.9904     1.5298    71.0701 </r>
       <r>    -3.9406     2.7406    71.2067 </r>
       <r>    -3.8907     3.7573    71.3940 </r>
       <r>    -3.8409     4.1229    71.5995 </r>
       <r>    -3.7910     3.6389    71.7809 </r>
       <r>    -3.7412     2.5204    71.9066 </r>
       <r>    -3.6913     1.2883    71.9708 </r>
       <r>    -3.6415     0.4941    71.9954 </r>
       <r>    -3.5916     0.4697    72.0188 </r>
       <r>    -3.5418     1.2178    72.0795 </r>
       <r>    -3.4919     2.4486    72.2016 </r>
       <r>    -3.4421     3.7354    72.3878 </r>
       <r>    -3.3922     4.7265    72.6234 </r>
       <r>    -3.3424     5.2832    72.8867 </r>
       <r>    -3.2925     5.4338    73.1576 </r>
       <r>    -3.2427     5.2079    73.4172 </r>
       <r>    -3.1929     4.5574    73.6444 </r>
       <r>    -3.1430     3.4640    73.8171 </r>
       <r>    -3.0932     2.1047    73.9220 </r>
       <r>    -3.0433     0.8816    73.9659 </r>
       <r>    -2.9935     0.2808    73.9799 </r>
       <r>    -2.9436     0.6661    74.0131 </r>
       <r>    -2.8938     2.1011    74.1179 </r>
       <r>    -2.8439     4.2408    74.3292 </r>
       <r>    -2.7941     6.3666    74.6466 </r>
       <r>    -2.7442     7.6387    75.0274 </r>
       <r>    -2.6944     7.5026    75.4014 </r>
       <r>    -2.6445     5.9988    75.7004 </r>
       <r>    -2.5947     3.7503    75.8873 </r>
       <r>    -2.5448     1.6508    75.9696 </r>
       <r>    -2.4950     0.4901    75.9940 </r>
       <r>    -2.4451     0.7082    76.0294 </r>
       <r>    -2.3953     2.2789    76.1429 </r>
       <r>    -2.3454     4.6692    76.3757 </r>
       <r>    -2.2956     6.9440    76.7218 </r>
       <r>    -2.2458     8.1262    77.1269 </r>
       <r>    -2.1959     7.6970    77.5106 </r>
       <r>    -2.1461     5.8853    77.8040 </r>
       <r>    -2.0962     3.4853    77.9777 </r>
       <r>    -2.0464     1.3436    78.0447 </r>
       <r>    -1.9965    -0.0656    78.0414 </r>
       <r>    -1.9467    -0.6943    78.0068 </r>
       <r>    -1.8968    -0.6802    77.9729 </r>
       <r>    -1.8470    -0.1011    77.9678 </r>
       <r>    -1.7971     1.0602    78.0207 </r>
       <r>    -1.7473     2.7570    78.1581 </r>
       <r>    -1.6974     4.7153    78.3932 </r>
       <r>    -1.6476     6.4570    78.7150 </r>
       <r>    -1.5977     7.5313    79.0904 </r>
       <r>    -1.5479     7.7707    79.4778 </r>
       <r>    -1.4980     7.3407    79.8437 </r>
       <r>    -1.4482     6.5404    80.1697 </r>
       <r>    -1.3983     5.5599    80.4469 </r>
       <r>    -1.3485     4.4442    80.6684 </r>
       <r>    -1.2986     3.2703    80.8314 </r>
       <r>    -1.2488     2.2949    80.9458 </r>
       <r>    -1.1990     1.8646    81.0388 </r>
       <r>    -1.1491     2.1663    81.1468 </r>
       <r>    -1.0993     3.0921    81.3009 </r>
       <r>    -1.0494     4.3625    81.5183 </r>
       <r>    -0.9996     5.7455    81.8047 </r>
       <r>    -0.9497     7.0960    82.1585 </r>
       <r>    -0.8999     8.1866    82.5665 </r>
       <r>    -0.8500     8.6052    82.9955 </r>
       <r>    -0.8002     7.9583    83.3922 </r>
       <r>    -0.7503     6.2447    83.7035 </r>
       <r>    -0.7005     4.0152    83.9036 </r>
       <r>    -0.6506     2.1197    84.0093 </r>
       <r>    -0.6008     1.2248    84.0703 </r>
       <r>    -0.5509     1.4574    84.1430 </r>
       <r>    -0.5011     2.3865    84.2619 </r>
       <r>    -0.4512     3.3247    84.4277 </r>
       <r>    -0.4014     3.7593    84.6151 </r>
       <r>    -0.3515     3.6432    84.7967 </r>
       <r>    -0.3017     3.3484    84.9636 </r>
       <r>    -0.2519     3.3324    85.1297 </r>
       <r>    -0.2020     3.8170    85.3199 </r>
       <r>    -0.1522     4.7421    85.5563 </r>
       <r>    -0.1023     5.9496    85.8529 </r>
       <r>    -0.0525     7.3226    86.2179 </r>
       <r>    -0.0026     8.7320    86.6532 </r>
       <r>     0.0472     9.9458    87.1490 </r>
       <r>     0.0971    10.7301    87.6838 </r>
       <r>     0.1469    11.0933    88.2368 </r>
       <r>     0.1968    11.3533    88.8027 </r>
       <r>     0.2466    11.8286    89.3923 </r>
       <r>     0.2965    12.4036    90.0106 </r>
       <r>     0.3463    12.4561    90.6315 </r>
       <r>     0.3962    11.3173    91.1957 </r>
       <r>     0.4460     8.8687    91.6378 </r>
       <r>     0.4959     5.7103    91.9224 </r>
       <r>     0.5457     2.7646    92.0602 </r>
       <r>     0.5956     0.7063    92.0954 </r>
       <r>     0.6454    -0.3213    92.0794 </r>
       <r>     0.6952    -0.5887    92.0501 </r>
       <r>     0.7451    -0.4835    92.0260 </r>
       <r>     0.7949    -0.2915    92.0114 </r>
       <r>     0.8448    -0.1423    92.0043 </r>
       <r>     0.8946    -0.0583    92.0014 </r>
       <r>     0.9445    -0.0204    92.0004 </r>
       <r>     0.9943    -0.0062    92.0001 </r>
       <r>     1.0442    -0.0016    92.0000 </r>
       <r>     1.0940    -0.0004    92.0000 </r>
       <r>     1.1439    -0.0001    92.0000 </r>
       <r>     1.1937    -0.0000    92.0000 </r>
       <r>     1.2436    -0.0000    92.0000 </r>
       <r>     1.2934    -0.0000    92.0000 </r>
       <r>     1.3433    -0.0000    92.0000 </r>
       <r>     1.3931    -0.0000    92.0000 </r>
       <r>     1.4430    -0.0000    92.0000 </r>
       <r>     1.4928    -0.0000    92.0000 </r>
       <r>     1.5427    -0.0000    92.0000 </r>
       <r>     1.5925    -0.0000    92.0000 </r>
       <r>     1.6423    -0.0000    92.0000 </r>
       <r>     1.6922     0.0000    92.0000 </r>
       <r>     1.7420     0.0000    92.0000 </r>
       <r>     1.7919     0.0000    92.0000 </r>
       <r>     1.8417     0.0000    92.0000 </r>
       <r>     1.8916     0.0000    92.0000 </r>
       <r>     1.9414     0.0000    92.0000 </r>
       <r>     1.9913     0.0000    92.0000 </r>
       <r>     2.0411     0.0000    92.0000 </r>
       <r>     2.0910     0.0000    92.0000 </r>
       <r>     2.1408     0.0000    92.0000 </r>
       <r>     2.1907     0.0000    92.0000 </r>
       <r>     2.2405     0.0000    92.0000 </r>
       <r>     2.2904     0.0000    92.0000 </r>
       <r>     2.3402     0.0000    92.0000 </r>
       <r>     2.3901     0.0000    92.0000 </r>
      </set>
      <set comment="spin 2">
       <r>   -12.5642     0.0000     0.0000 </r>
       <r>   -12.5143     0.0000     0.0000 </r>
       <r>   -12.4645     0.0000     0.0000 </r>
       <r>   -12.4146     0.0000     0.0000 </r>
       <r>   -12.3648     0.0000     0.0000 </r>
       <r>   -12.3149     0.0000     0.0000 </r>
       <r>   -12.2651     0.0000     0.0000 </r>
       <r>   -12.2152     0.0000     0.0000 </r>
       <r>   -12.1654    -0.0000    -0.0000 </r>
       <r>   -12.1155    -0.0000    -0.0000 </r>
       <r>   -12.0657    -0.0000    -0.0000 </r>
       <r>   -12.0158    -0.0000    -0.0000 </r>
       <r>   -11.9660    -0.0000    -0.0000 </r>
       <r>   -11.9161    -0.0000    -0.0000 </r>
       <r>   -11.8663    -0.0000    -0.0000 </r>
       <r>   -11.8165    -0.0000    -0.0000 </r>
       <r>   -11.7666    -0.0000    -0.0000 </r>
       <r>   -11.7168    -0.0000    -0.0000 </r>
       <r>   -11.6669    -0.0000    -0.0000 </r>
       <r>   -11.6171    -0.0000    -0.0000 </r>
       <r>   -11.5672    -0.0000    -0.0000 </r>
       <r>   -11.5174    -0.0000    -0.0000 </r>
       <r>   -11.4675    -0.0000    -0.0000 </r>
       <r>   -11.4177    -0.0000    -0.0000 </r>
       <r>   -11.3678    -0.0000    -0.0000 </r>
       <r>   -11.3180    -0.0000    -0.0000 </r>
       <r>   -11.2681    -0.0000    -0.0000 </r>
       <r>   -11.2183    -0.0002    -0.0000 </r>
       <r>   -11.1684    -0.0008    -0.0001 </r>
       <r>   -11.1186    -0.0031    -0.0002 </r>
       <r>   -11.0687    -0.0103    -0.0007 </r>
       <r>   -11.0189    -0.0290    -0.0022 </r>
       <r>   -10.9690    -0.0692    -0.0056 </r>
       <r>   -10.9192    -0.1359    -0.0124 </r>
       <r>   -10.8694    -0.2083    -0.0228 </r>
       <r>   -10.8195    -0.2096    -0.0332 </r>
       <r>   -10.7697     0.0043    -0.0330 </r>
       <r>   -10.7198     0.5905    -0.0036 </r>
       <r>   -10.6700     1.5923     0.0758 </r>
       <r>   -10.6201     2.8125     0.2160 </r>
       <r>   -10.5703     3.8266     0.4067 </r>
       <r>   -10.5204     4.1939     0.6158 </r>
       <r>   -10.4706     3.7403     0.8022 </r>
       <r>   -10.4207     2.6799     0.9358 </r>
       <r>   -10.3709     1.4658     1.0089 </r>
       <r>   -10.3210     0.5050     1.0341 </r>
       <r>   -10.2712    -0.0350     1.0323 </r>
       <r>   -10.2213    -0.2169     1.0215 </r>
       <r>   -10.1715    -0.2019     1.0115 </r>
       <r>   -10.1216    -0.1275     1.0051 </r>
       <r>   -10.0718    -0.0634     1.0019 </r>
       <r>   -10.0219    -0.0261     1.0006 </r>
       <r>    -9.9721    -0.0091     1.0002 </r>
       <r>    -9.9223    -0.0027     1.0000 </r>
       <r>    -9.8724    -0.0007     1.0000 </r>
       <r>    -9.8226    -0.0004     1.0000 </r>
       <r>    -9.7727    -0.0009     0.9999 </r>
       <r>    -9.7229    -0.0033     0.9998 </r>
       <r>    -9.6730    -0.0109     0.9992 </r>
       <r>    -9.6232    -0.0304     0.9977 </r>
       <r>    -9.5733    -0.0718     0.9941 </r>
       <r>    -9.5235    -0.1396     0.9872 </r>
       <r>    -9.4736    -0.2109     0.9767 </r>
       <r>    -9.4238    -0.2055     0.9664 </r>
       <r>    -9.3739     0.0229     0.9676 </r>
       <r>    -9.3241     0.6296     0.9989 </r>
       <r>    -9.2742     1.6475     1.0811 </r>
       <r>    -9.2244     2.8650     1.2239 </r>
       <r>    -9.1745     3.8458     1.4156 </r>
       <r>    -9.1247     4.1478     1.6223 </r>
       <r>    -9.0748     3.6054     1.8021 </r>
       <r>    -9.0250     2.4521     1.9243 </r>
       <r>    -8.9752     1.1866     1.9834 </r>
       <r>    -8.9253     0.3137     1.9991 </r>
       <r>    -8.8755     0.1493     2.0065 </r>
       <r>    -8.8256     0.7496     2.0439 </r>
       <r>    -8.7758     1.9042     2.1388 </r>
       <r>    -8.7259     3.1713     2.2969 </r>
       <r>    -8.6761     4.0181     2.4972 </r>
       <r>    -8.6262     4.0708     2.7001 </r>
       <r>    -8.5764     3.3246     2.8658 </r>
       <r>    -8.5265     2.1287     2.9719 </r>
       <r>    -8.4767     0.9437     3.0190 </r>
       <r>    -8.4268     0.0736     3.0226 </r>
       <r>    -8.3770    -0.4250     3.0015 </r>
       <r>    -8.3271    -0.6264     2.9702 </r>
       <r>    -8.2773    -0.5497     2.9428 </r>
       <r>    -8.2274    -0.0598     2.9399 </r>
       <r>    -8.1776     1.0630     2.9928 </r>
       <r>    -8.1277     2.9208     3.1384 </r>
       <r>    -8.0779     5.3033     3.4028 </r>
       <r>    -8.0281     7.6587     3.7846 </r>
       <r>    -7.9782     9.2966     4.2480 </r>
       <r>    -7.9284     9.7217     4.7326 </r>
       <r>    -7.8785     8.9063     5.1765 </r>
       <r>    -7.8287     7.3508     5.5429 </r>
       <r>    -7.7788     5.8898     5.8365 </r>
       <r>    -7.7290     5.3112     6.1013 </r>
       <r>    -7.6791     5.9523     6.3980 </r>
       <r>    -7.6293     7.5037     6.7720 </r>
       <r>    -7.5794     9.1913     7.2302 </r>
       <r>    -7.5296    10.2826     7.7428 </r>
       <r>    -7.4797    10.5889     8.2706 </r>
       <r>    -7.4299    10.5589     8.7969 </r>
       <r>    -7.3800    10.8546     9.3380 </r>
       <r>    -7.3302    11.7776     9.9251 </r>
       <r>    -7.2803    13.0776    10.5770 </r>
       <r>    -7.2305    14.2820    11.2889 </r>
       <r>    -7.1806    15.1411    12.0436 </r>
       <r>    -7.1308    15.7267    12.8276 </r>
       <r>    -7.0810    16.1908    13.6346 </r>
       <r>    -7.0311    16.5701    14.4606 </r>
       <r>    -6.9813    16.8554    15.3008 </r>
       <r>    -6.9314    17.1446    16.1554 </r>
       <r>    -6.8816    17.6126    17.0334 </r>
       <r>    -6.8317    18.3282    17.9470 </r>
       <r>    -6.7819    19.1603    18.9021 </r>
       <r>    -6.7320    19.8670    19.8924 </r>
       <r>    -6.6822    20.2294    20.9008 </r>
       <r>    -6.6323    20.1122    21.9033 </r>
       <r>    -6.5825    19.5136    22.8760 </r>
       <r>    -6.5326    18.6676    23.8065 </r>
       <r>    -6.4828    18.0673    24.7072 </r>
       <r>    -6.4329    18.2309    25.6159 </r>
       <r>    -6.3831    19.3023    26.5781 </r>
       <r>    -6.3332    20.8577    27.6178 </r>
       <r>    -6.2834    22.1535    28.7221 </r>
       <r>    -6.2335    22.6324    29.8503 </r>
       <r>    -6.1837    22.2738    30.9605 </r>
       <r>    -6.1338    21.5781    32.0362 </r>
       <r>    -6.0840    21.2910    33.0975 </r>
       <r>    -6.0342    22.0669    34.1974 </r>
       <r>    -5.9843    24.1991    35.4037 </r>
       <r>    -5.9345    27.5086    36.7749 </r>
       <r>    -5.8846    31.4525    38.3428 </r>
       <r>    -5.8348    35.3721    40.1060 </r>
       <r>    -5.7849    38.6926    42.0347 </r>
       <r>    -5.7351    40.9929    44.0781 </r>
       <r>    -5.6852    42.0632    46.1748 </r>
       <r>    -5.6354    42.0472    48.2708 </r>
       <r>    -5.5855    41.5299    50.3409 </r>
       <r>    -5.5357    41.3364    52.4014 </r>
       <r>    -5.4858    42.0404    54.4970 </r>
       <r>    -5.4360    43.5026    56.6655 </r>
       <r>    -5.3861    44.7999    58.8987 </r>
       <r>    -5.3363    44.6210    61.1229 </r>
       <r>    -5.2864    41.8771    63.2104 </r>
       <r>    -5.2366    36.2117    65.0155 </r>
       <r>    -5.1867    28.2347    66.4229 </r>
       <r>    -5.1369    19.4113    67.3905 </r>
       <r>    -5.0871    11.5782    67.9676 </r>
       <r>    -5.0372     6.2067    68.2770 </r>
       <r>    -4.9874     3.7957    68.4662 </r>
       <r>    -4.9375     3.7900    68.6551 </r>
       <r>    -4.8877     5.0541    68.9071 </r>
       <r>    -4.8378     6.5067    69.2314 </r>
       <r>    -4.7880     7.4817    69.6044 </r>
       <r>    -4.7381     7.7138    69.9889 </r>
       <r>    -4.6883     7.1685    70.3462 </r>
       <r>    -4.6384     5.9468    70.6426 </r>
       <r>    -4.5886     4.2906    70.8565 </r>
       <r>    -4.5387     2.5635    70.9843 </r>
       <r>    -4.4889     1.1301    71.0406 </r>
       <r>    -4.4390     0.2020    71.0507 </r>
       <r>    -4.3892    -0.2267    71.0394 </r>
       <r>    -4.3393    -0.3146    71.0237 </r>
       <r>    -4.2895    -0.2519    71.0112 </r>
       <r>    -4.2396    -0.1753    71.0024 </r>
       <r>    -4.1898    -0.1493    70.9950 </r>
       <r>    -4.1400    -0.1816    70.9859 </r>
       <r>    -4.0901    -0.2290    70.9745 </r>
       <r>    -4.0403    -0.1860    70.9652 </r>
       <r>    -3.9904     0.1085    70.9706 </r>
       <r>    -3.9406     0.7980    71.0104 </r>
       <r>    -3.8907     1.8694    71.1036 </r>
       <r>    -3.8409     3.0504    71.2557 </r>
       <r>    -3.7910     3.8772    71.4489 </r>
       <r>    -3.7412     3.9601    71.6463 </r>
       <r>    -3.6913     3.2741    71.8095 </r>
       <r>    -3.6415     2.2336    71.9209 </r>
       <r>    -3.5916     1.4617    71.9937 </r>
       <r>    -3.5418     1.4128    72.0642 </r>
       <r>    -3.4919     2.1161    72.1696 </r>
       <r>    -3.4421     3.2110    72.3297 </r>
       <r>    -3.3922     4.2292    72.5405 </r>
       <r>    -3.3424     4.8895    72.7842 </r>
       <r>    -3.2925     5.1698    73.0420 </r>
       <r>    -3.2427     5.1379    73.2981 </r>
       <r>    -3.1929     4.7683    73.5357 </r>
       <r>    -3.1430     3.9664    73.7335 </r>
       <r>    -3.0932     2.7668    73.8714 </r>
       <r>    -3.0433     1.4699    73.9447 </r>
       <r>    -2.9935     0.5705    73.9731 </r>
       <r>    -2.9436     0.5361    73.9998 </r>
       <r>    -2.8938     1.5770    74.0784 </r>
       <r>    -2.8439     3.4965    74.2527 </r>
       <r>    -2.7941     5.6818    74.5359 </r>
       <r>    -2.7442     7.2990    74.8998 </r>
       <r>    -2.6944     7.6672    75.2820 </r>
       <r>    -2.6445     6.6157    75.6117 </r>
       <r>    -2.5947     4.5766    75.8399 </r>
       <r>    -2.5448     2.3512    75.9571 </r>
       <r>    -2.4950     0.7390    75.9939 </r>
       <r>    -2.4451     0.2678    76.0073 </r>
       <r>    -2.3953     1.0925    76.0617 </r>
       <r>    -2.3454     2.9718    76.2098 </r>
       <r>    -2.2956     5.2829    76.4732 </r>
       <r>    -2.2458     7.1659    76.8304 </r>
       <r>    -2.1959     7.8628    77.2223 </r>
       <r>    -2.1461     7.1014    77.5763 </r>
       <r>    -2.0962     5.2359    77.8373 </r>
       <r>    -2.0464     3.0079    77.9872 </r>
       <r>    -1.9965     1.1074    78.0424 </r>
       <r>    -1.9467    -0.1331    78.0358 </r>
       <r>    -1.8968    -0.7261    77.9996 </r>
       <r>    -1.8470    -0.7866    77.9604 </r>
       <r>    -1.7971    -0.3066    77.9451 </r>
       <r>    -1.7473     0.8544    77.9877 </r>
       <r>    -1.6974     2.7502    78.1248 </r>
       <r>    -1.6476     5.0941    78.3787 </r>
       <r>    -1.5977     7.2463    78.7399 </r>
       <r>    -1.5479     8.5339    79.1653 </r>
       <r>    -1.4980     8.6664    79.5973 </r>
       <r>    -1.4482     7.8614    79.9892 </r>
       <r>    -1.3983     6.5804    80.3172 </r>
       <r>    -1.3485     5.1767    80.5753 </r>
       <r>    -1.2986     3.8112    80.7652 </r>
       <r>    -1.2488     2.6298    80.8963 </r>
       <r>    -1.1990     1.8911    80.9906 </r>
       <r>    -1.1491     1.8481    81.0827 </r>
       <r>    -1.0993     2.5322    81.2089 </r>
       <r>    -1.0494     3.7111    81.3939 </r>
       <r>    -0.9996     5.0711    81.6467 </r>
       <r>    -0.9497     6.3964    81.9656 </r>
       <r>    -0.8999     7.5401    82.3414 </r>
       <r>    -0.8500     8.2628    82.7533 </r>
       <r>    -0.8002     8.2123    83.1627 </r>
       <r>    -0.7503     7.1572    83.5194 </r>
       <r>    -0.7005     5.2672    83.7820 </r>
       <r>    -0.6506     3.1418    83.9386 </r>
       <r>    -0.6008     1.5258    84.0146 </r>
       <r>    -0.5509     0.9211    84.0606 </r>
       <r>    -0.5011     1.3492    84.1278 </r>
       <r>    -0.4512     2.3838    84.2466 </r>
       <r>    -0.4014     3.4161    84.4169 </r>
       <r>    -0.3515     4.0050    84.6166 </r>
       <r>    -0.3017     4.0980    84.8208 </r>
       <r>    -0.2519     3.9827    85.0194 </r>
       <r>    -0.2020     4.0516    85.2213 </r>
       <r>    -0.1522     4.6050    85.4509 </r>
       <r>    -0.1023     5.7998    85.7400 </r>
       <r>    -0.0525     7.6336    86.1205 </r>
       <r>    -0.0026     9.8858    86.6133 </r>
       <r>     0.0472    12.1355    87.2182 </r>
       <r>     0.0971    13.9654    87.9143 </r>
       <r>     0.1469    15.1698    88.6705 </r>
       <r>     0.1968    15.6908    89.4527 </r>
       <r>     0.2466    15.3653    90.2186 </r>
       <r>     0.2965    13.8867    90.9108 </r>
       <r>     0.3463    11.1430    91.4663 </r>
       <r>     0.3962     7.5629    91.8432 </r>
       <r>     0.4460     4.0197    92.0436 </r>
       <r>     0.4959     1.3331    92.1101 </r>
       <r>     0.5457    -0.1667    92.1018 </r>
       <r>     0.5956    -0.6744    92.0681 </r>
       <r>     0.6454    -0.6262    92.0369 </r>
       <r>     0.6952    -0.4029    92.0168 </r>
       <r>     0.7451    -0.2057    92.0066 </r>
       <r>     0.7949    -0.0873    92.0022 </r>
       <r>     0.8448    -0.0315    92.0007 </r>
       <r>     0.8946    -0.0098    92.0002 </r>
       <r>     0.9445    -0.0026    92.0000 </r>
       <r>     0.9943    -0.0006    92.0000 </r>
       <r>     1.0442    -0.0001    92.0000 </r>
       <r>     1.0940    -0.0000    92.0000 </r>
       <r>     1.1439    -0.0000    92.0000 </r>
       <r>     1.1937    -0.0000    92.0000 </r>
       <r>     1.2436    -0.0000    92.0000 </r>
       <r>     1.2934    -0.0000    92.0000 </r>
       <r>     1.3433    -0.0000    92.0000 </r>
       <r>     1.3931    -0.0000    92.0000 </r>
       <r>     1.4430    -0.0000    92.0000 </r>
       <r>     1.4928    -0.0000    92.0000 </r>
       <r>     1.5427    -0.0000    92.0000 </r>
       <r>     1.5925     0.0000    92.0000 </r>
       <r>     1.6423     0.0000    92.0000 </r>
       <r>     1.6922     0.0000    92.0000 </r>
       <r>     1.7420     0.0000    92.0000 </r>
       <r>     1.7919     0.0000    92.0000 </r>
       <r>     1.8417     0.0000    92.0000 </r>
       <r>     1.8916     0.0000    92.0000 </r>
       <r>     1.9414     0.0000    92.0000 </r>
       <r>     1.9913     0.0000    92.0000 </r>
       <r>     2.0411     0.0000    92.0000 </r>
       <r>     2.0910     0.0000    92.0000 </r>
       <r>     2.1408     0.0000    92.0000 </r>
       <r>     2.1907     0.0000    92.0000 </r>
       <r>     2.2405     0.0000    92.0000 </r>
       <r>     2.2904     0.0000    92.0000 </r>
       <r>     2.3402     0.0000    92.0000 </r>
       <r>     2.3901     0.0000    92.0000 </r>
      </set>
     </set>
    </array>
   </total>
  </dos>
 </calculation>
 <structure name="finalpos" >
  <crystal>
   <varray name="basis" >
    <v>      23.38014829       0.00000000       0.00000000 </v>
    <v>       0.00000000      25.20637275       0.00000000 </v>
    <v>       0.00000000       0.00000000      22.43618420 </v>
   </varray>
   <i name="volume">  13222.28800392 </i>
   <varray name="rec_basis" >
    <v>       0.04277133       0.00000000       0.00000000 </v>
    <v>       0.00000000       0.03967251       0.00000000 </v>
    <v>       0.00000000       0.00000000       0.04457086 </v>
   </varray>
  </crystal>
  <varray name="positions" >
   <v>       0.40893308       0.48508022       0.49750616 </v>
   <v>       0.55849463       0.58799658       0.52035421 </v>
   <v>       0.46999944       0.62880569       0.54689600 </v>
   <v>       0.47791725       0.53380762       0.56444631 </v>
   <v>       0.57733446       0.50362162       0.56506947 </v>
   <v>       0.60915284       0.43312231       0.50170078 </v>
   <v>       0.47211865       0.56375694       0.46279282 </v>
   <v>       0.43544538       0.39851920       0.45526010 </v>
   <v>       0.56037679       0.50789100       0.45691914 </v>
   <v>       0.53806221       0.40854058       0.42959202 </v>
   <v>       0.38827418       0.57435958       0.52554127 </v>
   <v>       0.50296004       0.44716782       0.51961562 </v>
   <v>       0.47101948       0.47955184       0.41258045 </v>
  </varray>
 </structure>
</modeling>
