unknown system                          
            1
    23.380148    0.000000    0.000000
     0.000000   25.206373    0.000000
     0.000000    0.000000   22.436184
   Cu
    13
Direct configuration=     1
   0.40901837  0.48502561  0.49748061
   0.55850708  0.58807418  0.52030715
   0.47003400  0.62883553  0.54691256
   0.47793507  0.53376390  0.56449108
   0.57729394  0.50373706  0.56517727
   0.60911512  0.43307560  0.50175826
   0.47199786  0.56378239  0.46275288
   0.43540917  0.39852577  0.45515913
   0.56039364  0.50791654  0.45684143
   0.53800938  0.40847296  0.42958524
   0.38836506  0.57434565  0.52558401
   0.50294977  0.44719131  0.51968310
   0.47105997  0.47947451  0.41254163
Direct configuration=     2
   0.40897715  0.48505200  0.49749296
   0.55850106  0.58803667  0.52032990
   0.47001729  0.62882111  0.54690456
   0.47792646  0.53378503  0.56446944
   0.57731352  0.50368127  0.56512517
   0.60913335  0.43309817  0.50173048
   0.47205624  0.56377009  0.46277219
   0.43542667  0.39852260  0.45520793
   0.56038550  0.50790420  0.45687899
   0.53803491  0.40850564  0.42958852
   0.38832113  0.57435238  0.52556335
   0.50295474  0.44717995  0.51965049
   0.47104040  0.47951189  0.41256039
Direct configuration=     3
   0.40893308  0.48508022  0.49750616
   0.55849463  0.58799658  0.52035421
   0.46999944  0.62880569  0.54689600
   0.47791725  0.53380762  0.56444631
   0.57733446  0.50362162  0.56506947
   0.60915284  0.43312231  0.50170078
   0.47211865  0.56375694  0.46279282
   0.43544538  0.39851920  0.45526010
   0.56037679  0.50789100  0.45691914
   0.53806221  0.40854058  0.42959202
   0.38827418  0.57435958  0.52554127
   0.50296004  0.44716782  0.51961562
   0.47101948  0.47955184  0.41258045
