  16  16   0   0
  0.8360372E+03  0.2306725E-08  0.2410060E-08  0.2406146E-08  0.5000000E-15
   1.0000000000000000E-004
  CAR 
 unknown system                          
      2.33374718    -11.25584393  301     -4.30256993      1.00000000
    -11.256  0.0000E+00  0.0000E+00  0.0000E+00  0.0000E+00
    -11.211  0.0000E+00  0.0000E+00  0.0000E+00  0.0000E+00
    -11.165  0.0000E+00  0.0000E+00  0.0000E+00  0.0000E+00
    -11.120  0.0000E+00  0.0000E+00  0.0000E+00  0.0000E+00
    -11.075  0.0000E+00  0.0000E+00  0.0000E+00  0.0000E+00
    -11.029  0.0000E+00  0.0000E+00  0.0000E+00  0.0000E+00
    -10.984  0.0000E+00  0.0000E+00  0.0000E+00  0.0000E+00
    -10.939  0.0000E+00  0.0000E+00  0.0000E+00  0.0000E+00
    -10.893 -0.3895E-30  0.0000E+00 -0.1765E-31  0.0000E+00
    -10.848 -0.1430E-28  0.0000E+00 -0.6653E-30  0.0000E+00
    -10.803 -0.4846E-27 -0.3754E-29 -0.2262E-28 -0.1701E-30
    -10.758 -0.1481E-25 -0.1290E-27 -0.6934E-27 -0.6013E-29
    -10.712 -0.4078E-24 -0.4100E-26 -0.1917E-25 -0.1917E-27
    -10.667 -0.1012E-22 -0.1174E-24 -0.4777E-24 -0.5512E-26
    -10.622 -0.2264E-21 -0.3032E-23 -0.1073E-22 -0.1429E-24
    -10.576 -0.4563E-20 -0.7056E-22 -0.2174E-21 -0.3339E-23
    -10.531 -0.8284E-19 -0.1479E-20 -0.3970E-20 -0.7035E-22
    -10.486 -0.1355E-17 -0.2794E-19 -0.6534E-19 -0.1336E-20
    -10.440 -0.1995E-16 -0.4754E-18 -0.9692E-18 -0.2287E-19
    -10.395 -0.2560E-15 -0.7286E-17 -0.1257E-16 -0.3529E-18
    -10.350 -0.3055E-14 -0.9687E-16 -0.1509E-15 -0.4741E-17
    -10.305 -0.3271E-13 -0.1210E-14 -0.1633E-14 -0.5955E-16
    -10.259 -0.3151E-12 -0.1348E-13 -0.1591E-13 -0.6702E-15
    -10.214 -0.2729E-11 -0.1352E-12 -0.1395E-12 -0.6794E-14
    -10.169 -0.2123E-10 -0.1219E-11 -0.1101E-11 -0.6201E-13
    -10.123 -0.1483E-09 -0.9877E-11 -0.7818E-11 -0.5094E-12
    -10.078 -0.9294E-09 -0.7187E-10 -0.4992E-10 -0.3765E-11
    -10.033 -0.5222E-08 -0.4694E-09 -0.2865E-09 -0.2503E-10
     -9.987 -0.2627E-07 -0.2749E-08 -0.1476E-08 -0.1496E-09
     -9.942 -0.1182E-06 -0.1443E-07 -0.6830E-08 -0.8030E-09
     -9.897 -0.4745E-06 -0.6772E-07 -0.2832E-07 -0.3870E-08
     -9.852 -0.1696E-05 -0.2839E-06 -0.1051E-06 -0.1673E-07
     -9.806 -0.5380E-05 -0.1061E-05 -0.3488E-06 -0.6479E-07
     -9.761 -0.1507E-04 -0.3523E-05 -0.1031E-05 -0.2244E-06
     -9.716 -0.3701E-04 -0.1035E-04 -0.2708E-05 -0.6933E-06
     -9.670 -0.7876E-04 -0.2675E-04 -0.6276E-05 -0.1905E-05
     -9.625 -0.1422E-03 -0.6022E-04 -0.1272E-04 -0.4633E-05
     -9.580 -0.2083E-03 -0.1161E-03 -0.2215E-04 -0.9893E-05
     -9.534 -0.2177E-03 -0.1856E-03 -0.3202E-04 -0.1830E-04
     -9.489 -0.6366E-04 -0.2267E-03 -0.3490E-04 -0.2857E-04
     -9.444  0.3780E-03 -0.1495E-03 -0.1778E-04 -0.3534E-04
     -9.399  0.1173E-02  0.1702E-03  0.3536E-04 -0.2763E-04
     -9.353  0.2239E-02  0.8317E-03  0.1368E-03  0.1004E-04
     -9.308  0.3312E-02  0.1818E-02  0.2868E-03  0.9239E-04
     -9.263  0.4027E-02  0.2933E-02  0.4692E-03  0.2252E-03
     -9.217  0.4090E-02  0.3837E-02  0.6545E-03  0.3991E-03
     -9.172  0.3439E-02  0.4199E-02  0.8103E-03  0.5893E-03
     -9.127  0.2272E-02  0.3870E-02  0.9132E-03  0.7646E-03
     -9.082  0.9457E-03  0.2975E-02  0.9561E-03  0.8993E-03
     -9.036 -0.1567E-03  0.1826E-02  0.9490E-03  0.9820E-03
     -8.991 -0.6956E-03  0.7532E-03  0.9175E-03  0.1016E-02
     -8.946 -0.3572E-03 -0.4531E-04  0.9013E-03  0.1014E-02
     -8.900  0.1143E-02 -0.5211E-03  0.9531E-03  0.9905E-03
     -8.855  0.3949E-02 -0.6821E-03  0.1132E-02  0.9596E-03
     -8.810  0.7864E-02 -0.4802E-03  0.1488E-02  0.9378E-03
     -8.764  0.1222E-01  0.2146E-03  0.2042E-02  0.9476E-03
     -8.719  0.1596E-01  0.1513E-02  0.2764E-02  0.1016E-02
     -8.674  0.1802E-01  0.3343E-02  0.3581E-02  0.1168E-02
     -8.629  0.1776E-01  0.5367E-02  0.4385E-02  0.1411E-02
     -8.583  0.1527E-01  0.7114E-02  0.5077E-02  0.1733E-02
     -8.538  0.1132E-01  0.8278E-02  0.5590E-02  0.2108E-02
     -8.493  0.6994E-02  0.8955E-02  0.5907E-02  0.2514E-02
     -8.447  0.3285E-02  0.9562E-02  0.6055E-02  0.2947E-02
     -8.402  0.7582E-03  0.1045E-01  0.6090E-02  0.3420E-02
     -8.357 -0.4676E-03  0.1150E-01  0.6068E-02  0.3941E-02
     -8.311 -0.5869E-03  0.1211E-01  0.6042E-02  0.4489E-02
     -8.266  0.6752E-04  0.1161E-01  0.6045E-02  0.5015E-02
     -8.221  0.1128E-02  0.9811E-02  0.6096E-02  0.5459E-02
     -8.176  0.2247E-02  0.7201E-02  0.6198E-02  0.5786E-02
     -8.130  0.3187E-02  0.4680E-02  0.6342E-02  0.5998E-02
     -8.085  0.3949E-02  0.3013E-02  0.6521E-02  0.6134E-02
     -8.040  0.4850E-02  0.2440E-02  0.6741E-02  0.6245E-02
     -7.994  0.6423E-02  0.2655E-02  0.7032E-02  0.6365E-02
     -7.949  0.9114E-02  0.3132E-02  0.7445E-02  0.6507E-02
     -7.904  0.1293E-01  0.3521E-02  0.8030E-02  0.6666E-02
     -7.858  0.1725E-01  0.3857E-02  0.8812E-02  0.6841E-02
     -7.813  0.2100E-01  0.4484E-02  0.9763E-02  0.7044E-02
     -7.768  0.2311E-01  0.5798E-02  0.1081E-01  0.7307E-02
     -7.723  0.2304E-01  0.7995E-02  0.1185E-01  0.7669E-02
     -7.677  0.2117E-01  0.1095E-01  0.1281E-01  0.8165E-02
     -7.632  0.1858E-01  0.1423E-01  0.1365E-01  0.8809E-02
     -7.587  0.1656E-01  0.1725E-01  0.1440E-01  0.9591E-02
     -7.541  0.1591E-01  0.1940E-01  0.1513E-01  0.1047E-01
     -7.496  0.1665E-01  0.2031E-01  0.1588E-01  0.1139E-01
     -7.451  0.1815E-01  0.1993E-01  0.1670E-01  0.1229E-01
     -7.405  0.1963E-01  0.1862E-01  0.1759E-01  0.1314E-01
     -7.360  0.2054E-01  0.1697E-01  0.1852E-01  0.1390E-01
     -7.315  0.2078E-01  0.1563E-01  0.1946E-01  0.1461E-01
     -7.270  0.2049E-01  0.1506E-01  0.2039E-01  0.1530E-01
     -7.224  0.1992E-01  0.1539E-01  0.2129E-01  0.1599E-01
     -7.179  0.1934E-01  0.1646E-01  0.2217E-01  0.1674E-01
     -7.134  0.1893E-01  0.1787E-01  0.2303E-01  0.1755E-01
     -7.088  0.1875E-01  0.1916E-01  0.2388E-01  0.1842E-01
     -7.043  0.1865E-01  0.1990E-01  0.2472E-01  0.1932E-01
     -6.998  0.1836E-01  0.1988E-01  0.2555E-01  0.2022E-01
     -6.952  0.1765E-01  0.1915E-01  0.2635E-01  0.2108E-01
     -6.907  0.1656E-01  0.1809E-01  0.2710E-01  0.2190E-01
     -6.862  0.1540E-01  0.1716E-01  0.2780E-01  0.2268E-01
     -6.817  0.1459E-01  0.1671E-01  0.2846E-01  0.2344E-01
     -6.771  0.1448E-01  0.1682E-01  0.2912E-01  0.2420E-01
     -6.726  0.1522E-01  0.1732E-01  0.2981E-01  0.2499E-01
     -6.681  0.1667E-01  0.1790E-01  0.3056E-01  0.2580E-01
     -6.635  0.1846E-01  0.1832E-01  0.3140E-01  0.2663E-01
     -6.590  0.2013E-01  0.1843E-01  0.3231E-01  0.2746E-01
     -6.545  0.2117E-01  0.1821E-01  0.3327E-01  0.2829E-01
     -6.499  0.2125E-01  0.1781E-01  0.3423E-01  0.2909E-01
     -6.454  0.2030E-01  0.1750E-01  0.3515E-01  0.2989E-01
     -6.409  0.1848E-01  0.1759E-01  0.3599E-01  0.3068E-01
     -6.364  0.1616E-01  0.1818E-01  0.3672E-01  0.3151E-01
     -6.318  0.1378E-01  0.1906E-01  0.3734E-01  0.3237E-01
     -6.273  0.1178E-01  0.1981E-01  0.3788E-01  0.3327E-01
     -6.228  0.1045E-01  0.2003E-01  0.3835E-01  0.3417E-01
     -6.182  0.9834E-02  0.1951E-01  0.3880E-01  0.3506E-01
     -6.137  0.9740E-02  0.1830E-01  0.3924E-01  0.3589E-01
     -6.092  0.9868E-02  0.1661E-01  0.3968E-01  0.3664E-01
     -6.047  0.1007E-01  0.1477E-01  0.4014E-01  0.3731E-01
     -6.001  0.1049E-01  0.1310E-01  0.4062E-01  0.3790E-01
     -5.956  0.1147E-01  0.1182E-01  0.4113E-01  0.3844E-01
     -5.911  0.1327E-01  0.1100E-01  0.4174E-01  0.3893E-01
     -5.865  0.1586E-01  0.1048E-01  0.4245E-01  0.3941E-01
     -5.820  0.1882E-01  0.1011E-01  0.4331E-01  0.3987E-01
     -5.775  0.2156E-01  0.9966E-02  0.4428E-01  0.4032E-01
     -5.729  0.2352E-01  0.1038E-01  0.4535E-01  0.4079E-01
     -5.684  0.2446E-01  0.1174E-01  0.4646E-01  0.4132E-01
     -5.639  0.2445E-01  0.1416E-01  0.4756E-01  0.4196E-01
     -5.594  0.2392E-01  0.1721E-01  0.4865E-01  0.4274E-01
     -5.548  0.2342E-01  0.2014E-01  0.4971E-01  0.4365E-01
     -5.503  0.2345E-01  0.2222E-01  0.5077E-01  0.4466E-01
     -5.458  0.2419E-01  0.2312E-01  0.5187E-01  0.4571E-01
     -5.412  0.2545E-01  0.2302E-01  0.5302E-01  0.4675E-01
     -5.367  0.2685E-01  0.2245E-01  0.5424E-01  0.4777E-01
     -5.322  0.2797E-01  0.2204E-01  0.5550E-01  0.4877E-01
     -5.276  0.2857E-01  0.2219E-01  0.5680E-01  0.4977E-01
     -5.231  0.2858E-01  0.2295E-01  0.5809E-01  0.5081E-01
     -5.186  0.2808E-01  0.2405E-01  0.5936E-01  0.5190E-01
     -5.141  0.2721E-01  0.2515E-01  0.6060E-01  0.5304E-01
     -5.095  0.2625E-01  0.2606E-01  0.6179E-01  0.5422E-01
     -5.050  0.2556E-01  0.2678E-01  0.6294E-01  0.5543E-01
     -5.005  0.2550E-01  0.2735E-01  0.6410E-01  0.5667E-01
     -4.959  0.2631E-01  0.2768E-01  0.6529E-01  0.5793E-01
     -4.914  0.2807E-01  0.2761E-01  0.6656E-01  0.5918E-01
     -4.869  0.3069E-01  0.2707E-01  0.6795E-01  0.6040E-01
     -4.823  0.3398E-01  0.2631E-01  0.6949E-01  0.6160E-01
     -4.778  0.3753E-01  0.2584E-01  0.7119E-01  0.6277E-01
     -4.733  0.4060E-01  0.2617E-01  0.7303E-01  0.6395E-01
     -4.688  0.4219E-01  0.2745E-01  0.7494E-01  0.6519E-01
     -4.642  0.4136E-01  0.2926E-01  0.7682E-01  0.6652E-01
     -4.597  0.3779E-01  0.3084E-01  0.7853E-01  0.6792E-01
     -4.552  0.3206E-01  0.3151E-01  0.7998E-01  0.6934E-01
     -4.506  0.2539E-01  0.3105E-01  0.8113E-01  0.7075E-01
     -4.461  0.1909E-01  0.2980E-01  0.8199E-01  0.7210E-01
     -4.416  0.1402E-01  0.2838E-01  0.8263E-01  0.7339E-01
     -4.370  0.1033E-01  0.2728E-01  0.8310E-01  0.7462E-01
     -4.325  0.7707E-02  0.2655E-01  0.8345E-01  0.7582E-01
     -4.280  0.5687E-02  0.2591E-01  0.8370E-01  0.7700E-01
     -4.235  0.3959E-02  0.2496E-01  0.8388E-01  0.7813E-01
     -4.189  0.2436E-02  0.2350E-01  0.8399E-01  0.7919E-01
     -4.144  0.1184E-02  0.2162E-01  0.8405E-01  0.8017E-01
     -4.099  0.2895E-03  0.1952E-01  0.8406E-01  0.8106E-01
     -4.053 -0.2348E-03  0.1736E-01  0.8405E-01  0.8184E-01
     -4.008 -0.4710E-03  0.1506E-01  0.8403E-01  0.8253E-01
     -3.963 -0.5466E-03  0.1249E-01  0.8400E-01  0.8309E-01
     -3.917 -0.5570E-03  0.9598E-02  0.8398E-01  0.8353E-01
     -3.872 -0.5036E-03  0.6568E-02  0.8396E-01  0.8382E-01
     -3.827 -0.2754E-03  0.3743E-02  0.8394E-01  0.8399E-01
     -3.782  0.3094E-03  0.1471E-02  0.8396E-01  0.8406E-01
     -3.736  0.1400E-02 -0.4296E-04  0.8402E-01  0.8406E-01
     -3.691  0.2987E-02 -0.7600E-03  0.8416E-01  0.8402E-01
     -3.646  0.4820E-02 -0.7283E-03  0.8437E-01  0.8399E-01
     -3.600  0.6467E-02  0.1959E-05  0.8467E-01  0.8399E-01
     -3.555  0.7502E-02  0.1373E-02  0.8501E-01  0.8405E-01
     -3.510  0.7731E-02  0.3234E-02  0.8536E-01  0.8420E-01
     -3.464  0.7280E-02  0.5269E-02  0.8569E-01  0.8444E-01
     -3.419  0.6484E-02  0.7044E-02  0.8598E-01  0.8476E-01
     -3.374  0.5636E-02  0.8177E-02  0.8624E-01  0.8513E-01
     -3.329  0.4825E-02  0.8502E-02  0.8646E-01  0.8551E-01
     -3.283  0.3975E-02  0.8099E-02  0.8664E-01  0.8588E-01
     -3.238  0.3063E-02  0.7182E-02  0.8677E-01  0.8620E-01
     -3.193  0.2294E-02  0.5944E-02  0.8688E-01  0.8647E-01
     -3.147  0.2069E-02  0.4526E-02  0.8697E-01  0.8668E-01
     -3.102  0.2731E-02  0.3105E-02  0.8710E-01  0.8682E-01
     -3.057  0.4253E-02  0.1991E-02  0.8729E-01  0.8691E-01
     -3.011  0.6127E-02  0.1590E-02  0.8757E-01  0.8698E-01
     -2.966  0.7561E-02  0.2202E-02  0.8791E-01  0.8708E-01
     -2.921  0.7912E-02  0.3770E-02  0.8827E-01  0.8725E-01
     -2.876  0.7068E-02  0.5774E-02  0.8859E-01  0.8751E-01
     -2.830  0.5517E-02  0.7410E-02  0.8884E-01  0.8785E-01
     -2.785  0.4037E-02  0.7982E-02  0.8902E-01  0.8821E-01
     -2.740  0.3227E-02  0.7299E-02  0.8917E-01  0.8854E-01
     -2.694  0.3187E-02  0.5787E-02  0.8931E-01  0.8880E-01
     -2.649  0.3543E-02  0.4227E-02  0.8947E-01  0.8899E-01
     -2.604  0.3756E-02  0.3281E-02  0.8964E-01  0.8914E-01
     -2.559  0.3472E-02  0.3135E-02  0.8980E-01  0.8929E-01
     -2.513  0.2687E-02  0.3471E-02  0.8992E-01  0.8944E-01
     -2.468  0.1673E-02  0.3747E-02  0.9000E-01  0.8961E-01
     -2.423  0.7543E-03  0.3558E-02  0.9003E-01  0.8977E-01
     -2.377  0.1338E-03  0.2843E-02  0.9004E-01  0.8990E-01
     -2.332 -0.1653E-03  0.1842E-02  0.9003E-01  0.8999E-01
     -2.287 -0.2383E-03  0.8884E-03  0.9002E-01  0.9003E-01
     -2.241 -0.2096E-03  0.2113E-03  0.9001E-01  0.9004E-01
     -2.196 -0.1728E-03 -0.1393E-03  0.9000E-01  0.9003E-01
     -2.151 -0.1732E-03 -0.2478E-03  0.8999E-01  0.9002E-01
     -2.106 -0.2105E-03 -0.2413E-03  0.8998E-01  0.9001E-01
     -2.060 -0.2386E-03 -0.2203E-03  0.8997E-01  0.9000E-01
     -2.015 -0.1635E-03 -0.2295E-03  0.8996E-01  0.8999E-01
     -1.970  0.1398E-03 -0.2516E-03  0.8997E-01  0.8998E-01
     -1.924  0.7674E-03 -0.2090E-03  0.9001E-01  0.8997E-01
     -1.879  0.1698E-02  0.2069E-04  0.9008E-01  0.8997E-01
     -1.834  0.2736E-02  0.5546E-03  0.9021E-01  0.8999E-01
     -1.788  0.3558E-02  0.1417E-02  0.9037E-01  0.9006E-01
     -1.743  0.3882E-02  0.2460E-02  0.9054E-01  0.9017E-01
     -1.698  0.3659E-02  0.3371E-02  0.9071E-01  0.9032E-01
     -1.653  0.3141E-02  0.3810E-02  0.9085E-01  0.9049E-01
     -1.607  0.2768E-02  0.3618E-02  0.9098E-01  0.9066E-01
     -1.562  0.2935E-02  0.2972E-02  0.9111E-01  0.9079E-01
     -1.517  0.3800E-02  0.2350E-02  0.9128E-01  0.9090E-01
     -1.471  0.5246E-02  0.2318E-02  0.9152E-01  0.9100E-01
     -1.426  0.6953E-02  0.3238E-02  0.9183E-01  0.9115E-01
     -1.381  0.8515E-02  0.5069E-02  0.9222E-01  0.9138E-01
     -1.335  0.9551E-02  0.7348E-02  0.9265E-01  0.9171E-01
     -1.290  0.9833E-02  0.9377E-02  0.9310E-01  0.9214E-01
     -1.245  0.9402E-02  0.1054E-01  0.9352E-01  0.9261E-01
     -1.200  0.8590E-02  0.1059E-01  0.9391E-01  0.9309E-01
     -1.154  0.7880E-02  0.9837E-02  0.9427E-01  0.9354E-01
     -1.109  0.7665E-02  0.8917E-02  0.9462E-01  0.9394E-01
     -1.064  0.8043E-02  0.8473E-02  0.9498E-01  0.9433E-01
     -1.018  0.8811E-02  0.8774E-02  0.9538E-01  0.9472E-01
     -0.973  0.9632E-02  0.9618E-02  0.9582E-01  0.9516E-01
     -0.928  0.1027E-01  0.1052E-01  0.9628E-01  0.9564E-01
     -0.882  0.1071E-01  0.1107E-01  0.9677E-01  0.9614E-01
     -0.837  0.1110E-01  0.1115E-01  0.9727E-01  0.9664E-01
     -0.792  0.1150E-01  0.1094E-01  0.9779E-01  0.9714E-01
     -0.747  0.1171E-01  0.1073E-01  0.9832E-01  0.9762E-01
     -0.701  0.1136E-01  0.1064E-01  0.9884E-01  0.9811E-01
     -0.656  0.1012E-01  0.1050E-01  0.9930E-01  0.9858E-01
     -0.611  0.7997E-02  0.9953E-02  0.9966E-01  0.9903E-01
     -0.565  0.5383E-02  0.8691E-02  0.9990E-01  0.9943E-01
     -0.520  0.2864E-02  0.6718E-02  0.1000E+00  0.9973E-01
     -0.475  0.9176E-03  0.4375E-02  0.1001E+00  0.9993E-01
     -0.429 -0.2617E-03  0.2169E-02  0.1001E+00  0.1000E+00
     -0.384 -0.7359E-03  0.5204E-03  0.1000E+00  0.1001E+00
     -0.339 -0.6661E-03 -0.3745E-03  0.1000E+00  0.1000E+00
     -0.294 -0.1804E-03 -0.5280E-03  0.9999E-01  0.1000E+00
     -0.248  0.6426E-03 -0.6073E-04  0.1000E+00  0.1000E+00
     -0.203  0.1699E-02  0.8613E-03  0.1001E+00  0.1000E+00
     -0.158  0.2803E-02  0.2030E-02  0.1002E+00  0.1001E+00
     -0.112  0.3726E-02  0.3202E-02  0.1004E+00  0.1003E+00
     -0.067  0.4334E-02  0.4175E-02  0.1006E+00  0.1005E+00
     -0.022  0.4696E-02  0.4886E-02  0.1008E+00  0.1007E+00
      0.024  0.5048E-02  0.5454E-02  0.1010E+00  0.1009E+00
      0.069  0.5644E-02  0.6082E-02  0.1013E+00  0.1012E+00
      0.114  0.6569E-02  0.6904E-02  0.1016E+00  0.1015E+00
      0.159  0.7677E-02  0.7863E-02  0.1019E+00  0.1019E+00
      0.205  0.8642E-02  0.8714E-02  0.1023E+00  0.1023E+00
      0.250  0.9103E-02  0.9130E-02  0.1027E+00  0.1027E+00
      0.295  0.8799E-02  0.8846E-02  0.1031E+00  0.1031E+00
      0.341  0.7680E-02  0.7783E-02  0.1035E+00  0.1034E+00
      0.386  0.5937E-02  0.6099E-02  0.1037E+00  0.1037E+00
      0.431  0.3949E-02  0.4138E-02  0.1039E+00  0.1039E+00
      0.477  0.2129E-02  0.2305E-02  0.1040E+00  0.1040E+00
      0.522  0.7767E-03  0.9070E-03  0.1041E+00  0.1041E+00
      0.567 -0.1604E-04  0.5764E-04  0.1041E+00  0.1041E+00
      0.612 -0.3390E-03 -0.3122E-03  0.1040E+00  0.1040E+00
      0.658 -0.3695E-03 -0.3707E-03  0.1040E+00  0.1040E+00
      0.703 -0.2760E-03 -0.2877E-03  0.1040E+00  0.1040E+00
      0.748 -0.1660E-03 -0.1778E-03  0.1040E+00  0.1040E+00
      0.794 -0.8464E-04 -0.9271E-04  0.1040E+00  0.1040E+00
      0.839 -0.3743E-04 -0.4184E-04  0.1040E+00  0.1040E+00
      0.884 -0.1453E-04 -0.1655E-04  0.1040E+00  0.1040E+00
      0.929 -0.4989E-05 -0.5786E-05  0.1040E+00  0.1040E+00
      0.975 -0.1521E-05 -0.1795E-05  0.1040E+00  0.1040E+00
      1.020 -0.4134E-06 -0.4961E-06  0.1040E+00  0.1040E+00
      1.065 -0.1003E-06 -0.1224E-06  0.1040E+00  0.1040E+00
      1.111 -0.2178E-07 -0.2701E-07  0.1040E+00  0.1040E+00
      1.156 -0.4237E-08 -0.5338E-08  0.1040E+00  0.1040E+00
      1.201 -0.7391E-09 -0.9458E-09  0.1040E+00  0.1040E+00
      1.247 -0.1157E-09 -0.1504E-09  0.1040E+00  0.1040E+00
      1.292 -0.1626E-10 -0.2146E-10  0.1040E+00  0.1040E+00
      1.337 -0.2054E-11 -0.2753E-11  0.1040E+00  0.1040E+00
      1.382 -0.2333E-12 -0.3173E-12  0.1040E+00  0.1040E+00
      1.428 -0.2382E-13 -0.3290E-13  0.1040E+00  0.1040E+00
      1.473 -0.2191E-14 -0.3073E-14  0.1040E+00  0.1040E+00
      1.518 -0.1814E-15 -0.2549E-15  0.1040E+00  0.1040E+00
      1.564 -0.1471E-16 -0.1961E-16  0.1040E+00  0.1040E+00
      1.609  0.0000E+00  0.0000E+00  0.1040E+00  0.1040E+00
      1.654  0.0000E+00  0.0000E+00  0.1040E+00  0.1040E+00
      1.700  0.0000E+00  0.0000E+00  0.1040E+00  0.1040E+00
      1.745  0.0000E+00  0.0000E+00  0.1040E+00  0.1040E+00
      1.790  0.0000E+00  0.0000E+00  0.1040E+00  0.1040E+00
      1.835  0.0000E+00  0.0000E+00  0.1040E+00  0.1040E+00
      1.881  0.0000E+00  0.0000E+00  0.1040E+00  0.1040E+00
      1.926  0.0000E+00  0.0000E+00  0.1040E+00  0.1040E+00
      1.971  0.0000E+00  0.0000E+00  0.1040E+00  0.1040E+00
      2.017  0.0000E+00  0.0000E+00  0.1040E+00  0.1040E+00
      2.062  0.0000E+00  0.0000E+00  0.1040E+00  0.1040E+00
      2.107  0.0000E+00  0.0000E+00  0.1040E+00  0.1040E+00
      2.153  0.0000E+00  0.0000E+00  0.1040E+00  0.1040E+00
      2.198  0.0000E+00  0.0000E+00  0.1040E+00  0.1040E+00
      2.243  0.0000E+00  0.0000E+00  0.1040E+00  0.1040E+00
      2.288  0.0000E+00  0.0000E+00  0.1040E+00  0.1040E+00
      2.334  0.0000E+00  0.0000E+00  0.1040E+00  0.1040E+00
