   16   16 1000    2
  0.8360372E+03  0.2306725E-08  0.2410060E-08  0.2406145E-08  0.5000000E-15
   1.0000000000000000E-004
  CAR 
 unknown system                          
    160      1    104
 
  0.1262379E-14  0.1262379E-14  0.1262379E-14  0.1000000E+01
    1       -9.255844     -9.193371   1.000000   1.000000
    2       -8.760847     -8.579105   1.000000   1.000000
    3       -8.722741     -8.545709   1.000000   1.000000
    4       -8.673888     -8.330479   1.000000   1.000000
    5       -8.643212     -8.317665   1.000000   1.000000
    6       -8.589423     -8.270248   1.000000   1.000000
    7       -8.119756     -7.958197   1.000000   1.000000
    8       -7.926745     -7.737264   1.000000   1.000000
    9       -7.829898     -7.615220   1.000000   1.000000
   10       -7.816658     -7.603382   1.000000   1.000000
   11       -7.793283     -7.533095   1.000000   1.000000
   12       -7.732511     -7.497235   1.000000   1.000000
   13       -7.720047     -7.435413   1.000000   1.000000
   14       -7.692535     -7.428628   1.000000   1.000000
   15       -7.565044     -7.297903   1.000000   1.000000
   16       -7.480341     -7.275385   1.000000   1.000000
   17       -7.456019     -7.164171   1.000000   1.000000
   18       -7.428599     -7.144013   1.000000   1.000000
   19       -7.364191     -7.064884   1.000000   1.000000
   20       -7.316933     -7.049941   1.000000   1.000000
   21       -7.246088     -6.978805   1.000000   1.000000
   22       -7.215579     -6.947105   1.000000   1.000000
   23       -7.195784     -6.890157   1.000000   1.000000
   24       -7.077526     -6.777207   1.000000   1.000000
   25       -7.050595     -6.740300   1.000000   1.000000
   26       -7.006599     -6.736064   1.000000   1.000000
   27       -6.954436     -6.618568   1.000000   1.000000
   28       -6.898362     -6.581301   1.000000   1.000000
   29       -6.803731     -6.555475   1.000000   1.000000
   30       -6.745419     -6.479385   1.000000   1.000000
   31       -6.682363     -6.429727   1.000000   1.000000
   32       -6.592978     -6.313706   1.000000   1.000000
   33       -6.584795     -6.310309   1.000000   1.000000
   34       -6.546222     -6.286839   1.000000   1.000000
   35       -6.493053     -6.220155   1.000000   1.000000
   36       -6.441793     -6.137819   1.000000   1.000000
   37       -6.374819     -6.119014   1.000000   1.000000
   38       -6.331656     -6.047762   1.000000   1.000000
   39       -6.197238     -5.944778   1.000000   1.000000
   40       -6.098582     -5.820189   1.000000   1.000000
   41       -6.045229     -5.817870   1.000000   1.000000
   42       -5.894196     -5.618280   1.000000   1.000000
   43       -5.865042     -5.590330   1.000000   1.000000
   44       -5.803826     -5.580142   1.000000   1.000000
   45       -5.753527     -5.502039   1.000000   1.000000
   46       -5.727782     -5.466761   1.000000   1.000000
   47       -5.692687     -5.442145   1.000000   1.000000
   48       -5.638853     -5.376072   1.000000   1.000000
   49       -5.620240     -5.359662   1.000000   1.000000
   50       -5.561451     -5.271532   1.000000   1.000000
   51       -5.519356     -5.233423   1.000000   1.000000
   52       -5.447425     -5.192533   1.000000   1.000000
   53       -5.434098     -5.166140   1.000000   1.000000
   54       -5.377570     -5.120094   1.000000   1.000000
   55       -5.364394     -5.114162   1.000000   1.000000
   56       -5.338932     -5.022016   1.000000   1.000002
   57       -5.270172     -4.999069   1.000000   1.000005
   58       -5.255598     -4.990194   1.000000   1.000007
   59       -5.228722     -4.936847   1.000000   1.000035
   60       -5.169547     -4.890138   1.000000   1.000132
   61       -5.152839     -4.881397   1.000000   1.000167
   62       -5.110305     -4.836179   1.000000   1.000529
   63       -5.082848     -4.809842   1.000000   1.000983
   64       -5.038429     -4.747895   1.000001   1.003595
   65       -4.971347     -4.683060   1.000012   1.010816
   66       -4.944696     -4.670266   1.000027   1.012997
   67       -4.897682     -4.617661   1.000107   1.024202
   68       -4.892647     -4.613633   1.000123   1.025133
   69       -4.872970     -4.577064   1.000209   1.032730
   70       -4.813592     -4.573138   1.000902   1.033347
   71       -4.767150     -4.513501   1.002462   1.029909
   72       -4.751765     -4.481141   1.003338   1.010140
   73       -4.750752     -4.467786   1.003404   0.996423
   74       -4.724381     -4.416289   1.005533   0.905424
   75       -4.677369     -4.362597   1.011754   0.741755
   76       -4.652338     -4.304730   1.016473   0.509138
   77       -4.641839     -4.299496   1.018707   0.486996
   78       -4.635014     -4.281960   1.020221   0.413303
   79       -4.630457     -4.218340   1.021253   0.176227
   80       -4.598608     -4.178905   1.028525   0.071931
   81       -4.577119     -4.140463   1.032721   0.007307
   82       -4.454477     -4.050800   0.978959  -0.035287
   83       -4.443237     -4.016490   0.961032  -0.030609
   84       -4.297864     -3.935914   0.480092  -0.013185
   85       -3.606507     -3.433915  -0.000005  -0.000000
   86       -3.514821     -3.350763  -0.000000  -0.000000
   87       -3.312178     -3.186148  -0.000000  -0.000000
   88       -2.964981     -2.818184  -0.000000  -0.000000
   89       -2.945945     -2.806943  -0.000000  -0.000000
   90       -2.629631     -2.486287  -0.000000  -0.000000
   91       -1.763307     -1.659142  -0.000000  -0.000000
   92       -1.471554     -1.341836  -0.000000  -0.000000
   93       -1.312070     -1.226519  -0.000000  -0.000000
   94       -1.299074     -1.219995  -0.000000  -0.000000
   95       -1.118040     -1.016848  -0.000000  -0.000000
   96       -0.981015     -0.937880  -0.000000  -0.000000
   97       -0.934322     -0.862279  -0.000000  -0.000000
   98       -0.800376     -0.759793  -0.000000  -0.000000
   99       -0.704253     -0.628978  -0.000000  -0.000000
  100       -0.673449     -0.591179  -0.000000  -0.000000
  101       -0.099450     -0.072816  -0.000000  -0.000000
  102        0.113456      0.120747  -0.000000  -0.000000
  103        0.234560      0.237165  -0.000000  -0.000000
  104        0.327439      0.333747  -0.000000  -0.000000
