       N       E                     dE             d eps       ncg     rms          rms(c)
DAV:   1     0.144063038357E+04    0.14406E+04   -0.27797E+04   416   0.743E+02
DAV:   2     0.713356450517E+03   -0.72727E+03   -0.65445E+03   792   0.931E+01
DAV:   3     0.118080784755E+03   -0.59528E+03   -0.55426E+03   688   0.854E+01
DAV:   4    -0.428241097192E+02   -0.16090E+03   -0.14418E+03   560   0.476E+01
DAV:   5    -0.651010780833E+02   -0.22277E+02   -0.18169E+02   552   0.167E+01    0.273E+01
DAV:   6    -0.576306993012E+02    0.74704E+01   -0.34269E+01   424   0.147E+01    0.163E+01
DAV:   7    -0.561767301863E+02    0.14540E+01   -0.27809E+01   456   0.342E+01    0.239E+01
DAV:   8    -0.513716594098E+02    0.48051E+01   -0.28655E+01   456   0.259E+01    0.172E+01
DAV:   9    -0.487400370710E+02    0.26316E+01   -0.85550E+00   464   0.181E+01    0.114E+01
DAV:  10    -0.480669786520E+02    0.67306E+00   -0.42632E+00   472   0.126E+01    0.764E+00
DAV:  11    -0.492125428534E+02   -0.11456E+01   -0.19624E+00   448   0.765E+00    0.574E+00
DAV:  12    -0.497440559026E+02   -0.53151E+00   -0.82136E-01   440   0.575E+00    0.358E+00
DAV:  13    -0.515076774961E+02   -0.17636E+01   -0.64612E-01   440   0.382E+00    0.339E+00
DAV:  14    -0.533251994093E+02   -0.18175E+01   -0.80639E-01   456   0.409E+00    0.316E+00
DAV:  15    -0.545383337541E+02   -0.12131E+01   -0.47524E-01   448   0.315E+00    0.215E+00
DAV:  16    -0.556333508018E+02   -0.10950E+01   -0.24810E-01   448   0.208E+00    0.135E+00
DAV:  17    -0.567481295452E+02   -0.11148E+01   -0.18874E-01   424   0.157E+00    0.123E+00
DAV:  18    -0.577325124839E+02   -0.98438E+00   -0.16427E-01   440   0.142E+00    0.103E+00
DAV:  19    -0.586897580303E+02   -0.95725E+00   -0.15815E-01   432   0.119E+00    0.861E-01
DAV:  20    -0.594737215438E+02   -0.78396E+00   -0.12506E-01   440   0.105E+00    0.716E-01
DAV:  21    -0.601458175940E+02   -0.67210E+00   -0.99564E-02   448   0.890E-01    0.590E-01
DAV:  22    -0.606685888593E+02   -0.52277E+00   -0.67654E-02   456   0.801E-01    0.478E-01
DAV:  23    -0.610926927484E+02   -0.42410E+00   -0.36527E-02   440   0.588E-01    0.307E-01
DAV:  24    -0.614235173299E+02   -0.33082E+00   -0.15227E-02   456   0.421E-01    0.272E-01
DAV:  25    -0.618626205200E+02   -0.43910E+00   -0.21105E-02   448   0.376E-01    0.177E-01
DAV:  26    -0.621116574127E+02   -0.24904E+00   -0.83808E-03   480   0.240E-01    0.126E-01
DAV:  27    -0.622317186151E+02   -0.12006E+00   -0.29151E-03   464   0.178E-01    0.107E-01
DAV:  28    -0.623109467561E+02   -0.79228E-01   -0.21456E-03   472   0.127E-01    0.667E-02
DAV:  29    -0.623564898329E+02   -0.45543E-01   -0.81376E-04   408   0.949E-02    0.557E-02
DAV:  30    -0.623785600374E+02   -0.22070E-01   -0.30006E-04   360   0.702E-02    0.341E-02
DAV:  31    -0.623943612343E+02   -0.15801E-01   -0.21373E-04   352   0.355E-02    0.213E-02
DAV:  32    -0.624024950188E+02   -0.81338E-02   -0.10199E-04   320   0.347E-02    0.201E-02
DAV:  33    -0.624060926344E+02   -0.35976E-02   -0.84235E-05   336   0.272E-02    0.128E-02
DAV:  34    -0.624073571655E+02   -0.12645E-02   -0.38061E-05   296   0.169E-02    0.993E-03
DAV:  35    -0.624081313997E+02   -0.77423E-03   -0.29105E-05   312   0.135E-02    0.843E-03
DAV:  36    -0.624090718329E+02   -0.94043E-03   -0.25012E-05   296   0.128E-02    0.704E-03
DAV:  37    -0.624097077988E+02   -0.63597E-03   -0.17007E-05   304   0.100E-02    0.487E-03
DAV:  38    -0.624101993819E+02   -0.49158E-03   -0.92139E-06   288   0.728E-03    0.341E-03
DAV:  39    -0.624107839930E+02   -0.58461E-03   -0.80706E-06   272   0.565E-03    0.219E-03
DAV:  40    -0.624111408117E+02   -0.35682E-03   -0.63839E-06   280   0.369E-03    0.134E-03
DAV:  41    -0.624113049577E+02   -0.16415E-03   -0.24363E-06   264   0.270E-03    0.106E-03
DAV:  42    -0.624113995395E+02   -0.94582E-04   -0.12938E-06   264   0.176E-03
   1 F= -.62411400E+02 E0= -.62408149E+02  d E =-.624114E+02  mag=     6.7033
       N       E                     dE             d eps       ncg     rms          rms(c)
DAV:   1    -0.625374129503E+02   -0.12611E+00   -0.11961E+02   416   0.285E+01    0.289E+00
DAV:   2    -0.627624694765E+02   -0.22506E+00   -0.22609E+00   440   0.594E+00    0.446E+00
DAV:   3    -0.627066999255E+02    0.55770E-01   -0.96719E-01   424   0.512E+00    0.290E+00
DAV:   4    -0.627015178400E+02    0.51821E-02   -0.37997E-01   432   0.330E+00    0.272E+00
DAV:   5    -0.626591366444E+02    0.42381E-01   -0.11652E-01   432   0.221E+00    0.126E+00
DAV:   6    -0.626597030396E+02   -0.56640E-03   -0.10401E-01   440   0.168E+00    0.158E+00
DAV:   7    -0.626459393677E+02    0.13764E-01   -0.63822E-02   456   0.146E+00    0.953E-01
DAV:   8    -0.626384197348E+02    0.75196E-02   -0.23399E-02   448   0.971E-01    0.363E-01
DAV:   9    -0.626377705599E+02    0.64917E-03   -0.33800E-03   456   0.379E-01    0.183E-01
DAV:  10    -0.626389717802E+02   -0.12012E-02   -0.13226E-03   456   0.200E-01    0.150E-01
DAV:  11    -0.626402193311E+02   -0.12476E-02   -0.91182E-04   368   0.163E-01    0.145E-01
DAV:  12    -0.626415020972E+02   -0.12828E-02   -0.53054E-04   296   0.122E-01    0.792E-02
DAV:  13    -0.626425819334E+02   -0.10798E-02   -0.15921E-04   280   0.676E-02    0.437E-02
DAV:  14    -0.626457074252E+02   -0.31255E-02   -0.12035E-04   288   0.372E-02    0.348E-02
DAV:  15    -0.626489875946E+02   -0.32802E-02   -0.86150E-05   272   0.363E-02    0.304E-02
DAV:  16    -0.626528401311E+02   -0.38525E-02   -0.10549E-04   296   0.321E-02    0.210E-02
DAV:  17    -0.626565349216E+02   -0.36948E-02   -0.79120E-05   288   0.239E-02    0.191E-02
DAV:  18    -0.626602140562E+02   -0.36791E-02   -0.84231E-05   288   0.209E-02    0.185E-02
DAV:  19    -0.626648233781E+02   -0.46093E-02   -0.16293E-04   336   0.214E-02    0.139E-02
DAV:  20    -0.626672382840E+02   -0.24149E-02   -0.56225E-05   304   0.176E-02    0.896E-03
DAV:  21    -0.626689864131E+02   -0.17481E-02   -0.49735E-05   312   0.129E-02    0.577E-03
DAV:  22    -0.626702509249E+02   -0.12645E-02   -0.22904E-05   296   0.923E-03    0.474E-03
DAV:  23    -0.626714806714E+02   -0.12297E-02   -0.31770E-05   288   0.914E-03    0.352E-03
DAV:  24    -0.626721436022E+02   -0.66293E-03   -0.14996E-05   288   0.690E-03    0.234E-03
DAV:  25    -0.626725467123E+02   -0.40311E-03   -0.95381E-06   288   0.487E-03    0.173E-03
DAV:  26    -0.626727992031E+02   -0.25249E-03   -0.53444E-06   272   0.409E-03    0.140E-03
DAV:  27    -0.626730431288E+02   -0.24393E-03   -0.35200E-06   288   0.315E-03    0.950E-04
DAV:  28    -0.626731772166E+02   -0.13409E-03   -0.19195E-06   280   0.242E-03    0.649E-04
DAV:  29    -0.626732287510E+02   -0.51534E-04   -0.10443E-06   264   0.168E-03
   2 F= -.62673229E+02 E0= -.62673380E+02  d E =-.261829E+00  mag=     6.9744
       N       E                     dE             d eps       ncg     rms          rms(c)
DAV:   1    -0.626640961397E+02    0.90811E-02   -0.36501E+01   416   0.157E+01    0.149E+00
DAV:   2    -0.627311260043E+02   -0.67030E-01   -0.67561E-01   440   0.324E+00    0.234E+00
DAV:   3    -0.627136274782E+02    0.17499E-01   -0.23563E-01   424   0.270E+00    0.144E+00
DAV:   4    -0.627122386043E+02    0.13889E-02   -0.87424E-02   432   0.162E+00    0.134E+00
DAV:   5    -0.627012606185E+02    0.10978E-01   -0.29849E-02   440   0.111E+00    0.569E-01
DAV:   6    -0.627012471005E+02    0.13518E-04   -0.21692E-02   448   0.834E-01    0.848E-01
DAV:   7    -0.626971586420E+02    0.40885E-02   -0.18487E-02   464   0.767E-01    0.544E-01
DAV:   8    -0.626946508439E+02    0.25078E-02   -0.64178E-03   448   0.510E-01    0.183E-01
DAV:   9    -0.626944923657E+02    0.15848E-03   -0.96882E-04   448   0.194E-01    0.839E-02
DAV:  10    -0.626949573968E+02   -0.46503E-03   -0.27632E-04   296   0.945E-02    0.690E-02
DAV:  11    -0.626955731812E+02   -0.61578E-03   -0.20316E-04   272   0.734E-02    0.651E-02
DAV:  12    -0.626960917836E+02   -0.51860E-03   -0.14272E-04   280   0.602E-02    0.348E-02
DAV:  13    -0.626965007290E+02   -0.40895E-03   -0.54235E-05   280   0.347E-02    0.208E-02
DAV:  14    -0.626975477497E+02   -0.10470E-02   -0.38058E-05   264   0.198E-02    0.156E-02
DAV:  15    -0.626988167660E+02   -0.12690E-02   -0.30143E-05   272   0.155E-02    0.136E-02
DAV:  16    -0.627000677570E+02   -0.12510E-02   -0.36464E-05   288   0.155E-02    0.114E-02
DAV:  17    -0.627012680995E+02   -0.12003E-02   -0.26743E-05   272   0.128E-02    0.859E-03
DAV:  18    -0.627023396263E+02   -0.10715E-02   -0.31006E-05   288   0.106E-02    0.834E-03
DAV:  19    -0.627036905938E+02   -0.13510E-02   -0.40111E-05   296   0.111E-02    0.656E-03
DAV:  20    -0.627046917351E+02   -0.10011E-02   -0.37889E-05   288   0.106E-02    0.438E-03
DAV:  21    -0.627051792998E+02   -0.48756E-03   -0.20731E-05   296   0.840E-03    0.270E-03
DAV:  22    -0.627057072448E+02   -0.52794E-03   -0.16500E-05   280   0.614E-03    0.234E-03
DAV:  23    -0.627060694842E+02   -0.36224E-03   -0.10577E-05   280   0.549E-03    0.158E-03
DAV:  24    -0.627064739071E+02   -0.40442E-03   -0.10820E-05   288   0.446E-03    0.106E-03
DAV:  25    -0.627066013518E+02   -0.12744E-03   -0.50975E-06   280   0.357E-03    0.859E-04
DAV:  26    -0.627066887563E+02   -0.87405E-04   -0.30378E-06   264   0.238E-03
   3 F= -.62706689E+02 E0= -.62708520E+02  d E =-.295289E+00  mag=     7.1099
       N       E                     dE             d eps       ncg     rms          rms(c)
DAV:   1    -0.627147170532E+02   -0.81157E-02   -0.83965E+00   424   0.753E+00    0.604E-01
DAV:   2    -0.627360496167E+02   -0.21333E-01   -0.17545E-01   432   0.189E+00    0.162E+00
DAV:   3    -0.627245511228E+02    0.11498E-01   -0.68390E-02   432   0.149E+00    0.623E-01
DAV:   4    -0.627245133861E+02    0.37737E-04   -0.14019E-02   448   0.680E-01    0.421E-01
DAV:   5    -0.627238948471E+02    0.61854E-03   -0.41888E-03   440   0.403E-01    0.282E-01
DAV:   6    -0.627235509166E+02    0.34393E-03   -0.21460E-03   432   0.299E-01    0.216E-01
DAV:   7    -0.627232038060E+02    0.34711E-03   -0.19205E-03   448   0.244E-01    0.175E-01
DAV:   8    -0.627227696608E+02    0.43415E-03   -0.10568E-03   440   0.195E-01    0.932E-02
DAV:   9    -0.627227145070E+02    0.55154E-04   -0.23785E-04   288   0.947E-02
   4 F= -.62722715E+02 E0= -.62726912E+02  d E =-.160258E-01  mag=     7.1258
       N       E                     dE             d eps       ncg     rms          rms(c)
DAV:   1    -0.627211898738E+02    0.15798E-02   -0.47363E+00   416   0.565E+00    0.464E-01
DAV:   2    -0.627335864828E+02   -0.12397E-01   -0.10300E-01   432   0.145E+00    0.126E+00
DAV:   3    -0.627264506115E+02    0.71359E-02   -0.40438E-02   432   0.115E+00    0.465E-01
DAV:   4    -0.627264617085E+02   -0.11097E-04   -0.84173E-03   432   0.522E-01    0.322E-01
DAV:   5    -0.627260956037E+02    0.36610E-03   -0.24170E-03   432   0.307E-01    0.211E-01
DAV:   6    -0.627258474356E+02    0.24817E-03   -0.11546E-03   392   0.223E-01    0.160E-01
DAV:   7    -0.627256721059E+02    0.17533E-03   -0.10155E-03   416   0.181E-01    0.129E-01
DAV:   8    -0.627255053545E+02    0.16675E-03   -0.54187E-04   320   0.144E-01    0.684E-02
DAV:   9    -0.627255379197E+02   -0.32565E-04   -0.14446E-04   280   0.722E-02
   5 F= -.62725538E+02 E0= -.62731427E+02  d E =-.188492E-01  mag=     7.1453
       N       E                     dE             d eps       ncg     rms          rms(c)
DAV:   1    -0.627272692648E+02   -0.17639E-02   -0.49566E+00   416   0.578E+00    0.431E-01
DAV:   2    -0.627384706821E+02   -0.11201E-01   -0.97528E-02   432   0.138E+00    0.102E+00
DAV:   3    -0.627339978197E+02    0.44729E-02   -0.27875E-02   432   0.983E-01    0.348E-01
DAV:   4    -0.627344869391E+02   -0.48912E-03   -0.67489E-03   432   0.447E-01    0.383E-01
DAV:   5    -0.627341351340E+02    0.35181E-03   -0.31162E-03   448   0.295E-01    0.169E-01
DAV:   6    -0.627342748193E+02   -0.13969E-03   -0.75522E-04   432   0.172E-01    0.114E-01
DAV:   7    -0.627346267644E+02   -0.35195E-03   -0.68051E-04   440   0.132E-01    0.102E-01
DAV:   8    -0.627346610870E+02   -0.34323E-04   -0.30581E-04   304   0.119E-01
   6 F= -.62734661E+02 E0= -.62741668E+02  d E =-.912317E-02  mag=     7.1471
       N       E                     dE             d eps       ncg     rms          rms(c)
DAV:   1    -0.627355005785E+02   -0.87381E-03   -0.54498E-01   440   0.192E+00    0.151E-01
DAV:   2    -0.627368059117E+02   -0.13053E-02   -0.11403E-02   440   0.473E-01    0.347E-01
DAV:   3    -0.627362424959E+02    0.56342E-03   -0.35613E-03   432   0.359E-01    0.112E-01
DAV:   4    -0.627363813487E+02   -0.13885E-03   -0.86794E-04   328   0.162E-01    0.118E-01
DAV:   5    -0.627363758105E+02    0.55381E-05   -0.39366E-04   272   0.105E-01
   7 F= -.62736376E+02 E0= -.62743768E+02  d E =-.108379E-01  mag=     7.1458
       N       E                     dE             d eps       ncg     rms          rms(c)
DAV:   1    -0.627371846838E+02   -0.80334E-03   -0.67693E-01   448   0.214E+00    0.208E-01
DAV:   2    -0.627407462333E+02   -0.35615E-02   -0.23041E-02   440   0.675E-01    0.803E-01
DAV:   3    -0.627373733444E+02    0.33729E-02   -0.12349E-02   432   0.589E-01    0.119E-01
DAV:   4    -0.627380263437E+02   -0.65300E-03   -0.97136E-04   424   0.177E-01    0.117E-01
DAV:   5    -0.627379817998E+02    0.44544E-04   -0.44372E-04   320   0.132E-01
   8 F= -.62737982E+02 E0= -.62745079E+02  d E =-.160599E-02  mag=     7.1420
       N       E                     dE             d eps       ncg     rms          rms(c)
DAV:   1    -0.627378565143E+02    0.16983E-03   -0.52826E-01   440   0.189E+00    0.172E-01
DAV:   2    -0.627395587085E+02   -0.17022E-02   -0.13202E-02   440   0.501E-01    0.524E-01
DAV:   3    -0.627380264479E+02    0.15323E-02   -0.55724E-03   432   0.415E-01    0.975E-02
DAV:   4    -0.627384152141E+02   -0.38877E-03   -0.86041E-04   400   0.154E-01    0.159E-01
DAV:   5    -0.627382824562E+02    0.13276E-03   -0.55583E-04   312   0.137E-01    0.877E-02
DAV:   6    -0.627382735423E+02    0.89139E-05   -0.20148E-04   272   0.965E-02
   9 F= -.62738274E+02 E0= -.62745226E+02  d E =-.189773E-02  mag=     7.1351
       N       E                     dE             d eps       ncg     rms          rms(c)
DAV:   1    -0.627387406565E+02   -0.45820E-03   -0.65442E-01   448   0.211E+00    0.132E-01
DAV:   2    -0.627400460330E+02   -0.13054E-02   -0.11683E-02   432   0.442E-01    0.310E-01
DAV:   3    -0.627396795247E+02    0.36651E-03   -0.30617E-03   440   0.313E-01    0.144E-01
DAV:   4    -0.627397770015E+02   -0.97477E-04   -0.78163E-04   320   0.150E-01
  10 F= -.62739777E+02 E0= -.62746729E+02  d E =-.150346E-02  mag=     7.1343
       N       E                     dE             d eps       ncg     rms          rms(c)
DAV:   1    -0.627380966815E+02    0.15828E-02   -0.25782E+00   416   0.419E+00    0.246E-01
DAV:   2    -0.627425674028E+02   -0.44707E-02   -0.42202E-02   448   0.814E-01    0.526E-01
DAV:   3    -0.627415727292E+02    0.99467E-03   -0.89438E-03   440   0.542E-01    0.265E-01
DAV:   4    -0.627415884539E+02   -0.15725E-04   -0.23587E-03   432   0.276E-01    0.192E-01
DAV:   5    -0.627415268632E+02    0.61591E-04   -0.66756E-04   368   0.160E-01
  11 F= -.62741527E+02 E0= -.62748529E+02  d E =-.325332E-02  mag=     7.1378
       N       E                     dE             d eps       ncg     rms          rms(c)
DAV:   1    -0.627415802889E+02    0.81650E-05   -0.69996E-01   424   0.219E+00    0.199E-01
DAV:   2    -0.627453313529E+02   -0.37511E-02   -0.23396E-02   448   0.695E-01    0.769E-01
DAV:   3    -0.627418302660E+02    0.35011E-02   -0.12860E-02   440   0.603E-01    0.136E-01
DAV:   4    -0.627423521196E+02   -0.52185E-03   -0.10457E-03   448   0.159E-01    0.126E-01
DAV:   5    -0.627422444990E+02    0.10762E-03   -0.30240E-04   304   0.103E-01    0.646E-02
DAV:   6    -0.627422325454E+02    0.11954E-04   -0.19218E-04   272   0.879E-02
  12 F= -.62742233E+02 E0= -.62749284E+02  d E =-.705682E-03  mag=     7.1446
       N       E                     dE             d eps       ncg     rms          rms(c)
DAV:   1    -0.627411332693E+02    0.11112E-02   -0.10040E+00   448   0.262E+00    0.170E-01
DAV:   2    -0.627428481298E+02   -0.17149E-02   -0.16859E-02   440   0.511E-01    0.344E-01
DAV:   3    -0.627422822001E+02    0.56593E-03   -0.33959E-03   432   0.368E-01    0.141E-01
DAV:   4    -0.627423258730E+02   -0.43673E-04   -0.89080E-04   400   0.179E-01
  13 F= -.62742326E+02 E0= -.62749901E+02  d E =-.799010E-03  mag=     7.1488
