 vasp.6.1.2 22Jul20 (build Aug  2 2021 21:04:21) gamma-only                      
 executed on             LinuxPGI date 2021.12.17  09:46:05
 running on   16 total cores
 distrk:  each k-point on   16 cores,    1 groups
 distr:  one band on NCORE=   8 cores,    2 groups


--------------------------------------------------------------------------------------------------------


 INCAR:
 POTCAR:    PAW_PBE Pd 04Jan2005                  
 -----------------------------------------------------------------------------
|                                                                             |
|           W    W    AA    RRRRR   N    N  II  N    N   GGGG   !!!           |
|           W    W   A  A   R    R  NN   N  II  NN   N  G    G  !!!           |
|           W    W  A    A  R    R  N N  N  II  N N  N  G       !!!           |
|           W WW W  AAAAAA  RRRRR   N  N N  II  N  N N  G  GGG   !            |
|           WW  WW  A    A  R   R   N   NN  II  N   NN  G    G                |
|           W    W  A    A  R    R  N    N  II  N    N   GGGG   !!!           |
|                                                                             |
|     You use a magnetic or noncollinear calculation, but did not specify     |
|     the initial magnetic moment with the MAGMOM tag. Note that a            |
|     default of 1 will be used for all atoms. This ferromagnetic setup       |
|     may break the symmetry of the crystal, in particular it may rule        |
|     out finding an antiferromagnetic solution. Thence, we recommend         |
|     setting the initial magnetic moment manually or verifying carefully     |
|     that this magnetic setup is desired.                                    |
|                                                                             |
 -----------------------------------------------------------------------------

 POTCAR:    PAW_PBE Pd 04Jan2005                  
   SHA256 =  dd6f6f02930356371984e2b707ff5e456046761dc76b07c1eba30abd15eb3c39 Pd/POTCAR             
   COPYR  = (c) Copyright 04Jan2005 Georg Kresse                                                    
   COPYR  = This file is part of the software VASP. Any use, copying, and all other rights are regul
   COPYR  = If you do not have a valid VASP license, you may not use, copy or distribute this file. 
   VRHFIN =Pd : s1 d9                                                                               
   LEXCH  = PE                                                                                      
   EATOM  =   809.7530 eV,   59.5152 Ry                                                             
                                                                                                    
   TITEL  = PAW_PBE Pd 04Jan2005                                                                    
   LULTRA =        F    use ultrasoft PP ?                                                          
   IUNSCR =        1    unscreen: 0-lin 1-nonlin 2-no                                               
   RPACOR =    2.000    partial core radius                                                         
   POMASS =  106.420; ZVAL   =   10.000    mass and valenz                                          
   RCORE  =    2.600    outmost cutoff radius                                                       
   RWIGS  =    2.710; RWIGS  =    1.434    wigner-seitz radius (au A)                               
   ENMAX  =  250.925; ENMIN  =  188.194 eV                                                          
   ICORE  =        3    local potential                                                             
   LCOR   =        T    correct aug charges                                                         
   LPAW   =        T    paw PP                                                                      
   EAUG   =  416.230                                                                                
   DEXC   =    0.000                                                                                
   RMAX   =    2.653    core radius for proj-oper                                                   
   RAUG   =    1.300    factor for augmentation sphere                                              
   RDEP   =    2.734    radius for radial grids                                                     
   RDEPT  =    2.103    core radius for aug-charge                                                  
                                                                                                    
   Atomic configuration                                                                             
   12 entries                                                                                       
     n  l   j            E        occ.                                                              
     1  0  0.50    -24164.6631   2.0000                                                             
     2  0  0.50     -3530.9218   2.0000                                                             
     2  1  1.50     -3165.6822   6.0000                                                             
     3  0  0.50      -639.4577   2.0000                                                             
     3  1  1.50      -519.4532   6.0000                                                             
     3  2  2.50      -328.9757  10.0000                                                             
     4  0  0.50       -88.7014   2.0000                                                             
     4  1  1.50       -54.4540   6.0000                                                             
     4  2  2.50        -6.6878   9.0000                                                             
     5  0  0.50        -4.3543   1.0000                                                             
     5  1  0.50        -1.3606   0.0000                                                             
     4  3  2.50        -1.3606   0.0000                                                             
   Description                                                                                      
     l       E           TYP  RCUT    TYP  RCUT                                                     
     2     -6.6878251     23  2.400                                                                 
     2     -8.0484077     23  2.400                                                                 
     0     -4.3542939     23  2.400                                                                 
     0      4.3406793     23  2.400                                                                 
     1     -4.0817478     23  2.600                                                                 
     1     15.8380318     23  2.600                                                                 
     3     -4.0817478     23  2.400                                                                 
  local pseudopotential read in
  partial core-charges read in
  partial kinetic energy density read in
  atomic valenz-charges read in
  non local Contribution for L=            2  read in
    real space projection operators read in
  non local Contribution for L=            2  read in
    real space projection operators read in
  non local Contribution for L=            0  read in
    real space projection operators read in
  non local Contribution for L=            0  read in
    real space projection operators read in
  non local Contribution for L=            1  read in
    real space projection operators read in
  non local Contribution for L=            1  read in
    real space projection operators read in
    PAW grid and wavefunctions read in
 
   number of l-projection  operators is LMAX  =            6
   number of lm-projection operators is LMMAX =           18
 
  PAW_PBE Pd 04Jan2005                  :
 energy of atom  1       EATOM= -809.7530
 kinetic energy error for atom=    0.0091 (will be added to EATOM!!)
 
 
 POSCAR: Pd
  positions in cartesian coordinates
  No initial velocities read in
 exchange correlation table for  LEXCH =        8
   RHO(1)=    0.500       N(1)  =     2000
   RHO(2)=  100.500       N(2)  =     4000
 


--------------------------------------------------------------------------------------------------------


 ion  position               nearest neighbor table
   1  0.436  0.434  0.477-  14 2.59  15 2.60  12 2.64   4 2.66   7 2.72  11 2.74   9 2.75
   2  0.604  0.567  0.495-  13 2.62   6 2.63  12 2.63   3 2.63   5 2.64
   3  0.599  0.463  0.463-  14 2.57   2 2.63   5 2.64  12 2.66  11 2.67   9 2.71
   4  0.429  0.505  0.561-   8 2.55   6 2.66   1 2.66   7 2.67  11 2.68  12 2.71  16 2.72
   5  0.577  0.543  0.391-  13 2.60   2 2.64   3 2.64  10 2.66   9 2.66  12 2.70
   6  0.532  0.554  0.578-   8 2.56   2 2.63   4 2.66  16 2.67  12 2.68  11 2.68
   7  0.390  0.537  0.462-  15 2.57  12 2.64  16 2.65   4 2.67  10 2.68   1 2.72
   8  0.440  0.589  0.625-  16 2.54   4 2.55   6 2.56
   9  0.510  0.453  0.390-  15 2.59  14 2.61  12 2.64   5 2.66   3 2.71  10 2.73   1 2.75
  10  0.464  0.557  0.378-  15 2.59  12 2.62  13 2.65   5 2.66   7 2.68   9 2.73
  11  0.527  0.446  0.548-  14 2.59  12 2.61   3 2.67   4 2.68   6 2.68   1 2.74
  12  0.503  0.522  0.475-  11 2.61  10 2.62   2 2.63   1 2.64   7 2.64  13 2.64   9 2.64   3 2.66
                            16 2.66   6 2.68   5 2.70   4 2.71
  13  0.526  0.625  0.441-   5 2.60  16 2.62   2 2.62  12 2.64  10 2.65
  14  0.531  0.378  0.465-   3 2.57  11 2.59   1 2.59   9 2.61
  15  0.400  0.469  0.380-   7 2.57  10 2.59   9 2.59   1 2.60
  16  0.451  0.609  0.521-   8 2.54  13 2.62   7 2.65  12 2.66   6 2.67   4 2.72
 

IMPORTANT INFORMATION: All symmetrisations will be switched off!
NOSYMM: (Re-)initialisation of all symmetry stuff for point group C_1.


----------------------------------------------------------------------------------------

                                     Primitive cell                                     

  volume of cell :   13376.5949

  direct lattice vectors                    reciprocal lattice vectors
    23.067253360  0.000000000  0.000000000     0.043351499  0.000000000  0.000000000
     0.000000000 24.100597188  0.000000000     0.000000000  0.041492748  0.000000000
     0.000000000  0.000000000 24.061454973     0.000000000  0.000000000  0.041560247

  length of vectors
    23.067253360 24.100597188 24.061454973     0.043351499  0.041492748  0.041560247

  position of ions in fractional coordinates (direct lattice)
     0.435590940  0.433839761  0.476637268
     0.604366208  0.567176645  0.494643897
     0.598868860  0.462799198  0.462996933
     0.429486423  0.505430854  0.560844594
     0.577413461  0.542811847  0.390907268
     0.531803806  0.553658753  0.577585897
     0.390170731  0.537124550  0.461586320
     0.439621695  0.589266418  0.624742378
     0.510324696  0.453040162  0.389689284
     0.463902358  0.556633687  0.378028327
     0.526893422  0.446353781  0.548401294
     0.502738235  0.522351740  0.474599547
     0.525733955  0.624541552  0.441379710
     0.530877447  0.378153828  0.465335022
     0.399682573  0.468559665  0.380159520
     0.450767620  0.609103654  0.521426055

  ion indices of the primitive-cell ions
   primitive index   ion index
                 1           1
                 2           2
                 3           3
                 4           4
                 5           5
                 6           6
                 7           7
                 8           8
                 9           9
                10          10
                11          11
                12          12
                13          13
                14          14
                15          15
                16          16

----------------------------------------------------------------------------------------

 
 
 KPOINTS: KPOINTS created by Atomic Simulation Env

Automatic generation of k-mesh.
Space group operators:
 irot       det(A)        alpha          n_x          n_y          n_z        tau_x        tau_y        tau_z
    1     1.000000     0.000001     1.000000     0.000000     0.000000     0.000000     0.000000     0.000000
 
 Subroutine IBZKPT returns following result:
 ===========================================
 
 Found      1 irreducible k-points:
 
 Following reciprocal coordinates:
            Coordinates               Weight
  0.000000  0.000000  0.000000      1.000000
 
 Following cartesian coordinates:
            Coordinates               Weight
  0.000000  0.000000  0.000000      1.000000
 


--------------------------------------------------------------------------------------------------------




 Dimension of arrays:
   k-points           NKPTS =      1   k-points in BZ     NKDIM =      1   number of bands    NBANDS=    104
   number of dos      NEDOS =    301   number of ions     NIONS =     16
   non local maximal  LDIM  =      6   non local SUM 2l+1 LMDIM =     18
   total plane-waves  NPLWV = ******
   max r-space proj   IRMAX =      1   max aug-charges    IRDMAX=   6465
   dimension x,y,z NGX =   120 NGY =  120 NGZ =  120
   dimension x,y,z NGXF=   240 NGYF=  240 NGZF=  240
   support grid    NGXF=   240 NGYF=  240 NGZF=  240
   ions per type =              16
   NGX,Y,Z   is equivalent  to a cutoff of   8.65,  8.28,  8.29 a.u.
   NGXF,Y,Z  is equivalent  to a cutoff of  17.30, 16.56, 16.58 a.u.

 SYSTEM =  unknown system                          
 POSCAR =  Pd                                      

 Startparameter for this run:
   NWRITE =      2    write-flag & timer
   PREC   = normal    normal or accurate (medium, high low for compatibility)
   ISTART =      0    job   : 0-new  1-cont  2-samecut
   ICHARG =      2    charge: 1-file 2-atom 10-const
   ISPIN  =      2    spin polarized calculation?
   LNONCOLLINEAR =      F non collinear calculations
   LSORBIT =      F    spin-orbit coupling
   INIWAV =      1    electr: 0-lowe 1-rand  2-diag
   LASPH  =      F    aspherical Exc in radial PAW
   METAGGA=      F    non-selfconsistent MetaGGA calc.

 Electronic Relaxation 1
   ENCUT  =  400.0 eV  29.40 Ry    5.42 a.u.  37.62 39.30 39.24*2*pi/ulx,y,z
   ENINI  =  400.0     initial cutoff
   ENAUG  =  416.2 eV  augmentation charge cutoff
   NELM   =     60;   NELMIN=  2; NELMDL=  0     # of ELM steps 
   EDIFF  = 0.1E-03   stopping-criterion for ELM
   LREAL  =      F    real-space projection
   NLSPLINE    = F    spline interpolate recip. space projectors
   LCOMPAT=      F    compatible to vasp.4.4
   GGA_COMPAT  = T    GGA compatible to vasp.4.4-vasp.4.6
   LMAXPAW     = -100 max onsite density
   LMAXMIX     =    2 max onsite mixed and CHGCAR
   VOSKOWN=      0    Vosko Wilk Nusair interpolation
   ROPT   =    0.00000
 Ionic relaxation
   EDIFFG = 0.1E-02   stopping-criterion for IOM
   NSW    =   1000    number of steps for IOM
   NBLOCK =      1;   KBLOCK =   1000    inner block; outer block 
   IBRION =      2    ionic relax: 0-MD 1-quasi-New 2-CG
   NFREE  =      1    steps in history (QN), initial steepest desc. (CG)
   ISIF   =      0    stress and relaxation
   IWAVPR =     11    prediction:  0-non 1-charg 2-wave 3-comb
   ISYM   =      0    0-nonsym 1-usesym 2-fastsym
   LCORR  =      T    Harris-Foulkes like correction to forces

   POTIM  = 0.5000    time-step for ionic-motion
   TEIN   =    0.0    initial temperature
   TEBEG  =    0.0;   TEEND  =   0.0 temperature during run
   SMASS  =  -3.00    Nose mass-parameter (am)
   estimated Nose-frequenzy (Omega)   =  0.10E-29 period in steps = 0.13E+47 mass=  -0.122E-25a.u.
   SCALEE = 1.0000    scale energy and forces
   NPACO  =    256;   APACO  = 16.0  distance and # of slots for P.C.
   PSTRESS=    0.0 pullay stress

  Mass of Ions in am
   POMASS = 106.42
  Ionic Valenz
   ZVAL   =  10.00
  Atomic Wigner-Seitz radii
   RWIGS  =  -1.00
  virtual crystal weights 
   VCA    =   1.00
   NELECT =     160.0000    total number of electrons
   NUPDOWN=      -1.0000    fix difference up-down

 DOS related values:
   EMIN   =  10.00;   EMAX   =-10.00  energy-range for DOS
   EFERMI =   0.00
   ISMEAR =     1;   SIGMA  =   0.20  broadening in eV -4-tet -1-fermi 0-gaus

 Electronic relaxation 2 (details)
   IALGO  =     38    algorithm
   LDIAG  =      T    sub-space diagonalisation (order eigenvalues)
   LSUBROT=      F    optimize rotation matrix (better conditioning)
   TURBO    =      0    0=normal 1=particle mesh
   IRESTART =      0    0=no restart 2=restart with 2 vectors
   NREBOOT  =      0    no. of reboots
   NMIN     =      0    reboot dimension
   EREF     =   0.00    reference energy to select bands
   IMIX   =      4    mixing-type and parameters
     AMIX     =   0.40;   BMIX     =  1.00
     AMIX_MAG =   1.60;   BMIX_MAG =  1.00
     AMIN     =   0.10
     WC   =   100.;   INIMIX=   1;  MIXPRE=   1;  MAXMIX= -45

 Intra band minimization:
   WEIMIN = 0.0010     energy-eigenvalue tresh-hold
   EBREAK =  0.24E-06  absolut break condition
   DEPER  =   0.30     relativ break condition  

   TIME   =   0.40     timestep for ELM

  volume/ion in A,a.u.               =     836.04      5641.86
  Fermi-wavevector in a.u.,A,eV,Ry     =   0.374398  0.707509  1.907176  0.140174
  Thomas-Fermi vector in A             =   1.304729
 
 Write flags
   LWAVE        =      F    write WAVECAR
   LDOWNSAMPLE  =      F    k-point downsampling of WAVECAR
   LCHARG       =      F    write CHGCAR
   LVTOT        =      F    write LOCPOT, total local potential
   LVHAR        =      F    write LOCPOT, Hartree potential only
   LELF         =      F    write electronic localiz. function (ELF)
   LORBIT       =      0    0 simple, 1 ext, 2 COOP (PROOUT), +10 PAW based schemes


 Dipole corrections
   LMONO  =      F    monopole corrections only (constant potential shift)
   LDIPOL =      F    correct potential (dipole corrections)
   IDIPOL =      0    1-x, 2-y, 3-z, 4-all directions 
   EPSILON=  1.0000000 bulk dielectric constant

 Exchange correlation treatment:
   GGA     =    PE    GGA type
   LEXCH   =     8    internal setting for exchange type
   VOSKOWN=      0    Vosko Wilk Nusair interpolation
   LHFCALC =     F    Hartree Fock is set to
   LHFONE  =     F    Hartree Fock one center treatment
   AEXX    =    0.0000 exact exchange contribution

 Linear response parameters
   LEPSILON=     F    determine dielectric tensor
   LRPA    =     F    only Hartree local field effects (RPA)
   LNABLA  =     F    use nabla operator in PAW spheres
   LVEL    =     F    velocity operator in full k-point grid
   LINTERFAST=   F  fast interpolation
   KINTER  =     0    interpolate to denser k-point grid
   CSHIFT  =0.1000    complex shift for real part using Kramers Kronig
   OMEGAMAX=  -1.0    maximum frequency
   DEG_THRESHOLD= 0.2000000E-02 threshold for treating states as degnerate
   RTIME   =   -0.100 relaxation time in fs
  (WPLASMAI=    0.000 imaginary part of plasma frequency in eV, 0.658/RTIME)
   DFIELD  = 0.0000000 0.0000000 0.0000000 field for delta impulse in time
 
 Orbital magnetization related:
   ORBITALMAG=     F  switch on orbital magnetization
   LCHIMAG   =     F  perturbation theory with respect to B field
   DQ        =  0.001000  dq finite difference perturbation B field
   LLRAUG    =     F  two centre corrections for induced B field



--------------------------------------------------------------------------------------------------------


 conjugate gradient relaxation of ions
 charge density and potential will be updated during run
 spin polarized calculation
 Variant of blocked Davidson
 Davidson routine will perform the subspace rotation
 perform sub-space diagonalisation
    after iterative eigenvector-optimisation
 modified Broyden-mixing scheme, WC =      100.0
 initial mixing is a Kerker type mixing with AMIX =  0.4000 and BMIX =      1.0000
 Hartree-type preconditioning will be used
 using additional bands            24
 reciprocal scheme for non local part
 use partial core corrections
 calculate Harris-corrections to forces 
   (improved forces if not selfconsistent)
 use gradient corrections 
 use of overlap-Matrix (Vanderbilt PP)
 Methfessel and Paxton  Order N= 1 SIGMA  =   0.20


--------------------------------------------------------------------------------------------------------


  energy-cutoff  :      400.00
  volume of cell :    13376.59
      direct lattice vectors                 reciprocal lattice vectors
    23.067253360  0.000000000  0.000000000     0.043351499  0.000000000  0.000000000
     0.000000000 24.100597188  0.000000000     0.000000000  0.041492748  0.000000000
     0.000000000  0.000000000 24.061454973     0.000000000  0.000000000  0.041560247

  length of vectors
    23.067253360 24.100597188 24.061454973     0.043351499  0.041492748  0.041560247


 
 k-points in units of 2pi/SCALE and weight: KPOINTS created by Atomic Simulation Env
   0.00000000  0.00000000  0.00000000       1.000
 
 k-points in reciprocal lattice and weights: KPOINTS created by Atomic Simulation Env
   0.00000000  0.00000000  0.00000000       1.000
 
 position of ions in fractional coordinates (direct lattice) 
   0.43559094  0.43383976  0.47663727
   0.60436621  0.56717665  0.49464390
   0.59886886  0.46279920  0.46299693
   0.42948642  0.50543085  0.56084459
   0.57741346  0.54281185  0.39090727
   0.53180381  0.55365875  0.57758590
   0.39017073  0.53712455  0.46158632
   0.43962170  0.58926642  0.62474238
   0.51032470  0.45304016  0.38968928
   0.46390236  0.55663369  0.37802833
   0.52689342  0.44635378  0.54840129
   0.50273823  0.52235174  0.47459955
   0.52573395  0.62454155  0.44137971
   0.53087745  0.37815383  0.46533502
   0.39968257  0.46855967  0.38015952
   0.45076762  0.60910365  0.52142606
 
 position of ions in cartesian coordinates  (Angst):
  10.04788657 10.45579733 11.46858617
  13.94106845 13.66929586 11.90185186
  13.81425973 11.15373704 11.14037985
   9.90707214 12.18118541 13.49473695
  13.31934261 13.08208967  9.40579763
  12.26725312 13.34350658 13.89755706
   9.00016712 12.94502241 11.10643846
  10.14086502 14.20167258 15.03221060
  11.77178905 10.91853845  9.37649116
  10.70095322 13.41520427  9.09591158
  12.15398406 10.75739268 13.19533304
  11.59679023 12.58898887 11.41955563
  12.12723834 15.05182438 10.62023801
  12.24588457  9.11373307 11.19663768
   9.21957917 11.29256775  9.14719118
  10.39797089 14.67976180 12.54626955
 


--------------------------------------------------------------------------------------------------------


 use parallel FFT for orbitals z direction half grid
 k-point   1 :   0.0000 0.0000 0.0000  plane waves:  121556

 maximum and minimum number of plane-waves per node :     15204    15187

 maximum number of plane-waves:    121556
 maximum index in each direction: 
   IXMAX=   37   IYMAX=   39   IZMAX=   39
   IXMIN=  -37   IYMIN=  -39   IZMIN=    0


 parallel 3D FFT for wavefunctions:
    minimum data exchange during FFTs selected (reduces bandwidth)
 parallel 3D FFT for charge:
    minimum data exchange during FFTs selected (reduces bandwidth)


 total amount of memory used by VASP MPI-rank0   175235. kBytes
=======================================================================

   base      :      30000. kBytes
   nonl-proj :       6075. kBytes
   fftplans  :      33879. kBytes
   grid      :      79948. kBytes
   one-center:         31. kBytes
   wavefun   :      25302. kBytes
 
     INWAV:  cpu time    0.0000: real time    0.0000
 Broyden mixing: mesh for mixing (old mesh)
   NGX = 75   NGY = 79   NGZ = 79
  (NGX  =240   NGY  =240   NGZ  =240)
  gives a total of 468075 points

 initial charge density was supplied:
 charge density of overlapping atoms calculated
 number of electron     160.0000000 magnetization      16.0000000
 keeping initial charge density in first step


--------------------------------------------------------------------------------------------------------


 Maximum index for augmentation-charges           410 (set IRDMAX)


--------------------------------------------------------------------------------------------------------


 First call to EWALD:  gamma=   0.075
 Maximum number of real-space cells 3x 3x 3
 Maximum number of reciprocal cells 3x 3x 3

    FEWALD:  cpu time    0.0009: real time    0.0009


--------------------------------------- Iteration      1(   1)  ---------------------------------------


    POTLOK:  cpu time    2.6458: real time    2.6567
    SETDIJ:  cpu time    0.0246: real time    0.0247
     EDDAV:  cpu time   16.4831: real time   16.5652
       DOS:  cpu time    0.0015: real time    0.0015
    --------------------------------------------
      LOOP:  cpu time   19.1550: real time   19.2481

 eigenvalue-minimisations  :   416
 total energy-change (2. order) : 0.1440630E+04  (-0.2779721E+04)
 number of electron     160.0000000 magnetization      16.0000000
 augmentation part      160.0000000 magnetization      16.0000000

 Free energy of the ion-electron system (eV)
  ---------------------------------------------------
  alpha Z        PSCENC =        12.47317253
  Ewald energy   TEWEN  =     26832.40059623
  -Hartree energ DENC   =    -39127.78043131
  -exchange      EXHF   =         0.00000000
  -V(xc)+E(xc)   XCENC  =      -478.88915906
  PAW double counting   =     12906.36685261   -11910.91650437
  entropy T*S    EENTRO =        -0.02374980
  eigenvalues    EBANDS =       251.09732547
  atomic energy  EATOM  =     12955.90228127
  Solvation  Ediel_sol  =         0.00000000
  ---------------------------------------------------
  free energy    TOTEN  =      1440.63038357 eV

  energy without entropy =     1440.65413338  energy(sigma->0) =     1440.63830017


--------------------------------------------------------------------------------------------------------




--------------------------------------- Iteration      1(   2)  ---------------------------------------


     EDDAV:  cpu time   33.1890: real time   33.3078
       DOS:  cpu time    0.0034: real time    0.0034
    --------------------------------------------
      LOOP:  cpu time   33.1924: real time   33.3113

 eigenvalue-minimisations  :   792
 total energy-change (2. order) :-0.7272739E+03  (-0.6544516E+03)
 number of electron     160.0000000 magnetization      16.0000000
 augmentation part      160.0000000 magnetization      16.0000000

 Free energy of the ion-electron system (eV)
  ---------------------------------------------------
  alpha Z        PSCENC =        12.47317253
  Ewald energy   TEWEN  =     26832.40059623
  -Hartree energ DENC   =    -39127.78043131
  -exchange      EXHF   =         0.00000000
  -V(xc)+E(xc)   XCENC  =      -478.88915906
  PAW double counting   =     12906.36685261   -11910.91650437
  entropy T*S    EENTRO =        -0.01172610
  eigenvalues    EBANDS =      -476.18863129
  atomic energy  EATOM  =     12955.90228127
  Solvation  Ediel_sol  =         0.00000000
  ---------------------------------------------------
  free energy    TOTEN  =       713.35645052 eV

  energy without entropy =      713.36817662  energy(sigma->0) =      713.36035922


--------------------------------------------------------------------------------------------------------




--------------------------------------- Iteration      1(   3)  ---------------------------------------


     EDDAV:  cpu time   26.0053: real time   26.1320
       DOS:  cpu time    0.0052: real time    0.0052
    --------------------------------------------
      LOOP:  cpu time   26.0105: real time   26.1371

 eigenvalue-minimisations  :   688
 total energy-change (2. order) :-0.5952757E+03  (-0.5542596E+03)
 number of electron     160.0000000 magnetization      16.0000000
 augmentation part      160.0000000 magnetization      16.0000000

 Free energy of the ion-electron system (eV)
  ---------------------------------------------------
  alpha Z        PSCENC =        12.47317253
  Ewald energy   TEWEN  =     26832.40059623
  -Hartree energ DENC   =    -39127.78043131
  -exchange      EXHF   =         0.00000000
  -V(xc)+E(xc)   XCENC  =      -478.88915906
  PAW double counting   =     12906.36685261   -11910.91650437
  entropy T*S    EENTRO =        -0.07791612
  eigenvalues    EBANDS =     -1071.39810704
  atomic energy  EATOM  =     12955.90228127
  Solvation  Ediel_sol  =         0.00000000
  ---------------------------------------------------
  free energy    TOTEN  =       118.08078475 eV

  energy without entropy =      118.15870087  energy(sigma->0) =      118.10675679


--------------------------------------------------------------------------------------------------------




--------------------------------------- Iteration      1(   4)  ---------------------------------------


     EDDAV:  cpu time   32.0753: real time   32.1735
       DOS:  cpu time    0.0225: real time    0.0225
    --------------------------------------------
      LOOP:  cpu time   32.0978: real time   32.1959

 eigenvalue-minimisations  :   560
 total energy-change (2. order) :-0.1609049E+03  (-0.1441758E+03)
 number of electron     160.0000000 magnetization      16.0000000
 augmentation part      160.0000000 magnetization      16.0000000

 Free energy of the ion-electron system (eV)
  ---------------------------------------------------
  alpha Z        PSCENC =        12.47317253
  Ewald energy   TEWEN  =     26832.40059623
  -Hartree energ DENC   =    -39127.78043131
  -exchange      EXHF   =         0.00000000
  -V(xc)+E(xc)   XCENC  =      -478.88915906
  PAW double counting   =     12906.36685261   -11910.91650437
  entropy T*S    EENTRO =        -0.04391248
  eigenvalues    EBANDS =     -1232.33700515
  atomic energy  EATOM  =     12955.90228127
  Solvation  Ediel_sol  =         0.00000000
  ---------------------------------------------------
  free energy    TOTEN  =       -42.82410972 eV

  energy without entropy =      -42.78019724  energy(sigma->0) =      -42.80947223


--------------------------------------------------------------------------------------------------------




--------------------------------------- Iteration      1(   5)  ---------------------------------------


     EDDAV:  cpu time   24.0779: real time   25.3249
       DOS:  cpu time    0.0009: real time    0.0009
    CHARGE:  cpu time    1.1164: real time    1.1172
    MIXING:  cpu time    0.0625: real time    0.0625
    --------------------------------------------
      LOOP:  cpu time   25.2577: real time   26.5057

 eigenvalue-minimisations  :   552
 total energy-change (2. order) :-0.2227697E+02  (-0.1816852E+02)
 number of electron     160.0000079 magnetization      15.1124578
 augmentation part       67.6575554 magnetization      11.9396539

 Broyden mixing:
  rms(total) = 0.27290E+01    rms(broyden)= 0.27288E+01
  rms(prec ) = 0.27793E+01
  weight for this iteration     100.00

 Free energy of the ion-electron system (eV)
  ---------------------------------------------------
  alpha Z        PSCENC =        12.47317253
  Ewald energy   TEWEN  =     26832.40059623
  -Hartree energ DENC   =    -39127.78043131
  -exchange      EXHF   =         0.00000000
  -V(xc)+E(xc)   XCENC  =      -478.88915906
  PAW double counting   =     12906.36685261   -11910.91650437
  entropy T*S    EENTRO =        -0.06696073
  eigenvalues    EBANDS =     -1254.59092526
  atomic energy  EATOM  =     12955.90228127
  Solvation  Ediel_sol  =         0.00000000
  ---------------------------------------------------
  free energy    TOTEN  =       -65.10107808 eV

  energy without entropy =      -65.03411735  energy(sigma->0) =      -65.07875784


--------------------------------------------------------------------------------------------------------




--------------------------------------- Iteration      1(   6)  ---------------------------------------


    POTLOK:  cpu time    2.6590: real time    2.6672
    SETDIJ:  cpu time    0.0339: real time    0.0339
     EDDAV:  cpu time   16.6362: real time   16.7439
       DOS:  cpu time    0.0096: real time    0.0097
    CHARGE:  cpu time    1.1233: real time    1.1358
    MIXING:  cpu time    0.0578: real time    0.0579
    --------------------------------------------
      LOOP:  cpu time   20.5199: real time   20.6484

 eigenvalue-minimisations  :   424
 total energy-change (2. order) : 0.7470379E+01  (-0.3426922E+01)
 number of electron     160.0000077 magnetization      14.3800081
 augmentation part       68.5670136 magnetization       9.9610452

 Broyden mixing:
  rms(total) = 0.16274E+01    rms(broyden)= 0.16273E+01
  rms(prec ) = 0.17069E+01
  weight for this iteration     100.00

 eigenvalues of (default mixing * dielectric matrix)
  average eigenvalue GAMMA=   0.7942
  0.7942

 Free energy of the ion-electron system (eV)
  ---------------------------------------------------
  alpha Z        PSCENC =        12.47317253
  Ewald energy   TEWEN  =     26832.40059623
  -Hartree energ DENC   =    -39192.70677196
  -exchange      EXHF   =         0.00000000
  -V(xc)+E(xc)   XCENC  =      -475.99068030
  PAW double counting   =     13867.56102866   -12883.15942311
  entropy T*S    EENTRO =        -0.00424212
  eigenvalues    EBANDS =     -1174.10666049
  atomic energy  EATOM  =     12955.90228127
  Solvation  Ediel_sol  =         0.00000000
  ---------------------------------------------------
  free energy    TOTEN  =       -57.63069930 eV

  energy without entropy =      -57.62645718  energy(sigma->0) =      -57.62928526


--------------------------------------------------------------------------------------------------------




--------------------------------------- Iteration      1(   7)  ---------------------------------------


    POTLOK:  cpu time    2.6436: real time    2.6798
    SETDIJ:  cpu time    0.0295: real time    0.0304
     EDDAV:  cpu time   19.7340: real time   20.7609
       DOS:  cpu time    0.0107: real time    0.0108
    CHARGE:  cpu time    1.1803: real time    1.1838
    MIXING:  cpu time    0.0569: real time    0.0618
    --------------------------------------------
      LOOP:  cpu time   23.6550: real time   24.7275

 eigenvalue-minimisations  :   456
 total energy-change (2. order) : 0.1453969E+01  (-0.2780942E+01)
 number of electron     160.0000078 magnetization      13.7075748
 augmentation part       67.9318373 magnetization      10.1782981

 Broyden mixing:
  rms(total) = 0.23877E+01    rms(broyden)= 0.23875E+01
  rms(prec ) = 0.26414E+01
  weight for this iteration     100.00

 eigenvalues of (default mixing * dielectric matrix)
  average eigenvalue GAMMA=   0.7875
  1.2309  0.3441

 Free energy of the ion-electron system (eV)
  ---------------------------------------------------
  alpha Z        PSCENC =        12.47317253
  Ewald energy   TEWEN  =     26832.40059623
  -Hartree energ DENC   =    -39258.79368641
  -exchange      EXHF   =         0.00000000
  -V(xc)+E(xc)   XCENC  =      -470.13945026
  PAW double counting   =     14399.43257201   -13419.34466268
  entropy T*S    EENTRO =         0.05350674
  eigenvalues    EBANDS =     -1108.16105961
  atomic energy  EATOM  =     12955.90228127
  Solvation  Ediel_sol  =         0.00000000
  ---------------------------------------------------
  free energy    TOTEN  =       -56.17673019 eV

  energy without entropy =      -56.23023692  energy(sigma->0) =      -56.19456577


--------------------------------------------------------------------------------------------------------




--------------------------------------- Iteration      1(   8)  ---------------------------------------


    POTLOK:  cpu time    4.5133: real time    4.5304
    SETDIJ:  cpu time    0.3333: real time    0.3335
     EDDAV:  cpu time   20.4326: real time   21.2859
       DOS:  cpu time    0.0086: real time    0.0086
    CHARGE:  cpu time    1.3815: real time    1.3838
    MIXING:  cpu time    0.0615: real time    0.0656
    --------------------------------------------
      LOOP:  cpu time   26.7308: real time   27.6079

 eigenvalue-minimisations  :   456
 total energy-change (2. order) : 0.4805071E+01  (-0.2865457E+01)
 number of electron     160.0000078 magnetization      13.3719878
 augmentation part       67.9961640 magnetization       9.6769797

 Broyden mixing:
  rms(total) = 0.17245E+01    rms(broyden)= 0.17243E+01
  rms(prec ) = 0.19292E+01
  weight for this iteration     100.00

 eigenvalues of (default mixing * dielectric matrix)
  average eigenvalue GAMMA=   0.7105
  1.4804  0.3733  0.2779

 Free energy of the ion-electron system (eV)
  ---------------------------------------------------
  alpha Z        PSCENC =        12.47317253
  Ewald energy   TEWEN  =     26832.40059623
  -Hartree energ DENC   =    -39292.41648538
  -exchange      EXHF   =         0.00000000
  -V(xc)+E(xc)   XCENC  =      -467.83794396
  PAW double counting   =     14749.49640787   -13772.93864131
  entropy T*S    EENTRO =         0.03970511
  eigenvalues    EBANDS =     -1068.49075177
  atomic energy  EATOM  =     12955.90228127
  Solvation  Ediel_sol  =         0.00000000
  ---------------------------------------------------
  free energy    TOTEN  =       -51.37165941 eV

  energy without entropy =      -51.41136452  energy(sigma->0) =      -51.38489445


--------------------------------------------------------------------------------------------------------




--------------------------------------- Iteration      1(   9)  ---------------------------------------


    POTLOK:  cpu time    2.6360: real time    2.6604
    SETDIJ:  cpu time    0.0243: real time    0.0244
     EDDAV:  cpu time   18.9300: real time   19.0024
       DOS:  cpu time    0.0081: real time    0.0081
    CHARGE:  cpu time    1.0862: real time    1.0922
    MIXING:  cpu time    0.0667: real time    0.0669
    --------------------------------------------
      LOOP:  cpu time   22.7513: real time   22.8545

 eigenvalue-minimisations  :   464
 total energy-change (2. order) : 0.2631622E+01  (-0.8554981E+00)
 number of electron     160.0000081 magnetization      13.1208903
 augmentation part       68.2940740 magnetization       9.2566260

 Broyden mixing:
  rms(total) = 0.11417E+01    rms(broyden)= 0.11415E+01
  rms(prec ) = 0.12627E+01
  weight for this iteration     100.00

 eigenvalues of (default mixing * dielectric matrix)
  average eigenvalue GAMMA=   0.6344
  1.6164  0.3475  0.3475  0.2264

 Free energy of the ion-electron system (eV)
  ---------------------------------------------------
  alpha Z        PSCENC =        12.47317253
  Ewald energy   TEWEN  =     26832.40059623
  -Hartree energ DENC   =    -39303.61548434
  -exchange      EXHF   =         0.00000000
  -V(xc)+E(xc)   XCENC  =      -467.62558321
  PAW double counting   =     14866.39821162   -13891.09080969
  entropy T*S    EENTRO =        -0.00863498
  eigenvalues    EBANDS =     -1053.57378648
  atomic energy  EATOM  =     12955.90228127
  Solvation  Ediel_sol  =         0.00000000
  ---------------------------------------------------
  free energy    TOTEN  =       -48.74003707 eV

  energy without entropy =      -48.73140209  energy(sigma->0) =      -48.73715874


--------------------------------------------------------------------------------------------------------




--------------------------------------- Iteration      1(  10)  ---------------------------------------


    POTLOK:  cpu time    3.1220: real time    3.1341
    SETDIJ:  cpu time    0.0246: real time    0.0247
     EDDAV:  cpu time   18.2847: real time   18.3670
       DOS:  cpu time    0.0302: real time    0.0302
    CHARGE:  cpu time    2.2803: real time    2.2905
    MIXING:  cpu time    0.0747: real time    0.0748
    --------------------------------------------
      LOOP:  cpu time   23.8164: real time   23.9213

 eigenvalue-minimisations  :   472
 total energy-change (2. order) : 0.6730584E+00  (-0.4263153E+00)
 number of electron     160.0000081 magnetization      12.7807394
 augmentation part       68.2812469 magnetization       8.6641780

 Broyden mixing:
  rms(total) = 0.76389E+00    rms(broyden)= 0.76366E+00
  rms(prec ) = 0.85388E+00
  weight for this iteration     100.00

 eigenvalues of (default mixing * dielectric matrix)
  average eigenvalue GAMMA=   0.6261
  1.7062  0.4908  0.4908  0.2729  0.1697

 Free energy of the ion-electron system (eV)
  ---------------------------------------------------
  alpha Z        PSCENC =        12.47317253
  Ewald energy   TEWEN  =     26832.40059623
  -Hartree energ DENC   =    -39312.75407348
  -exchange      EXHF   =         0.00000000
  -V(xc)+E(xc)   XCENC  =      -467.61180200
  PAW double counting   =     14926.05684429   -13951.13194025
  entropy T*S    EENTRO =        -0.01508927
  eigenvalues    EBANDS =     -1043.38696797
  atomic energy  EATOM  =     12955.90228127
  Solvation  Ediel_sol  =         0.00000000
  ---------------------------------------------------
  free energy    TOTEN  =       -48.06697865 eV

  energy without entropy =      -48.05188939  energy(sigma->0) =      -48.06194890


--------------------------------------------------------------------------------------------------------




--------------------------------------- Iteration      1(  11)  ---------------------------------------


    POTLOK:  cpu time    2.6807: real time    2.7005
    SETDIJ:  cpu time    0.0305: real time    0.0306
     EDDAV:  cpu time   18.5437: real time   18.6497
       DOS:  cpu time    0.0164: real time    0.0164
    CHARGE:  cpu time    1.1644: real time    1.1662
    MIXING:  cpu time    0.0797: real time    0.0799
    --------------------------------------------
      LOOP:  cpu time   22.5155: real time   22.6433

 eigenvalue-minimisations  :   448
 total energy-change (2. order) :-0.1145564E+01  (-0.1962416E+00)
 number of electron     160.0000080 magnetization      12.5520532
 augmentation part       68.2204715 magnetization       8.5096954

 Broyden mixing:
  rms(total) = 0.57378E+00    rms(broyden)= 0.57366E+00
  rms(prec ) = 0.61614E+00
  weight for this iteration     100.00

 eigenvalues of (default mixing * dielectric matrix)
  average eigenvalue GAMMA=   0.5857
  1.7515  0.5241  0.5241  0.2751  0.2751  0.1645

 Free energy of the ion-electron system (eV)
  ---------------------------------------------------
  alpha Z        PSCENC =        12.47317253
  Ewald energy   TEWEN  =     26832.40059623
  -Hartree energ DENC   =    -39326.73043572
  -exchange      EXHF   =         0.00000000
  -V(xc)+E(xc)   XCENC  =      -468.44866926
  PAW double counting   =     14979.01771136   -14004.28492088
  entropy T*S    EENTRO =        -0.03439237
  eigenvalues    EBANDS =     -1029.50788601
  atomic energy  EATOM  =     12955.90228127
  Solvation  Ediel_sol  =         0.00000000
  ---------------------------------------------------
  free energy    TOTEN  =       -49.21254285 eV

  energy without entropy =      -49.17815048  energy(sigma->0) =      -49.20107873


--------------------------------------------------------------------------------------------------------




--------------------------------------- Iteration      1(  12)  ---------------------------------------


    POTLOK:  cpu time    3.3646: real time    3.3696
    SETDIJ:  cpu time    0.2592: real time    0.2593
     EDDAV:  cpu time   18.4847: real time   18.5138
       DOS:  cpu time    0.0266: real time    0.0266
    CHARGE:  cpu time    1.2255: real time    1.2270
    MIXING:  cpu time    0.0911: real time    0.0912
    --------------------------------------------
      LOOP:  cpu time   23.4516: real time   23.4875

 eigenvalue-minimisations  :   440
 total energy-change (2. order) :-0.5315130E+00  (-0.8213587E-01)
 number of electron     160.0000079 magnetization      12.1585816
 augmentation part       68.2145784 magnetization       8.0411751

 Broyden mixing:
  rms(total) = 0.35823E+00    rms(broyden)= 0.35815E+00
  rms(prec ) = 0.38650E+00
  weight for this iteration     100.00

 eigenvalues of (default mixing * dielectric matrix)
  average eigenvalue GAMMA=   0.6019
  1.7680  0.6697  0.6697  0.3658  0.3658  0.2065  0.1680

 Free energy of the ion-electron system (eV)
  ---------------------------------------------------
  alpha Z        PSCENC =        12.47317253
  Ewald energy   TEWEN  =     26832.40059623
  -Hartree energ DENC   =    -39332.56561121
  -exchange      EXHF   =         0.00000000
  -V(xc)+E(xc)   XCENC  =      -468.89270923
  PAW double counting   =     15003.19502181   -14028.61700666
  entropy T*S    EENTRO =        -0.02333647
  eigenvalues    EBANDS =     -1023.61646418
  atomic energy  EATOM  =     12955.90228127
  Solvation  Ediel_sol  =         0.00000000
  ---------------------------------------------------
  free energy    TOTEN  =       -49.74405590 eV

  energy without entropy =      -49.72071944  energy(sigma->0) =      -49.73627708


--------------------------------------------------------------------------------------------------------




--------------------------------------- Iteration      1(  13)  ---------------------------------------


    POTLOK:  cpu time    2.6542: real time    2.6765
    SETDIJ:  cpu time    0.0295: real time    0.0295
     EDDAV:  cpu time   19.9452: real time   20.7977
       DOS:  cpu time    0.0164: real time    0.0164
    CHARGE:  cpu time    1.1654: real time    1.1797
    MIXING:  cpu time    0.0982: real time    0.0983
    --------------------------------------------
      LOOP:  cpu time   23.9089: real time   24.7982

 eigenvalue-minimisations  :   440
 total energy-change (2. order) :-0.1763622E+01  (-0.6461158E-01)
 number of electron     160.0000082 magnetization      11.6767395
 augmentation part       68.1550263 magnetization       7.7442013

 Broyden mixing:
  rms(total) = 0.33856E+00    rms(broyden)= 0.33850E+00
  rms(prec ) = 0.37153E+00
  weight for this iteration     100.00

 eigenvalues of (default mixing * dielectric matrix)
  average eigenvalue GAMMA=   0.6160
  1.8234  0.8323  0.8323  0.4538  0.2993  0.2993  0.2221  0.1654

 Free energy of the ion-electron system (eV)
  ---------------------------------------------------
  alpha Z        PSCENC =        12.47317253
  Ewald energy   TEWEN  =     26832.40059623
  -Hartree energ DENC   =    -39342.40423883
  -exchange      EXHF   =         0.00000000
  -V(xc)+E(xc)   XCENC  =      -470.14055421
  PAW double counting   =     15026.23953299   -14051.89611781
  entropy T*S    EENTRO =        -0.03714529
  eigenvalues    EBANDS =     -1014.04520438
  atomic energy  EATOM  =     12955.90228127
  Solvation  Ediel_sol  =         0.00000000
  ---------------------------------------------------
  free energy    TOTEN  =       -51.50767750 eV

  energy without entropy =      -51.47053221  energy(sigma->0) =      -51.49529573


--------------------------------------------------------------------------------------------------------




--------------------------------------- Iteration      1(  14)  ---------------------------------------


    POTLOK:  cpu time    2.6505: real time    2.6610
    SETDIJ:  cpu time    0.0291: real time    0.0291
     EDDAV:  cpu time   17.9329: real time   17.9874
       DOS:  cpu time    0.0069: real time    0.0069
    CHARGE:  cpu time    1.1573: real time    1.1602
    MIXING:  cpu time    0.1055: real time    0.1056
    --------------------------------------------
      LOOP:  cpu time   21.8821: real time   21.9502

 eigenvalue-minimisations  :   456
 total energy-change (2. order) :-0.1817522E+01  (-0.8063853E-01)
 number of electron     160.0000077 magnetization      11.2579300
 augmentation part       68.1156310 magnetization       7.5489344

 Broyden mixing:
  rms(total) = 0.31627E+00    rms(broyden)= 0.31621E+00
  rms(prec ) = 0.35238E+00
  weight for this iteration     100.00

 eigenvalues of (default mixing * dielectric matrix)
  average eigenvalue GAMMA=   0.6289
  1.9590  0.9042  0.7942  0.7229  0.3555  0.3555  0.2280  0.1657  0.1751

 Free energy of the ion-electron system (eV)
  ---------------------------------------------------
  alpha Z        PSCENC =        12.47317253
  Ewald energy   TEWEN  =     26832.40059623
  -Hartree energ DENC   =    -39352.23717853
  -exchange      EXHF   =         0.00000000
  -V(xc)+E(xc)   XCENC  =      -471.46544298
  PAW double counting   =     15046.31155265   -14072.32172181
  entropy T*S    EENTRO =        -0.03637059
  eigenvalues    EBANDS =     -1004.35208817
  atomic energy  EATOM  =     12955.90228127
  Solvation  Ediel_sol  =         0.00000000
  ---------------------------------------------------
  free energy    TOTEN  =       -53.32519941 eV

  energy without entropy =      -53.28882882  energy(sigma->0) =      -53.31307588


--------------------------------------------------------------------------------------------------------




--------------------------------------- Iteration      1(  15)  ---------------------------------------


    POTLOK:  cpu time    2.7593: real time    2.8090
    SETDIJ:  cpu time    0.0180: real time    0.0213
     EDDAV:  cpu time   24.8295: real time   26.5616
       DOS:  cpu time    0.0111: real time    0.0111
    CHARGE:  cpu time    1.1398: real time    1.1455
    MIXING:  cpu time    0.1154: real time    0.1155
    --------------------------------------------
      LOOP:  cpu time   28.8731: real time   30.6640

 eigenvalue-minimisations  :   448
 total energy-change (2. order) :-0.1213134E+01  (-0.4752409E-01)
 number of electron     160.0000078 magnetization      10.8662859
 augmentation part       68.1052137 magnetization       7.2937534

 Broyden mixing:
  rms(total) = 0.21463E+00    rms(broyden)= 0.21458E+00
  rms(prec ) = 0.23143E+00
  weight for this iteration     100.00

 eigenvalues of (default mixing * dielectric matrix)
  average eigenvalue GAMMA=   0.6299
  2.0239  1.2425  0.7582  0.5382  0.5382  0.3187  0.3187  0.2283  0.1661  0.1661

 Free energy of the ion-electron system (eV)
  ---------------------------------------------------
  alpha Z        PSCENC =        12.47317253
  Ewald energy   TEWEN  =     26832.40059623
  -Hartree energ DENC   =    -39358.86516824
  -exchange      EXHF   =         0.00000000
  -V(xc)+E(xc)   XCENC  =      -472.38837139
  PAW double counting   =     15053.61860581   -14079.95123237
  entropy T*S    EENTRO =        -0.03473625
  eigenvalues    EBANDS =      -997.69348134
  atomic energy  EATOM  =     12955.90228127
  Solvation  Ediel_sol  =         0.00000000
  ---------------------------------------------------
  free energy    TOTEN  =       -54.53833375 eV

  energy without entropy =      -54.50359751  energy(sigma->0) =      -54.52675500


--------------------------------------------------------------------------------------------------------




--------------------------------------- Iteration      1(  16)  ---------------------------------------


    POTLOK:  cpu time    2.8979: real time    3.1516
    SETDIJ:  cpu time    0.0892: real time    0.0893
     EDDAV:  cpu time   18.3854: real time   18.4776
       DOS:  cpu time    0.0053: real time    0.0053
    CHARGE:  cpu time    1.0805: real time    1.0823
    MIXING:  cpu time    0.1097: real time    0.1099
    --------------------------------------------
      LOOP:  cpu time   22.5680: real time   22.9161

 eigenvalue-minimisations  :   448
 total energy-change (2. order) :-0.1095017E+01  (-0.2481019E-01)
 number of electron     160.0000078 magnetization      10.4670971
 augmentation part       68.0882481 magnetization       7.0572830

 Broyden mixing:
  rms(total) = 0.13490E+00    rms(broyden)= 0.13487E+00
  rms(prec ) = 0.14233E+00
  weight for this iteration     100.00

 eigenvalues of (default mixing * dielectric matrix)
  average eigenvalue GAMMA=   0.6710
  2.0662  1.6629  0.8343  0.6093  0.6093  0.3924  0.3291  0.3291  0.2164  0.1661
  0.1661

 Free energy of the ion-electron system (eV)
  ---------------------------------------------------
  alpha Z        PSCENC =        12.47317253
  Ewald energy   TEWEN  =     26832.40059623
  -Hartree energ DENC   =    -39363.53825685
  -exchange      EXHF   =         0.00000000
  -V(xc)+E(xc)   XCENC  =      -473.24802517
  PAW double counting   =     15046.09933308   -14072.65490248
  entropy T*S    EENTRO =        -0.03587301
  eigenvalues    EBANDS =      -993.03167639
  atomic energy  EATOM  =     12955.90228127
  Solvation  Ediel_sol  =         0.00000000
  ---------------------------------------------------
  free energy    TOTEN  =       -55.63335080 eV

  energy without entropy =      -55.59747779  energy(sigma->0) =      -55.62139313


--------------------------------------------------------------------------------------------------------




--------------------------------------- Iteration      1(  17)  ---------------------------------------


    POTLOK:  cpu time    2.9814: real time    2.9995
    SETDIJ:  cpu time    0.0306: real time    0.0307
     EDDAV:  cpu time   18.9804: real time   19.0501
       DOS:  cpu time    0.0037: real time    0.0037
    CHARGE:  cpu time    1.2041: real time    1.2068
    MIXING:  cpu time    0.1165: real time    0.1167
    --------------------------------------------
      LOOP:  cpu time   23.3168: real time   23.4076

 eigenvalue-minimisations  :   424
 total energy-change (2. order) :-0.1114779E+01  (-0.1887367E-01)
 number of electron     160.0000078 magnetization      10.0328329
 augmentation part       68.0928650 magnetization       6.7113763

 Broyden mixing:
  rms(total) = 0.12278E+00    rms(broyden)= 0.12276E+00
  rms(prec ) = 0.13009E+00
  weight for this iteration     100.00

 eigenvalues of (default mixing * dielectric matrix)
  average eigenvalue GAMMA=   0.6861
  2.2235  1.7677  1.0047  0.6150  0.6150  0.5253  0.3213  0.3213  0.2909  0.2174
  0.1658  0.1658

 Free energy of the ion-electron system (eV)
  ---------------------------------------------------
  alpha Z        PSCENC =        12.47317253
  Ewald energy   TEWEN  =     26832.40059623
  -Hartree energ DENC   =    -39366.46198904
  -exchange      EXHF   =         0.00000000
  -V(xc)+E(xc)   XCENC  =      -474.13101972
  PAW double counting   =     15031.51749538   -14058.26098472
  entropy T*S    EENTRO =        -0.03975515
  eigenvalues    EBANDS =      -990.14792632
  atomic energy  EATOM  =     12955.90228127
  Solvation  Ediel_sol  =         0.00000000
  ---------------------------------------------------
  free energy    TOTEN  =       -56.74812955 eV

  energy without entropy =      -56.70837439  energy(sigma->0) =      -56.73487783


--------------------------------------------------------------------------------------------------------




--------------------------------------- Iteration      1(  18)  ---------------------------------------


    POTLOK:  cpu time    2.6650: real time    2.6937
    SETDIJ:  cpu time    0.6394: real time    0.6396
     EDDAV:  cpu time   23.6832: real time   25.7831
       DOS:  cpu time    0.0131: real time    0.0132
    CHARGE:  cpu time    1.1592: real time    1.1647
    MIXING:  cpu time    0.1318: real time    0.1319
    --------------------------------------------
      LOOP:  cpu time   28.2918: real time   30.4262

 eigenvalue-minimisations  :   440
 total energy-change (2. order) :-0.9843829E+00  (-0.1642671E-01)
 number of electron     160.0000078 magnetization       9.5406416
 augmentation part       68.0732204 magnetization       6.3498332

 Broyden mixing:
  rms(total) = 0.10317E+00    rms(broyden)= 0.10314E+00
  rms(prec ) = 0.10794E+00
  weight for this iteration     100.00

 eigenvalues of (default mixing * dielectric matrix)
  average eigenvalue GAMMA=   0.7304
  2.1012  2.1012  1.3952  0.6645  0.6645  0.6777  0.4426  0.3303  0.3303  0.2384
  0.2183  0.1658  0.1658

 Free energy of the ion-electron system (eV)
  ---------------------------------------------------
  alpha Z        PSCENC =        12.47317253
  Ewald energy   TEWEN  =     26832.40059623
  -Hartree energ DENC   =    -39369.42333547
  -exchange      EXHF   =         0.00000000
  -V(xc)+E(xc)   XCENC  =      -474.93083071
  PAW double counting   =     15016.04901956   -14043.01859681
  entropy T*S    EENTRO =        -0.03313429
  eigenvalues    EBANDS =      -987.15168478
  atomic energy  EATOM  =     12955.90228127
  Solvation  Ediel_sol  =         0.00000000
  ---------------------------------------------------
  free energy    TOTEN  =       -57.73251248 eV

  energy without entropy =      -57.69937820  energy(sigma->0) =      -57.72146772


--------------------------------------------------------------------------------------------------------




--------------------------------------- Iteration      1(  19)  ---------------------------------------


    POTLOK:  cpu time    2.6060: real time    2.6132
    SETDIJ:  cpu time    0.0232: real time    0.0233
     EDDAV:  cpu time   17.7323: real time   17.9374
       DOS:  cpu time    0.0135: real time    0.0135
    CHARGE:  cpu time    1.1789: real time    1.1845
    MIXING:  cpu time    0.1472: real time    0.1474
    --------------------------------------------
      LOOP:  cpu time   21.7012: real time   21.9192

 eigenvalue-minimisations  :   432
 total energy-change (2. order) :-0.9572455E+00  (-0.1581491E-01)
 number of electron     160.0000079 magnetization       9.0133796
 augmentation part       68.0821260 magnetization       5.9638400

 Broyden mixing:
  rms(total) = 0.86069E-01    rms(broyden)= 0.86059E-01
  rms(prec ) = 0.90039E-01
  weight for this iteration     100.00

 eigenvalues of (default mixing * dielectric matrix)
  average eigenvalue GAMMA=   0.7762
  2.9311  2.0096  1.4801  0.6516  0.6516  0.6630  0.6630  0.3652  0.3290  0.3290
  0.2451  0.2175  0.1658  0.1658

 Free energy of the ion-electron system (eV)
  ---------------------------------------------------
  alpha Z        PSCENC =        12.47317253
  Ewald energy   TEWEN  =     26832.40059623
  -Hartree energ DENC   =    -39369.68849914
  -exchange      EXHF   =         0.00000000
  -V(xc)+E(xc)   XCENC  =      -475.75281809
  PAW double counting   =     14993.55567160   -14020.74646529
  entropy T*S    EENTRO =        -0.03511022
  eigenvalues    EBANDS =      -986.79858690
  atomic energy  EATOM  =     12955.90228127
  Solvation  Ediel_sol  =         0.00000000
  ---------------------------------------------------
  free energy    TOTEN  =       -58.68975803 eV

  energy without entropy =      -58.65464781  energy(sigma->0) =      -58.67805462


--------------------------------------------------------------------------------------------------------




--------------------------------------- Iteration      1(  20)  ---------------------------------------


    POTLOK:  cpu time    2.6054: real time    2.6271
    SETDIJ:  cpu time    0.0296: real time    0.0297
     EDDAV:  cpu time   24.9348: real time   27.2713
       DOS:  cpu time    0.4158: real time    0.4160
    CHARGE:  cpu time    1.6867: real time    2.3598
    MIXING:  cpu time    0.4463: real time    0.4465
    --------------------------------------------
      LOOP:  cpu time   30.1187: real time   33.1503

 eigenvalue-minimisations  :   440
 total energy-change (2. order) :-0.7839635E+00  (-0.1250617E-01)
 number of electron     160.0000078 magnetization       8.5414399
 augmentation part       68.0750922 magnetization       5.5550633

 Broyden mixing:
  rms(total) = 0.71596E-01    rms(broyden)= 0.71585E-01
  rms(prec ) = 0.75121E-01
  weight for this iteration     100.00

 eigenvalues of (default mixing * dielectric matrix)
  average eigenvalue GAMMA=   0.8112
  3.6301  2.1405  1.0447  1.0447  0.8627  0.6378  0.6378  0.4355  0.3314  0.3314
  0.1658  0.1658  0.2808  0.2180  0.2406

 Free energy of the ion-electron system (eV)
  ---------------------------------------------------
  alpha Z        PSCENC =        12.47317253
  Ewald energy   TEWEN  =     26832.40059623
  -Hartree energ DENC   =    -39370.95829897
  -exchange      EXHF   =         0.00000000
  -V(xc)+E(xc)   XCENC  =      -476.42772587
  PAW double counting   =     14976.69401611   -14004.08819310
  entropy T*S    EENTRO =        -0.02578078
  eigenvalues    EBANDS =      -985.44378896
  atomic energy  EATOM  =     12955.90228127
  Solvation  Ediel_sol  =         0.00000000
  ---------------------------------------------------
  free energy    TOTEN  =       -59.47372154 eV

  energy without entropy =      -59.44794076  energy(sigma->0) =      -59.46512795


--------------------------------------------------------------------------------------------------------




--------------------------------------- Iteration      1(  21)  ---------------------------------------


    POTLOK:  cpu time    6.4510: real time    6.4609
    SETDIJ:  cpu time    0.4085: real time    0.4087
     EDDAV:  cpu time   27.7785: real time   29.0793
       DOS:  cpu time    0.0098: real time    0.0098
    CHARGE:  cpu time    1.1058: real time    1.1066
    MIXING:  cpu time    0.1735: real time    0.1737
    --------------------------------------------
      LOOP:  cpu time   35.9272: real time   37.2390

 eigenvalue-minimisations  :   448
 total energy-change (2. order) :-0.6720961E+00  (-0.9956370E-02)
 number of electron     160.0000078 magnetization       8.1042504
 augmentation part       68.0757186 magnetization       5.2221663

 Broyden mixing:
  rms(total) = 0.59016E-01    rms(broyden)= 0.59007E-01
  rms(prec ) = 0.62692E-01
  weight for this iteration     100.00

 eigenvalues of (default mixing * dielectric matrix)
  average eigenvalue GAMMA=   0.8660
  4.4135  2.0773  1.4572  0.9554  0.9554  0.6345  0.6345  0.5865  0.4029  0.3295
  0.3295  0.1658  0.1658  0.2909  0.2182  0.2385

 Free energy of the ion-electron system (eV)
  ---------------------------------------------------
  alpha Z        PSCENC =        12.47317253
  Ewald energy   TEWEN  =     26832.40059623
  -Hartree energ DENC   =    -39370.42685612
  -exchange      EXHF   =         0.00000000
  -V(xc)+E(xc)   XCENC  =      -477.01721309
  PAW double counting   =     14961.21395889   -13988.70660468
  entropy T*S    EENTRO =        -0.02305472
  eigenvalues    EBANDS =      -985.96209790
  atomic energy  EATOM  =     12955.90228127
  Solvation  Ediel_sol  =         0.00000000
  ---------------------------------------------------
  free energy    TOTEN  =       -60.14581759 eV

  energy without entropy =      -60.12276287  energy(sigma->0) =      -60.13813269


--------------------------------------------------------------------------------------------------------




--------------------------------------- Iteration      1(  22)  ---------------------------------------


    POTLOK:  cpu time    3.2574: real time    4.0229
    SETDIJ:  cpu time    0.0328: real time    0.0328
     EDDAV:  cpu time   18.5141: real time   18.5345
       DOS:  cpu time    0.0107: real time    0.0107
    CHARGE:  cpu time    1.1092: real time    1.1100
    MIXING:  cpu time    0.1810: real time    0.1812
    --------------------------------------------
      LOOP:  cpu time   23.1052: real time   23.8921

 eigenvalue-minimisations  :   456
 total energy-change (2. order) :-0.5227713E+00  (-0.6765398E-02)
 number of electron     160.0000078 magnetization       7.7727974
 augmentation part       68.0728622 magnetization       4.9340728

 Broyden mixing:
  rms(total) = 0.47820E-01    rms(broyden)= 0.47810E-01
  rms(prec ) = 0.50884E-01
  weight for this iteration     100.00

 eigenvalues of (default mixing * dielectric matrix)
  average eigenvalue GAMMA=   0.9264
  5.1119  2.0428  2.0428  1.1079  0.8308  0.8308  0.6352  0.6352  0.4744  0.3319
  0.3319  0.3179  0.1658  0.1658  0.2685  0.2185  0.2362

 Free energy of the ion-electron system (eV)
  ---------------------------------------------------
  alpha Z        PSCENC =        12.47317253
  Ewald energy   TEWEN  =     26832.40059623
  -Hartree energ DENC   =    -39369.76551535
  -exchange      EXHF   =         0.00000000
  -V(xc)+E(xc)   XCENC  =      -477.51226849
  PAW double counting   =     14953.77107038   -13981.35222517
  entropy T*S    EENTRO =        -0.01793500
  eigenvalues    EBANDS =      -986.56776525
  atomic energy  EATOM  =     12955.90228127
  Solvation  Ediel_sol  =         0.00000000
  ---------------------------------------------------
  free energy    TOTEN  =       -60.66858886 eV

  energy without entropy =      -60.65065385  energy(sigma->0) =      -60.66261052


--------------------------------------------------------------------------------------------------------




--------------------------------------- Iteration      1(  23)  ---------------------------------------


    POTLOK:  cpu time    2.6409: real time    2.6519
    SETDIJ:  cpu time    0.0328: real time    0.0329
     EDDAV:  cpu time   26.8825: real time   29.2871
       DOS:  cpu time    0.0111: real time    0.0111
    CHARGE:  cpu time    1.0781: real time    1.0789
    MIXING:  cpu time    0.1964: real time    0.1966
    --------------------------------------------
      LOOP:  cpu time   30.8418: real time   33.2586

 eigenvalue-minimisations  :   440
 total energy-change (2. order) :-0.4241039E+00  (-0.3652722E-02)
 number of electron     160.0000078 magnetization       7.5601849
 augmentation part       68.0655613 magnetization       4.7610071

 Broyden mixing:
  rms(total) = 0.30679E-01    rms(broyden)= 0.30674E-01
  rms(prec ) = 0.32619E-01
  weight for this iteration     100.00

 eigenvalues of (default mixing * dielectric matrix)
  average eigenvalue GAMMA=   0.9503
  5.6415  2.1150  2.1150  1.2218  0.8567  0.8567  0.6377  0.6377  0.5632  0.4416
  0.3311  0.3311  0.1658  0.1658  0.3077  0.2185  0.2356  0.2637

 Free energy of the ion-electron system (eV)
  ---------------------------------------------------
  alpha Z        PSCENC =        12.47317253
  Ewald energy   TEWEN  =     26832.40059623
  -Hartree energ DENC   =    -39367.85951453
  -exchange      EXHF   =         0.00000000
  -V(xc)+E(xc)   XCENC  =      -477.94365163
  PAW double counting   =     14951.29796762   -13978.89504011
  entropy T*S    EENTRO =        -0.01414523
  eigenvalues    EBANDS =      -988.45435889
  atomic energy  EATOM  =     12955.90228127
  Solvation  Ediel_sol  =         0.00000000
  ---------------------------------------------------
  free energy    TOTEN  =       -61.09269275 eV

  energy without entropy =      -61.07854752  energy(sigma->0) =      -61.08797767


--------------------------------------------------------------------------------------------------------




--------------------------------------- Iteration      1(  24)  ---------------------------------------


    POTLOK:  cpu time    3.4662: real time    3.4822
    SETDIJ:  cpu time    0.0346: real time    0.0346
     EDDAV:  cpu time   24.5038: real time   24.5926
       DOS:  cpu time    0.0109: real time    0.0110
    CHARGE:  cpu time    1.1071: real time    1.1131
    MIXING:  cpu time    0.4140: real time    0.4144
    --------------------------------------------
      LOOP:  cpu time   29.5366: real time   29.6478

 eigenvalue-minimisations  :   456
 total energy-change (2. order) :-0.3308246E+00  (-0.1522701E-02)
 number of electron     160.0000078 magnetization       7.2781584
 augmentation part       68.0698192 magnetization       4.5049722

 Broyden mixing:
  rms(total) = 0.27190E-01    rms(broyden)= 0.27186E-01
  rms(prec ) = 0.29017E-01
  weight for this iteration     100.00

 eigenvalues of (default mixing * dielectric matrix)
  average eigenvalue GAMMA=   0.9888
  6.3581  2.1668  2.1668  1.4810  0.8567  0.8567  0.8319  0.6351  0.6351  0.4632
  0.3315  0.3315  0.1658  0.1658  0.3251  0.3037  0.2186  0.2599  0.2346

 Free energy of the ion-electron system (eV)
  ---------------------------------------------------
  alpha Z        PSCENC =        12.47317253
  Ewald energy   TEWEN  =     26832.40059623
  -Hartree energ DENC   =    -39365.79792310
  -exchange      EXHF   =         0.00000000
  -V(xc)+E(xc)   XCENC  =      -478.28828603
  PAW double counting   =     14949.95227622   -13977.53540125
  entropy T*S    EENTRO =        -0.01345596
  eigenvalues    EBANDS =      -990.51677724
  atomic energy  EATOM  =     12955.90228127
  Solvation  Ediel_sol  =         0.00000000
  ---------------------------------------------------
  free energy    TOTEN  =       -61.42351733 eV

  energy without entropy =      -61.41006137  energy(sigma->0) =      -61.41903201


--------------------------------------------------------------------------------------------------------




--------------------------------------- Iteration      1(  25)  ---------------------------------------


    POTLOK:  cpu time    6.7937: real time    6.8020
    SETDIJ:  cpu time    0.0250: real time    0.0250
     EDDAV:  cpu time   27.7968: real time   29.4888
       DOS:  cpu time    0.0151: real time    0.0151
    CHARGE:  cpu time    1.2594: real time    1.2613
    MIXING:  cpu time    0.4582: real time    0.4589
    --------------------------------------------
      LOOP:  cpu time   36.3481: real time   38.0511

 eigenvalue-minimisations  :   448
 total energy-change (2. order) :-0.4391032E+00  (-0.2110504E-02)
 number of electron     160.0000078 magnetization       7.0942785
 augmentation part       68.0719223 magnetization       4.3425262

 Broyden mixing:
  rms(total) = 0.17729E-01    rms(broyden)= 0.17725E-01
  rms(prec ) = 0.19122E-01
  weight for this iteration     100.00

 eigenvalues of (default mixing * dielectric matrix)
  average eigenvalue GAMMA=   1.0408
  6.9276  2.6434  2.2235  1.3873  1.3873  0.7888  0.7888  0.6353  0.6353  0.6307
  0.4602  0.3313  0.3313  0.1658  0.1658  0.3288  0.2186  0.2346  0.2706  0.2604

 Free energy of the ion-electron system (eV)
  ---------------------------------------------------
  alpha Z        PSCENC =        12.47317253
  Ewald energy   TEWEN  =     26832.40059623
  -Hartree energ DENC   =    -39363.60650578
  -exchange      EXHF   =         0.00000000
  -V(xc)+E(xc)   XCENC  =      -478.74746397
  PAW double counting   =     14950.86144062   -13978.43136103
  entropy T*S    EENTRO =        -0.01090372
  eigenvalues    EBANDS =      -992.70387667
  atomic energy  EATOM  =     12955.90228127
  Solvation  Ediel_sol  =         0.00000000
  ---------------------------------------------------
  free energy    TOTEN  =       -61.86262052 eV

  energy without entropy =      -61.85171680  energy(sigma->0) =      -61.85898595


--------------------------------------------------------------------------------------------------------




--------------------------------------- Iteration      1(  26)  ---------------------------------------


    POTLOK:  cpu time    2.6878: real time    2.6956
    SETDIJ:  cpu time    0.0247: real time    0.0248
     EDDAV:  cpu time   18.1597: real time   18.2365
       DOS:  cpu time    0.0051: real time    0.0052
    CHARGE:  cpu time    1.1552: real time    1.1573
    MIXING:  cpu time    0.4801: real time    0.4807
    --------------------------------------------
      LOOP:  cpu time   22.5127: real time   22.6001

 eigenvalue-minimisations  :   480
 total energy-change (2. order) :-0.2490369E+00  (-0.8380846E-03)
 number of electron     160.0000078 magnetization       6.9800319
 augmentation part       68.0705184 magnetization       4.2353982

 Broyden mixing:
  rms(total) = 0.12628E-01    rms(broyden)= 0.12626E-01
  rms(prec ) = 0.13823E-01
  weight for this iteration     100.00

 eigenvalues of (default mixing * dielectric matrix)
  average eigenvalue GAMMA=   1.0670
  7.3670  3.0068  2.1994  1.4849  1.4849  0.8375  0.8375  0.6332  0.6332  0.6847
  0.4912  0.4413  0.3314  0.3314  0.1658  0.1658  0.3261  0.2186  0.2759  0.2344
  0.2561

 Free energy of the ion-electron system (eV)
  ---------------------------------------------------
  alpha Z        PSCENC =        12.47317253
  Ewald energy   TEWEN  =     26832.40059623
  -Hartree energ DENC   =    -39361.38093738
  -exchange      EXHF   =         0.00000000
  -V(xc)+E(xc)   XCENC  =      -479.01821626
  PAW double counting   =     14954.17675920   -13981.71678434
  entropy T*S    EENTRO =        -0.01075581
  eigenvalues    EBANDS =      -994.93777286
  atomic energy  EATOM  =     12955.90228127
  Solvation  Ediel_sol  =         0.00000000
  ---------------------------------------------------
  free energy    TOTEN  =       -62.11165741 eV

  energy without entropy =      -62.10090161  energy(sigma->0) =      -62.10807214


--------------------------------------------------------------------------------------------------------




--------------------------------------- Iteration      1(  27)  ---------------------------------------


    POTLOK:  cpu time    2.8525: real time    2.8576
    SETDIJ:  cpu time    0.0249: real time    0.0249
     EDDAV:  cpu time   17.7774: real time   17.9345
       DOS:  cpu time    0.0051: real time    0.0051
    CHARGE:  cpu time    1.1465: real time    1.1512
    MIXING:  cpu time    0.2381: real time    0.2386
    --------------------------------------------
      LOOP:  cpu time   22.0445: real time   22.2120

 eigenvalue-minimisations  :   464
 total energy-change (2. order) :-0.1200612E+00  (-0.2915053E-03)
 number of electron     160.0000078 magnetization       6.8774535
 augmentation part       68.0719419 magnetization       4.1432636

 Broyden mixing:
  rms(total) = 0.10736E-01    rms(broyden)= 0.10734E-01
  rms(prec ) = 0.11795E-01
  weight for this iteration     100.00

 eigenvalues of (default mixing * dielectric matrix)
  average eigenvalue GAMMA=   1.0941
  7.8270  3.1387  2.4061  1.7224  1.1803  1.1803  0.7842  0.7842  0.6365  0.6365
  0.6720  0.4558  0.3311  0.3311  0.1658  0.1658  0.3510  0.3136  0.2186  0.2775
  0.2343  0.2563

 Free energy of the ion-electron system (eV)
  ---------------------------------------------------
  alpha Z        PSCENC =        12.47317253
  Ewald energy   TEWEN  =     26832.40059623
  -Hartree energ DENC   =    -39359.64189288
  -exchange      EXHF   =         0.00000000
  -V(xc)+E(xc)   XCENC  =      -479.15411007
  PAW double counting   =     14956.16430459   -13983.68709893
  entropy T*S    EENTRO =        -0.01048360
  eigenvalues    EBANDS =      -996.67848774
  atomic energy  EATOM  =     12955.90228127
  Solvation  Ediel_sol  =         0.00000000
  ---------------------------------------------------
  free energy    TOTEN  =       -62.23171862 eV

  energy without entropy =      -62.22123502  energy(sigma->0) =      -62.22822408


--------------------------------------------------------------------------------------------------------




--------------------------------------- Iteration      1(  28)  ---------------------------------------


    POTLOK:  cpu time    3.0328: real time    3.0600
    SETDIJ:  cpu time    0.0239: real time    0.0240
     EDDAV:  cpu time   20.3414: real time   20.4185
       DOS:  cpu time    0.0046: real time    0.0046
    CHARGE:  cpu time    1.0718: real time    1.0727
    MIXING:  cpu time    0.2726: real time    0.2728
    --------------------------------------------
      LOOP:  cpu time   24.7471: real time   24.8527

 eigenvalue-minimisations  :   472
 total energy-change (2. order) :-0.7922814E-01  (-0.2145600E-03)
 number of electron     160.0000078 magnetization       6.8153384
 augmentation part       68.0741926 magnetization       4.0821711

 Broyden mixing:
  rms(total) = 0.66743E-02    rms(broyden)= 0.66729E-02
  rms(prec ) = 0.75507E-02
  weight for this iteration     100.00

 eigenvalues of (default mixing * dielectric matrix)
  average eigenvalue GAMMA=   1.1307
  8.3720  3.7178  2.2707  1.9088  1.2142  1.2142  0.8119  0.8119  0.7480  0.6381
  0.6381  0.5736  0.4473  0.3310  0.3310  0.1658  0.1658  0.3499  0.3122  0.2186
  0.2344  0.2748  0.2565

 Free energy of the ion-electron system (eV)
  ---------------------------------------------------
  alpha Z        PSCENC =        12.47317253
  Ewald energy   TEWEN  =     26832.40059623
  -Hartree energ DENC   =    -39358.13281725
  -exchange      EXHF   =         0.00000000
  -V(xc)+E(xc)   XCENC  =      -479.24343829
  PAW double counting   =     14957.55341056   -13985.06685730
  entropy T*S    EENTRO =        -0.01006626
  eigenvalues    EBANDS =      -998.18722824
  atomic energy  EATOM  =     12955.90228127
  Solvation  Ediel_sol  =         0.00000000
  ---------------------------------------------------
  free energy    TOTEN  =       -62.31094676 eV

  energy without entropy =      -62.30088050  energy(sigma->0) =      -62.30759134


--------------------------------------------------------------------------------------------------------




--------------------------------------- Iteration      1(  29)  ---------------------------------------


    POTLOK:  cpu time    2.6544: real time    2.6720
    SETDIJ:  cpu time    0.0329: real time    0.0330
     EDDAV:  cpu time   22.5885: real time   22.7084
       DOS:  cpu time    0.0050: real time    0.0050
    CHARGE:  cpu time    2.1768: real time    2.1787
    MIXING:  cpu time    0.5165: real time    0.5171
    --------------------------------------------
      LOOP:  cpu time   27.9742: real time   28.1141

 eigenvalue-minimisations  :   408
 total energy-change (2. order) :-0.4554308E-01  (-0.8137635E-04)
 number of electron     160.0000078 magnetization       6.7795466
 augmentation part       68.0739173 magnetization       4.0474513

 Broyden mixing:
  rms(total) = 0.55682E-02    rms(broyden)= 0.55674E-02
  rms(prec ) = 0.62731E-02
  weight for this iteration     100.00

 eigenvalues of (default mixing * dielectric matrix)
  average eigenvalue GAMMA=   1.1448
  8.7626  4.0101  2.2663  1.9768  1.2581  1.2581  0.9613  0.8144  0.8144  0.6377
  0.6377  0.6448  0.4462  0.3809  0.3310  0.3310  0.1658  0.1658  0.3233  0.2186
  0.3045  0.2344  0.2754  0.2564

 Free energy of the ion-electron system (eV)
  ---------------------------------------------------
  alpha Z        PSCENC =        12.47317253
  Ewald energy   TEWEN  =     26832.40059623
  -Hartree energ DENC   =    -39356.90186710
  -exchange      EXHF   =         0.00000000
  -V(xc)+E(xc)   XCENC  =      -479.29806538
  PAW double counting   =     14958.39359854   -13985.89612218
  entropy T*S    EENTRO =        -0.01004411
  eigenvalues    EBANDS =      -999.42003964
  atomic energy  EATOM  =     12955.90228127
  Solvation  Ediel_sol  =         0.00000000
  ---------------------------------------------------
  free energy    TOTEN  =       -62.35648983 eV

  energy without entropy =      -62.34644573  energy(sigma->0) =      -62.35314180


--------------------------------------------------------------------------------------------------------




--------------------------------------- Iteration      1(  30)  ---------------------------------------


    POTLOK:  cpu time    3.2029: real time    3.2069
    SETDIJ:  cpu time    0.0253: real time    0.0254
     EDDAV:  cpu time   15.4646: real time   16.8477
       DOS:  cpu time    0.0052: real time    0.0052
    CHARGE:  cpu time    1.1695: real time    1.1746
    MIXING:  cpu time    0.3049: real time    0.3052
    --------------------------------------------
      LOOP:  cpu time   20.1725: real time   21.5650

 eigenvalue-minimisations  :   360
 total energy-change (2. order) :-0.2207020E-01  (-0.3000555E-04)
 number of electron     160.0000078 magnetization       6.7500408
 augmentation part       68.0729203 magnetization       4.0163912

 Broyden mixing:
  rms(total) = 0.34080E-02    rms(broyden)= 0.34073E-02
  rms(prec ) = 0.40419E-02
  weight for this iteration     100.00

 eigenvalues of (default mixing * dielectric matrix)
  average eigenvalue GAMMA=   1.1753
  9.2510  4.2240  2.2878  2.2878  1.3893  1.3893  0.8298  0.8298  0.8120  0.8120
  0.6381  0.6381  0.5934  0.4489  0.1658  0.1658  0.3310  0.3310  0.3654  0.3202
  0.2186  0.2344  0.2563  0.2764  0.2858

[...]
     69      -4.8730      1.00021
     70      -4.8136      1.00090
     71      -4.7672      1.00246
     72      -4.7518      1.00334
     73      -4.7508      1.00340
     74      -4.7244      1.00553
     75      -4.6774      1.01175
     76      -4.6523      1.01647
     77      -4.6418      1.01871
     78      -4.6350      1.02022
     79      -4.6305      1.02125
     80      -4.5986      1.02853
     81      -4.5771      1.03272
     82      -4.4545      0.97896
     83      -4.4432      0.96103
     84      -4.2979      0.48009
     85      -3.6065     -0.00000
     86      -3.5148     -0.00000
     87      -3.3122     -0.00000
     88      -2.9650     -0.00000
     89      -2.9459     -0.00000
     90      -2.6296     -0.00000
     91      -1.7633     -0.00000
     92      -1.4716     -0.00000
     93      -1.3121     -0.00000
     94      -1.2991     -0.00000
     95      -1.1180     -0.00000
     96      -0.9810     -0.00000
     97      -0.9343     -0.00000
     98      -0.8004     -0.00000
     99      -0.7043     -0.00000
    100      -0.6734     -0.00000
    101      -0.0994     -0.00000
    102       0.1135     -0.00000
    103       0.2346     -0.00000
    104       0.3274     -0.00000

 spin component 2

 k-point     1 :       0.0000    0.0000    0.0000
  band No.  band energies     occupation 
      1      -9.1934      1.00000
      2      -8.5791      1.00000
      3      -8.5457      1.00000
      4      -8.3305      1.00000
      5      -8.3177      1.00000
      6      -8.2702      1.00000
      7      -7.9582      1.00000
      8      -7.7373      1.00000
      9      -7.6152      1.00000
     10      -7.6034      1.00000
     11      -7.5331      1.00000
     12      -7.4972      1.00000
     13      -7.4354      1.00000
     14      -7.4286      1.00000
     15      -7.2979      1.00000
     16      -7.2754      1.00000
     17      -7.1642      1.00000
     18      -7.1440      1.00000
     19      -7.0649      1.00000
     20      -7.0499      1.00000
     21      -6.9788      1.00000
     22      -6.9471      1.00000
     23      -6.8902      1.00000
     24      -6.7772      1.00000
     25      -6.7403      1.00000
     26      -6.7361      1.00000
     27      -6.6186      1.00000
     28      -6.5813      1.00000
     29      -6.5555      1.00000
     30      -6.4794      1.00000
     31      -6.4297      1.00000
     32      -6.3137      1.00000
     33      -6.3103      1.00000
     34      -6.2868      1.00000
     35      -6.2202      1.00000
     36      -6.1378      1.00000
     37      -6.1190      1.00000
     38      -6.0478      1.00000
     39      -5.9448      1.00000
     40      -5.8202      1.00000
     41      -5.8179      1.00000
     42      -5.6183      1.00000
     43      -5.5903      1.00000
     44      -5.5801      1.00000
     45      -5.5020      1.00000
     46      -5.4668      1.00000
     47      -5.4421      1.00000
     48      -5.3761      1.00000
     49      -5.3597      1.00000
     50      -5.2715      1.00000
     51      -5.2334      1.00000
     52      -5.1925      1.00000
     53      -5.1661      1.00000
     54      -5.1201      1.00000
     55      -5.1142      1.00000
     56      -5.0220      1.00000
     57      -4.9991      1.00000
     58      -4.9902      1.00001
     59      -4.9368      1.00003
     60      -4.8901      1.00013
     61      -4.8814      1.00017
     62      -4.8362      1.00053
     63      -4.8098      1.00098
     64      -4.7479      1.00360
     65      -4.6831      1.01082
     66      -4.6703      1.01300
     67      -4.6177      1.02420
     68      -4.6136      1.02513
     69      -4.5771      1.03273
     70      -4.5731      1.03335
     71      -4.5135      1.02991
     72      -4.4811      1.01014
     73      -4.4678      0.99642
     74      -4.4163      0.90542
     75      -4.3626      0.74175
     76      -4.3047      0.50914
     77      -4.2995      0.48700
     78      -4.2820      0.41330
     79      -4.2183      0.17623
     80      -4.1789      0.07193
     81      -4.1405      0.00731
     82      -4.0508     -0.03529
     83      -4.0165     -0.03061
     84      -3.9359     -0.01319
     85      -3.4339     -0.00000
     86      -3.3508     -0.00000
     87      -3.1861     -0.00000
     88      -2.8182     -0.00000
     89      -2.8069     -0.00000
     90      -2.4863     -0.00000
     91      -1.6591     -0.00000
     92      -1.3418     -0.00000
     93      -1.2265     -0.00000
     94      -1.2200     -0.00000
     95      -1.0168     -0.00000
     96      -0.9379     -0.00000
     97      -0.8623     -0.00000
     98      -0.7598     -0.00000
     99      -0.6290     -0.00000
    100      -0.5912     -0.00000
    101      -0.0728     -0.00000
    102       0.1207     -0.00000
    103       0.2372     -0.00000
    104       0.3337     -0.00000


--------------------------------------------------------------------------------------------------------


 soft charge-density along one line, spin component            1
         0         1         2         3         4         5         6         7         8         9
 total charge-density along one line
 
 soft charge-density along one line, spin component            2
         0         1         2         3         4         5         6         7         8         9
 total charge-density along one line
 
 pseudopotential strength for first ion, spin component:            1
 -8.846  -0.005  -0.046  -0.012   0.014  -8.800  -0.005  -0.044
 -0.005  -8.783  -0.009   0.058   0.024  -0.005  -8.740  -0.009
 -0.046  -0.009  -8.853  -0.038  -0.017  -0.044  -0.009  -8.808
 -0.012   0.058  -0.038  -8.821  -0.024  -0.011   0.055  -0.037
  0.014   0.024  -0.017  -0.024  -8.742   0.014   0.023  -0.016
 -8.800  -0.005  -0.044  -0.011   0.014  -8.734  -0.005  -0.042
 -0.005  -8.740  -0.009   0.055   0.023  -0.005  -8.676  -0.008
 -0.044  -0.009  -8.808  -0.037  -0.016  -0.042  -0.008  -8.741
 -0.011   0.055  -0.037  -8.777  -0.023  -0.011   0.053  -0.035
  0.014   0.023  -0.016  -0.023  -8.701   0.013   0.022  -0.016
 -0.026   0.008   0.008   0.012   0.000  -0.025   0.007   0.008
 -0.044   0.013   0.014   0.021   0.001  -0.042   0.013   0.014
 -0.015   0.008   0.011  -0.000   0.017  -0.014   0.007   0.010
 -0.000  -0.016   0.008  -0.018  -0.001  -0.000  -0.015   0.008
 -0.017  -0.000   0.008   0.006  -0.017  -0.017  -0.000   0.007
 -0.016   0.009   0.012  -0.000   0.019  -0.015   0.008   0.011
 -0.000  -0.017   0.009  -0.020  -0.001  -0.000  -0.016   0.009
 -0.019  -0.000   0.009   0.007  -0.019  -0.018  -0.000   0.008
 pseudopotential strength for first ion, spin component:            2
 -8.567  -0.015  -0.035  -0.013  -0.004  -8.534  -0.015  -0.034
 -0.015  -8.597  -0.011   0.029   0.013  -0.015  -8.563  -0.010
 -0.035  -0.011  -8.596  -0.004  -0.001  -0.034  -0.010  -8.562
 -0.013   0.029  -0.004  -8.594  -0.015  -0.012   0.027  -0.004
 -0.004   0.013  -0.001  -0.015  -8.577  -0.003   0.013  -0.001
 -8.534  -0.015  -0.034  -0.012  -0.003  -8.478  -0.014  -0.032
 -0.015  -8.563  -0.010   0.027   0.013  -0.014  -8.506  -0.010
 -0.034  -0.010  -8.562  -0.004  -0.001  -0.032  -0.010  -8.505
 -0.012   0.027  -0.004  -8.560  -0.014  -0.012   0.026  -0.003
 -0.003   0.013  -0.001  -0.014  -8.543  -0.003   0.012  -0.001
 -0.014   0.005   0.005   0.007  -0.000  -0.013   0.005   0.005
 -0.024   0.009   0.008   0.012  -0.000  -0.023   0.008   0.008
 -0.017   0.008   0.011   0.000   0.017  -0.016   0.007   0.010
  0.000  -0.017   0.008  -0.017  -0.000   0.000  -0.016   0.008
 -0.018   0.000   0.009   0.007  -0.017  -0.017   0.000   0.009
 -0.019   0.009   0.012   0.000   0.019  -0.018   0.008   0.011
  0.000  -0.019   0.010  -0.019  -0.000   0.000  -0.018   0.009
 -0.020   0.000   0.011   0.008  -0.019  -0.019   0.000   0.010
 total augmentation occupancy for first ion, spin component:            1
  2.406   0.116  -0.120  -0.040   0.040  -1.218  -0.082   0.028   0.035   0.004   0.411  -0.087  -0.095  -0.040  -0.111  -0.010
  0.116   2.833  -0.179   0.312   0.090  -0.087  -1.255   0.128  -0.144  -0.020  -0.078   0.037   0.022  -0.224  -0.057   0.007
 -0.120  -0.179   2.322  -0.157  -0.104   0.027   0.128  -1.075   0.022   0.003  -0.071   0.019   0.058   0.105   0.080   0.006
 -0.040   0.312  -0.157   2.556  -0.123   0.036  -0.147   0.020  -1.210   0.046  -0.274   0.060  -0.042  -0.184   0.030   0.001
  0.040   0.090  -0.104  -0.123   3.130   0.005  -0.020   0.001   0.044  -1.427  -0.004  -0.009   0.238  -0.007  -0.226   0.009
 -1.218  -0.087   0.027   0.036   0.005   1.755   0.065   0.026  -0.033  -0.026  -0.241   0.001   0.162   0.035   0.147  -0.013
 -0.082  -1.255   0.128  -0.147  -0.020   0.065   1.548  -0.086   0.044  -0.024   0.042  -0.002  -0.023   0.282   0.047   0.002
  0.028   0.128  -1.075   0.020   0.001   0.026  -0.086   1.573   0.056   0.068   0.031   0.009  -0.068  -0.112  -0.125   0.008
  0.035  -0.144   0.022  -1.210   0.044  -0.033   0.044   0.056   1.653   0.007   0.170  -0.015   0.037   0.191  -0.057  -0.002
  0.004  -0.020   0.003   0.046  -1.427  -0.026  -0.024   0.068   0.007   1.643  -0.002   0.006  -0.270  -0.009   0.245   0.018
  0.411  -0.078  -0.071  -0.274  -0.004  -0.241   0.042   0.031   0.170  -0.002   1.841  -0.273   0.204  -0.058   0.186  -0.024
 -0.087   0.037   0.019   0.060  -0.009   0.001  -0.002   0.009  -0.015   0.006  -0.273   0.046  -0.039   0.010  -0.034   0.005
 -0.095   0.022   0.058  -0.042   0.238   0.162  -0.023  -0.068   0.037  -0.270   0.204  -0.039   0.151   0.003  -0.031  -0.010
 -0.040  -0.224   0.105  -0.184  -0.007   0.035   0.282  -0.112   0.191  -0.009  -0.058   0.010   0.003   0.164   0.019   0.000
 -0.111  -0.057   0.080   0.030  -0.226   0.147   0.047  -0.125  -0.057   0.245   0.186  -0.034  -0.031   0.019   0.156  -0.000
 -0.010   0.007   0.006   0.001   0.009  -0.013   0.002   0.008  -0.002   0.018  -0.024   0.005  -0.010   0.000  -0.000   0.001
  0.001  -0.010   0.005  -0.011  -0.001  -0.002  -0.018   0.006  -0.014   0.001   0.008  -0.002   0.000  -0.009  -0.000  -0.000
 -0.011   0.001   0.006   0.006  -0.011  -0.014  -0.002   0.008   0.004  -0.015  -0.022   0.005  -0.000  -0.000  -0.010   0.000
 total augmentation occupancy for first ion, spin component:            2
  0.948  -0.045   0.148   0.027  -0.092  -0.458   0.018  -0.090  -0.020   0.040   0.097  -0.048  -0.025   0.007  -0.002  -0.007
 -0.045   0.383   0.013  -0.242  -0.077   0.023  -0.179  -0.011   0.131   0.041  -0.021   0.009  -0.004  -0.012  -0.000   0.001
  0.148   0.013   0.882   0.229   0.120  -0.089  -0.012  -0.439  -0.119  -0.066  -0.036   0.014  -0.009  -0.002   0.020   0.004
  0.027  -0.242   0.229   0.690   0.093  -0.021   0.132  -0.116  -0.342  -0.055  -0.025   0.020   0.005   0.020   0.010   0.001
 -0.092  -0.077   0.120   0.093   0.230   0.041   0.040  -0.062  -0.052  -0.099  -0.011   0.004   0.002   0.003   0.007   0.004
 -0.458   0.023  -0.089  -0.021   0.041   0.166  -0.008   0.049   0.013  -0.015  -0.022   0.008   0.008  -0.004  -0.002   0.003
  0.018  -0.179  -0.012   0.132   0.040  -0.008   0.042   0.008  -0.065  -0.019   0.004  -0.001   0.003   0.002   0.000  -0.001
 -0.090  -0.011  -0.439  -0.116  -0.062   0.049   0.008   0.165   0.055   0.031   0.009  -0.003   0.006   0.003  -0.007  -0.002
 -0.020   0.131  -0.119  -0.342  -0.052   0.013  -0.065   0.055   0.120   0.029   0.001  -0.002  -0.003  -0.012  -0.003  -0.000
  0.040   0.041  -0.066  -0.055  -0.099  -0.015  -0.019   0.031   0.029   0.003   0.004  -0.001   0.002  -0.001  -0.005  -0.002
  0.097  -0.021  -0.036  -0.025  -0.011  -0.022   0.004   0.009   0.001   0.004  -0.029   0.006  -0.005   0.001  -0.004  -0.001
 -0.048   0.009   0.014   0.020   0.004   0.008  -0.001  -0.003  -0.002  -0.001   0.006   0.002   0.001  -0.000   0.001   0.001
 -0.025  -0.004  -0.009   0.005   0.002   0.008   0.003   0.006  -0.003   0.002  -0.005   0.001  -0.003  -0.001   0.002   0.000
  0.007  -0.012  -0.002   0.020   0.003  -0.004   0.002   0.003  -0.012  -0.001   0.001  -0.000  -0.001  -0.005  -0.000  -0.000
 -0.002  -0.000   0.020   0.010   0.007  -0.002   0.000  -0.007  -0.003  -0.005  -0.004   0.001   0.002  -0.000  -0.004   0.000
 -0.007   0.001   0.004   0.001   0.004   0.003  -0.001  -0.002  -0.000  -0.002  -0.001   0.001   0.000  -0.000   0.000   0.000
  0.000  -0.002   0.001  -0.003   0.000  -0.000   0.001  -0.001   0.002   0.000   0.000  -0.000  -0.000   0.000   0.000   0.000
 -0.006   0.000   0.002   0.002  -0.001   0.003  -0.000  -0.001  -0.001   0.001  -0.001   0.001   0.000   0.000   0.000   0.000


------------------------ aborting loop because EDIFF is reached ----------------------------------------


    CHARGE:  cpu time    1.1995: real time    1.2195
    FORLOC:  cpu time    0.0892: real time    0.0893
    FORNL :  cpu time    4.5882: real time    5.1174
    FORCOR:  cpu time    2.6387: real time    2.6639
    FORHAR:  cpu time    0.4294: real time    0.4437
    MIXING:  cpu time    0.0758: real time    0.0819
    OFIELD:  cpu time    0.0000: real time    0.0000

 VOLUME and BASIS-vectors are now :
 -----------------------------------------------------------------------------
  energy-cutoff  :      400.00
  volume of cell :    13376.59
      direct lattice vectors                 reciprocal lattice vectors
    23.067253360  0.000000000  0.000000000     0.043351499  0.000000000  0.000000000
     0.000000000 24.100597188  0.000000000     0.000000000  0.041492748  0.000000000
     0.000000000  0.000000000 24.061454973     0.000000000  0.000000000  0.041560247

  length of vectors
    23.067253360 24.100597188 24.061454973     0.043351499  0.041492748  0.041560247


 FORCES acting on ions
    electron-ion (+dipol)            ewald-force                    non-local-force                 convergence-correction
 -----------------------------------------------------------------------------------------------
   0.659E+03 0.824E+03 -.108E+03   -.656E+03 -.821E+03 0.107E+03   -.269E+01 -.290E+01 0.894E+00   0.117E-01 0.450E-01 0.106E+00
   -.970E+03 -.475E+03 -.241E+03   0.966E+03 0.472E+03 0.238E+03   0.493E+01 0.251E+01 0.247E+01   -.698E-02 -.738E-01 0.216E+00
   -.994E+03 0.460E+03 0.501E+02   0.990E+03 -.458E+03 -.505E+02   0.461E+01 -.167E+01 0.129E+00   -.160E+00 -.230E+00 0.272E+00
   0.685E+03 0.276E+03 -.738E+03   -.682E+03 -.273E+03 0.736E+03   -.307E+01 -.246E+01 0.203E+01   -.752E-01 -.123E+00 -.759E-02
   -.730E+03 -.245E+03 0.816E+03   0.726E+03 0.245E+03 -.812E+03   0.356E+01 0.574E+00 -.457E+01   -.279E-02 -.152E+00 0.152E-01
   -.498E+03 -.272E+03 -.874E+03   0.494E+03 0.271E+03 0.871E+03   0.363E+01 0.982E+00 0.298E+01   -.868E-01 -.258E+00 0.823E-01
   0.104E+04 -.281E+03 0.110E+03   -.104E+04 0.279E+03 -.110E+03   -.449E+01 0.199E+01 0.264E+00   -.792E-02 -.157E+00 0.104E+00
   0.317E+03 -.420E+03 -.864E+03   -.315E+03 0.417E+03 0.858E+03   -.251E+01 0.323E+01 0.665E+01   0.309E-01 -.118E+00 0.517E-01
   -.174E+03 0.581E+03 0.874E+03   0.173E+03 -.579E+03 -.871E+03   0.895E+00 -.208E+01 -.353E+01   -.157E+00 -.188E+00 0.242E+00
   0.313E+03 -.489E+03 0.933E+03   -.311E+03 0.487E+03 -.929E+03   -.140E+01 0.264E+01 -.386E+01   -.258E+00 -.196E+00 0.631E-01
   -.305E+03 0.668E+03 -.804E+03   0.304E+03 -.666E+03 0.800E+03   0.141E+01 -.210E+01 0.423E+01   -.212E+00 -.878E-01 -.115E-01
   -.645E+02 -.888E+02 -.672E+01   0.649E+02 0.892E+02 0.637E+01   -.263E+00 -.223E+00 0.157E+00   -.223E+00 -.263E+00 0.235E+00
   -.193E+03 -.105E+04 0.305E+03   0.193E+03 0.104E+04 -.304E+03   0.248E+00 0.602E+01 -.779E+00   -.212E+00 0.477E-01 0.903E-01
   -.234E+03 0.107E+04 0.523E+02   0.233E+03 -.106E+04 -.517E+02   0.117E+01 -.682E+01 -.717E+00   -.833E-01 0.499E-02 0.939E-01
   0.738E+03 0.367E+03 0.724E+03   -.733E+03 -.364E+03 -.720E+03   -.445E+01 -.276E+01 -.460E+01   -.438E-01 -.894E-01 0.104E+00
   0.411E+03 -.925E+03 -.231E+03   -.409E+03 0.921E+03 0.232E+03   -.136E+01 0.444E+01 -.569E+00   -.180E+00 -.177E+00 0.122E+00
 -----------------------------------------------------------------------------------------------
   0.147E+01 0.679E+00 -.298E+01   -.284E-12 -.341E-12 -.171E-12   0.221E+00 0.136E+01 0.119E+01   -.167E+01 -.201E+01 0.178E+01
 
 
 POSITION                                       TOTAL-FORCE (eV/Angst)
 -----------------------------------------------------------------------------------
     10.02447     10.44237     11.47234         0.021368      0.020643     -0.009851
     13.99050     13.71591     11.89896         0.016725      0.015177      0.007470
     13.83502     11.14965     11.17074        -0.026925     -0.004257      0.023221
      9.82381     12.14789     13.56726         0.013097      0.016462     -0.016594
     13.42315     13.13640      9.31940         0.017151     -0.007724     -0.023136
     12.30939     13.32565     13.90666        -0.014860     -0.016333     -0.001293
      8.98535     12.95323     11.09110         0.023565     -0.009228     -0.007619
     10.14802     14.22047     15.09103         0.027107     -0.011489     -0.004797
     11.77693     10.93897      9.40606        -0.001958     -0.012465      0.012770
     10.69743     13.42381      9.07865        -0.016569     -0.014396     -0.017296
     12.14256     10.73141     13.21088        -0.022936      0.003339     -0.023892
     11.59457     12.58003     11.41588        -0.033929     -0.030104      0.038651
     12.11037     15.11295     10.58775        -0.011889      0.031015     -0.010710
     12.24777      9.01576     11.20047        -0.003119      0.032694      0.001330
      9.15258     11.25111      9.08507         0.018426      0.003383      0.010857
     10.39018     14.70471     12.54294        -0.005254     -0.016718      0.020887
 -----------------------------------------------------------------------------------
    total drift:                                0.020411      0.024663     -0.013193


--------------------------------------------------------------------------------------------------------



  FREE ENERGIE OF THE ION-ELECTRON SYSTEM (eV)
  ---------------------------------------------------
  free  energy   TOTEN  =       -62.74232587 eV

  energy  without entropy=      -62.76505075  energy(sigma->0) =      -62.74990083
 
 d Force = 0.3353196E-03[-0.790E-04, 0.750E-03]  d Energy = 0.9332762E-04 0.242E-03
 d Force = 0.1810483E+02[ 0.181E+02, 0.181E+02]  d Ewald  = 0.1810484E+02-0.648E-05


--------------------------------------------------------------------------------------------------------


    POTLOK:  cpu time    2.8303: real time    2.8626


--------------------------------------------------------------------------------------------------------




--------------------------------------------------------------------------------------------------------


  
 reached required accuracy - stopping structural energy minimisation
     LOOP+:  cpu time  116.5573: real time  117.5755
    4ORBIT:  cpu time    0.0000: real time    0.0000

 total amount of memory used by VASP MPI-rank0   175235. kBytes
=======================================================================

   base      :      30000. kBytes
   nonl-proj :       6075. kBytes
   fftplans  :      33879. kBytes
   grid      :      79948. kBytes
   one-center:         31. kBytes
   wavefun   :      25302. kBytes
 
  
  
 General timing and accounting informations for this job:
 ========================================================
  
                  Total CPU time used (sec):     3735.563
                            User time (sec):     3700.245
                          System time (sec):       35.318
                         Elapsed time (sec):     3813.523
  
                   Maximum memory used (kb):      336732.
                   Average memory used (kb):           0.
  
                          Minor page faults:      4003314
                          Major page faults:       124711
                 Voluntary context switches:         9034
