unknown system                          
            1
    23.067253    0.000000    0.000000
     0.000000   24.100597    0.000000
     0.000000    0.000000   24.061455
   Pd
    16
Direct configuration=     1
   0.43559094  0.43383976  0.47663727
   0.60436621  0.56717665  0.49464390
   0.59886886  0.46279920  0.46299693
   0.42948642  0.50543085  0.56084459
   0.57741346  0.54281185  0.39090727
   0.53180381  0.55365875  0.57758590
   0.39017073  0.53712455  0.46158632
   0.43962170  0.58926642  0.62474238
   0.51032470  0.45304016  0.38968928
   0.46390236  0.55663369  0.37802833
   0.52689342  0.44635378  0.54840129
   0.50273823  0.52235174  0.47459955
   0.52573395  0.62454155  0.44137971
   0.53087745  0.37815383  0.46533502
   0.39968257  0.46855967  0.38015952
   0.45076762  0.60910365  0.52142606
Direct configuration=     2
   0.43508031  0.43347575  0.47696743
   0.60567457  0.56767239  0.49550668
   0.59988871  0.46237641  0.46337238
   0.42806225  0.50445539  0.56183446
   0.57911607  0.54327567  0.38904582
   0.53329279  0.55364735  0.57805877
   0.38942563  0.53768343  0.46147466
   0.43907472  0.58977909  0.62605543
   0.51046944  0.45286895  0.38935311
   0.46345423  0.55729492  0.37745746
   0.52730871  0.44606640  0.54910838
   0.50219990  0.52158169  0.47445829
   0.52526613  0.62615004  0.44117338
   0.53108997  0.37638490  0.46528625
   0.39837121  0.46784886  0.37902091
   0.45046779  0.61028484  0.52078991
Direct configuration=     3
   0.43479761  0.43327422  0.47715022
   0.60639892  0.56794685  0.49598434
   0.60045333  0.46214235  0.46358024
   0.42727379  0.50391534  0.56238247
   0.58005869  0.54353245  0.38801527
   0.53411714  0.55364104  0.57832057
   0.38901312  0.53799284  0.46141284
   0.43877189  0.59006292  0.62678237
   0.51054957  0.45277416  0.38916699
   0.46320613  0.55766100  0.37714141
   0.52753863  0.44590730  0.54949985
   0.50190186  0.52115537  0.47438008
   0.52500712  0.62704055  0.44105916
   0.53120763  0.37540557  0.46525924
   0.39764521  0.46745533  0.37839054
   0.45030179  0.61093879  0.52043772
Direct configuration=     4
   0.43469300  0.43307891  0.47703114
   0.60645479  0.56808109  0.49568433
   0.60037462  0.46222526  0.46375476
   0.42691717  0.50408288  0.56304260
   0.58049559  0.54391271  0.38783761
   0.53381802  0.55363194  0.57837227
   0.38897308  0.53807447  0.46123455
   0.43895076  0.58995917  0.62655382
   0.51052063  0.45298477  0.38948078
   0.46323617  0.55766062  0.37730959
   0.52763678  0.44584654  0.54946890
   0.50226104  0.52124952  0.47406125
   0.52513465  0.62701525  0.44084366
   0.53120255  0.37495228  0.46530958
   0.39729255  0.46728079  0.37814201
   0.45028104  0.61080990  0.52083647
Direct configuration=     5
   0.43461438  0.43293213  0.47694165
   0.60649677  0.56818197  0.49545887
   0.60031546  0.46228756  0.46388591
   0.42664916  0.50420879  0.56353869
   0.58082393  0.54419847  0.38770409
   0.53359323  0.55362510  0.57841112
   0.38894299  0.53813582  0.46110056
   0.43908518  0.58988120  0.62638206
   0.51049888  0.45314303  0.38971660
   0.46325875  0.55766034  0.37743598
   0.52771054  0.44580088  0.54944565
   0.50253096  0.52132027  0.47382165
   0.52523050  0.62699624  0.44068171
   0.53119874  0.37461163  0.46534740
   0.39702752  0.46714963  0.37795525
   0.45026544  0.61071304  0.52113613
Direct configuration=     6
   0.43466990  0.43306781  0.47689154
   0.60650046  0.56836321  0.49515640
   0.60014656  0.46231514  0.46403078
   0.42649309  0.50412640  0.56362955
   0.58125897  0.54456272  0.38753674
   0.53336878  0.55348506  0.57818638
   0.38920660  0.53801779  0.46101959
   0.43919427  0.58999696  0.62656758
   0.51044045  0.45333709  0.39008137
   0.46326741  0.55753729  0.37756992
   0.52755898  0.44582914  0.54919236
   0.50242848  0.52136685  0.47407460
   0.52531423  0.62695782  0.44052597
   0.53115664  0.37440352  0.46542695
   0.39685503  0.46707655  0.37785671
   0.45038257  0.61040274  0.52121686
Direct configuration=     7
   0.43468833  0.43311285  0.47687491
   0.60650169  0.56842338  0.49505598
   0.60009049  0.46232429  0.46407888
   0.42644128  0.50409905  0.56365972
   0.58140340  0.54468366  0.38748118
   0.53329427  0.55343857  0.57811177
   0.38929412  0.53797860  0.46099271
   0.43923048  0.59003539  0.62662918
   0.51042105  0.45340152  0.39020247
   0.46327029  0.55749644  0.37761439
   0.52750867  0.44583852  0.54910827
   0.50239445  0.52138231  0.47415858
   0.52534203  0.62694507  0.44047426
   0.53114266  0.37433443  0.46545336
   0.39679776  0.46705228  0.37782400
   0.45042145  0.61029972  0.52124366
Direct configuration=     8
   0.43468521  0.43316781  0.47688200
   0.60648421  0.56848520  0.49501735
   0.60003741  0.46235962  0.46404163
   0.42639278  0.50401132  0.56357431
   0.58142069  0.54468296  0.38748451
   0.53339510  0.55337499  0.57805250
   0.38933161  0.53786973  0.46101635
   0.43925497  0.59010009  0.62681566
   0.51044347  0.45348825  0.39030894
   0.46335062  0.55740912  0.37757520
   0.52735064  0.44574989  0.54908732
   0.50241844  0.52146580  0.47418890
   0.52528132  0.62695929  0.44045887
   0.53110843  0.37437535  0.46547316
   0.39683698  0.46706158  0.37784707
   0.45045054  0.61028509  0.52113954
Direct configuration=     9
   0.43468246  0.43321632  0.47688827
   0.60646877  0.56853976  0.49498327
   0.59999057  0.46239080  0.46400875
   0.42634998  0.50393389  0.56349893
   0.58143595  0.54468235  0.38748744
   0.53348410  0.55331888  0.57800019
   0.38936470  0.53777364  0.46103720
   0.43927658  0.59015720  0.62698025
   0.51046325  0.45356480  0.39040291
   0.46342152  0.55733205  0.37754061
   0.52721118  0.44567167  0.54906884
   0.50243960  0.52153948  0.47421566
   0.52522774  0.62697184  0.44044529
   0.53107821  0.37441146  0.46549064
   0.39687159  0.46706978  0.37786742
   0.45047621  0.61027218  0.52104765
Direct configuration=    10
   0.43467856  0.43324465  0.47686464
   0.60648402  0.56864410  0.49488588
   0.59993333  0.46243256  0.46402283
   0.42629063  0.50398101  0.56355505
   0.58153215  0.54475198  0.38745773
   0.53345525  0.55324781  0.57797523
   0.38940411  0.53767782  0.46103608
   0.43940835  0.59011903  0.62697590
   0.51047569  0.45363897  0.39052577
   0.46349388  0.55725219  0.37748716
   0.52703492  0.44559340  0.54903716
   0.50246599  0.52162062  0.47430729
   0.52519547  0.62700362  0.44036230
   0.53104048  0.37438984  0.46550609
   0.39687141  0.46704411  0.37784567
   0.45047819  0.61020437  0.52111853
Direct configuration=    11
   0.43467081  0.43330086  0.47681777
   0.60651427  0.56885105  0.49469274
   0.59981980  0.46251540  0.46405077
   0.42617291  0.50407447  0.56366636
   0.58172295  0.54489009  0.38739879
   0.53339805  0.55310685  0.57792573
   0.38948228  0.53748778  0.46103387
   0.43966971  0.59004332  0.62696729
   0.51050034  0.45378607  0.39076944
   0.46363741  0.55709381  0.37738113
   0.52668533  0.44543816  0.54897432
   0.50251832  0.52178155  0.47448903
   0.52513147  0.62706667  0.44019769
   0.53096563  0.37434697  0.46553674
   0.39687104  0.46699320  0.37780252
   0.45048210  0.61006987  0.52125911
Direct configuration=    12
   0.43462765  0.43329261  0.47680655
   0.60651196  0.56896912  0.49461582
   0.59979662  0.46256734  0.46414530
   0.42603819  0.50406308  0.56375375
   0.58180969  0.54496987  0.38736133
   0.53350368  0.55302083  0.57794324
   0.38950327  0.53747756  0.46099517
   0.43978896  0.59004468  0.62706726
   0.51052184  0.45383233  0.39083716
   0.46368853  0.55704698  0.37734929
   0.52655463  0.44536435  0.54900760
   0.50257449  0.52187174  0.47446981
   0.52507296  0.62707175  0.44012123
   0.53096277  0.37422944  0.46551736
   0.39682883  0.46692322  0.37770026
   0.45045837  0.61010117  0.52127218
Direct configuration=    13
   0.43457591  0.43328273  0.47679310
   0.60650921  0.56911066  0.49452361
   0.59976883  0.46262960  0.46425861
   0.42587670  0.50404943  0.56385851
   0.58191367  0.54506551  0.38731643
   0.53363031  0.55291772  0.57796422
   0.38952844  0.53746531  0.46094878
   0.43993189  0.59004631  0.62718709
   0.51054760  0.45388777  0.39091834
   0.46374980  0.55699085  0.37731113
   0.52639796  0.44527588  0.54904749
   0.50264183  0.52197986  0.47444678
   0.52500282  0.62707784  0.44002958
   0.53095934  0.37408857  0.46549413
   0.39677823  0.46683935  0.37757767
   0.45042991  0.61013870  0.52128785
