  13  13   0   0
  0.1054844E+04  0.2578316E-08  0.2338992E-08  0.2273876E-08  0.5000000E-15
   1.0000000000000000E-004
  CAR 
 unknown system                          
      2.41085388    -12.72215674  301     -3.81647505      1.00000000
    -12.722  0.0000E+00  0.0000E+00  0.0000E+00  0.0000E+00
    -12.672  0.0000E+00  0.0000E+00  0.0000E+00  0.0000E+00
    -12.621  0.0000E+00  0.0000E+00  0.0000E+00  0.0000E+00
    -12.571  0.0000E+00  0.0000E+00  0.0000E+00  0.0000E+00
    -12.520  0.0000E+00  0.0000E+00  0.0000E+00  0.0000E+00
    -12.470  0.0000E+00  0.0000E+00  0.0000E+00  0.0000E+00
    -12.419  0.0000E+00  0.0000E+00  0.0000E+00  0.0000E+00
    -12.369 -0.1641E-30  0.0000E+00 -0.8279E-32  0.0000E+00
    -12.319 -0.9341E-29 -0.6281E-29 -0.4795E-30 -0.3168E-30
    -12.268 -0.4748E-27 -0.3180E-27 -0.2443E-28 -0.1636E-28
    -12.218 -0.2122E-25 -0.1440E-25 -0.1095E-26 -0.7428E-27
    -12.167 -0.8337E-24 -0.5735E-24 -0.4315E-25 -0.2967E-25
    -12.117 -0.2880E-22 -0.2007E-22 -0.1496E-23 -0.1042E-23
    -12.066 -0.8742E-21 -0.6176E-21 -0.4559E-22 -0.3220E-22
    -12.016 -0.2332E-19 -0.1670E-19 -0.1222E-20 -0.8746E-21
    -11.966 -0.5467E-18 -0.3967E-18 -0.2880E-19 -0.2089E-19
    -11.915 -0.1126E-16 -0.8279E-17 -0.5966E-18 -0.4385E-18
    -11.865 -0.1969E-15 -0.1473E-15 -0.1053E-16 -0.7870E-17
    -11.814 -0.3124E-14 -0.2361E-14 -0.1681E-15 -0.1270E-15
    -11.764 -0.4336E-13 -0.3323E-13 -0.2356E-14 -0.1803E-14
    -11.713 -0.5279E-12 -0.4100E-12 -0.2898E-13 -0.2248E-13
    -11.663 -0.5630E-11 -0.4433E-11 -0.3130E-12 -0.2461E-12
    -11.612 -0.5258E-10 -0.4198E-10 -0.2965E-11 -0.2364E-11
    -11.562 -0.4295E-09 -0.3477E-09 -0.2463E-10 -0.1991E-10
    -11.512 -0.3066E-08 -0.2518E-08 -0.1793E-09 -0.1469E-09
    -11.461 -0.1910E-07 -0.1591E-07 -0.1143E-08 -0.9492E-09
    -11.411 -0.1036E-06 -0.8755E-07 -0.6370E-08 -0.5365E-08
    -11.360 -0.4885E-06 -0.4188E-06 -0.3101E-07 -0.2649E-07
    -11.310 -0.1994E-05 -0.1735E-05 -0.1316E-06 -0.1140E-06
    -11.259 -0.7014E-05 -0.6202E-05 -0.4854E-06 -0.4269E-06
    -11.209 -0.2112E-04 -0.1898E-04 -0.1551E-05 -0.1384E-05
    -11.158 -0.5377E-04 -0.4921E-04 -0.4263E-05 -0.3867E-05
    -11.108 -0.1135E-03 -0.1060E-03 -0.9986E-05 -0.9216E-05
    -11.058 -0.1899E-03 -0.1824E-03 -0.1957E-04 -0.1842E-04
    -11.007 -0.2234E-03 -0.2252E-03 -0.3084E-04 -0.2978E-04
    -10.957 -0.8262E-04 -0.1104E-03 -0.3500E-04 -0.3535E-04
    -10.906  0.4017E-03  0.3316E-03 -0.1474E-04 -0.1862E-04
    -10.856  0.1319E-02  0.1206E-02  0.5181E-04  0.4221E-04
    -10.805  0.2534E-02  0.2404E-02  0.1796E-03  0.1635E-03
    -10.755  0.3648E-02  0.3552E-02  0.3636E-03  0.3427E-03
    -10.704  0.4185E-02  0.4167E-02  0.5747E-03  0.5528E-03
    -10.654  0.3886E-02  0.3955E-02  0.7707E-03  0.7523E-03
    -10.604  0.2897E-02  0.3020E-02  0.9169E-03  0.9047E-03
    -10.553  0.1662E-02  0.1787E-02  0.1001E-02  0.9948E-03
    -10.503  0.6296E-03  0.7184E-03  0.1033E-02  0.1031E-02
    -10.452  0.1834E-04  0.6156E-04  0.1033E-02  0.1034E-02
    -10.402 -0.2074E-03 -0.1975E-03  0.1023E-02  0.1024E-02
    -10.351 -0.2089E-03 -0.2143E-03  0.1012E-02  0.1013E-02
    -10.301 -0.1358E-03 -0.1439E-03  0.1006E-02  0.1006E-02
    -10.250 -0.6853E-04 -0.7428E-04  0.1002E-02  0.1002E-02
    -10.200 -0.2838E-04 -0.3135E-04  0.1001E-02  0.1001E-02
    -10.150 -0.9892E-05 -0.1112E-04  0.1000E-02  0.1000E-02
    -10.099 -0.2942E-05 -0.3360E-05  0.1000E-02  0.1000E-02
    -10.049 -0.7530E-06 -0.8730E-06  0.1000E-02  0.1000E-02
     -9.998 -0.1666E-06 -0.1961E-06  0.1000E-02  0.1000E-02
     -9.948 -0.3204E-07 -0.3824E-07  0.1000E-02  0.1000E-02
     -9.897 -0.5534E-08 -0.6631E-08  0.1000E-02  0.1000E-02
     -9.847 -0.2142E-08 -0.2085E-08  0.1000E-02  0.1000E-02
     -9.796 -0.9084E-08 -0.7651E-08  0.1000E-02  0.1000E-02
     -9.746 -0.5169E-07 -0.4389E-07  0.1000E-02  0.1000E-02
     -9.696 -0.2586E-06 -0.2225E-06  0.1000E-02  0.1000E-02
     -9.645 -0.1122E-05 -0.9793E-06  0.9999E-03  0.9999E-03
     -9.595 -0.4205E-05 -0.3724E-05  0.9997E-03  0.9997E-03
     -9.544 -0.1353E-04 -0.1217E-04  0.9990E-03  0.9991E-03
     -9.494 -0.3705E-04 -0.3385E-04  0.9972E-03  0.9974E-03
     -9.443 -0.8491E-04 -0.7901E-04  0.9929E-03  0.9934E-03
     -9.393 -0.1580E-03 -0.1503E-03  0.9849E-03  0.9859E-03
     -9.342 -0.2214E-03 -0.2179E-03  0.9737E-03  0.9749E-03
     -9.292 -0.1742E-03 -0.1879E-03  0.9650E-03  0.9654E-03
     -9.242  0.1462E-03  0.9841E-04  0.9723E-03  0.9704E-03
     -9.191  0.8815E-03  0.7909E-03  0.1017E-02  0.1010E-02
     -9.141  0.2004E-02  0.1885E-02  0.1118E-02  0.1105E-02
     -9.090  0.3215E-02  0.3107E-02  0.1280E-02  0.1262E-02
     -9.040  0.4031E-02  0.3983E-02  0.1483E-02  0.1463E-02
     -8.989  0.4054E-02  0.4093E-02  0.1688E-02  0.1669E-02
     -8.939  0.3242E-02  0.3353E-02  0.1852E-02  0.1839E-02
     -8.888  0.1943E-02  0.2080E-02  0.1950E-02  0.1944E-02
     -8.838  0.6915E-03  0.7997E-03  0.1984E-02  0.1984E-02
     -8.788 -0.4389E-04 -0.8384E-05  0.1982E-02  0.1983E-02
     -8.737  0.1944E-04 -0.4540E-04  0.1983E-02  0.1981E-02
     -8.687  0.9673E-03  0.7942E-03  0.2032E-02  0.2021E-02
     -8.636  0.2668E-02  0.2410E-02  0.2167E-02  0.2143E-02
     -8.586  0.4724E-02  0.4443E-02  0.2405E-02  0.2367E-02
     -8.535  0.6508E-02  0.6295E-02  0.2733E-02  0.2684E-02
     -8.485  0.7382E-02  0.7318E-02  0.3106E-02  0.3054E-02
     -8.434  0.7001E-02  0.7113E-02  0.3459E-02  0.3412E-02
     -8.384  0.5500E-02  0.5748E-02  0.3736E-02  0.3702E-02
     -8.334  0.3430E-02  0.3724E-02  0.3909E-02  0.3890E-02
     -8.283  0.1487E-02  0.1733E-02  0.3984E-02  0.3978E-02
     -8.233  0.2456E-03  0.3783E-03  0.3997E-02  0.3997E-02
     -8.182  0.2573E-04  0.1714E-04  0.3998E-02  0.3998E-02
     -8.132  0.8756E-03  0.7309E-03  0.4042E-02  0.4034E-02
     -8.081  0.2579E-02  0.2333E-02  0.4172E-02  0.4152E-02
     -8.031  0.4666E-02  0.4382E-02  0.4407E-02  0.4373E-02
     -7.980  0.6535E-02  0.6292E-02  0.4737E-02  0.4691E-02
     -7.930  0.7700E-02  0.7559E-02  0.5126E-02  0.5072E-02
     -7.880  0.8039E-02  0.8016E-02  0.5531E-02  0.5476E-02
     -7.829  0.7812E-02  0.7876E-02  0.5925E-02  0.5874E-02
     -7.779  0.7425E-02  0.7524E-02  0.6300E-02  0.6253E-02
     -7.728  0.7151E-02  0.7244E-02  0.6660E-02  0.6618E-02
     -7.678  0.7056E-02  0.7119E-02  0.7016E-02  0.6978E-02
     -7.627  0.7127E-02  0.7146E-02  0.7376E-02  0.7338E-02
     -7.577  0.7391E-02  0.7356E-02  0.7749E-02  0.7709E-02
     -7.526  0.7828E-02  0.7752E-02  0.8144E-02  0.8100E-02
     -7.476  0.8226E-02  0.8155E-02  0.8558E-02  0.8512E-02
     -7.426  0.8254E-02  0.8236E-02  0.8975E-02  0.8927E-02
     -7.375  0.7830E-02  0.7861E-02  0.9370E-02  0.9323E-02
     -7.325  0.7417E-02  0.7420E-02  0.9744E-02  0.9698E-02
     -7.274  0.7824E-02  0.7703E-02  0.1014E-01  0.1009E-01
     -7.224  0.9590E-02  0.9310E-02  0.1062E-01  0.1056E-01
     -7.173  0.1248E-01  0.1211E-01  0.1125E-01  0.1117E-01
     -7.123  0.1556E-01  0.1524E-01  0.1204E-01  0.1194E-01
     -7.072  0.1785E-01  0.1768E-01  0.1294E-01  0.1283E-01
     -7.022  0.1883E-01  0.1884E-01  0.1389E-01  0.1378E-01
     -6.972  0.1870E-01  0.1881E-01  0.1483E-01  0.1473E-01
     -6.921  0.1805E-01  0.1818E-01  0.1574E-01  0.1564E-01
     -6.871  0.1748E-01  0.1756E-01  0.1662E-01  0.1653E-01
     -6.820  0.1730E-01  0.1733E-01  0.1750E-01  0.1740E-01
     -6.770  0.1757E-01  0.1757E-01  0.1838E-01  0.1829E-01
     -6.719  0.1823E-01  0.1822E-01  0.1930E-01  0.1921E-01
     -6.669  0.1922E-01  0.1920E-01  0.2027E-01  0.2018E-01
     -6.619  0.2039E-01  0.2034E-01  0.2130E-01  0.2120E-01
     -6.568  0.2131E-01  0.2128E-01  0.2237E-01  0.2228E-01
     -6.518  0.2148E-01  0.2150E-01  0.2346E-01  0.2336E-01
     -6.467  0.2058E-01  0.2067E-01  0.2450E-01  0.2440E-01
     -6.417  0.1887E-01  0.1899E-01  0.2545E-01  0.2536E-01
     -6.366  0.1717E-01  0.1725E-01  0.2631E-01  0.2623E-01
     -6.316  0.1650E-01  0.1647E-01  0.2715E-01  0.2706E-01
     -6.265  0.1750E-01  0.1735E-01  0.2803E-01  0.2794E-01
     -6.215  0.1997E-01  0.1975E-01  0.2904E-01  0.2893E-01
     -6.165  0.2285E-01  0.2268E-01  0.3019E-01  0.3008E-01
     -6.114  0.2487E-01  0.2482E-01  0.3144E-01  0.3133E-01
     -6.064  0.2531E-01  0.2538E-01  0.3272E-01  0.3261E-01
     -6.013  0.2455E-01  0.2467E-01  0.3396E-01  0.3386E-01
     -5.963  0.2393E-01  0.2395E-01  0.3517E-01  0.3506E-01
     -5.912  0.2492E-01  0.2474E-01  0.3642E-01  0.3631E-01
     -5.862  0.2826E-01  0.2787E-01  0.3785E-01  0.3772E-01
     -5.811  0.3344E-01  0.3296E-01  0.3953E-01  0.3938E-01
     -5.761  0.3900E-01  0.3859E-01  0.4150E-01  0.4133E-01
     -5.711  0.4323E-01  0.4300E-01  0.4368E-01  0.4350E-01
     -5.660  0.4499E-01  0.4497E-01  0.4595E-01  0.4576E-01
     -5.610  0.4418E-01  0.4431E-01  0.4818E-01  0.4800E-01
     -5.559  0.4179E-01  0.4192E-01  0.5029E-01  0.5011E-01
     -5.509  0.3947E-01  0.3945E-01  0.5228E-01  0.5210E-01
     -5.458  0.3881E-01  0.3856E-01  0.5424E-01  0.5405E-01
     -5.408  0.4044E-01  0.4000E-01  0.5628E-01  0.5607E-01
     -5.357  0.4345E-01  0.4303E-01  0.5847E-01  0.5824E-01
     -5.307  0.4574E-01  0.4560E-01  0.6078E-01  0.6054E-01
     -5.257  0.4513E-01  0.4544E-01  0.6305E-01  0.6283E-01
     -5.206  0.4060E-01  0.4135E-01  0.6510E-01  0.6491E-01
     -5.156  0.3277E-01  0.3378E-01  0.6675E-01  0.6662E-01
     -5.105  0.2342E-01  0.2442E-01  0.6794E-01  0.6785E-01
     -5.055  0.1451E-01  0.1532E-01  0.6867E-01  0.6862E-01
     -5.004  0.7410E-02  0.7954E-02  0.6904E-01  0.6902E-01
     -4.954  0.2626E-02  0.2930E-02  0.6917E-01  0.6917E-01
     -4.903 -0.3124E-04  0.1043E-03  0.6917E-01  0.6918E-01
     -4.853 -0.1129E-02 -0.1093E-02  0.6912E-01  0.6912E-01
     -4.803 -0.1277E-02 -0.1297E-02  0.6905E-01  0.6906E-01
     -4.752 -0.8935E-03 -0.9593E-03  0.6901E-01  0.6901E-01
     -4.702 -0.1416E-03 -0.2624E-03  0.6900E-01  0.6900E-01
     -4.651  0.9402E-03  0.7641E-03  0.6905E-01  0.6903E-01
     -4.601  0.2217E-02  0.2022E-02  0.6916E-01  0.6914E-01
     -4.550  0.3349E-02  0.3201E-02  0.6933E-01  0.6930E-01
     -4.500  0.3931E-02  0.3888E-02  0.6953E-01  0.6949E-01
     -4.449  0.3809E-02  0.3866E-02  0.6972E-01  0.6969E-01
     -4.399  0.3266E-02  0.3348E-02  0.6988E-01  0.6986E-01
     -4.349  0.2849E-02  0.2869E-02  0.7003E-01  0.7000E-01
     -4.298  0.2934E-02  0.2870E-02  0.7017E-01  0.7015E-01
     -4.248  0.3411E-02  0.3333E-02  0.7035E-01  0.7032E-01
     -4.197  0.3779E-02  0.3790E-02  0.7054E-01  0.7051E-01
     -4.147  0.3587E-02  0.3717E-02  0.7072E-01  0.7069E-01
     -4.096  0.2835E-02  0.2974E-02  0.7086E-01  0.7084E-01
     -4.046  0.1998E-02  0.1924E-02  0.7096E-01  0.7094E-01
     -3.995  0.1662E-02  0.1182E-02  0.7105E-01  0.7100E-01
     -3.945  0.2075E-02  0.1197E-02  0.7115E-01  0.7106E-01
     -3.895  0.2951E-02  0.1962E-02  0.7130E-01  0.7116E-01
     -3.844  0.3660E-02  0.3007E-02  0.7148E-01  0.7131E-01
     -3.794  0.3673E-02  0.3689E-02  0.7167E-01  0.7150E-01
     -3.743  0.2942E-02  0.3607E-02  0.7182E-01  0.7168E-01
     -3.693  0.1950E-02  0.2895E-02  0.7192E-01  0.7183E-01
     -3.642  0.1410E-02  0.2159E-02  0.7199E-01  0.7193E-01
     -3.592  0.1833E-02  0.2095E-02  0.7208E-01  0.7204E-01
     -3.541  0.3258E-02  0.3042E-02  0.7224E-01  0.7219E-01
     -3.491  0.5266E-02  0.4787E-02  0.7251E-01  0.7244E-01
     -3.441  0.7224E-02  0.6722E-02  0.7287E-01  0.7277E-01
     -3.390  0.8573E-02  0.8200E-02  0.7331E-01  0.7319E-01
     -3.340  0.8998E-02  0.8820E-02  0.7376E-01  0.7363E-01
     -3.289  0.8443E-02  0.8495E-02  0.7419E-01  0.7406E-01
     -3.239  0.7061E-02  0.7362E-02  0.7454E-01  0.7443E-01
     -3.188  0.5162E-02  0.5678E-02  0.7480E-01  0.7472E-01
     -3.138  0.3168E-02  0.3779E-02  0.7496E-01  0.7491E-01
     -3.087  0.1483E-02  0.2034E-02  0.7504E-01  0.7501E-01
     -3.037  0.3560E-03  0.7331E-03  0.7506E-01  0.7505E-01
     -2.987 -0.1990E-03 -0.1650E-04  0.7505E-01  0.7505E-01
     -2.936 -0.3476E-03 -0.3049E-03  0.7503E-01  0.7503E-01
     -2.886 -0.3072E-03 -0.3286E-03  0.7501E-01  0.7502E-01
     -2.835 -0.2433E-03 -0.2739E-03  0.7500E-01  0.7500E-01
     -2.785 -0.2302E-03 -0.2479E-03  0.7499E-01  0.7499E-01
     -2.734 -0.2506E-03 -0.2594E-03  0.7498E-01  0.7498E-01
     -2.684 -0.2008E-03 -0.2205E-03  0.7497E-01  0.7497E-01
     -2.633  0.8909E-04  0.3306E-04  0.7497E-01  0.7497E-01
     -2.583  0.7718E-03  0.6649E-03  0.7501E-01  0.7500E-01
     -2.533  0.1838E-02  0.1695E-02  0.7510E-01  0.7509E-01
     -2.482  0.3009E-02  0.2879E-02  0.7525E-01  0.7523E-01
     -2.432  0.3822E-02  0.3763E-02  0.7545E-01  0.7542E-01
     -2.381  0.3920E-02  0.3951E-02  0.7564E-01  0.7562E-01
     -2.331  0.3357E-02  0.3432E-02  0.7581E-01  0.7579E-01
     -2.280  0.2619E-02  0.2649E-02  0.7595E-01  0.7593E-01
     -2.230  0.2299E-02  0.2217E-02  0.7606E-01  0.7604E-01
     -2.179  0.2648E-02  0.2469E-02  0.7619E-01  0.7616E-01
     -2.129  0.3376E-02  0.3203E-02  0.7637E-01  0.7633E-01
     -2.079  0.3872E-02  0.3828E-02  0.7656E-01  0.7652E-01
     -2.028  0.3650E-02  0.3796E-02  0.7674E-01  0.7671E-01
     -1.978  0.2688E-02  0.2977E-02  0.7688E-01  0.7686E-01
     -1.927  0.1407E-02  0.1704E-02  0.7695E-01  0.7695E-01
     -1.877  0.4083E-03  0.5427E-03  0.7697E-01  0.7697E-01
     -1.826  0.1812E-03  0.2241E-05  0.7698E-01  0.7697E-01
     -1.776  0.9498E-03  0.3781E-03  0.7703E-01  0.7699E-01
     -1.726  0.2622E-02  0.1701E-02  0.7716E-01  0.7708E-01
     -1.675  0.4808E-02  0.3718E-02  0.7740E-01  0.7727E-01
     -1.625  0.6923E-02  0.5923E-02  0.7775E-01  0.7757E-01
     -1.574  0.8392E-02  0.7711E-02  0.7818E-01  0.7795E-01
     -1.524  0.8879E-02  0.8625E-02  0.7862E-01  0.7839E-01
     -1.473  0.8414E-02  0.8552E-02  0.7905E-01  0.7882E-01
     -1.423  0.7373E-02  0.7741E-02  0.7942E-01  0.7921E-01
     -1.372  0.6344E-02  0.6684E-02  0.7974E-01  0.7955E-01
     -1.322  0.5895E-02  0.5938E-02  0.8004E-01  0.7985E-01
     -1.272  0.6313E-02  0.5924E-02  0.8036E-01  0.8015E-01
     -1.221  0.7418E-02  0.6725E-02  0.8073E-01  0.8049E-01
     -1.171  0.8619E-02  0.7990E-02  0.8117E-01  0.8089E-01
     -1.120  0.9221E-02  0.9060E-02  0.8163E-01  0.8135E-01
     -1.070  0.8818E-02  0.9311E-02  0.8208E-01  0.8182E-01
     -1.019  0.7552E-02  0.8531E-02  0.8246E-01  0.8225E-01
     -0.969  0.6076E-02  0.7101E-02  0.8276E-01  0.8260E-01
     -0.918  0.5198E-02  0.5818E-02  0.8303E-01  0.8290E-01
     -0.868  0.5366E-02  0.5397E-02  0.8330E-01  0.8317E-01
     -0.818  0.6355E-02  0.5980E-02  0.8362E-01  0.8347E-01
     -0.767  0.7426E-02  0.7028E-02  0.8399E-01  0.8383E-01
     -0.717  0.7885E-02  0.7753E-02  0.8439E-01  0.8422E-01
     -0.666  0.7566E-02  0.7712E-02  0.8477E-01  0.8461E-01
     -0.616  0.6843E-02  0.7072E-02  0.8512E-01  0.8496E-01
     -0.565  0.6229E-02  0.6351E-02  0.8543E-01  0.8528E-01
     -0.515  0.5966E-02  0.5947E-02  0.8573E-01  0.8558E-01
     -0.464  0.5916E-02  0.5880E-02  0.8603E-01  0.8588E-01
     -0.414  0.5737E-02  0.5868E-02  0.8632E-01  0.8618E-01
     -0.364  0.5120E-02  0.5555E-02  0.8658E-01  0.8646E-01
     -0.313  0.3992E-02  0.4733E-02  0.8678E-01  0.8670E-01
     -0.263  0.2583E-02  0.3442E-02  0.8691E-01  0.8687E-01
     -0.212  0.1349E-02  0.1963E-02  0.8698E-01  0.8697E-01
     -0.162  0.7285E-03  0.6830E-03  0.8701E-01  0.8700E-01
     -0.111  0.8970E-03 -0.7392E-04  0.8706E-01  0.8700E-01
     -0.061  0.1673E-02 -0.1498E-03  0.8714E-01  0.8699E-01
     -0.010  0.2705E-02  0.4262E-03  0.8728E-01  0.8701E-01
      0.040  0.3841E-02  0.1473E-02  0.8747E-01  0.8709E-01
      0.090  0.5358E-02  0.2762E-02  0.8774E-01  0.8723E-01
      0.141  0.7719E-02  0.4207E-02  0.8813E-01  0.8744E-01
      0.191  0.1094E-01  0.5996E-02  0.8868E-01  0.8774E-01
      0.242  0.1415E-01  0.8431E-02  0.8940E-01  0.8817E-01
      0.292  0.1589E-01  0.1146E-01  0.9020E-01  0.8874E-01
      0.343  0.1506E-01  0.1430E-01  0.9096E-01  0.8947E-01
      0.393  0.1180E-01  0.1569E-01  0.9155E-01  0.9026E-01
      0.444  0.7364E-02  0.1470E-01  0.9193E-01  0.9100E-01
      0.494  0.3325E-02  0.1144E-01  0.9209E-01  0.9158E-01
      0.544  0.6510E-03  0.7118E-02  0.9213E-01  0.9193E-01
      0.595 -0.5630E-03  0.3190E-02  0.9210E-01  0.9210E-01
      0.645 -0.7897E-03  0.5947E-03  0.9206E-01  0.9213E-01
      0.696 -0.5906E-03 -0.5765E-03  0.9203E-01  0.9210E-01
      0.746 -0.3311E-03 -0.7845E-03  0.9201E-01  0.9206E-01
      0.797 -0.1509E-03 -0.5802E-03  0.9200E-01  0.9203E-01
      0.847 -0.5771E-04 -0.3220E-03  0.9200E-01  0.9201E-01
      0.898 -0.1884E-04 -0.1450E-03  0.9200E-01  0.9200E-01
      0.948 -0.5295E-05 -0.5475E-04  0.9200E-01  0.9200E-01
      0.998 -0.1290E-05 -0.1759E-04  0.9200E-01  0.9200E-01
      1.049 -0.2731E-06 -0.4859E-05  0.9200E-01  0.9200E-01
      1.099 -0.5044E-07 -0.1160E-05  0.9200E-01  0.9200E-01
      1.150 -0.8138E-08 -0.2404E-06  0.9200E-01  0.9200E-01
      1.200 -0.1149E-08 -0.4336E-07  0.9200E-01  0.9200E-01
      1.251 -0.1420E-09 -0.6821E-08  0.9200E-01  0.9200E-01
      1.301 -0.1539E-10 -0.9375E-09  0.9200E-01  0.9200E-01
      1.352 -0.1464E-11 -0.1127E-09  0.9200E-01  0.9200E-01
      1.402 -0.1221E-12 -0.1186E-10  0.9200E-01  0.9200E-01
      1.452 -0.8945E-14 -0.1094E-11  0.9200E-01  0.9200E-01
      1.503 -0.5766E-15 -0.8847E-13  0.9200E-01  0.9200E-01
      1.553 -0.3521E-16 -0.6277E-14  0.9200E-01  0.9200E-01
      1.604  0.0000E+00 -0.3830E-15  0.9200E-01  0.9200E-01
      1.654  0.0000E+00 -0.2641E-16  0.9200E-01  0.9200E-01
      1.705  0.0000E+00  0.0000E+00  0.9200E-01  0.9200E-01
      1.755  0.0000E+00  0.0000E+00  0.9200E-01  0.9200E-01
      1.806  0.0000E+00  0.0000E+00  0.9200E-01  0.9200E-01
      1.856  0.0000E+00  0.0000E+00  0.9200E-01  0.9200E-01
      1.906  0.0000E+00  0.0000E+00  0.9200E-01  0.9200E-01
      1.957  0.0000E+00  0.0000E+00  0.9200E-01  0.9200E-01
      2.007  0.0000E+00  0.0000E+00  0.9200E-01  0.9200E-01
      2.058  0.0000E+00  0.0000E+00  0.9200E-01  0.9200E-01
      2.108  0.0000E+00  0.0000E+00  0.9200E-01  0.9200E-01
      2.159  0.0000E+00  0.0000E+00  0.9200E-01  0.9200E-01
      2.209  0.0000E+00  0.0000E+00  0.9200E-01  0.9200E-01
      2.260  0.0000E+00  0.0000E+00  0.9200E-01  0.9200E-01
      2.310  0.0000E+00  0.0000E+00  0.9200E-01  0.9200E-01
      2.360  0.0000E+00  0.0000E+00  0.9200E-01  0.9200E-01
      2.411  0.0000E+00  0.0000E+00  0.9200E-01  0.9200E-01
