   13   13 1000    2
  0.1054844E+04  0.2578316E-08  0.2338992E-08  0.2273876E-08  0.5000000E-15
   1.0000000000000000E-004
  CAR 
 unknown system                          
    143      1     92
 
  0.1262379E-14  0.1262379E-14  0.1262379E-14  0.1000000E+01
    1      -10.722157    -10.716933   1.000000   1.000000
    2       -9.036265     -9.031373   1.000000   1.000000
    3       -8.552590     -8.546102   1.000000   1.000000
    4       -8.445803     -8.438369   1.000000   1.000000
    5       -8.000864     -7.995612   1.000000   1.000000
    6       -7.903279     -7.895204   1.000000   1.000000
    7       -7.745156     -7.739287   1.000000   1.000000
    8       -7.618994     -7.613987   1.000000   1.000000
    9       -7.450516     -7.445770   1.000000   1.000000
   10       -7.409127     -7.401908   1.000000   1.000000
   11       -7.198715     -7.192259   1.000000   1.000000
   12       -7.138419     -7.133437   1.000000   1.000000
   13       -7.114594     -7.108625   1.000000   1.000000
   14       -7.040358     -7.031375   1.000000   1.000000
   15       -6.985520     -6.981195   1.000000   1.000000
   16       -6.968760     -6.965076   1.000000   1.000000
   17       -6.857943     -6.852283   1.000000   1.000000
   18       -6.810305     -6.803236   1.000000   1.000000
   19       -6.786460     -6.782096   1.000000   1.000000
   20       -6.702309     -6.697478   1.000000   1.000000
   21       -6.648082     -6.644518   1.000000   1.000000
   22       -6.604109     -6.598527   1.000000   1.000000
   23       -6.548616     -6.544371   1.000000   1.000000
   24       -6.526404     -6.521800   1.000000   1.000000
   25       -6.468625     -6.464039   1.000000   1.000000
   26       -6.444351     -6.440581   1.000000   1.000000
   27       -6.356082     -6.349446   1.000000   1.000000
   28       -6.301118     -6.297013   1.000000   1.000000
   29       -6.202747     -6.196839   1.000000   1.000000
   30       -6.173768     -6.169349   1.000000   1.000000
   31       -6.147040     -6.142492   1.000000   1.000000
   32       -6.129903     -6.126318   1.000000   1.000000
   33       -6.083830     -6.079844   1.000000   1.000000
   34       -6.050306     -6.045183   1.000000   1.000000
   35       -6.009204     -6.005343   1.000000   1.000000
   36       -5.948189     -5.944073   1.000000   1.000000
   37       -5.920245     -5.916346   1.000000   1.000000
   38       -5.841034     -5.836917   1.000000   1.000000
   39       -5.819493     -5.814561   1.000000   1.000000
   40       -5.792032     -5.787764   1.000000   1.000000
   41       -5.772397     -5.768167   1.000000   1.000000
   42       -5.766080     -5.761559   1.000000   1.000000
   43       -5.752106     -5.747099   1.000000   1.000000
   44       -5.715411     -5.711651   1.000000   1.000000
   45       -5.695806     -5.692172   1.000000   1.000000
   46       -5.655465     -5.650133   1.000000   1.000000
   47       -5.647568     -5.643118   1.000000   1.000000
   48       -5.632257     -5.628823   1.000000   1.000000
   49       -5.620621     -5.616932   1.000000   1.000000
   50       -5.597398     -5.593977   1.000000   1.000000
   51       -5.553820     -5.550091   1.000000   1.000000
   52       -5.543109     -5.538796   1.000000   1.000000
   53       -5.518843     -5.512903   1.000000   1.000000
   54       -5.476673     -5.472609   1.000000   1.000000
   55       -5.440806     -5.434516   1.000000   1.000000
   56       -5.422566     -5.418061   1.000000   1.000000
   57       -5.362608     -5.358236   1.000000   1.000000
   58       -5.358183     -5.353515   1.000000   1.000000
   59       -5.342003     -5.337477   1.000000   1.000000
   60       -5.318275     -5.311781   1.000000   1.000000
   61       -5.312271     -5.306324   1.000000   1.000000
   62       -5.289414     -5.284099   1.000000   1.000000
   63       -5.279856     -5.275177   1.000000   1.000000
   64       -5.261495     -5.254097   1.000000   1.000000
   65       -5.228616     -5.223390   1.000000   1.000000
   66       -5.218540     -5.214785   1.000000   1.000000
   67       -5.180289     -5.176011   1.000000   1.000000
   68       -5.147673     -5.144621   1.000000   1.000000
   69       -5.079090     -5.074743   1.000000   1.000000
   70       -4.512706     -4.504662   1.000005   1.000006
   71       -4.203859     -4.194580   1.009749   1.011203
   72       -3.840568     -3.797404   0.601130   0.419709
   73       -3.478605     -3.463473  -0.019014  -0.015812
   74       -3.371283     -3.361389  -0.003604  -0.002976
   75       -3.253208     -3.232530  -0.000251  -0.000145
   76       -2.423285     -2.417046  -0.000000  -0.000000
   77       -2.089970     -2.079427  -0.000000  -0.000000
   78       -1.644377     -1.617983  -0.000000  -0.000000
   79       -1.548117     -1.525103  -0.000000  -0.000000
   80       -1.427234     -1.393170  -0.000000  -0.000000
   81       -1.227842     -1.197817  -0.000000  -0.000000
   82       -1.134225     -1.100327  -0.000000  -0.000000
   83       -1.037618     -1.012764  -0.000000  -0.000000
   84       -0.796814     -0.774490  -0.000000  -0.000000
   85       -0.733519     -0.712055  -0.000000  -0.000000
   86       -0.544053     -0.519125  -0.000000  -0.000000
   87       -0.377382     -0.351761  -0.000000  -0.000000
   88        0.018644      0.131570  -0.000000  -0.000000
   89        0.238584      0.308552  -0.000000  -0.000000
   90        0.262507      0.388373  -0.000000  -0.000000
   91        0.302429      0.404446  -0.000000  -0.000000
   92        0.323969      0.410854  -0.000000  -0.000000
