 vasp.6.1.2 22Jul20 (build Aug  2 2021 21:04:21) gamma-only                      
 executed on             LinuxPGI date 2022.01.12  07:52:45
 running on    8 total cores
 distrk:  each k-point on    8 cores,    1 groups
 distr:  one band on NCORE=   8 cores,    1 groups


--------------------------------------------------------------------------------------------------------


 INCAR:
 POTCAR:    PAW_PBE Cu 22Jun2005                  
 -----------------------------------------------------------------------------
|                                                                             |
|           W    W    AA    RRRRR   N    N  II  N    N   GGGG   !!!           |
|           W    W   A  A   R    R  NN   N  II  NN   N  G    G  !!!           |
|           W    W  A    A  R    R  N N  N  II  N N  N  G       !!!           |
|           W WW W  AAAAAA  RRRRR   N  N N  II  N  N N  G  GGG   !            |
|           WW  WW  A    A  R   R   N   NN  II  N   NN  G    G                |
|           W    W  A    A  R    R  N    N  II  N    N   GGGG   !!!           |
|                                                                             |
|     You use a magnetic or noncollinear calculation, but did not specify     |
|     the initial magnetic moment with the MAGMOM tag. Note that a            |
|     default of 1 will be used for all atoms. This ferromagnetic setup       |
|     may break the symmetry of the crystal, in particular it may rule        |
|     out finding an antiferromagnetic solution. Thence, we recommend         |
|     setting the initial magnetic moment manually or verifying carefully     |
|     that this magnetic setup is desired.                                    |
|                                                                             |
 -----------------------------------------------------------------------------

 -----------------------------------------------------------------------------
|                                                                             |
|           W    W    AA    RRRRR   N    N  II  N    N   GGGG   !!!           |
|           W    W   A  A   R    R  NN   N  II  NN   N  G    G  !!!           |
|           W    W  A    A  R    R  N N  N  II  N N  N  G       !!!           |
|           W WW W  AAAAAA  RRRRR   N  N N  II  N  N N  G  GGG   !            |
|           WW  WW  A    A  R   R   N   NN  II  N   NN  G    G                |
|           W    W  A    A  R    R  N    N  II  N    N   GGGG   !!!           |
|                                                                             |
|     For optimal performance we recommend to set                             |
|       NCORE = 4 - approx SQRT(number of cores).                             |
|     NCORE specifies how many cores store one orbital (NPAR=cpu/NCORE).      |
|     This setting can greatly improve the performance of VASP for DFT.       |
|     The default, NCORE=1 might be grossly inefficient on modern             |
|     multi-core architectures or massively parallel machines. Do your        |
|     own testing!!!!                                                         |
|     Unfortunately you need to use the default for GW and RPA                |
|     calculations (for HF NCORE is supported but not extensively tested      |
|     yet).                                                                   |
|                                                                             |
 -----------------------------------------------------------------------------

 POTCAR:    PAW_PBE Cu 22Jun2005                  
   SHA256 =  0e71e558f37a4e8407882b4609ceaae59938afaad9ced71dfe8490308a0ab630 Cu/POTCAR             
   COPYR  = (c) Copyright 22Jun2005 Georg Kresse                                                    
   COPYR  = This file is part of the software VASP. Any use, copying, and all other rights are regul
   COPYR  = If you do not have a valid VASP license, you may not use, copy or distribute this file. 
   VRHFIN =Cu: d10 p1                                                                               
   LEXCH  = PE                                                                                      
   EATOM  =  1390.9808 eV,  102.2342 Ry                                                             
                                                                                                    
   TITEL  = PAW_PBE Cu 22Jun2005                                                                    
   LULTRA =        F    use ultrasoft PP ?                                                          
   IUNSCR =        1    unscreen: 0-lin 1-nonlin 2-no                                               
   RPACOR =    2.000    partial core radius                                                         
   POMASS =   63.546; ZVAL   =   11.000    mass and valenz                                          
   RCORE  =    2.300    outmost cutoff radius                                                       
   RWIGS  =    2.200; RWIGS  =    1.164    wigner-seitz radius (au A)                               
   ENMAX  =  295.446; ENMIN  =  221.585 eV                                                          
   ICORE  =        3    local potential                                                             
   LCOR   =        T    correct aug charges                                                         
   LPAW   =        T    paw PP                                                                      
   EAUG   =  586.980                                                                                
   DEXC   =    0.000                                                                                
   RMAX   =    2.344    core radius for proj-oper                                                   
   RAUG   =    1.300    factor for augmentation sphere                                              
   RDEP   =    2.302    radius for radial grids                                                     
   RDEPT  =    1.771    core radius for aug-charge                                                  
                                                                                                    
   Atomic configuration                                                                             
    9 entries                                                                                       
     n  l   j            E        occ.                                                              
     1  0  0.50     -8850.2468   2.0000                                                             
     2  0  0.50     -1062.3498   2.0000                                                             
     2  1  1.50      -916.8226   6.0000                                                             
     3  0  0.50      -114.6929   2.0000                                                             
     3  1  1.50       -72.1325   6.0000                                                             
     3  2  2.50        -5.0394  10.0000                                                             
     4  0  0.50        -4.6097   1.0000                                                             
     4  1  0.50        -4.0817   0.0000                                                             
     4  3  2.50        -1.3606   0.0000                                                             
   Description                                                                                      
     l       E           TYP  RCUT    TYP  RCUT                                                     
     2     -5.0393973     23  2.200                                                                 
     2     10.8846608     23  2.200                                                                 
     0     -4.6097109     23  2.200                                                                 
     0      8.2520465     23  2.200                                                                 
     1     -2.7211652     23  2.200                                                                 
     1     21.7055443     23  2.200                                                                 
     3      2.7211652     23  2.300                                                                 
  local pseudopotential read in
  partial core-charges read in
  partial kinetic energy density read in
  atomic valenz-charges read in
  non local Contribution for L=            2  read in
    real space projection operators read in
  non local Contribution for L=            2  read in
    real space projection operators read in
  non local Contribution for L=            0  read in
    real space projection operators read in
  non local Contribution for L=            0  read in
    real space projection operators read in
  non local Contribution for L=            1  read in
    real space projection operators read in
  non local Contribution for L=            1  read in
    real space projection operators read in
    PAW grid and wavefunctions read in
 
   number of l-projection  operators is LMAX  =            6
   number of lm-projection operators is LMMAX =           18
 
  PAW_PBE Cu 22Jun2005                  :
 energy of atom  1       EATOM=-1390.9808
 kinetic energy error for atom=    0.0232 (will be added to EATOM!!)
 
 
 POSCAR: Cu
  positions in cartesian coordinates
  No initial velocities read in
 exchange correlation table for  LEXCH =        8
   RHO(1)=    0.500       N(1)  =     2000
   RHO(2)=  100.500       N(2)  =     4000
 


--------------------------------------------------------------------------------------------------------


 ion  position               nearest neighbor table
   1  0.548  0.588  0.508-  13 2.43   4 2.43  12 2.45  11 2.49   3 2.50   8 2.53   2 2.55   5 2.62

   2  0.493  0.497  0.512-  10 2.41  13 2.41   6 2.42  11 2.42   9 2.43   8 2.44   7 2.54   5 2.55
                             1 2.55   3 2.56
   3  0.483  0.576  0.589-   1 2.50  11 2.50   6 2.50   7 2.50   4 2.51   5 2.53   2 2.56
   4  0.573  0.614  0.608-   1 2.43   5 2.45  12 2.46   3 2.51
   5  0.562  0.511  0.591-  12 2.44   4 2.45  10 2.47   7 2.48   8 2.49   3 2.53   2 2.55   1 2.62

   6  0.408  0.518  0.554-   2 2.42   7 2.50   3 2.50   9 2.51  11 2.54
   7  0.475  0.474  0.619-   9 2.42   5 2.48   6 2.50   3 2.50  10 2.53   2 2.54
   8  0.584  0.489  0.487-   2 2.44  12 2.48   5 2.49   1 2.53  13 2.54  10 2.63
   9  0.439  0.417  0.541-   7 2.42   2 2.43  10 2.51   6 2.51
  10  0.535  0.416  0.555-   2 2.41   5 2.47   9 2.51   7 2.53   8 2.63
  11  0.453  0.588  0.485-   2 2.42   1 2.49   3 2.50  13 2.53   6 2.54
  12  0.634  0.561  0.545-   5 2.44   1 2.45   4 2.46   8 2.48
  13  0.519  0.539  0.420-   2 2.41   1 2.43  11 2.53   8 2.54
 

IMPORTANT INFORMATION: All symmetrisations will be switched off!
NOSYMM: (Re-)initialisation of all symmetry stuff for point group C_1.


----------------------------------------------------------------------------------------

                                     Primitive cell                                     

  volume of cell :   13712.9716

  direct lattice vectors                    reciprocal lattice vectors
    25.783158786  0.000000000  0.000000000     0.038785007  0.000000000  0.000000000
     0.000000000 23.389920537  0.000000000     0.000000000  0.042753459  0.000000000
     0.000000000  0.000000000 22.738756272     0.000000000  0.000000000  0.043977779

  length of vectors
    25.783158786 23.389920537 22.738756272     0.038785007  0.042753459  0.043977779

  position of ions in fractional coordinates (direct lattice)
     0.548042748  0.587701812  0.508253416
     0.492577556  0.497433497  0.512029983
     0.483447787  0.576350069  0.589118572
     0.573152405  0.613772426  0.607922283
     0.561584040  0.511254217  0.591077807
     0.408409693  0.518012550  0.553817140
     0.475125354  0.473829807  0.619349027
     0.584358699  0.489274595  0.486988072
     0.438967290  0.416732300  0.540606558
     0.535493442  0.415951004  0.554592081
     0.453440438  0.587974887  0.485270046
     0.634018555  0.560943140  0.544604823
     0.519414294  0.538770865  0.419989977

  ion indices of the primitive-cell ions
   primitive index   ion index
                 1           1
                 2           2
                 3           3
                 4           4
                 5           5
                 6           6
                 7           7
                 8           8
                 9           9
                10          10
                11          11
                12          12
                13          13

----------------------------------------------------------------------------------------

 
 
 KPOINTS: KPOINTS created by Atomic Simulation Env

Automatic generation of k-mesh.
Space group operators:
 irot       det(A)        alpha          n_x          n_y          n_z        tau_x        tau_y        tau_z
    1     1.000000     0.000000     1.000000     0.000000     0.000000     0.000000     0.000000     0.000000
 
 Subroutine IBZKPT returns following result:
 ===========================================
 
 Found      1 irreducible k-points:
 
 Following reciprocal coordinates:
            Coordinates               Weight
  0.000000  0.000000  0.000000      1.000000
 
 Following cartesian coordinates:
            Coordinates               Weight
  0.000000  0.000000  0.000000      1.000000
 


--------------------------------------------------------------------------------------------------------




 Dimension of arrays:
   k-points           NKPTS =      1   k-points in BZ     NKDIM =      1   number of bands    NBANDS=     92
   number of dos      NEDOS =    301   number of ions     NIONS =     13
   non local maximal  LDIM  =      6   non local SUM 2l+1 LMDIM =     18
   total plane-waves  NPLWV = ******
   max r-space proj   IRMAX =      1   max aug-charges    IRDMAX=   3776
   dimension x,y,z NGX =   126 NGY =  120 NGZ =  112
   dimension x,y,z NGXF=   252 NGYF=  240 NGZF=  224
   support grid    NGXF=   252 NGYF=  240 NGZF=  224
   ions per type =              13
   NGX,Y,Z   is equivalent  to a cutoff of   8.12,  8.53,  8.19 a.u.
   NGXF,Y,Z  is equivalent  to a cutoff of  16.25, 17.06, 16.38 a.u.

 SYSTEM =  unknown system                          
 POSCAR =  Cu                                      

 Startparameter for this run:
   NWRITE =      2    write-flag & timer
   PREC   = normal    normal or accurate (medium, high low for compatibility)
   ISTART =      0    job   : 0-new  1-cont  2-samecut
   ICHARG =      2    charge: 1-file 2-atom 10-const
   ISPIN  =      2    spin polarized calculation?
   LNONCOLLINEAR =      F non collinear calculations
   LSORBIT =      F    spin-orbit coupling
   INIWAV =      1    electr: 0-lowe 1-rand  2-diag
   LASPH  =      F    aspherical Exc in radial PAW
   METAGGA=      F    non-selfconsistent MetaGGA calc.

 Electronic Relaxation 1
   ENCUT  =  400.0 eV  29.40 Ry    5.42 a.u.  42.05 38.14 37.08*2*pi/ulx,y,z
   ENINI  =  400.0     initial cutoff
   ENAUG  =  587.0 eV  augmentation charge cutoff
   NELM   =     60;   NELMIN=  2; NELMDL=  0     # of ELM steps 
   EDIFF  = 0.1E-03   stopping-criterion for ELM
   LREAL  =      F    real-space projection
   NLSPLINE    = F    spline interpolate recip. space projectors
   LCOMPAT=      F    compatible to vasp.4.4
   GGA_COMPAT  = T    GGA compatible to vasp.4.4-vasp.4.6
   LMAXPAW     = -100 max onsite density
   LMAXMIX     =    2 max onsite mixed and CHGCAR
   VOSKOWN=      0    Vosko Wilk Nusair interpolation
   ROPT   =    0.00000
 Ionic relaxation
   EDIFFG = 0.1E-02   stopping-criterion for IOM
   NSW    =   1000    number of steps for IOM
   NBLOCK =      1;   KBLOCK =   1000    inner block; outer block 
   IBRION =      2    ionic relax: 0-MD 1-quasi-New 2-CG
   NFREE  =      1    steps in history (QN), initial steepest desc. (CG)
   ISIF   =      0    stress and relaxation
   IWAVPR =     11    prediction:  0-non 1-charg 2-wave 3-comb
   ISYM   =      0    0-nonsym 1-usesym 2-fastsym
   LCORR  =      T    Harris-Foulkes like correction to forces

   POTIM  = 0.5000    time-step for ionic-motion
   TEIN   =    0.0    initial temperature
   TEBEG  =    0.0;   TEEND  =   0.0 temperature during run
   SMASS  =  -3.00    Nose mass-parameter (am)
   estimated Nose-frequenzy (Omega)   =  0.10E-29 period in steps = 0.13E+47 mass=  -0.152E-25a.u.
   SCALEE = 1.0000    scale energy and forces
   NPACO  =    256;   APACO  = 16.0  distance and # of slots for P.C.
   PSTRESS=    0.0 pullay stress

  Mass of Ions in am
   POMASS =  63.55
  Ionic Valenz
   ZVAL   =  11.00
  Atomic Wigner-Seitz radii
   RWIGS  =  -1.00
  virtual crystal weights 
   VCA    =   1.00
   NELECT =     143.0000    total number of electrons
   NUPDOWN=      -1.0000    fix difference up-down

 DOS related values:
   EMIN   =  10.00;   EMAX   =-10.00  energy-range for DOS
   EFERMI =   0.00
   ISMEAR =     1;   SIGMA  =   0.20  broadening in eV -4-tet -1-fermi 0-gaus

 Electronic relaxation 2 (details)
   IALGO  =     38    algorithm
   LDIAG  =      T    sub-space diagonalisation (order eigenvalues)
   LSUBROT=      F    optimize rotation matrix (better conditioning)
   TURBO    =      0    0=normal 1=particle mesh
   IRESTART =      0    0=no restart 2=restart with 2 vectors
   NREBOOT  =      0    no. of reboots
   NMIN     =      0    reboot dimension
   EREF     =   0.00    reference energy to select bands
   IMIX   =      4    mixing-type and parameters
     AMIX     =   0.40;   BMIX     =  1.00
     AMIX_MAG =   1.60;   BMIX_MAG =  1.00
     AMIN     =   0.10
     WC   =   100.;   INIMIX=   1;  MIXPRE=   1;  MAXMIX= -45

 Intra band minimization:
   WEIMIN = 0.0010     energy-eigenvalue tresh-hold
   EBREAK =  0.27E-06  absolut break condition
   DEPER  =   0.30     relativ break condition  

   TIME   =   0.40     timestep for ELM

  volume/ion in A,a.u.               =    1054.84      7118.44
  Fermi-wavevector in a.u.,A,eV,Ry     =   0.357665  0.675889  1.740514  0.127924
  Thomas-Fermi vector in A             =   1.275240
 
 Write flags
   LWAVE        =      F    write WAVECAR
   LDOWNSAMPLE  =      F    k-point downsampling of WAVECAR
   LCHARG       =      F    write CHGCAR
   LVTOT        =      F    write LOCPOT, total local potential
   LVHAR        =      F    write LOCPOT, Hartree potential only
   LELF         =      F    write electronic localiz. function (ELF)
   LORBIT       =      0    0 simple, 1 ext, 2 COOP (PROOUT), +10 PAW based schemes


 Dipole corrections
   LMONO  =      F    monopole corrections only (constant potential shift)
   LDIPOL =      F    correct potential (dipole corrections)
   IDIPOL =      0    1-x, 2-y, 3-z, 4-all directions 
   EPSILON=  1.0000000 bulk dielectric constant

 Exchange correlation treatment:
   GGA     =    PE    GGA type
   LEXCH   =     8    internal setting for exchange type
   VOSKOWN=      0    Vosko Wilk Nusair interpolation
   LHFCALC =     F    Hartree Fock is set to
   LHFONE  =     F    Hartree Fock one center treatment
   AEXX    =    0.0000 exact exchange contribution

 Linear response parameters
   LEPSILON=     F    determine dielectric tensor
   LRPA    =     F    only Hartree local field effects (RPA)
   LNABLA  =     F    use nabla operator in PAW spheres
   LVEL    =     F    velocity operator in full k-point grid
   LINTERFAST=   F  fast interpolation
   KINTER  =     0    interpolate to denser k-point grid
   CSHIFT  =0.1000    complex shift for real part using Kramers Kronig
   OMEGAMAX=  -1.0    maximum frequency
   DEG_THRESHOLD= 0.2000000E-02 threshold for treating states as degnerate
   RTIME   =   -0.100 relaxation time in fs
  (WPLASMAI=    0.000 imaginary part of plasma frequency in eV, 0.658/RTIME)
   DFIELD  = 0.0000000 0.0000000 0.0000000 field for delta impulse in time
 
 Orbital magnetization related:
   ORBITALMAG=     F  switch on orbital magnetization
   LCHIMAG   =     F  perturbation theory with respect to B field
   DQ        =  0.001000  dq finite difference perturbation B field
   LLRAUG    =     F  two centre corrections for induced B field



--------------------------------------------------------------------------------------------------------


 conjugate gradient relaxation of ions
 charge density and potential will be updated during run
 spin polarized calculation
 Variant of blocked Davidson
 Davidson routine will perform the subspace rotation
 perform sub-space diagonalisation
    after iterative eigenvector-optimisation
 modified Broyden-mixing scheme, WC =      100.0
 initial mixing is a Kerker type mixing with AMIX =  0.4000 and BMIX =      1.0000
 Hartree-type preconditioning will be used
 using additional bands            20
 reciprocal scheme for non local part
 use partial core corrections
 calculate Harris-corrections to forces 
   (improved forces if not selfconsistent)
 use gradient corrections 
 use of overlap-Matrix (Vanderbilt PP)
 Methfessel and Paxton  Order N= 1 SIGMA  =   0.20


--------------------------------------------------------------------------------------------------------


  energy-cutoff  :      400.00
  volume of cell :    13712.97
      direct lattice vectors                 reciprocal lattice vectors
    25.783158786  0.000000000  0.000000000     0.038785007  0.000000000  0.000000000
     0.000000000 23.389920537  0.000000000     0.000000000  0.042753459  0.000000000
     0.000000000  0.000000000 22.738756272     0.000000000  0.000000000  0.043977779

  length of vectors
    25.783158786 23.389920537 22.738756272     0.038785007  0.042753459  0.043977779


 
 k-points in units of 2pi/SCALE and weight: KPOINTS created by Atomic Simulation Env
   0.00000000  0.00000000  0.00000000       1.000
 
 k-points in reciprocal lattice and weights: KPOINTS created by Atomic Simulation Env
   0.00000000  0.00000000  0.00000000       1.000
 
 position of ions in fractional coordinates (direct lattice) 
   0.54804275  0.58770181  0.50825342
   0.49257756  0.49743350  0.51202998
   0.48344779  0.57635007  0.58911857
   0.57315240  0.61377243  0.60792228
   0.56158404  0.51125422  0.59107781
   0.40840969  0.51801255  0.55381714
   0.47512535  0.47382981  0.61934903
   0.58435870  0.48927460  0.48698807
   0.43896729  0.41673230  0.54060656
   0.53549344  0.41595100  0.55459208
   0.45344044  0.58797489  0.48527005
   0.63401855  0.56094314  0.54460482
   0.51941429  0.53877087  0.41998998
 
 position of ions in cartesian coordinates  (Angst):
  14.13027319 13.74629867 11.55705056
  12.70020534 11.63492996 11.64292498
  12.46481105 13.48078232 13.39582362
  14.77767946 14.35608828 13.82339662
  14.47941047 11.95819550 13.44037419
  10.53009196 12.11627238 12.59311297
  12.25023244 11.08284153 14.08322658
  15.06661313 11.44409390 11.07350307
  11.31796334  9.74733538 12.29272076
  13.80671244  9.72906094 12.61073417
  11.69112682 13.75268588 11.03443729
  16.34700107 13.12041547 12.38363633
  13.39214123 12.60180772  9.55004972
 


--------------------------------------------------------------------------------------------------------


 use parallel FFT for orbitals z direction half grid
 k-point   1 :   0.0000 0.0000 0.0000  plane waves:  124568

 maximum and minimum number of plane-waves per node :     15581    15562

 maximum number of plane-waves:    124568
 maximum index in each direction: 
   IXMAX=   42   IYMAX=   38   IZMAX=   37
   IXMIN=  -42   IYMIN=  -38   IZMIN=    0


 parallel 3D FFT for wavefunctions:
    minimum data exchange during FFTs selected (reduces bandwidth)
 parallel 3D FFT for charge:
    minimum data exchange during FFTs selected (reduces bandwidth)


 total amount of memory used by VASP MPI-rank0   285976. kBytes
=======================================================================

   base      :      30000. kBytes
   nonl-proj :       5483. kBytes
   fftplans  :      62558. kBytes
   grid      :     141987. kBytes
   one-center:         31. kBytes
   wavefun   :      45917. kBytes
 
     INWAV:  cpu time    0.0000: real time    0.0000
 Broyden mixing: mesh for mixing (old mesh)
   NGX = 85   NGY = 77   NGZ = 75
  (NGX  =252   NGY  =240   NGZ  =224)
  gives a total of 490875 points

 initial charge density was supplied:
 charge density of overlapping atoms calculated
 number of electron     143.0000000 magnetization      13.0000000
 keeping initial charge density in first step


--------------------------------------------------------------------------------------------------------


 Maximum index for augmentation-charges           457 (set IRDMAX)


--------------------------------------------------------------------------------------------------------


 First call to EWALD:  gamma=   0.074
 Maximum number of real-space cells 3x 3x 3
 Maximum number of reciprocal cells 3x 3x 3

    FEWALD:  cpu time    0.0014: real time    0.0028


--------------------------------------- Iteration      1(   1)  ---------------------------------------


    POTLOK:  cpu time    5.1944: real time    5.2142
    SETDIJ:  cpu time    0.0518: real time    0.0519
     EDDAV:  cpu time   20.0336: real time   20.0615
       DOS:  cpu time    0.0064: real time    0.0064
    --------------------------------------------
      LOOP:  cpu time   25.2861: real time   25.3340

 eigenvalue-minimisations  :   368
 total energy-change (2. order) : 0.9759426E+03  (-0.2460522E+04)
 number of electron     143.0000000 magnetization      13.0000000
 augmentation part      143.0000000 magnetization      13.0000000

 Free energy of the ion-electron system (eV)
  ---------------------------------------------------
  alpha Z        PSCENC =         9.01295809
  Ewald energy   TEWEN  =     25393.97262084
  -Hartree energ DENC   =    -41854.07668672
  -exchange      EXHF   =         0.00000000
  -V(xc)+E(xc)   XCENC  =       584.59178811
  PAW double counting   =     15965.26744864   -17340.97210982
  entropy T*S    EENTRO =        -0.01650929
  eigenvalues    EBANDS =       135.71380124
  atomic energy  EATOM  =     18082.44932260
  Solvation  Ediel_sol  =         0.00000000
  ---------------------------------------------------
  free energy    TOTEN  =       975.94263369 eV

  energy without entropy =      975.95914298  energy(sigma->0) =      975.94813679


--------------------------------------------------------------------------------------------------------




--------------------------------------- Iteration      1(   2)  ---------------------------------------


     EDDAV:  cpu time   20.1162: real time   20.1418
       DOS:  cpu time    0.0032: real time    0.0032
    --------------------------------------------
      LOOP:  cpu time   20.1195: real time   20.1450

 eigenvalue-minimisations  :   400
 total energy-change (2. order) :-0.7128260E+03  (-0.6308584E+03)
 number of electron     143.0000000 magnetization      13.0000000
 augmentation part      143.0000000 magnetization      13.0000000

 Free energy of the ion-electron system (eV)
  ---------------------------------------------------
  alpha Z        PSCENC =         9.01295809
  Ewald energy   TEWEN  =     25393.97262084
  -Hartree energ DENC   =    -41854.07668672
  -exchange      EXHF   =         0.00000000
  -V(xc)+E(xc)   XCENC  =       584.59178811
  PAW double counting   =     15965.26744864   -17340.97210982
  entropy T*S    EENTRO =        -0.01536486
  eigenvalues    EBANDS =      -577.11331271
  atomic energy  EATOM  =     18082.44932260
  Solvation  Ediel_sol  =         0.00000000
  ---------------------------------------------------
  free energy    TOTEN  =       263.11666417 eV

  energy without entropy =      263.13202903  energy(sigma->0) =      263.12178579


--------------------------------------------------------------------------------------------------------




--------------------------------------- Iteration      1(   3)  ---------------------------------------


     EDDAV:  cpu time   22.7038: real time   22.7334
       DOS:  cpu time    0.0015: real time    0.0015
    --------------------------------------------
      LOOP:  cpu time   22.7053: real time   22.7349

 eigenvalue-minimisations  :   472
 total energy-change (2. order) :-0.2520715E+03  (-0.2431551E+03)
 number of electron     143.0000000 magnetization      13.0000000
 augmentation part      143.0000000 magnetization      13.0000000

 Free energy of the ion-electron system (eV)
  ---------------------------------------------------
  alpha Z        PSCENC =         9.01295809
  Ewald energy   TEWEN  =     25393.97262084
  -Hartree energ DENC   =    -41854.07668672
  -exchange      EXHF   =         0.00000000
  -V(xc)+E(xc)   XCENC  =       584.59178811
  PAW double counting   =     15965.26744864   -17340.97210982
  entropy T*S    EENTRO =        -0.00617185
  eigenvalues    EBANDS =      -829.19403078
  atomic energy  EATOM  =     18082.44932260
  Solvation  Ediel_sol  =         0.00000000
  ---------------------------------------------------
  free energy    TOTEN  =        11.04513911 eV

  energy without entropy =       11.05131095  energy(sigma->0) =       11.04719639


--------------------------------------------------------------------------------------------------------




--------------------------------------- Iteration      1(   4)  ---------------------------------------


     EDDAV:  cpu time   22.5961: real time   22.6226
       DOS:  cpu time    0.0043: real time    0.0043
    --------------------------------------------
      LOOP:  cpu time   22.6004: real time   22.6269

 eigenvalue-minimisations  :   448
 total energy-change (2. order) :-0.4583831E+02  (-0.4199469E+02)
 number of electron     143.0000000 magnetization      13.0000000
 augmentation part      143.0000000 magnetization      13.0000000

 Free energy of the ion-electron system (eV)
  ---------------------------------------------------
  alpha Z        PSCENC =         9.01295809
  Ewald energy   TEWEN  =     25393.97262084
  -Hartree energ DENC   =    -41854.07668672
  -exchange      EXHF   =         0.00000000
  -V(xc)+E(xc)   XCENC  =       584.59178811
  PAW double counting   =     15965.26744864   -17340.97210982
  entropy T*S    EENTRO =        -0.00532038
  eigenvalues    EBANDS =      -875.03319416
  atomic energy  EATOM  =     18082.44932260
  Solvation  Ediel_sol  =         0.00000000
  ---------------------------------------------------
  free energy    TOTEN  =       -34.79317280 eV

  energy without entropy =      -34.78785242  energy(sigma->0) =      -34.79139934


--------------------------------------------------------------------------------------------------------




--------------------------------------- Iteration      1(   5)  ---------------------------------------


     EDDAV:  cpu time   22.7623: real time   22.7890
       DOS:  cpu time    0.0029: real time    0.0029
    CHARGE:  cpu time    1.7292: real time    1.7311
    MIXING:  cpu time    0.0777: real time    0.0777
    --------------------------------------------
      LOOP:  cpu time   24.5720: real time   24.6007

 eigenvalue-minimisations  :   472
 total energy-change (2. order) :-0.2195705E+01  (-0.2171830E+01)
 number of electron     143.0000583 magnetization      12.0101593
 augmentation part       87.4914653 magnetization      11.5487734

 Broyden mixing:
  rms(total) = 0.28256E+01    rms(broyden)= 0.28254E+01
  rms(prec ) = 0.28896E+01
  weight for this iteration     100.00

 Free energy of the ion-electron system (eV)
  ---------------------------------------------------
  alpha Z        PSCENC =         9.01295809
  Ewald energy   TEWEN  =     25393.97262084
  -Hartree energ DENC   =    -41854.07668672
  -exchange      EXHF   =         0.00000000
  -V(xc)+E(xc)   XCENC  =       584.59178811
  PAW double counting   =     15965.26744864   -17340.97210982
  entropy T*S    EENTRO =        -0.00765240
  eigenvalues    EBANDS =      -877.22656736
  atomic energy  EATOM  =     18082.44932260
  Solvation  Ediel_sol  =         0.00000000
  ---------------------------------------------------
  free energy    TOTEN  =       -36.98887803 eV

  energy without entropy =      -36.98122562  energy(sigma->0) =      -36.98632723


--------------------------------------------------------------------------------------------------------




--------------------------------------- Iteration      1(   6)  ---------------------------------------


    POTLOK:  cpu time    5.0745: real time    5.0853
    SETDIJ:  cpu time    0.0389: real time    0.0390
     EDDAV:  cpu time   19.2791: real time   19.3004
       DOS:  cpu time    0.0013: real time    0.0013
    CHARGE:  cpu time    1.6985: real time    1.7001
    MIXING:  cpu time    0.0931: real time    0.0986
    --------------------------------------------
      LOOP:  cpu time   26.1854: real time   26.2247

 eigenvalue-minimisations  :   388
 total energy-change (2. order) : 0.1961082E+02  (-0.1285440E+02)
 number of electron     143.0000636 magnetization      11.4885799
 augmentation part       94.9098608 magnetization       6.2288783

 Broyden mixing:
  rms(total) = 0.11966E+01    rms(broyden)= 0.11963E+01
  rms(prec ) = 0.12595E+01
  weight for this iteration     100.00

 eigenvalues of (default mixing * dielectric matrix)
  average eigenvalue GAMMA=   0.8282
  0.8282

 Free energy of the ion-electron system (eV)
  ---------------------------------------------------
  alpha Z        PSCENC =         9.01295809
  Ewald energy   TEWEN  =     25393.97262084
  -Hartree energ DENC   =    -41640.01394309
  -exchange      EXHF   =         0.00000000
  -V(xc)+E(xc)   XCENC  =       585.07123461
  PAW double counting   =     16120.78595273   -17451.42982736
  entropy T*S    EENTRO =        -0.04053568
  eigenvalues    EBANDS =     -1117.18583700
  atomic energy  EATOM  =     18082.44932260
  Solvation  Ediel_sol  =         0.00000000
  ---------------------------------------------------
  free energy    TOTEN  =       -17.37805426 eV

  energy without entropy =      -17.33751858  energy(sigma->0) =      -17.36454237


--------------------------------------------------------------------------------------------------------




--------------------------------------- Iteration      1(   7)  ---------------------------------------


    POTLOK:  cpu time    5.0673: real time    5.0748
    SETDIJ:  cpu time    0.0389: real time    0.0389
     EDDAV:  cpu time   21.2930: real time   21.3194
       DOS:  cpu time    0.0017: real time    0.0017
    CHARGE:  cpu time    1.7435: real time    1.7454
    MIXING:  cpu time    0.1033: real time    0.1034
    --------------------------------------------
      LOOP:  cpu time   28.2476: real time   28.2837

 eigenvalue-minimisations  :   440
 total energy-change (2. order) : 0.3896809E+01  (-0.3047535E+01)
 number of electron     143.0000616 magnetization      10.9275330
 augmentation part       92.1503954 magnetization       5.8088994

 Broyden mixing:
  rms(total) = 0.51821E+00    rms(broyden)= 0.51811E+00
  rms(prec ) = 0.53874E+00
  weight for this iteration     100.00

 eigenvalues of (default mixing * dielectric matrix)
  average eigenvalue GAMMA=   0.7862
  0.9468  0.6256

 Free energy of the ion-electron system (eV)
  ---------------------------------------------------
  alpha Z        PSCENC =         9.01295809
  Ewald energy   TEWEN  =     25393.97262084
  -Hartree energ DENC   =    -41796.65343677
  -exchange      EXHF   =         0.00000000
  -V(xc)+E(xc)   XCENC  =       591.46384870
  PAW double counting   =     16423.95629765   -17807.05229755
  entropy T*S    EENTRO =        -0.05231801
  eigenvalues    EBANDS =      -910.57824039
  atomic energy  EATOM  =     18082.44932260
  Solvation  Ediel_sol  =         0.00000000
  ---------------------------------------------------
  free energy    TOTEN  =       -13.48124484 eV

  energy without entropy =      -13.42892683  energy(sigma->0) =      -13.46380550


--------------------------------------------------------------------------------------------------------




--------------------------------------- Iteration      1(   8)  ---------------------------------------


    POTLOK:  cpu time    5.0420: real time    5.0494
    SETDIJ:  cpu time    0.0400: real time    0.0400
     EDDAV:  cpu time   21.3001: real time   21.3272
       DOS:  cpu time    0.0019: real time    0.0019
    CHARGE:  cpu time    1.7257: real time    1.7303
    MIXING:  cpu time    0.1129: real time    0.1130
    --------------------------------------------
      LOOP:  cpu time   28.2226: real time   28.2618

 eigenvalue-minimisations  :   428
 total energy-change (2. order) : 0.8421577E+00  (-0.7354217E+00)
 number of electron     143.0000615 magnetization      10.4488942
 augmentation part       91.6645254 magnetization       4.8498364

 Broyden mixing:
  rms(total) = 0.42808E+00    rms(broyden)= 0.42799E+00
  rms(prec ) = 0.44812E+00
  weight for this iteration     100.00

 eigenvalues of (default mixing * dielectric matrix)
  average eigenvalue GAMMA=   0.7525
  1.0972  0.6632  0.4972

 Free energy of the ion-electron system (eV)
  ---------------------------------------------------
  alpha Z        PSCENC =         9.01295809
  Ewald energy   TEWEN  =     25393.97262084
  -Hartree energ DENC   =    -41822.13871474
  -exchange      EXHF   =         0.00000000
  -V(xc)+E(xc)   XCENC  =       592.29404987
  PAW double counting   =     16585.40660377   -17978.19466975
  entropy T*S    EENTRO =        -0.02878863
  eigenvalues    EBANDS =      -875.41246921
  atomic energy  EATOM  =     18082.44932260
  Solvation  Ediel_sol  =         0.00000000
  ---------------------------------------------------
  free energy    TOTEN  =       -12.63908717 eV

  energy without entropy =      -12.61029854  energy(sigma->0) =      -12.62949096


--------------------------------------------------------------------------------------------------------




--------------------------------------- Iteration      1(   9)  ---------------------------------------


    POTLOK:  cpu time    5.0778: real time    5.0919
    SETDIJ:  cpu time    0.0400: real time    0.0401
     EDDAV:  cpu time   26.1196: real time   26.1560
       DOS:  cpu time    0.0022: real time    0.0022
    CHARGE:  cpu time    1.7323: real time    1.7346
    MIXING:  cpu time    0.1342: real time    0.1343
    --------------------------------------------
      LOOP:  cpu time   33.1061: real time   33.1591

 eigenvalue-minimisations  :   568
 total energy-change (2. order) :-0.1261052E+01  (-0.1626692E+00)
 number of electron     143.0000613 magnetization       9.6731095
 augmentation part       91.6024765 magnetization       4.5975845

 Broyden mixing:
  rms(total) = 0.27653E+00    rms(broyden)= 0.27648E+00
  rms(prec ) = 0.28358E+00
  weight for this iteration     100.00

 eigenvalues of (default mixing * dielectric matrix)
  average eigenvalue GAMMA=   0.8724
  1.3339  0.8611  0.8611  0.4334

 Free energy of the ion-electron system (eV)
  ---------------------------------------------------
  alpha Z        PSCENC =         9.01295809
  Ewald energy   TEWEN  =     25393.97262084
  -Hartree energ DENC   =    -41828.81971481
  -exchange      EXHF   =         0.00000000
  -V(xc)+E(xc)   XCENC  =       590.65070568
  PAW double counting   =     16675.71976315   -18070.73750078
  entropy T*S    EENTRO =        -0.05943056
  eigenvalues    EBANDS =      -866.08886358
  atomic energy  EATOM  =     18082.44932260
  Solvation  Ediel_sol  =         0.00000000
  ---------------------------------------------------
  free energy    TOTEN  =       -13.90013938 eV

  energy without entropy =      -13.84070882  energy(sigma->0) =      -13.88032920


--------------------------------------------------------------------------------------------------------




--------------------------------------- Iteration      1(  10)  ---------------------------------------


    POTLOK:  cpu time    5.1012: real time    5.1152
    SETDIJ:  cpu time    0.0406: real time    0.0407
     EDDAV:  cpu time   24.8395: real time   24.8736
       DOS:  cpu time    0.0026: real time    0.0026
    CHARGE:  cpu time    1.7083: real time    1.7104
    MIXING:  cpu time    0.1296: real time    0.1297
    --------------------------------------------
      LOOP:  cpu time   31.8216: real time   31.8721

 eigenvalue-minimisations  :   528
 total energy-change (2. order) :-0.1698296E+01  (-0.1295465E+00)
 number of electron     143.0000615 magnetization       9.0292336
 augmentation part       91.8880438 magnetization       4.6262809

 Broyden mixing:
  rms(total) = 0.20677E+00    rms(broyden)= 0.20670E+00
  rms(prec ) = 0.21207E+00
  weight for this iteration     100.00

 eigenvalues of (default mixing * dielectric matrix)
  average eigenvalue GAMMA=   0.9304
  1.7753  1.0878  0.6902  0.6321  0.4665

 Free energy of the ion-electron system (eV)
  ---------------------------------------------------
  alpha Z        PSCENC =         9.01295809
  Ewald energy   TEWEN  =     25393.97262084
  -Hartree energ DENC   =    -41827.65040401
  -exchange      EXHF   =         0.00000000
  -V(xc)+E(xc)   XCENC  =       588.64503503
  PAW double counting   =     16742.37152388   -18136.01991173
  entropy T*S    EENTRO =        -0.05188848
  eigenvalues    EBANDS =      -868.32769142
  atomic energy  EATOM  =     18082.44932260
  Solvation  Ediel_sol  =         0.00000000
  ---------------------------------------------------
  free energy    TOTEN  =       -15.59843520 eV

  energy without entropy =      -15.54654672  energy(sigma->0) =      -15.58113904


--------------------------------------------------------------------------------------------------------




--------------------------------------- Iteration      1(  11)  ---------------------------------------


    POTLOK:  cpu time    5.0443: real time    5.0603
    SETDIJ:  cpu time    0.0404: real time    0.0404
     EDDAV:  cpu time   22.6028: real time   22.6309
       DOS:  cpu time    0.0034: real time    0.0034
    CHARGE:  cpu time    1.7063: real time    1.7089
    MIXING:  cpu time    0.1461: real time    0.1462
    --------------------------------------------
      LOOP:  cpu time   29.5433: real time   29.5901

 eigenvalue-minimisations  :   472
 total energy-change (2. order) :-0.2066491E+01  (-0.7492674E-01)
 number of electron     143.0000615 magnetization       7.9093231
 augmentation part       91.9412758 magnetization       4.0051241

 Broyden mixing:
  rms(total) = 0.17384E+00    rms(broyden)= 0.17379E+00
  rms(prec ) = 0.17788E+00
  weight for this iteration     100.00

 eigenvalues of (default mixing * dielectric matrix)
  average eigenvalue GAMMA=   1.0021
  2.1036  1.3337  0.8180  0.8180  0.4697  0.4697

 Free energy of the ion-electron system (eV)
  ---------------------------------------------------
  alpha Z        PSCENC =         9.01295809
  Ewald energy   TEWEN  =     25393.97262084
  -Hartree energ DENC   =    -41833.61662454
  -exchange      EXHF   =         0.00000000
  -V(xc)+E(xc)   XCENC  =       586.96767289
  PAW double counting   =     16773.63154796   -18167.56705265
  entropy T*S    EENTRO =        -0.02026798
  eigenvalues    EBANDS =      -862.49510380
  atomic energy  EATOM  =     18082.44932260
  Solvation  Ediel_sol  =         0.00000000
  ---------------------------------------------------
  free energy    TOTEN  =       -17.66492659 eV

  energy without entropy =      -17.64465861  energy(sigma->0) =      -17.65817059


--------------------------------------------------------------------------------------------------------




--------------------------------------- Iteration      1(  12)  ---------------------------------------


    POTLOK:  cpu time    5.0024: real time    5.0112
    SETDIJ:  cpu time    0.0406: real time    0.0407
     EDDAV:  cpu time   25.8183: real time   25.8502
       DOS:  cpu time    0.0052: real time    0.0052
    CHARGE:  cpu time    1.7046: real time    1.7065
    MIXING:  cpu time    0.1548: real time    0.1549
    --------------------------------------------
      LOOP:  cpu time   32.7259: real time   32.7688

 eigenvalue-minimisations  :   560
 total energy-change (2. order) :-0.3490554E+01  (-0.1670600E+00)
 number of electron     143.0000615 magnetization       6.9404274
 augmentation part       91.7739337 magnetization       3.3783243

 Broyden mixing:
  rms(total) = 0.13705E+00    rms(broyden)= 0.13703E+00
  rms(prec ) = 0.13999E+00
  weight for this iteration     100.00

 eigenvalues of (default mixing * dielectric matrix)
  average eigenvalue GAMMA=   1.1331
  2.8974  1.8729  0.7887  0.7887  0.6525  0.4660  0.4660

 Free energy of the ion-electron system (eV)
  ---------------------------------------------------
  alpha Z        PSCENC =         9.01295809
  Ewald energy   TEWEN  =     25393.97262084
  -Hartree energ DENC   =    -41850.57178355
  -exchange      EXHF   =         0.00000000
  -V(xc)+E(xc)   XCENC  =       584.56510083
  PAW double counting   =     16794.42018038   -18190.16055851
  entropy T*S    EENTRO =        -0.01640610
  eigenvalues    EBANDS =      -844.82691480
  atomic energy  EATOM  =     18082.44932260
  Solvation  Ediel_sol  =         0.00000000
  ---------------------------------------------------
  free energy    TOTEN  =       -21.15548024 eV

  energy without entropy =      -21.13907413  energy(sigma->0) =      -21.15001154


--------------------------------------------------------------------------------------------------------




--------------------------------------- Iteration      1(  13)  ---------------------------------------


    POTLOK:  cpu time    5.0521: real time    5.0622
    SETDIJ:  cpu time    0.0420: real time    0.0420
     EDDAV:  cpu time   22.1558: real time   22.1807
       DOS:  cpu time    0.0045: real time    0.0045
    CHARGE:  cpu time    1.7352: real time    1.7371
    MIXING:  cpu time    0.1682: real time    0.1684
    --------------------------------------------
      LOOP:  cpu time   29.1579: real time   29.1950

 eigenvalue-minimisations  :   456
 total energy-change (2. order) :-0.3584844E+01  (-0.1597572E+00)
 number of electron     143.0000615 magnetization       6.5620085
 augmentation part       91.8209628 magnetization       4.1532954

 Broyden mixing:
  rms(total) = 0.13433E+00    rms(broyden)= 0.13422E+00
  rms(prec ) = 0.13769E+00
  weight for this iteration     100.00

 eigenvalues of (default mixing * dielectric matrix)
  average eigenvalue GAMMA=   1.0717
  3.1619  1.8925  0.7990  0.7990  0.6698  0.4686  0.4686  0.3139

 Free energy of the ion-electron system (eV)
  ---------------------------------------------------
  alpha Z        PSCENC =         9.01295809
  Ewald energy   TEWEN  =     25393.97262084
  -Hartree energ DENC   =    -41849.54183937
  -exchange      EXHF   =         0.00000000
  -V(xc)+E(xc)   XCENC  =       581.63544241
  PAW double counting   =     16769.22215096   -18162.98172664
  entropy T*S    EENTRO =        -0.03484459
  eigenvalues    EBANDS =      -848.47440838
  atomic energy  EATOM  =     18082.44932260
  Solvation  Ediel_sol  =         0.00000000
  ---------------------------------------------------
  free energy    TOTEN  =       -24.74032407 eV

  energy without entropy =      -24.70547949  energy(sigma->0) =      -24.72870921


--------------------------------------------------------------------------------------------------------




--------------------------------------- Iteration      1(  14)  ---------------------------------------


    POTLOK:  cpu time    5.0635: real time    5.0726
    SETDIJ:  cpu time    0.0427: real time    0.0427
     EDDAV:  cpu time   24.5199: real time   24.5482
       DOS:  cpu time    0.0026: real time    0.0026
    CHARGE:  cpu time    1.7236: real time    1.7255
    MIXING:  cpu time    0.1808: real time    0.1810
    --------------------------------------------
      LOOP:  cpu time   31.5331: real time   31.5726

 eigenvalue-minimisations  :   520
 total energy-change (2. order) :-0.7940218E+00  (-0.1941908E-01)
 number of electron     143.0000615 magnetization       6.2960187
 augmentation part       91.8438537 magnetization       4.2436611

 Broyden mixing:
  rms(total) = 0.12456E+00    rms(broyden)= 0.12453E+00
  rms(prec ) = 0.12802E+00
  weight for this iteration     100.00

 eigenvalues of (default mixing * dielectric matrix)
  average eigenvalue GAMMA=   1.0339
  3.2580  1.9438  0.7990  0.7990  0.6488  0.4669  0.4669  0.4611  0.4611

 Free energy of the ion-electron system (eV)
  ---------------------------------------------------
  alpha Z        PSCENC =         9.01295809
  Ewald energy   TEWEN  =     25393.97262084
  -Hartree energ DENC   =    -41849.03231659
  -exchange      EXHF   =         0.00000000
  -V(xc)+E(xc)   XCENC  =       580.96194303
  PAW double counting   =     16761.80109941   -18155.23018764
  entropy T*S    EENTRO =        -0.02109040
  eigenvalues    EBANDS =      -849.44869520
  atomic energy  EATOM  =     18082.44932260
  Solvation  Ediel_sol  =         0.00000000
  ---------------------------------------------------
  free energy    TOTEN  =       -25.53434586 eV

  energy without entropy =      -25.51325546  energy(sigma->0) =      -25.52731573


--------------------------------------------------------------------------------------------------------




--------------------------------------- Iteration      1(  15)  ---------------------------------------


    POTLOK:  cpu time    5.0165: real time    5.0258
    SETDIJ:  cpu time    0.0438: real time    0.0438
     EDDAV:  cpu time   23.3449: real time   23.3752
       DOS:  cpu time    0.0024: real time    0.0024
    CHARGE:  cpu time    1.6845: real time    1.6866
    MIXING:  cpu time    0.1995: real time    0.2022
    --------------------------------------------
      LOOP:  cpu time   30.2916: real time   30.3360

 eigenvalue-minimisations  :   488
 total energy-change (2. order) :-0.4646958E+00  (-0.5944944E-02)
 number of electron     143.0000615 magnetization       4.8241529
 augmentation part       91.8412774 magnetization       2.9818815

 Broyden mixing:
  rms(total) = 0.12257E+00    rms(broyden)= 0.12256E+00
  rms(prec ) = 0.12630E+00
  weight for this iteration     100.00

 eigenvalues of (default mixing * dielectric matrix)
  average eigenvalue GAMMA=   1.2139
  4.3712  1.8698  1.1316  1.1316  0.8330  0.8330  0.6345  0.4911  0.4555  0.3881

 Free energy of the ion-electron system (eV)
  ---------------------------------------------------
  alpha Z        PSCENC =         9.01295809
  Ewald energy   TEWEN  =     25393.97262084
  -Hartree energ DENC   =    -41849.33859163
  -exchange      EXHF   =         0.00000000
  -V(xc)+E(xc)   XCENC  =       580.61235930
  PAW double counting   =     16756.40651700   -18149.97317206
  entropy T*S    EENTRO =        -0.00889922
  eigenvalues    EBANDS =      -849.13215661
  atomic energy  EATOM  =     18082.44932260
  Solvation  Ediel_sol  =         0.00000000
  ---------------------------------------------------
  free energy    TOTEN  =       -25.99904169 eV

  energy without entropy =      -25.99014247  energy(sigma->0) =      -25.99607529


--------------------------------------------------------------------------------------------------------




--------------------------------------- Iteration      1(  16)  ---------------------------------------


    POTLOK:  cpu time    5.0415: real time    5.0564
    SETDIJ:  cpu time    0.0398: real time    0.0398
     EDDAV:  cpu time   25.0322: real time   25.0632
       DOS:  cpu time    0.0050: real time    0.0050
    CHARGE:  cpu time    1.7317: real time    1.7363
    MIXING:  cpu time    0.2242: real time    0.2245
    --------------------------------------------
      LOOP:  cpu time   32.0744: real time   32.1252

 eigenvalue-minimisations  :   536
 total energy-change (2. order) :-0.1881480E+01  (-0.7203553E-01)
 number of electron     143.0000615 magnetization       3.8810954
 augmentation part       91.7852904 magnetization       2.6200827

 Broyden mixing:
  rms(total) = 0.83815E-01    rms(broyden)= 0.83746E-01
  rms(prec ) = 0.86588E-01
  weight for this iteration     100.00

 eigenvalues of (default mixing * dielectric matrix)
  average eigenvalue GAMMA=   1.2865
  5.2747  1.7612  1.7612  0.8888  0.8888  0.8093  0.8093  0.6557  0.4576  0.4576
  0.3876

 Free energy of the ion-electron system (eV)
  ---------------------------------------------------
  alpha Z        PSCENC =         9.01295809
  Ewald energy   TEWEN  =     25393.97262084
  -Hartree energ DENC   =    -41850.71878141
  -exchange      EXHF   =         0.00000000
  -V(xc)+E(xc)   XCENC  =       579.16439783
  PAW double counting   =     16734.32271950   -18128.81607898
  entropy T*S    EENTRO =         0.04424356
  eigenvalues    EBANDS =      -847.31192334
  atomic energy  EATOM  =     18082.44932260
  Solvation  Ediel_sol  =         0.00000000
  ---------------------------------------------------
  free energy    TOTEN  =       -27.88052131 eV

  energy without entropy =      -27.92476487  energy(sigma->0) =      -27.89526916


--------------------------------------------------------------------------------------------------------




--------------------------------------- Iteration      1(  17)  ---------------------------------------


    POTLOK:  cpu time    5.0686: real time    5.0798
    SETDIJ:  cpu time    0.0404: real time    0.0405
     EDDAV:  cpu time   24.9892: real time   25.0229
       DOS:  cpu time    0.0066: real time    0.0066
    CHARGE:  cpu time    1.7144: real time    1.7164
    MIXING:  cpu time    0.2376: real time    0.2378
    --------------------------------------------
      LOOP:  cpu time   32.0568: real time   32.1040

 eigenvalue-minimisations  :   528
 total energy-change (2. order) :-0.1342797E+01  (-0.3998856E-01)
 number of electron     143.0000615 magnetization       3.3276538
 augmentation part       91.7993971 magnetization       2.2129604

 Broyden mixing:
  rms(total) = 0.66812E-01    rms(broyden)= 0.66795E-01
  rms(prec ) = 0.69039E-01
  weight for this iteration     100.00

 eigenvalues of (default mixing * dielectric matrix)
  average eigenvalue GAMMA=   1.3366
  5.8125  2.1676  1.4983  1.4983  0.9103  0.9103  0.6649  0.6649  0.6319  0.4454
  0.4454  0.3899

 Free energy of the ion-electron system (eV)
  ---------------------------------------------------
  alpha Z        PSCENC =         9.01295809
  Ewald energy   TEWEN  =     25393.97262084
  -Hartree energ DENC   =    -41845.52110431
  -exchange      EXHF   =         0.00000000
  -V(xc)+E(xc)   XCENC  =       577.93791069
  PAW double counting   =     16716.40095651   -18110.68105223
  entropy T*S    EENTRO =         0.06000309
  eigenvalues    EBANDS =      -852.85493390
  atomic energy  EATOM  =     18082.44932260
  Solvation  Ediel_sol  =         0.00000000
  ---------------------------------------------------
  free energy    TOTEN  =       -29.22331864 eV

  energy without entropy =      -29.28332173  energy(sigma->0) =      -29.24331967


--------------------------------------------------------------------------------------------------------




--------------------------------------- Iteration      1(  18)  ---------------------------------------


    POTLOK:  cpu time    5.1789: real time    5.1913
    SETDIJ:  cpu time    0.0413: real time    0.0413
     EDDAV:  cpu time   22.4571: real time   22.4958
       DOS:  cpu time    0.0066: real time    0.0066
    CHARGE:  cpu time    1.8436: real time    1.8482
    MIXING:  cpu time    0.2403: real time    0.2406
    --------------------------------------------
      LOOP:  cpu time   29.7678: real time   29.8238

 eigenvalue-minimisations  :   472
 total energy-change (2. order) :-0.9839097E+00  (-0.2238282E-01)
 number of electron     143.0000615 magnetization       2.9827003
 augmentation part       91.8843277 magnetization       1.9677641

 Broyden mixing:
  rms(total) = 0.62020E-01    rms(broyden)= 0.62014E-01
  rms(prec ) = 0.64315E-01
  weight for this iteration     100.00

 eigenvalues of (default mixing * dielectric matrix)
  average eigenvalue GAMMA=   1.3453
  6.1724  2.7102  1.3171  1.3171  1.0450  1.0450  0.7168  0.7168  0.6567  0.4734
  0.4734  0.4478  0.3967

 Free energy of the ion-electron system (eV)
  ---------------------------------------------------
  alpha Z        PSCENC =         9.01295809
  Ewald energy   TEWEN  =     25393.97262084
  -Hartree energ DENC   =    -41836.49180822
  -exchange      EXHF   =         0.00000000
  -V(xc)+E(xc)   XCENC  =       576.91624045
  PAW double counting   =     16695.45915049   -18088.32810737
  entropy T*S    EENTRO =         0.05738057
  eigenvalues    EBANDS =      -863.25498581
  atomic energy  EATOM  =     18082.44932260
  Solvation  Ediel_sol  =         0.00000000
  ---------------------------------------------------
  free energy    TOTEN  =       -30.20722837 eV

  energy without entropy =      -30.26460893  energy(sigma->0) =      -30.22635522


--------------------------------------------------------------------------------------------------------




--------------------------------------- Iteration      1(  19)  ---------------------------------------


    POTLOK:  cpu time    4.9732: real time    4.9847
    SETDIJ:  cpu time    0.0402: real time    0.0403
     EDDAV:  cpu time   22.3844: real time   22.4156
       DOS:  cpu time    0.0076: real time    0.0076
    CHARGE:  cpu time    1.7324: real time    1.7350
    MIXING:  cpu time    0.2818: real time    0.2821
    --------------------------------------------
      LOOP:  cpu time   29.4196: real time   29.4654

 eigenvalue-minimisations  :   472
 total energy-change (2. order) :-0.4380678E+00  (-0.6010209E-02)
 number of electron     143.0000615 magnetization       2.4936161
 augmentation part       91.8718829 magnetization       1.5591475

 Broyden mixing:
  rms(total) = 0.43768E-01    rms(broyden)= 0.43764E-01
  rms(prec ) = 0.45752E-01
  weight for this iteration     100.00

 eigenvalues of (default mixing * dielectric matrix)
  average eigenvalue GAMMA=   1.4341
  6.7823  3.1998  1.6033  1.4801  1.4801  0.8499  0.8499  0.7096  0.7096  0.6699
  0.4569  0.4569  0.4315  0.3983

 Free energy of the ion-electron system (eV)
  ---------------------------------------------------
  alpha Z        PSCENC =         9.01295809
  Ewald energy   TEWEN  =     25393.97262084
  -Hartree energ DENC   =    -41833.73813562
  -exchange      EXHF   =         0.00000000
  -V(xc)+E(xc)   XCENC  =       576.54739035
  PAW double counting   =     16686.87776252   -18079.88503911
  entropy T*S    EENTRO =         0.05274370
  eigenvalues    EBANDS =      -865.93491950
  atomic energy  EATOM  =     18082.44932260
  Solvation  Ediel_sol  =         0.00000000
  ---------------------------------------------------
  free energy    TOTEN  =       -30.64529613 eV

  energy without entropy =      -30.69803984  energy(sigma->0) =      -30.66287737


--------------------------------------------------------------------------------------------------------




--------------------------------------- Iteration      1(  20)  ---------------------------------------


    POTLOK:  cpu time    5.0667: real time    5.0808
    SETDIJ:  cpu time    0.0393: real time    0.0393
     EDDAV:  cpu time   23.5485: real time   23.5779
       DOS:  cpu time    0.0063: real time    0.0063
    CHARGE:  cpu time    1.7016: real time    1.7059
    MIXING:  cpu time    0.2951: real time    0.2955
    --------------------------------------------
      LOOP:  cpu time   30.6573: real time   30.7056

 eigenvalue-minimisations  :   496
 total energy-change (2. order) :-0.6750954E+00  (-0.8597580E-02)
 number of electron     143.0000615 magnetization       1.8544506
 augmentation part       91.8003221 magnetization       1.0081830

 Broyden mixing:
  rms(total) = 0.35588E-01    rms(broyden)= 0.35581E-01
  rms(prec ) = 0.37260E-01
  weight for this iteration     100.00

 eigenvalues of (default mixing * dielectric matrix)
  average eigenvalue GAMMA=   1.5206
  8.6295  2.3523  2.3523  1.5638  1.5638  0.9480  0.9480  0.7309  0.7309  0.6778
  0.5622  0.4011  0.4666  0.4407  0.4407

 Free energy of the ion-electron system (eV)
  ---------------------------------------------------
  alpha Z        PSCENC =         9.01295809
  Ewald energy   TEWEN  =     25393.97262084
  -Hartree energ DENC   =    -41829.82946055
  -exchange      EXHF   =         0.00000000
  -V(xc)+E(xc)   XCENC  =       575.98455909
  PAW double counting   =     16686.61743083   -18080.67530168
  entropy T*S    EENTRO =         0.04277234
  eigenvalues    EBANDS =      -868.89529313
  atomic energy  EATOM  =     18082.44932260
  Solvation  Ediel_sol  =         0.00000000
  ---------------------------------------------------
  free energy    TOTEN  =       -31.32039158 eV

  energy without entropy =      -31.36316392  energy(sigma->0) =      -31.33464903


--------------------------------------------------------------------------------------------------------




--------------------------------------- Iteration      1(  21)  ---------------------------------------


    POTLOK:  cpu time    5.0632: real time    5.0723
    SETDIJ:  cpu time    0.0409: real time    0.0409
     EDDAV:  cpu time   25.0022: real time   25.0385
       DOS:  cpu time    0.0074: real time    0.0074
    CHARGE:  cpu time    1.9125: real time    1.9172
    MIXING:  cpu time    0.3225: real time    0.3228
    --------------------------------------------
      LOOP:  cpu time   32.3487: real time   32.3993

 eigenvalue-minimisations  :   540
 total energy-change (2. order) :-0.4555823E+00  (-0.3369757E-02)
 number of electron     143.0000615 magnetization       1.5032647
 augmentation part       91.8002440 magnetization       0.7754951

 Broyden mixing:
  rms(total) = 0.27524E-01    rms(broyden)= 0.27513E-01
  rms(prec ) = 0.29158E-01
  weight for this iteration     100.00

 eigenvalues of (default mixing * dielectric matrix)
  average eigenvalue GAMMA=   1.5700
  9.6342  2.7502  2.7502  1.4781  1.4781  0.9339  0.9339  0.8253  0.8253  0.6565
  0.6565  0.5025  0.4461  0.4461  0.4011  0.4011

 Free energy of the ion-electron system (eV)
  ---------------------------------------------------
  alpha Z        PSCENC =         9.01295809
  Ewald energy   TEWEN  =     25393.97262084
  -Hartree energ DENC   =    -41825.81259927
  -exchange      EXHF   =         0.00000000
  -V(xc)+E(xc)   XCENC  =       575.47367148
  PAW double counting   =     16687.78670546   -18082.11065954
  entropy T*S    EENTRO =         0.03471391
  eigenvalues    EBANDS =      -872.58270740
  atomic energy  EATOM  =     18082.44932260
  Solvation  Ediel_sol  =         0.00000000
  ---------------------------------------------------
  free energy    TOTEN  =       -31.77597383 eV

  energy without entropy =      -31.81068775  energy(sigma->0) =      -31.78754514


--------------------------------------------------------------------------------------------------------




--------------------------------------- Iteration      1(  22)  ---------------------------------------


    POTLOK:  cpu time    5.0253: real time    5.0358
    SETDIJ:  cpu time    0.0434: real time    0.0434
     EDDAV:  cpu time   25.0863: real time   25.1199
       DOS:  cpu time    0.0054: real time    0.0054
    CHARGE:  cpu time    1.7141: real time    1.7161
    MIXING:  cpu time    0.3456: real time    0.3460
    --------------------------------------------
      LOOP:  cpu time   32.2201: real time   32.2666

 eigenvalue-minimisations  :   536
 total energy-change (2. order) :-0.2480217E+00  (-0.1453697E-02)
 number of electron     143.0000615 magnetization       1.3086946
 augmentation part       91.8446868 magnetization       0.6557720

 Broyden mixing:
  rms(total) = 0.16435E-01    rms(broyden)= 0.16424E-01
  rms(prec ) = 0.17745E-01
  weight for this iteration     100.00

 eigenvalues of (default mixing * dielectric matrix)
  average eigenvalue GAMMA=   1.5980
  9.9829  3.1040  3.1040  1.5451  1.5451  1.0103  0.9056  0.9056  0.7574  0.7574
  0.6932  0.5578  0.5578  0.4539  0.4539  0.3986  0.4340

 Free energy of the ion-electron system (eV)
  ---------------------------------------------------
  alpha Z        PSCENC =         9.01295809
  Ewald energy   TEWEN  =     25393.97262084
  -Hartree energ DENC   =    -41821.28253000
  -exchange      EXHF   =         0.00000000
  -V(xc)+E(xc)   XCENC  =       575.11415136
  PAW double counting   =     16690.88404778   -18084.81659604
  entropy T*S    EENTRO =         0.02784435
  eigenvalues    EBANDS =      -877.38581451
  atomic energy  EATOM  =     18082.44932260
  Solvation  Ediel_sol  =         0.00000000
  ---------------------------------------------------
  free energy    TOTEN  =       -32.02399554 eV

  energy without entropy =      -32.05183989  energy(sigma->0) =      -32.03327699


--------------------------------------------------------------------------------------------------------




--------------------------------------- Iteration      1(  23)  ---------------------------------------


    POTLOK:  cpu time    5.0710: real time    5.0804
    SETDIJ:  cpu time    0.0429: real time    0.0429
     EDDAV:  cpu time   24.2708: real time   24.3032
       DOS:  cpu time    0.0024: real time    0.0024
    CHARGE:  cpu time    1.6924: real time    1.6989
    MIXING:  cpu time    0.3692: real time    0.3696
    --------------------------------------------
      LOOP:  cpu time   31.4485: real time   31.4973

 eigenvalue-minimisations  :   516
 total energy-change (2. order) :-0.2004970E+00  (-0.5104565E-03)
 number of electron     143.0000615 magnetization       1.0614220
 augmentation part       91.8524229 magnetization       0.4424574

 Broyden mixing:
  rms(total) = 0.13778E-01    rms(broyden)= 0.13773E-01
  rms(prec ) = 0.14758E-01
  weight for this iteration     100.00

 eigenvalues of (default mixing * dielectric matrix)
  average eigenvalue GAMMA=   1.6471
 10.9385  3.1802  3.1802  1.7028  1.5254  1.5254  0.9244  0.9244  0.8121  0.8121
  0.6706  0.6331  0.6331  0.3967  0.4582  0.4582  0.4365  0.4365

 Free energy of the ion-electron system (eV)
  ---------------------------------------------------
  alpha Z        PSCENC =         9.01295809
  Ewald energy   TEWEN  =     25393.97262084
  -Hartree energ DENC   =    -41818.52964771
  -exchange      EXHF   =         0.00000000
  -V(xc)+E(xc)   XCENC  =       574.88513358
  PAW double counting   =     16695.23643943   -18089.11099259
  entropy T*S    EENTRO =         0.02393990
  eigenvalues    EBANDS =      -880.16426670
  atomic energy  EATOM  =     18082.44932260
  Solvation  Ediel_sol  =         0.00000000
  ---------------------------------------------------
  free energy    TOTEN  =       -32.22449257 eV

  energy without entropy =      -32.24843247  energy(sigma->0) =      -32.23247254


--------------------------------------------------------------------------------------------------------




--------------------------------------- Iteration      1(  24)  ---------------------------------------


    POTLOK:  cpu time    4.9885: real time    4.9987
    SETDIJ:  cpu time    0.0354: real time    0.0355
     EDDAV:  cpu time   23.8210: real time   23.8557
       DOS:  cpu time    0.0042: real time    0.0042
    CHARGE:  cpu time    1.5295: real time    1.5312
    MIXING:  cpu time    0.3853: real time    0.3857
    --------------------------------------------
      LOOP:  cpu time   30.7640: real time   30.8110

 eigenvalue-minimisations  :   512
 total energy-change (2. order) :-0.1613170E+00  (-0.3502284E-03)
 number of electron     143.0000615 magnetization       0.8709867
 augmentation part       91.8507324 magnetization       0.3086197

 Broyden mixing:
  rms(total) = 0.91749E-02    rms(broyden)= 0.91668E-02
  rms(prec ) = 0.99423E-02
  weight for this iteration     100.00

 eigenvalues of (default mixing * dielectric matrix)
  average eigenvalue GAMMA=   1.6813
 11.5520  3.4804  3.4804  2.0168  1.5273  1.5273  0.9119  0.9119  0.9451  0.7805
  0.7805  0.7104  0.5909  0.5345  0.3988  0.4560  0.4560  0.4415  0.4415

 Free energy of the ion-electron system (eV)
  ---------------------------------------------------
  alpha Z        PSCENC =         9.01295809
  Ewald energy   TEWEN  =     25393.97262084
  -Hartree energ DENC   =    -41816.12257265
  -exchange      EXHF   =         0.00000000
  -V(xc)+E(xc)   XCENC  =       574.72194193
  PAW double counting   =     16694.00515815   -18087.79994435
  entropy T*S    EENTRO =         0.02036897
  eigenvalues    EBANDS =      -882.64566318
  atomic energy  EATOM  =     18082.44932260
  Solvation  Ediel_sol  =         0.00000000
  ---------------------------------------------------
  free energy    TOTEN  =       -32.38580961 eV

  energy without entropy =      -32.40617858  energy(sigma->0) =      -32.39259927


--------------------------------------------------------------------------------------------------------




--------------------------------------- Iteration      1(  25)  ---------------------------------------


    POTLOK:  cpu time    5.0256: real time    5.0328
    SETDIJ:  cpu time    0.0431: real time    0.0432
     EDDAV:  cpu time   23.4708: real time   23.5019
       DOS:  cpu time    0.0084: real time    0.0084
    CHARGE:  cpu time    1.7227: real time    1.7246
    MIXING:  cpu time    0.4399: real time    0.4405
    --------------------------------------------
      LOOP:  cpu time   30.7106: real time   30.7514

 eigenvalue-minimisations  :   496
 total energy-change (2. order) :-0.7509962E-01  (-0.2216778E-03)
 number of electron     143.0000615 magnetization       0.7424000
 augmentation part       91.8376974 magnetization       0.2308757

 Broyden mixing:
  rms(total) = 0.68547E-02    rms(broyden)= 0.68454E-02
  rms(prec ) = 0.74656E-02
  weight for this iteration     100.00

 eigenvalues of (default mixing * dielectric matrix)
  average eigenvalue GAMMA=   1.6819
 12.0502  3.7638  3.7638  1.9189  1.5347  1.5347  1.1403  0.9160  0.9160  0.7563
  0.7563  0.6666  0.5868  0.5868  0.5686  0.3969  0.4577  0.4577  0.4334  0.4334

 Free energy of the ion-electron system (eV)
  ---------------------------------------------------
  alpha Z        PSCENC =         9.01295809
  Ewald energy   TEWEN  =     25393.97262084
  -Hartree energ DENC   =    -41815.35263566
  -exchange      EXHF   =         0.00000000
  -V(xc)+E(xc)   XCENC  =       574.66510635
  PAW double counting   =     16694.60518016   -18088.51504401
  entropy T*S    EENTRO =         0.01759157
  eigenvalues    EBANDS =      -883.31600917
  atomic energy  EATOM  =     18082.44932260
  Solvation  Ediel_sol  =         0.00000000
  ---------------------------------------------------
  free energy    TOTEN  =       -32.46090923 eV

  energy without entropy =      -32.47850081  energy(sigma->0) =      -32.46677309


--------------------------------------------------------------------------------------------------------




--------------------------------------- Iteration      1(  26)  ---------------------------------------


    POTLOK:  cpu time    5.0419: real time    5.0560
    SETDIJ:  cpu time    0.0394: real time    0.0394
     EDDAV:  cpu time   17.2238: real time   17.2489
       DOS:  cpu time    0.0026: real time    0.0026
    CHARGE:  cpu time    1.3175: real time    1.3215
    MIXING:  cpu time    0.3405: real time    0.3410
    --------------------------------------------
      LOOP:  cpu time   23.9658: real time   24.0093

 eigenvalue-minimisations  :   404
 total energy-change (2. order) :-0.4787530E-01  (-0.9908185E-04)
 number of electron     143.0000615 magnetization       0.6340024
 augmentation part       91.8312873 magnetization       0.1589037

 Broyden mixing:
  rms(total) = 0.51770E-02    rms(broyden)= 0.51700E-02
  rms(prec ) = 0.56925E-02
  weight for this iteration     100.00

 eigenvalues of (default mixing * dielectric matrix)
  average eigenvalue GAMMA=   1.7189
 12.7098  4.0559  4.0559  1.9058  1.5601  1.5601  1.1064  0.9242  0.9242  0.8606
  0.8606  0.8107  0.8107  0.6446  0.6446  0.3979  0.4509  0.4509  0.4659  0.4486
  0.4486

 Free energy of the ion-electron system (eV)
  ---------------------------------------------------
  alpha Z        PSCENC =         9.01295809
  Ewald energy   TEWEN  =     25393.97262084
  -Hartree energ DENC   =    -41814.68804332
  -exchange      EXHF   =         0.00000000
  -V(xc)+E(xc)   XCENC  =       574.61647373
  PAW double counting   =     16696.50521060   -18090.48415621
  entropy T*S    EENTRO =         0.01515287
  eigenvalues    EBANDS =      -883.90832374
  atomic energy  EATOM  =     18082.44932260
  Solvation  Ediel_sol  =         0.00000000
  ---------------------------------------------------
  free energy    TOTEN  =       -32.50878454 eV

  energy without entropy =      -32.52393740  energy(sigma->0) =      -32.51383549


--------------------------------------------------------------------------------------------------------




--------------------------------------- Iteration      1(  27)  ---------------------------------------


    POTLOK:  cpu time    4.9801: real time    4.9894
    SETDIJ:  cpu time    0.0352: real time    0.0353
     EDDAV:  cpu time   18.3324: real time   18.3564
       DOS:  cpu time    0.0061: real time    0.0061
    CHARGE:  cpu time    1.6976: real time    1.6995
    MIXING:  cpu time    0.4411: real time    0.4441
    --------------------------------------------
      LOOP:  cpu time   25.4926: real time   25.5332

 eigenvalue-minimisations  :   380
 total energy-change (2. order) :-0.3109888E-01  (-0.6710782E-04)
 number of electron     143.0000615 magnetization       0.5613525
 augmentation part       91.8393930 magnetization       0.1209346

 Broyden mixing:
  rms(total) = 0.32402E-02    rms(broyden)= 0.32304E-02
  rms(prec ) = 0.35937E-02
  weight for this iteration     100.00

 eigenvalues of (default mixing * dielectric matrix)
  average eigenvalue GAMMA=   1.7485
 13.2062  4.3195  4.3195  1.7252  1.7252  1.5136  1.5136  1.4154  0.9117  0.9117
  0.8179  0.8179  0.7710  0.6660  0.6660  0.5443  0.4558  0.4558  0.4451  0.4451
  0.3976  0.4230

 Free energy of the ion-electron system (eV)
  ---------------------------------------------------
  alpha Z        PSCENC =         9.01295809
  Ewald energy   TEWEN  =     25393.97262084
  -Hartree energ DENC   =    -41813.48633206
  -exchange      EXHF   =         0.00000000
  -V(xc)+E(xc)   XCENC  =       574.56374207
  PAW double counting   =     16696.25042063   -18090.09799279
  entropy T*S    EENTRO =         0.01294484
  eigenvalues    EBANDS =      -885.21756764
  atomic energy  EATOM  =     18082.44932260
  Solvation  Ediel_sol  =         0.00000000
  ---------------------------------------------------
  free energy    TOTEN  =       -32.53988341 eV

  energy without entropy =      -32.55282826  energy(sigma->0) =      -32.54419836


--------------------------------------------------------------------------------------------------------




--------------------------------------- Iteration      1(  28)  ---------------------------------------


    POTLOK:  cpu time    5.0482: real time    5.0578
    SETDIJ:  cpu time    0.0420: real time    0.0421
     EDDAV:  cpu time   17.6520: real time   17.6807
       DOS:  cpu time    0.0088: real time    0.0088
    CHARGE:  cpu time    1.7019: real time    1.7039
    MIXING:  cpu time    0.4813: real time    0.4820
    --------------------------------------------
      LOOP:  cpu time   24.9340: real time   24.9727

 eigenvalue-minimisations  :   344
 total energy-change (2. order) :-0.1922279E-01  (-0.4920235E-04)
 number of electron     143.0000615 magnetization       0.5139453
 augmentation part       91.8444818 magnetization       0.0988463

 Broyden mixing:
  rms(total) = 0.31537E-02    rms(broyden)= 0.31471E-02
  rms(prec ) = 0.33867E-02
  weight for this iteration     100.00

 eigenvalues of (default mixing * dielectric matrix)
  average eigenvalue GAMMA=   1.7574
 13.5170  4.5776  4.5776  2.0623  2.0623  1.5174  1.5174  1.2611  0.9118  0.9118
  0.8250  0.8250  0.7467  0.7467  0.6197  0.5564  0.5564  0.3982  0.4424  0.4424
  0.4596  0.4596  0.4249

 Free energy of the ion-electron system (eV)
  ---------------------------------------------------
  alpha Z        PSCENC =         9.01295809
  Ewald energy   TEWEN  =     25393.97262084
  -Hartree energ DENC   =    -41812.68320498
  -exchange      EXHF   =         0.00000000
  -V(xc)+E(xc)   XCENC  =       574.53532699
  PAW double counting   =     16695.55003373   -18089.32804159
  entropy T*S    EENTRO =         0.01138966
  eigenvalues    EBANDS =      -886.07951155
  atomic energy  EATOM  =     18082.44932260
  Solvation  Ediel_sol  =         0.00000000
  ---------------------------------------------------
  free energy    TOTEN  =       -32.55910620 eV

  energy without entropy =      -32.57049587  energy(sigma->0) =      -32.56290276


--------------------------------------------------------------------------------------------------------




--------------------------------------- Iteration      1(  29)  ---------------------------------------


    POTLOK:  cpu time    4.9681: real time    4.9789
    SETDIJ:  cpu time    0.0445: real time    0.0445
     EDDAV:  cpu time   15.7011: real time   15.7199
       DOS:  cpu time    0.0082: real time    0.0082
    CHARGE:  cpu time    1.3260: real time    1.3275
    MIXING:  cpu time    0.3871: real time    0.3874
    --------------------------------------------
      LOOP:  cpu time   22.4349: real time   22.4666

 eigenvalue-minimisations  :   264
 total energy-change (2. order) :-0.9719681E-02  (-0.1958893E-04)
 number of electron     143.0000615 magnetization       0.4541449
 augmentation part       91.8432920 magnetization       0.0567750

 Broyden mixing:
  rms(total) = 0.24560E-02    rms(broyden)= 0.24519E-02
  rms(prec ) = 0.26267E-02
  weight for this iteration     100.00

 eigenvalues of (default mixing * dielectric matrix)
  average eigenvalue GAMMA=   1.7755
 13.8282  4.9146  4.9146  2.2112  2.2112  1.5231  1.5231  1.1453  1.1453  0.9098
  0.9098  0.7918  0.7918  0.8516  0.6452  0.6452  0.6188  0.4490  0.4490  0.4671
  0.4435  0.4435  0.3980  0.3815

 Free energy of the ion-electron system (eV)
  ---------------------------------------------------
  alpha Z        PSCENC =         9.01295809
  Ewald energy   TEWEN  =     25393.97262084
  -Hartree energ DENC   =    -41812.34793118
  -exchange      EXHF   =         0.00000000
  -V(xc)+E(xc)   XCENC  =       574.52740616
  PAW double counting   =     16695.34377372   -18089.14266017
  entropy T*S    EENTRO =         0.01037705
  eigenvalues    EBANDS =      -886.39469298
  atomic energy  EATOM  =     18082.44932260
  Solvation  Ediel_sol  =         0.00000000
  ---------------------------------------------------
  free energy    TOTEN  =       -32.56882589 eV

  energy without entropy =      -32.57920294  energy(sigma->0) =      -32.57228490


--------------------------------------------------------------------------------------------------------




--------------------------------------- Iteration      1(  30)  ---------------------------------------


    POTLOK:  cpu time    5.0564: real time    5.0639
    SETDIJ:  cpu time    0.0409: real time    0.0410
     EDDAV:  cpu time   16.0947: real time   16.1160
       DOS:  cpu time    0.0059: real time    0.0059
    CHARGE:  cpu time    1.7018: real time    1.7037
    MIXING:  cpu time    0.5269: real time    0.5276
    --------------------------------------------
      LOOP:  cpu time   23.4266: real time   23.4580

 eigenvalue-minimisations  :   276
[...]
     26      -6.4444      1.00000
     27      -6.3561      1.00000
     28      -6.3011      1.00000
     29      -6.2027      1.00000
     30      -6.1738      1.00000
     31      -6.1470      1.00000
     32      -6.1299      1.00000
     33      -6.0838      1.00000
     34      -6.0503      1.00000
     35      -6.0092      1.00000
     36      -5.9482      1.00000
     37      -5.9202      1.00000
     38      -5.8410      1.00000
     39      -5.8195      1.00000
     40      -5.7920      1.00000
     41      -5.7724      1.00000
     42      -5.7661      1.00000
     43      -5.7521      1.00000
     44      -5.7154      1.00000
     45      -5.6958      1.00000
     46      -5.6555      1.00000
     47      -5.6476      1.00000
     48      -5.6323      1.00000
     49      -5.6206      1.00000
     50      -5.5974      1.00000
     51      -5.5538      1.00000
     52      -5.5431      1.00000
     53      -5.5188      1.00000
     54      -5.4767      1.00000
     55      -5.4408      1.00000
     56      -5.4226      1.00000
     57      -5.3626      1.00000
     58      -5.3582      1.00000
     59      -5.3420      1.00000
     60      -5.3183      1.00000
     61      -5.3123      1.00000
     62      -5.2894      1.00000
     63      -5.2799      1.00000
     64      -5.2615      1.00000
     65      -5.2286      1.00000
     66      -5.2185      1.00000
     67      -5.1803      1.00000
     68      -5.1477      1.00000
     69      -5.0791      1.00000
     70      -4.5127      1.00000
     71      -4.2039      1.00975
     72      -3.8406      0.60113
     73      -3.4786     -0.01901
     74      -3.3713     -0.00360
     75      -3.2532     -0.00025
     76      -2.4233     -0.00000
     77      -2.0900     -0.00000
     78      -1.6444     -0.00000
     79      -1.5481     -0.00000
     80      -1.4272     -0.00000
     81      -1.2278     -0.00000
     82      -1.1342     -0.00000
     83      -1.0376     -0.00000
     84      -0.7968     -0.00000
     85      -0.7335     -0.00000
     86      -0.5441     -0.00000
     87      -0.3774     -0.00000
     88       0.0186     -0.00000
     89       0.2386     -0.00000
     90       0.2625     -0.00000
     91       0.3024     -0.00000
     92       0.3240     -0.00000

 spin component 2

 k-point     1 :       0.0000    0.0000    0.0000
  band No.  band energies     occupation 
      1     -10.7169      1.00000
      2      -9.0314      1.00000
      3      -8.5461      1.00000
      4      -8.4384      1.00000
      5      -7.9956      1.00000
      6      -7.8952      1.00000
      7      -7.7393      1.00000
      8      -7.6140      1.00000
      9      -7.4458      1.00000
     10      -7.4019      1.00000
     11      -7.1923      1.00000
     12      -7.1334      1.00000
     13      -7.1086      1.00000
     14      -7.0314      1.00000
     15      -6.9812      1.00000
     16      -6.9651      1.00000
     17      -6.8523      1.00000
     18      -6.8032      1.00000
     19      -6.7821      1.00000
     20      -6.6975      1.00000
     21      -6.6445      1.00000
     22      -6.5985      1.00000
     23      -6.5444      1.00000
     24      -6.5218      1.00000
     25      -6.4640      1.00000
     26      -6.4406      1.00000
     27      -6.3494      1.00000
     28      -6.2970      1.00000
     29      -6.1968      1.00000
     30      -6.1693      1.00000
     31      -6.1425      1.00000
     32      -6.1263      1.00000
     33      -6.0798      1.00000
     34      -6.0452      1.00000
     35      -6.0053      1.00000
     36      -5.9441      1.00000
     37      -5.9163      1.00000
     38      -5.8369      1.00000
     39      -5.8146      1.00000
     40      -5.7878      1.00000
     41      -5.7682      1.00000
     42      -5.7616      1.00000
     43      -5.7471      1.00000
     44      -5.7117      1.00000
     45      -5.6922      1.00000
     46      -5.6501      1.00000
     47      -5.6431      1.00000
     48      -5.6288      1.00000
     49      -5.6169      1.00000
     50      -5.5940      1.00000
     51      -5.5501      1.00000
     52      -5.5388      1.00000
     53      -5.5129      1.00000
     54      -5.4726      1.00000
     55      -5.4345      1.00000
     56      -5.4181      1.00000
     57      -5.3582      1.00000
     58      -5.3535      1.00000
     59      -5.3375      1.00000
     60      -5.3118      1.00000
     61      -5.3063      1.00000
     62      -5.2841      1.00000
     63      -5.2752      1.00000
     64      -5.2541      1.00000
     65      -5.2234      1.00000
     66      -5.2148      1.00000
     67      -5.1760      1.00000
     68      -5.1446      1.00000
     69      -5.0747      1.00000
     70      -4.5047      1.00001
     71      -4.1946      1.01120
     72      -3.7974      0.41971
     73      -3.4635     -0.01581
     74      -3.3614     -0.00298
     75      -3.2325     -0.00015
     76      -2.4170     -0.00000
     77      -2.0794     -0.00000
     78      -1.6180     -0.00000
     79      -1.5251     -0.00000
     80      -1.3932     -0.00000
     81      -1.1978     -0.00000
     82      -1.1003     -0.00000
     83      -1.0128     -0.00000
     84      -0.7745     -0.00000
     85      -0.7121     -0.00000
     86      -0.5191     -0.00000
     87      -0.3518     -0.00000
     88       0.1316     -0.00000
     89       0.3086     -0.00000
     90       0.3884     -0.00000
     91       0.4044     -0.00000
     92       0.4109     -0.00000


--------------------------------------------------------------------------------------------------------


 soft charge-density along one line, spin component            1
         0         1         2         3         4         5         6         7         8         9
 total charge-density along one line
 
 soft charge-density along one line, spin component            2
         0         1         2         3         4         5         6         7         8         9
 total charge-density along one line
 
 pseudopotential strength for first ion, spin component:            1
-11.067  -0.017  -0.011  -0.023   0.003   1.443   0.013   0.009
 -0.017 -11.065  -0.016   0.012   0.025   0.013   1.441   0.012
 -0.011  -0.016 -11.090  -0.010   0.024   0.009   0.012   1.460
 -0.023   0.012  -0.010 -11.101  -0.017   0.019  -0.009   0.007
  0.003   0.025   0.024  -0.017 -11.069  -0.002  -0.020  -0.019
  1.443   0.013   0.009   0.019  -0.002   5.982  -0.008  -0.007
  0.013   1.441   0.012  -0.009  -0.020  -0.008   5.987  -0.008
  0.009   0.012   1.460   0.007  -0.019  -0.007  -0.008   5.974
  0.019  -0.009   0.007   1.469   0.013  -0.013   0.009  -0.004
 -0.002  -0.020  -0.019   0.013   1.444   0.002   0.014   0.014
 -0.003   0.008   0.003   0.005   0.007   0.003  -0.002   0.003
 -0.006   0.015   0.005   0.009   0.012   0.006  -0.003   0.006
 -0.002  -0.009  -0.007   0.000  -0.011   0.002   0.008   0.007
  0.000   0.011  -0.011  -0.002  -0.000  -0.000  -0.012   0.010
  0.012   0.000   0.001  -0.009  -0.002  -0.013  -0.000  -0.001
 -0.003  -0.011  -0.008   0.000  -0.013   0.004   0.010   0.010
  0.000   0.013  -0.013  -0.003  -0.000  -0.001  -0.016   0.013
  0.014   0.000   0.002  -0.011  -0.003  -0.018  -0.001  -0.002
 pseudopotential strength for first ion, spin component:            2
-11.066  -0.017  -0.011  -0.023   0.003   1.443   0.013   0.008
 -0.017 -11.065  -0.015   0.011   0.024   0.013   1.440   0.012
 -0.011  -0.015 -11.088  -0.010   0.023   0.008   0.012   1.458
 -0.023   0.011  -0.010 -11.100  -0.017   0.019  -0.009   0.008
  0.003   0.024   0.023  -0.017 -11.068  -0.002  -0.020  -0.018
  1.443   0.013   0.008   0.019  -0.002   5.982  -0.008  -0.006
  0.013   1.440   0.012  -0.009  -0.020  -0.008   5.987  -0.008
  0.008   0.012   1.458   0.008  -0.018  -0.006  -0.008   5.976
  0.019  -0.009   0.008   1.469   0.013  -0.013   0.009  -0.004
 -0.002  -0.020  -0.018   0.013   1.444   0.002   0.014   0.014
 -0.003   0.008   0.003   0.005   0.007   0.003  -0.002   0.003
 -0.006   0.015   0.005   0.009   0.012   0.006  -0.003   0.006
 -0.002  -0.009  -0.007   0.000  -0.011   0.002   0.008   0.007
  0.000   0.011  -0.010  -0.002  -0.000  -0.000  -0.012   0.010
  0.012   0.000   0.001  -0.009  -0.002  -0.013  -0.000  -0.001
 -0.003  -0.010  -0.008   0.000  -0.013   0.004   0.009   0.010
  0.000   0.014  -0.012  -0.003  -0.000  -0.001  -0.016   0.013
  0.014   0.000   0.002  -0.011  -0.003  -0.018  -0.001  -0.002
 total augmentation occupancy for first ion, spin component:            1
  1.928  -0.003   0.002  -0.012   0.005  -0.026   0.006   0.002   0.005  -0.003  -0.014   0.002  -0.010   0.006  -0.013   0.003
 -0.003   1.935  -0.001   0.016   0.012   0.006  -0.019   0.007   0.000  -0.006  -0.022  -0.009   0.010  -0.016   0.006  -0.007
  0.002  -0.001   1.931  -0.001   0.010   0.002   0.007  -0.012   0.004  -0.007  -0.030  -0.005   0.002   0.009   0.006  -0.006
 -0.012   0.016  -0.001   1.917  -0.007   0.005   0.000   0.004  -0.014   0.006  -0.026  -0.007  -0.004  -0.015   0.013  -0.000
  0.005   0.012   0.010  -0.007   1.933  -0.003  -0.006  -0.007   0.006  -0.021   0.002  -0.007   0.028  -0.005  -0.015  -0.010
 -0.026   0.006   0.002   0.005  -0.003   0.012   0.002   0.001   0.000   0.000   0.001  -0.000   0.003  -0.003  -0.026  -0.000
  0.006  -0.019   0.007   0.000  -0.006   0.002   0.015   0.002   0.002  -0.000   0.040  -0.000   0.009  -0.023  -0.003  -0.000
  0.002   0.007  -0.012   0.004  -0.007   0.001   0.002   0.018   0.001  -0.001   0.038  -0.001   0.017   0.015  -0.002  -0.001
  0.005   0.000   0.004  -0.014   0.006   0.000   0.002   0.001   0.016   0.002   0.044  -0.003   0.001  -0.005   0.017   0.000
 -0.003  -0.006  -0.007   0.006  -0.021   0.000  -0.000  -0.001   0.002   0.015   0.024  -0.001   0.020   0.006  -0.004  -0.001
 -0.014  -0.022  -0.030  -0.026   0.002   0.001   0.040   0.038   0.044   0.024   1.696  -0.153  -0.145   0.085  -0.031   0.022
  0.002  -0.009  -0.005  -0.007  -0.007  -0.000  -0.000  -0.001  -0.003  -0.001  -0.153   0.018   0.028  -0.014   0.005  -0.003
 -0.010   0.010   0.002  -0.004   0.028   0.003   0.009   0.017   0.001   0.020  -0.145   0.028   0.158   0.043  -0.009  -0.011
  0.006  -0.016   0.009  -0.015  -0.005  -0.003  -0.023   0.015  -0.005   0.006   0.085  -0.014   0.043   0.222   0.031  -0.001
 -0.013   0.006   0.006   0.013  -0.015  -0.026  -0.003  -0.002   0.017  -0.004  -0.031   0.005  -0.009   0.031   0.223  -0.000
  0.003  -0.007  -0.006  -0.000  -0.010  -0.000  -0.000  -0.001   0.000  -0.001   0.022  -0.003  -0.011  -0.001  -0.000   0.001
 -0.000   0.009  -0.008   0.004  -0.000   0.000   0.001  -0.001   0.000  -0.000  -0.012   0.002  -0.001  -0.014  -0.002  -0.000
  0.009  -0.000  -0.001  -0.008   0.004   0.002   0.000  -0.000  -0.001   0.001   0.005  -0.001  -0.000  -0.002  -0.013   0.000
 total augmentation occupancy for first ion, spin component:            2
 -0.000   0.000   0.000  -0.000  -0.000   0.000  -0.000  -0.000   0.000   0.000  -0.000  -0.000   0.000   0.000  -0.000   0.000
  0.000  -0.000   0.000  -0.000  -0.000  -0.000   0.000  -0.000   0.000   0.000  -0.000  -0.000   0.000   0.000  -0.000   0.000
  0.000   0.000   0.001  -0.000  -0.001  -0.000  -0.000  -0.000   0.000   0.000  -0.001  -0.000   0.001   0.001  -0.001   0.000
 -0.000  -0.000  -0.000  -0.000   0.000   0.000   0.000   0.000   0.000  -0.000   0.000   0.000  -0.000  -0.000   0.000  -0.000
 -0.000  -0.000  -0.001   0.000   0.000   0.000   0.000   0.000  -0.000  -0.000   0.000   0.000  -0.000  -0.001   0.000   0.000
  0.000  -0.000  -0.000   0.000   0.000  -0.000  -0.000   0.000  -0.000  -0.000  -0.000   0.000  -0.000  -0.000   0.000  -0.000
 -0.000   0.000  -0.000   0.000   0.000  -0.000   0.000   0.000  -0.000  -0.000   0.000  -0.000  -0.000  -0.000   0.000   0.000
 -0.000  -0.000  -0.000   0.000   0.000   0.000   0.000   0.000  -0.000  -0.000   0.000   0.000  -0.000  -0.000   0.000   0.000
  0.000   0.000   0.000   0.000  -0.000  -0.000  -0.000  -0.000  -0.000   0.000  -0.000  -0.000   0.000   0.000  -0.000  -0.000
  0.000   0.000   0.000  -0.000  -0.000  -0.000  -0.000  -0.000   0.000   0.000  -0.000  -0.000   0.000   0.000  -0.000  -0.000
 -0.000  -0.000  -0.001   0.000   0.000  -0.000   0.000   0.000  -0.000  -0.000   0.001  -0.000  -0.000  -0.001   0.001   0.000
 -0.000  -0.000  -0.000   0.000   0.000   0.000  -0.000   0.000  -0.000  -0.000  -0.000   0.000  -0.000  -0.000   0.000  -0.000
  0.000   0.000   0.001  -0.000  -0.000  -0.000  -0.000  -0.000   0.000   0.000  -0.000  -0.000   0.000   0.001  -0.000  -0.000
  0.000   0.000   0.001  -0.000  -0.001  -0.000  -0.000  -0.000   0.000   0.000  -0.001  -0.000   0.001   0.002  -0.001  -0.000
 -0.000  -0.000  -0.001   0.000   0.000   0.000   0.000   0.000  -0.000  -0.000   0.001   0.000  -0.000  -0.001   0.000   0.000
  0.000   0.000   0.000  -0.000   0.000  -0.000   0.000   0.000  -0.000  -0.000   0.000  -0.000  -0.000  -0.000   0.000   0.000
 -0.000   0.000   0.000  -0.000  -0.000  -0.000   0.000   0.000  -0.000  -0.000   0.000  -0.000  -0.000  -0.000   0.000   0.000
 -0.000  -0.000  -0.000  -0.000   0.000  -0.000  -0.000  -0.000   0.000   0.000  -0.000   0.000   0.000   0.000  -0.000  -0.000


------------------------ aborting loop because EDIFF is reached ----------------------------------------


    CHARGE:  cpu time    1.7254: real time    1.7274
    FORLOC:  cpu time    0.1959: real time    0.1961
    FORNL :  cpu time   11.2611: real time   11.2742
    FORCOR:  cpu time    4.9741: real time    4.9833
    FORHAR:  cpu time    0.6818: real time    0.6826
    MIXING:  cpu time    0.1000: real time    0.1002
    OFIELD:  cpu time    0.0001: real time    0.0001

 VOLUME and BASIS-vectors are now :
 -----------------------------------------------------------------------------
  energy-cutoff  :      400.00
  volume of cell :    13712.97
      direct lattice vectors                 reciprocal lattice vectors
    25.783158786  0.000000000  0.000000000     0.038785007  0.000000000  0.000000000
     0.000000000 23.389920537  0.000000000     0.000000000  0.042753459  0.000000000
     0.000000000  0.000000000 22.738756272     0.000000000  0.000000000  0.043977779

  length of vectors
    25.783158786 23.389920537 22.738756272     0.038785007  0.042753459  0.043977779


 FORCES acting on ions
    electron-ion (+dipol)            ewald-force                    non-local-force                 convergence-correction
 -----------------------------------------------------------------------------------------------
   -.380E+03 -.104E+04 0.537E+03   0.379E+03 0.104E+04 -.536E+03   0.881E+00 0.133E+01 -.123E+01   -.565E-01 0.618E-01 0.139E-01
   0.390E+03 0.464E+03 0.698E+03   -.390E+03 -.465E+03 -.698E+03   -.307E+00 0.290E+00 0.816E-01   0.324E-01 -.391E-01 -.125E-01
   0.542E+03 -.883E+03 -.874E+03   -.539E+03 0.878E+03 0.871E+03   -.284E+01 0.484E+01 0.314E+01   0.418E-01 -.301E-01 0.641E-01
   -.486E+03 -.105E+04 -.805E+03   0.483E+03 0.104E+04 0.798E+03   0.301E+01 0.628E+01 0.761E+01   -.857E-01 0.652E-01 -.783E-01
   -.728E+03 0.313E+03 -.984E+03   0.724E+03 -.314E+03 0.980E+03   0.337E+01 0.375E+00 0.373E+01   -.424E-01 0.285E-01 0.107E+00
   0.142E+04 -.951E+02 -.164E+03   -.141E+04 0.954E+02 0.163E+03   -.817E+01 -.343E+00 0.102E+01   0.380E-01 0.146E-01 0.498E-02
   0.411E+03 0.514E+03 -.126E+04   -.410E+03 -.511E+03 0.125E+04   -.118E+01 -.356E+01 0.566E+01   0.104E+00 -.219E-01 -.860E-02
   -.989E+03 0.658E+03 0.751E+03   0.987E+03 -.654E+03 -.745E+03   0.236E+01 -.413E+01 -.600E+01   -.113E-01 -.247E-01 -.484E-01
   0.830E+03 0.111E+04 0.137E+03   -.824E+03 -.111E+04 -.135E+03   -.601E+01 -.680E+01 -.217E+01   -.128E-01 -.660E-03 0.268E-02
   -.462E+03 0.135E+04 -.128E+03   0.459E+03 -.134E+04 0.126E+03   0.384E+01 -.831E+01 0.170E+01   -.896E-01 0.417E-01 -.128E-01
   0.886E+03 -.916E+03 0.683E+03   -.882E+03 0.909E+03 -.677E+03   -.408E+01 0.654E+01 -.601E+01   0.344E-01 -.481E-01 -.121E-01
   -.138E+04 -.295E+03 -.448E+01   0.137E+04 0.293E+03 0.435E+01   0.962E+01 0.246E+01 0.121E+00   0.147E-01 -.799E-02 -.227E-02
   -.544E+02 -.131E+03 0.142E+04   0.553E+02 0.131E+03 -.140E+04   -.957E+00 -.756E+00 -.109E+02   -.152E-01 -.103E-01 0.231E-02
 -----------------------------------------------------------------------------------------------
   0.482E+00 0.175E+01 0.323E+01   0.711E-13 -.426E-12 0.227E-12   -.444E+00 -.177E+01 -.326E+01   -.484E-01 0.291E-01 0.197E-01
 
 
 POSITION                                       TOTAL-FORCE (eV/Angst)
 -----------------------------------------------------------------------------------
     14.14375     13.70433     11.58200        -0.011095      0.012185     -0.016300
     12.61791     11.56686     11.56639         0.016684     -0.001832     -0.000575
     12.47794     13.45386     13.42686         0.000908     -0.009329      0.022917
     14.75832     14.43351     13.72495        -0.033008      0.020750     -0.028230
     14.50122     11.98944     13.43407         0.009996      0.007265      0.022025
     10.50632     12.11665     12.63391         0.025662      0.005961      0.003307
     12.24995     11.11054     13.99138         0.024977     -0.007275      0.012664
     15.09307     11.43280     11.16861        -0.007905      0.011145     -0.002978
     11.27416      9.70222     12.32228        -0.002649      0.006622      0.002506
     13.77134      9.76496     12.55929        -0.017640      0.000207     -0.007150
     11.67300     13.69774     11.14082         0.017159     -0.023206     -0.002645
     16.36511     13.12679     12.34860        -0.012576     -0.016491     -0.006462
     13.52217     12.67111      9.58183        -0.010513     -0.006001      0.000921
 -----------------------------------------------------------------------------------
    total drift:                               -0.010326      0.009960     -0.006995


--------------------------------------------------------------------------------------------------------



  FREE ENERGIE OF THE ION-ELECTRON SYSTEM (eV)
  ---------------------------------------------------
  free  energy   TOTEN  =       -32.73383189 eV

  energy  without entropy=      -32.70626826  energy(sigma->0) =      -32.72464401
 
 d Force =-0.4742342E-04[-0.122E-03, 0.271E-04]  d Energy =-0.1586726E-04-0.316E-04
 d Force = 0.1299383E+01[ 0.130E+01, 0.130E+01]  d Ewald  = 0.1299383E+01-0.395E-07


--------------------------------------------------------------------------------------------------------


    POTLOK:  cpu time    5.0817: real time    5.0931


--------------------------------------------------------------------------------------------------------




--------------------------------------------------------------------------------------------------------


  
 reached required accuracy - stopping structural energy minimisation
     LOOP+:  cpu time   69.5311: real time   69.6423
    4ORBIT:  cpu time    0.0000: real time    0.0000

 total amount of memory used by VASP MPI-rank0   285976. kBytes
=======================================================================

   base      :      30000. kBytes
   nonl-proj :       5483. kBytes
   fftplans  :      62558. kBytes
   grid      :     141987. kBytes
   one-center:         31. kBytes
   wavefun   :      45917. kBytes
 
  
  
 General timing and accounting informations for this job:
 ========================================================
  
                  Total CPU time used (sec):     3064.452
                            User time (sec):     3041.249
                          System time (sec):       23.203
                         Elapsed time (sec):     3071.270
  
                   Maximum memory used (kb):      580988.
                   Average memory used (kb):           0.
  
                          Minor page faults:      7516128
                          Major page faults:        66183
                 Voluntary context switches:         3236
