<?xml version="1.0" encoding="ISO-8859-1"?>
<modeling>
 <generator>
  <i name="program" type="string">vasp </i>
  <i name="version" type="string">6.1.2  </i>
  <i name="subversion" type="string">22Jul20 (build Aug  2 2021 21:04:21) gamma-only                       parallel </i>
  <i name="platform" type="string">LinuxPGI </i>
  <i name="date" type="string">2022 01 12 </i>
  <i name="time" type="string">07:52:45 </i>
 </generator>
 <incar>
  <i type="int" name="ISPIN">     2</i>
  <i type="int" name="IBRION">     2</i>
  <i type="int" name="NSW">  1000</i>
  <i type="int" name="ISIF">     0</i>
  <i type="int" name="ISYM">     0</i>
  <i name="ENCUT">    400.00000000</i>
  <i type="logical" name="LREAL"> F  </i>
  <i type="int" name="ISMEAR">     1</i>
  <i name="SIGMA">      0.20000000</i>
  <i type="logical" name="LWAVE"> F  </i>
  <i type="logical" name="LCHARG"> F  </i>
  <i type="int" name="KPAR">     1</i>
  <i type="int" name="NCORE">     8</i>
  <i type="string" name="GGA"> PE</i>
  <i type="int" name="ISPIN">     2</i>
 </incar>
 <structure name="primitive_cell" >
  <crystal>
   <varray name="basis" >
    <v>      25.78315879       0.00000000       0.00000000 </v>
    <v>       0.00000000      23.38992054       0.00000000 </v>
    <v>       0.00000000       0.00000000      22.73875627 </v>
   </varray>
   <i name="volume">  13712.97159002 </i>
   <varray name="rec_basis" >
    <v>       0.03878501       0.00000000       0.00000000 </v>
    <v>       0.00000000       0.04275346       0.00000000 </v>
    <v>       0.00000000       0.00000000       0.04397778 </v>
   </varray>
  </crystal>
  <varray name="positions" >
   <v>       0.54804275       0.58770181       0.50825342 </v>
   <v>       0.49257756       0.49743350       0.51202998 </v>
   <v>       0.48344779       0.57635007       0.58911857 </v>
   <v>       0.57315240       0.61377243       0.60792228 </v>
   <v>       0.56158404       0.51125422       0.59107781 </v>
   <v>       0.40840969       0.51801255       0.55381714 </v>
   <v>       0.47512535       0.47382981       0.61934903 </v>
   <v>       0.58435870       0.48927460       0.48698807 </v>
   <v>       0.43896729       0.41673230       0.54060656 </v>
   <v>       0.53549344       0.41595100       0.55459208 </v>
   <v>       0.45344044       0.58797489       0.48527005 </v>
   <v>       0.63401855       0.56094314       0.54460482 </v>
   <v>       0.51941429       0.53877087       0.41998998 </v>
  </varray>
 </structure>
 <varray name="primitive_index" >
  <v type="int" >        1 </v>
  <v type="int" >        2 </v>
  <v type="int" >        3 </v>
  <v type="int" >        4 </v>
  <v type="int" >        5 </v>
  <v type="int" >        6 </v>
  <v type="int" >        7 </v>
  <v type="int" >        8 </v>
  <v type="int" >        9 </v>
  <v type="int" >       10 </v>
  <v type="int" >       11 </v>
  <v type="int" >       12 </v>
  <v type="int" >       13 </v>
 </varray>
 <kpoints>
  <generation param="Gamma">
   <v type="int" name="divisions">       1        1        1 </v>
   <v name="usershift">      0.00000000       0.00000000       0.00000000 </v>
   <v name="genvec1">      1.00000000       0.00000000       0.00000000 </v>
   <v name="genvec2">      0.00000000       1.00000000       0.00000000 </v>
   <v name="genvec3">      0.00000000       0.00000000       1.00000000 </v>
   <v name="shift">      0.00000000       0.00000000       0.00000000 </v>
  </generation>
  <varray name="kpointlist" >
   <v>       0.00000000       0.00000000       0.00000000 </v>
  </varray>
  <varray name="weights" >
   <v>       1.00000000 </v>
  </varray>
 </kpoints>
 <parameters>
  <separator name="general" >
   <i type="string" name="SYSTEM">unknown system</i>
   <i type="logical" name="LCOMPAT"> F  </i>
  </separator>
  <separator name="electronic" >
   <i type="string" name="PREC">normal</i>
   <i name="ENMAX">    400.00000000</i>
   <i name="ENAUG">    586.98000000</i>
   <i name="EDIFF">      0.00010000</i>
   <i type="int" name="IALGO">    38</i>
   <i type="int" name="IWAVPR">    11</i>
   <i type="int" name="NBANDS">    92</i>
   <i type="int" name="NBANDSLOW">    -1</i>
   <i type="int" name="NBANDSHIGH">    -1</i>
   <i name="NELECT">    143.00000000</i>
   <i type="int" name="TURBO">     0</i>
   <i type="int" name="IRESTART">     0</i>
   <i type="int" name="NREBOOT">     0</i>
   <i type="int" name="NMIN">     0</i>
   <i name="EREF">      0.00000000</i>
   <separator name="electronic smearing" >
    <i type="int" name="ISMEAR">     1</i>
    <i name="SIGMA">      0.20000000</i>
    <i name="KSPACING">      0.50000000</i>
    <i type="logical" name="KGAMMA"> T  </i>
    <i type="logical" name="KBLOWUP"> T  </i>
   </separator>
   <separator name="electronic projectors" >
    <i type="logical" name="LREAL"> F  </i>
    <v name="ROPT">      0.00000000</v>
    <i type="int" name="LMAXPAW">  -100</i>
    <i type="int" name="LMAXMIX">     2</i>
    <i type="logical" name="NLSPLINE"> F  </i>
   </separator>
   <separator name="electronic startup" >
    <i type="int" name="ISTART">     0</i>
    <i type="int" name="ICHARG">     2</i>
    <i type="int" name="INIWAV">     1</i>
   </separator>
   <separator name="electronic spin" >
    <i type="int" name="ISPIN">     2</i>
    <i type="logical" name="LNONCOLLINEAR"> F  </i>
    <v name="MAGMOM">      1.00000000      1.00000000      1.00000000      1.00000000      1.00000000      1.00000000      1.00000000      1.00000000      1.00000000      1.00000000      1.00000000      1.00000000      1.00000000</v>
    <i name="NUPDOWN">     -1.00000000</i>
    <i type="logical" name="LSORBIT"> F  </i>
    <v name="SAXIS">      0.00000000      0.00000000      1.00000000</v>
    <i type="logical" name="LSPIRAL"> F  </i>
    <v name="QSPIRAL">      0.00000000      0.00000000      0.00000000</v>
    <i type="logical" name="LZEROZ"> F  </i>
   </separator>
   <separator name="electronic exchange-correlation" >
    <i type="logical" name="LASPH"> F  </i>
    <i type="logical" name="LMETAGGA"> F  </i>
   </separator>
   <separator name="electronic convergence" >
    <i type="int" name="NELM">    60</i>
    <i type="int" name="NELMDL">     0</i>
    <i type="int" name="NELMIN">     2</i>
    <i name="ENINI">    400.00000000</i>
    <separator name="electronic convergence detail" >
     <i type="logical" name="LDIAG"> T  </i>
     <i type="logical" name="LSUBROT"> F  </i>
     <i name="WEIMIN">      0.00100000</i>
     <i name="EBREAK">      0.00000027</i>
     <i name="DEPER">      0.30000000</i>
     <i type="int" name="NRMM">     4</i>
     <i name="TIME">      0.40000000</i>
    </separator>
   </separator>
   <separator name="electronic mixer" >
    <i name="AMIX">      0.40000000</i>
    <i name="BMIX">      1.00000000</i>
    <i name="AMIN">      0.10000000</i>
    <i name="AMIX_MAG">      1.60000000</i>
    <i name="BMIX_MAG">      1.00000000</i>
    <separator name="electronic mixer details" >
     <i type="int" name="IMIX">     4</i>
     <i type="logical" name="MIXFIRST"> F  </i>
     <i type="int" name="MAXMIX">   -45</i>
     <i name="WC">    100.00000000</i>
     <i type="int" name="INIMIX">     1</i>
     <i type="int" name="MIXPRE">     1</i>
     <i type="int" name="MREMOVE">     5</i>
    </separator>
   </separator>
   <separator name="electronic dipolcorrection" >
    <i type="logical" name="LDIPOL"> F  </i>
    <i type="logical" name="LMONO"> F  </i>
    <i type="int" name="IDIPOL">     0</i>
    <i name="EPSILON">      1.00000000</i>
    <v name="DIPOL">   -100.00000000   -100.00000000   -100.00000000</v>
    <i name="EFIELD">      0.00000000</i>
   </separator>
  </separator>
  <separator name="grids" >
   <i type="int" name="NGX">   126</i>
   <i type="int" name="NGY">   120</i>
   <i type="int" name="NGZ">   112</i>
   <i type="int" name="NGXF">   252</i>
   <i type="int" name="NGYF">   240</i>
   <i type="int" name="NGZF">   224</i>
   <i type="logical" name="ADDGRID"> F  </i>
  </separator>
  <separator name="ionic" >
   <i type="int" name="NSW">  1000</i>
   <i type="int" name="IBRION">     2</i>
   <i type="int" name="MDALGO">     0</i>
   <i type="int" name="ISIF">     0</i>
   <i name="PSTRESS">      0.00000000</i>
   <i name="EDIFFG">      0.00100000</i>
   <i type="int" name="NFREE">     1</i>
   <i name="POTIM">      0.50000000</i>
   <i name="SMASS">     -3.00000000</i>
   <i name="SCALEE">      1.00000000</i>
  </separator>
  <separator name="ionic md" >
   <i name="TEBEG">      0.00010000</i>
   <i name="TEEND">      0.00010000</i>
   <i type="int" name="NBLOCK">     1</i>
   <i type="int" name="KBLOCK">  1000</i>
   <i type="int" name="NPACO">   256</i>
   <i name="APACO">     16.00000000</i>
  </separator>
  <separator name="symmetry" >
   <i type="int" name="ISYM">     0</i>
   <i name="SYMPREC">      0.00001000</i>
  </separator>
  <separator name="dos" >
   <i type="int" name="LORBIT">     0</i>
   <v name="RWIGS">     -1.00000000</v>
   <i type="int" name="NEDOS">   301</i>
   <i name="EMIN">     10.00000000</i>
   <i name="EMAX">    -10.00000000</i>
   <i name="EFERMI">      0.00000000</i>
  </separator>
  <separator name="writing" >
   <i type="int" name="NWRITE">     2</i>
   <i type="logical" name="LWAVE"> F  </i>
   <i type="logical" name="LDOWNSAMPLE"> F  </i>
   <i type="logical" name="LCHARG"> F  </i>
   <i type="logical" name="LPARD"> F  </i>
   <i type="logical" name="LVTOT"> F  </i>
   <i type="logical" name="LVHAR"> F  </i>
   <i type="logical" name="LELF"> F  </i>
   <i type="logical" name="LOPTICS"> F  </i>
   <v name="STM">      0.00000000      0.00000000      0.00000000      0.00000000      0.00000000      0.00000000      0.00000000</v>
  </separator>
  <separator name="performance" >
   <i type="int" name="NPAR">     1</i>
   <i type="int" name="NSIM">     4</i>
   <i type="int" name="NBLK">    -1</i>
   <i type="logical" name="LPLANE"> T  </i>
   <i type="logical" name="LSCALAPACK"> T  </i>
   <i type="logical" name="LSCAAWARE"> F  </i>
   <i type="logical" name="LSCALU"> F  </i>
   <i type="logical" name="LASYNC"> F  </i>
   <i type="logical" name="LORBITALREAL"> F  </i>
  </separator>
  <separator name="miscellaneous" >
   <i type="int" name="IDIOT">     3</i>
   <i type="int" name="PHON_NSTRUCT">    -1</i>
   <i type="logical" name="LMUSIC"> F  </i>
   <v name="POMASS">     63.54600000</v>
   <v name="DARWINR">      0.00000000</v>
   <v name="DARWINV">      1.00000000</v>
   <i type="logical" name="LCORR"> T  </i>
  </separator>
  <i type="logical" name="GGA_COMPAT"> T  </i>
  <i type="logical" name="LBERRY"> F  </i>
  <i type="int" name="ICORELEVEL">     0</i>
  <i type="logical" name="LDAU"> F  </i>
  <i type="int" name="I_CONSTRAINED_M">     0</i>
  <separator name="electronic exchange-correlation" >
   <i type="string" name="GGA">PE</i>
   <i type="int" name="VOSKOWN">     0</i>
   <i type="logical" name="LHFCALC"> F  </i>
   <i type="string" name="PRECFOCK"></i>
   <i type="logical" name="LSYMGRAD"> F  </i>
   <i type="logical" name="LHFONE"> F  </i>
   <i type="logical" name="LRHFCALC"> F  </i>
   <i type="logical" name="LTHOMAS"> F  </i>
   <i type="logical" name="LMODELHF"> F  </i>
   <i type="logical" name="LFOCKACE"> F  </i>
   <i name="ENCUT4O">     -1.00000000</i>
   <i type="int" name="EXXOEP">     0</i>
   <i type="int" name="FOURORBIT">     0</i>
   <i name="AEXX">      0.00000000</i>
   <i name="HFALPHA">      0.00000000</i>
   <i name="MCALPHA">      0.00000000</i>
   <i name="ALDAX">      1.00000000</i>
   <i name="AGGAX">      1.00000000</i>
   <i name="ALDAC">      1.00000000</i>
   <i name="AGGAC">      1.00000000</i>
   <i type="int" name="NKREDX">     1</i>
   <i type="int" name="NKREDY">     1</i>
   <i type="int" name="NKREDZ">     1</i>
   <i type="logical" name="SHIFTRED"> F  </i>
   <i type="logical" name="ODDONLY"> F  </i>
   <i type="logical" name="EVENONLY"> F  </i>
   <i type="int" name="LMAXFOCK">     0</i>
   <i type="int" name="NMAXFOCKAE">     0</i>
   <i type="logical" name="LFOCKAEDFT"> F  </i>
   <i name="HFSCREEN">      0.00000000</i>
   <i name="HFSCREENC">      0.00000000</i>
   <i type="int" name="NBANDSGWLOW">     0</i>
  </separator>
  <separator name="vdW DFT" >
   <i type="logical" name="LUSE_VDW"> F  </i>
   <i name="Zab_VDW">     -0.84910000</i>
   <i name="PARAM1">      0.12340000</i>
   <i name="PARAM2">      1.00000000</i>
   <i name="PARAM3">      0.00000000</i>
  </separator>
  <separator name="model GW" >
   <i type="int" name="MODEL_GW">     0</i>
   <i name="MODEL_EPS0">    632.90638108</i>
   <i name="MODEL_ALPHA">      1.00000000</i>
  </separator>
  <separator name="linear response parameters" >
   <i type="logical" name="LEPSILON"> F  </i>
   <i type="logical" name="LRPA"> F  </i>
   <i type="logical" name="LNABLA"> F  </i>
   <i type="logical" name="LVEL"> F  </i>
   <i type="int" name="KINTER">     0</i>
   <i name="CSHIFT">      0.10000000</i>
   <i name="OMEGAMAX">     -1.00000000</i>
   <i name="DEG_THRESHOLD">      0.00200000</i>
   <i name="RTIME">     -0.10000000</i>
   <i name="WPLASMAI">      0.00000000</i>
   <v name="DFIELD">      0.00000000      0.00000000      0.00000000</v>
   <v name="WPLASMA">      0.00000000      0.00000000      0.00000000      0.00000000      0.00000000      0.00000000      0.00000000      0.00000000      0.00000000</v>
  </separator>
  <separator name="orbital magnetization" >
   <i type="logical" name="NUCIND"> F  </i>
   <v name="MAGPOS">      0.00000000      0.00000000      0.00000000</v>
   <i type="logical" name="LNICSALL"> T  </i>
   <i type="logical" name="ORBITALMAG"> F  </i>
   <i type="logical" name="LMAGBLOCH"> F  </i>
   <i type="logical" name="LCHIMAG"> F  </i>
   <i type="logical" name="LGAUGE"> T  </i>
   <i type="int" name="MAGATOM">     0</i>
   <v name="MAGDIPOL">      0.00000000      0.00000000      0.00000000</v>
   <v name="AVECCONST">      0.00000000      0.00000000      0.00000000</v>
  </separator>
  <separator name="response functions" >
   <i type="logical" name="LFINITE_TEMPERATURE"> F  </i>
   <i type="logical" name="LADDER"> F  </i>
   <i type="logical" name="LRPAFORCE"> F  </i>
   <i type="logical" name="LFXC"> F  </i>
   <i type="logical" name="LHARTREE"> T  </i>
   <i type="int" name="IBSE">     0</i>
   <v type="int" name="KPOINT">    -1     0     0     0</v>
   <i type="logical" name="LTCTC"> F  </i>
   <i type="logical" name="LTCTE"> F  </i>
   <i type="logical" name="LTETE"> F  </i>
   <i type="logical" name="LTRIPLET"> F  </i>
   <i type="logical" name="LFXCEPS"> F  </i>
   <i type="logical" name="LFXHEG"> F  </i>
   <i type="int" name="NATURALO">     2</i>
   <i type="logical" name="LHOLEGF"> F  </i>
   <i type="logical" name="L2ORDER"> F  </i>
   <i type="logical" name="LDMP1"> F  </i>
   <i type="logical" name="LMP2LT"> F  </i>
   <i type="logical" name="LSMP2LT"> F  </i>
   <i type="logical" name="LGWLF"> F  </i>
   <i name="ENCUTGW">     -2.00000000</i>
   <i name="ENCUTGWSOFT">     -2.00000000</i>
   <i name="ENCUTLF">     -1.00000000</i>
   <i type="logical" name="LESF_SPLINES"> F  </i>
   <i type="int" name="LMAXMP2">    -1</i>
   <i name="SCISSOR">      0.00000000</i>
   <i type="int" name="NOMEGA">     0</i>
   <i type="int" name="NOMEGAR">     0</i>
   <i type="int" name="NBANDSGW">    -1</i>
   <i type="int" name="NBANDSO">    -1</i>
   <i type="int" name="NBANDSV">    -1</i>
   <i type="int" name="NELM">     1</i>
   <i type="int" name="NELMHF">     1</i>
   <i type="int" name="DIM">     3</i>
   <i type="int" name="IESPILON">     4</i>
   <i type="int" name="ANTIRES">     0</i>
   <i name="OMEGAMAX">    -30.00000000</i>
   <i name="OMEGAMIN">    -30.00000000</i>
   <i name="OMEGATL">   -200.00000000</i>
   <i type="int" name="OMEGAGRID">     0</i>
   <i name="CSHIFT">     -0.10000000</i>
   <i type="logical" name="LSELFENERGY"> F  </i>
   <i type="logical" name="LSPECTRAL"> F  </i>
   <i type="logical" name="LSPECTRALGW"> F  </i>
   <i type="logical" name="LSINGLES"> F  </i>
   <i type="logical" name="LFERMIGW"> F  </i>
   <i type="logical" name="ODDONLYGW"> F  </i>
   <i type="logical" name="EVENONLYGW"> F  </i>
   <i type="int" name="NKREDLFX">     1</i>
   <i type="int" name="NKREDLFY">     1</i>
   <i type="int" name="NKREDLFZ">     1</i>
   <i type="int" name="MAXMEM">  2800</i>
   <i type="int" name="TELESCOPE">     0</i>
   <i type="int" name="NTAUPAR">    -1</i>
   <i type="int" name="NOMEGAPAR">    -1</i>
   <i name="LAMBDA">      1.00000000</i>
  </separator>
  <separator name="External order field" >
   <i name="OFIELD_KAPPA">      0.00000000</i>
   <v name="OFIELD_K">      0.00000000      0.00000000      0.00000000</v>
   <i name="OFIELD_Q6_NEAR">      0.00000000</i>
   <i name="OFIELD_Q6_FAR">      0.00000000</i>
   <i name="OFIELD_A">      0.00000000</i>
  </separator>
 </parameters>
 <atominfo>
  <atoms>      13 </atoms>
  <types>       1 </types>
  <array name="atoms" >
   <dimension dim="1">ion</dimension>
   <field type="string">element</field>
   <field type="int">atomtype</field>
   <set>
    <rc><c>Cu</c><c>   1</c></rc>
    <rc><c>Cu</c><c>   1</c></rc>
    <rc><c>Cu</c><c>   1</c></rc>
    <rc><c>Cu</c><c>   1</c></rc>
    <rc><c>Cu</c><c>   1</c></rc>
    <rc><c>Cu</c><c>   1</c></rc>
    <rc><c>Cu</c><c>   1</c></rc>
    <rc><c>Cu</c><c>   1</c></rc>
    <rc><c>Cu</c><c>   1</c></rc>
    <rc><c>Cu</c><c>   1</c></rc>
    <rc><c>Cu</c><c>   1</c></rc>
    <rc><c>Cu</c><c>   1</c></rc>
    <rc><c>Cu</c><c>   1</c></rc>
   </set>
  </array>
  <array name="atomtypes" >
   <dimension dim="1">type</dimension>
   <field type="int">atomspertype</field>
   <field type="string">element</field>
   <field>mass</field>
   <field>valence</field>
   <field type="string">pseudopotential</field>
   <set>
    <rc><c>  13</c><c>Cu</c><c>     63.54600000</c><c>     11.00000000</c><c>  PAW_PBE Cu 22Jun2005                  </c></rc>
   </set>
  </array>
 </atominfo>
 <structure name="initialpos" >
  <crystal>
   <varray name="basis" >
    <v>      25.78315879       0.00000000       0.00000000 </v>
    <v>       0.00000000      23.38992054       0.00000000 </v>
    <v>       0.00000000       0.00000000      22.73875627 </v>
   </varray>
   <i name="volume">  13712.97159002 </i>
   <varray name="rec_basis" >
    <v>       0.03878501       0.00000000       0.00000000 </v>
    <v>       0.00000000       0.04275346       0.00000000 </v>
    <v>       0.00000000       0.00000000       0.04397778 </v>
   </varray>
  </crystal>
  <varray name="positions" >
   <v>       0.54804275       0.58770181       0.50825342 </v>
   <v>       0.49257756       0.49743350       0.51202998 </v>
   <v>       0.48344779       0.57635007       0.58911857 </v>
   <v>       0.57315240       0.61377243       0.60792228 </v>
   <v>       0.56158404       0.51125422       0.59107781 </v>
   <v>       0.40840969       0.51801255       0.55381714 </v>
   <v>       0.47512535       0.47382981       0.61934903 </v>
   <v>       0.58435870       0.48927460       0.48698807 </v>
   <v>       0.43896729       0.41673230       0.54060656 </v>
   <v>       0.53549344       0.41595100       0.55459208 </v>
   <v>       0.45344044       0.58797489       0.48527005 </v>
   <v>       0.63401855       0.56094314       0.54460482 </v>
   <v>       0.51941429       0.53877087       0.41998998 </v>
  </varray>
 </structure>
 <calculation>
  <scstep>
   <time name="dav">   20.03   20.06</time>
   <time name="total">   25.29   25.33</time>
   <energy>
    <i name="alphaZ">      9.01295809 </i>
    <i name="ewald">  25393.97262084 </i>
    <i name="hartreedc"> -41854.07668672 </i>
    <i name="XCdc">    584.59178811 </i>
    <i name="pawpsdc">  15965.26744864 </i>
    <i name="pawaedc"> -17340.97210982 </i>
    <i name="eentropy">     -0.01650929 </i>
    <i name="bandstr">    135.71380124 </i>
    <i name="atom">  18082.44932260 </i>
    <i name="e_fr_energy">    975.94263369 </i>
    <i name="e_wo_entrp">    975.95914298 </i>
    <i name="e_0_energy">    975.94813679 </i>
   </energy>
  </scstep>
  <scstep>
   <time name="dav">   20.12   20.14</time>
   <time name="total">   20.12   20.15</time>
   <energy>
    <i name="e_fr_energy">    263.11666417 </i>
    <i name="e_wo_entrp">    263.13202903 </i>
    <i name="e_0_energy">    263.12178579 </i>
   </energy>
  </scstep>
  <scstep>
   <time name="dav">   22.70   22.73</time>
   <time name="total">   22.71   22.73</time>
   <energy>
    <i name="e_fr_energy">     11.04513911 </i>
    <i name="e_wo_entrp">     11.05131095 </i>
    <i name="e_0_energy">     11.04719639 </i>
   </energy>
  </scstep>
  <scstep>
   <time name="dav">   22.60   22.62</time>
   <time name="total">   22.60   22.63</time>
   <energy>
    <i name="e_fr_energy">    -34.79317280 </i>
    <i name="e_wo_entrp">    -34.78785242 </i>
    <i name="e_0_energy">    -34.79139934 </i>
   </energy>
  </scstep>
  <scstep>
   <time name="dav">   22.76   22.79</time>
   <time name="total">   24.57   24.60</time>
   <energy>
    <i name="e_fr_energy">    -36.98887803 </i>
    <i name="e_wo_entrp">    -36.98122562 </i>
    <i name="e_0_energy">    -36.98632723 </i>
   </energy>
  </scstep>
  <scstep>
   <time name="dav">   19.28   19.30</time>
   <time name="total">   26.19   26.22</time>
   <energy>
    <i name="e_fr_energy">    -17.37805426 </i>
    <i name="e_wo_entrp">    -17.33751858 </i>
    <i name="e_0_energy">    -17.36454237 </i>
   </energy>
  </scstep>
  <scstep>
   <time name="dav">   21.29   21.32</time>
   <time name="total">   28.25   28.28</time>
   <energy>
    <i name="e_fr_energy">    -13.48124484 </i>
    <i name="e_wo_entrp">    -13.42892683 </i>
    <i name="e_0_energy">    -13.46380550 </i>
   </energy>
  </scstep>
  <scstep>
   <time name="dav">   21.30   21.33</time>
   <time name="total">   28.22   28.26</time>
   <energy>
    <i name="e_fr_energy">    -12.63908717 </i>
    <i name="e_wo_entrp">    -12.61029854 </i>
    <i name="e_0_energy">    -12.62949096 </i>
   </energy>
  </scstep>
  <scstep>
   <time name="dav">   26.12   26.16</time>
   <time name="total">   33.11   33.16</time>
   <energy>
    <i name="e_fr_energy">    -13.90013938 </i>
    <i name="e_wo_entrp">    -13.84070882 </i>
    <i name="e_0_energy">    -13.88032920 </i>
   </energy>
  </scstep>
  <scstep>
   <time name="dav">   24.84   24.87</time>
   <time name="total">   31.82   31.87</time>
   <energy>
    <i name="e_fr_energy">    -15.59843520 </i>
    <i name="e_wo_entrp">    -15.54654672 </i>
    <i name="e_0_energy">    -15.58113904 </i>
   </energy>
  </scstep>
  <scstep>
   <time name="dav">   22.60   22.63</time>
   <time name="total">   29.54   29.59</time>
   <energy>
    <i name="e_fr_energy">    -17.66492659 </i>
    <i name="e_wo_entrp">    -17.64465861 </i>
    <i name="e_0_energy">    -17.65817059 </i>
   </energy>
  </scstep>
  <scstep>
   <time name="dav">   25.82   25.85</time>
   <time name="total">   32.73   32.77</time>
   <energy>
    <i name="e_fr_energy">    -21.15548024 </i>
    <i name="e_wo_entrp">    -21.13907413 </i>
    <i name="e_0_energy">    -21.15001154 </i>
   </energy>
  </scstep>
  <scstep>
   <time name="dav">   22.16   22.18</time>
   <time name="total">   29.16   29.19</time>
   <energy>
    <i name="e_fr_energy">    -24.74032407 </i>
    <i name="e_wo_entrp">    -24.70547949 </i>
    <i name="e_0_energy">    -24.72870921 </i>
   </energy>
  </scstep>
  <scstep>
   <time name="dav">   24.52   24.55</time>
   <time name="total">   31.53   31.57</time>
   <energy>
    <i name="e_fr_energy">    -25.53434586 </i>
    <i name="e_wo_entrp">    -25.51325546 </i>
    <i name="e_0_energy">    -25.52731573 </i>
   </energy>
  </scstep>
  <scstep>
   <time name="dav">   23.34   23.38</time>
   <time name="total">   30.29   30.34</time>
   <energy>
    <i name="e_fr_energy">    -25.99904169 </i>
    <i name="e_wo_entrp">    -25.99014247 </i>
    <i name="e_0_energy">    -25.99607529 </i>
   </energy>
  </scstep>
  <scstep>
   <time name="dav">   25.03   25.06</time>
   <time name="total">   32.07   32.13</time>
   <energy>
    <i name="e_fr_energy">    -27.88052131 </i>
    <i name="e_wo_entrp">    -27.92476487 </i>
    <i name="e_0_energy">    -27.89526916 </i>
   </energy>
  </scstep>
  <scstep>
   <time name="dav">   24.99   25.02</time>
   <time name="total">   32.06   32.10</time>
   <energy>
    <i name="e_fr_energy">    -29.22331864 </i>
    <i name="e_wo_entrp">    -29.28332173 </i>
    <i name="e_0_energy">    -29.24331967 </i>
   </energy>
  </scstep>
  <scstep>
   <time name="dav">   22.46   22.50</time>
   <time name="total">   29.77   29.82</time>
   <energy>
    <i name="e_fr_energy">    -30.20722837 </i>
    <i name="e_wo_entrp">    -30.26460893 </i>
    <i name="e_0_energy">    -30.22635522 </i>
   </energy>
  </scstep>
  <scstep>
   <time name="dav">   22.38   22.42</time>
   <time name="total">   29.42   29.47</time>
   <energy>
    <i name="e_fr_energy">    -30.64529613 </i>
    <i name="e_wo_entrp">    -30.69803984 </i>
    <i name="e_0_energy">    -30.66287737 </i>
   </energy>
  </scstep>
  <scstep>
   <time name="dav">   23.55   23.58</time>
   <time name="total">   30.66   30.71</time>
   <energy>
    <i name="e_fr_energy">    -31.32039158 </i>
    <i name="e_wo_entrp">    -31.36316392 </i>
    <i name="e_0_energy">    -31.33464903 </i>
   </energy>
  </scstep>
  <scstep>
   <time name="dav">   25.00   25.04</time>
   <time name="total">   32.35   32.40</time>
   <energy>
    <i name="e_fr_energy">    -31.77597383 </i>
    <i name="e_wo_entrp">    -31.81068775 </i>
    <i name="e_0_energy">    -31.78754514 </i>
   </energy>
  </scstep>
  <scstep>
   <time name="dav">   25.09   25.12</time>
   <time name="total">   32.22   32.27</time>
   <energy>
    <i name="e_fr_energy">    -32.02399554 </i>
    <i name="e_wo_entrp">    -32.05183989 </i>
    <i name="e_0_energy">    -32.03327699 </i>
   </energy>
  </scstep>
  <scstep>
   <time name="dav">   24.27   24.30</time>
   <time name="total">   31.45   31.50</time>
   <energy>
    <i name="e_fr_energy">    -32.22449257 </i>
    <i name="e_wo_entrp">    -32.24843247 </i>
    <i name="e_0_energy">    -32.23247254 </i>
   </energy>
  </scstep>
  <scstep>
   <time name="dav">   23.82   23.86</time>
   <time name="total">   30.76   30.81</time>
   <energy>
    <i name="e_fr_energy">    -32.38580961 </i>
    <i name="e_wo_entrp">    -32.40617858 </i>
    <i name="e_0_energy">    -32.39259927 </i>
   </energy>
  </scstep>
  <scstep>
   <time name="dav">   23.47   23.50</time>
   <time name="total">   30.71   30.75</time>
   <energy>
    <i name="e_fr_energy">    -32.46090923 </i>
    <i name="e_wo_entrp">    -32.47850081 </i>
    <i name="e_0_energy">    -32.46677309 </i>
   </energy>
  </scstep>
  <scstep>
   <time name="dav">   17.22   17.25</time>
   <time name="total">   23.97   24.01</time>
   <energy>
    <i name="e_fr_energy">    -32.50878454 </i>
    <i name="e_wo_entrp">    -32.52393740 </i>
    <i name="e_0_energy">    -32.51383549 </i>
   </energy>
  </scstep>
  <scstep>
   <time name="dav">   18.33   18.36</time>
   <time name="total">   25.49   25.53</time>
   <energy>
    <i name="e_fr_energy">    -32.53988341 </i>
    <i name="e_wo_entrp">    -32.55282826 </i>
    <i name="e_0_energy">    -32.54419836 </i>
   </energy>
  </scstep>
  <scstep>
   <time name="dav">   17.65   17.68</time>
   <time name="total">   24.93   24.97</time>
   <energy>
    <i name="e_fr_energy">    -32.55910620 </i>
    <i name="e_wo_entrp">    -32.57049587 </i>
    <i name="e_0_energy">    -32.56290276 </i>
   </energy>
  </scstep>
  <scstep>
   <time name="dav">   15.70   15.72</time>
   <time name="total">   22.43   22.47</time>
   <energy>
    <i name="e_fr_energy">    -32.56882589 </i>
    <i name="e_wo_entrp">    -32.57920294 </i>
    <i name="e_0_energy">    -32.57228490 </i>
   </energy>
  </scstep>
  <scstep>
   <time name="dav">   16.09   16.12</time>
   <time name="total">   23.43   23.46</time>
   <energy>
    <i name="e_fr_energy">    -32.57589048 </i>
    <i name="e_wo_entrp">    -32.58526723 </i>
    <i name="e_0_energy">    -32.57901607 </i>
   </energy>
  </scstep>
  <scstep>
   <time name="dav">   15.51   15.54</time>
   <time name="total">   22.75   22.79</time>
   <energy>
    <i name="e_fr_energy">    -32.57999456 </i>
    <i name="e_wo_entrp">    -32.58852703 </i>
    <i name="e_0_energy">    -32.58283872 </i>
   </energy>
  </scstep>
  <scstep>
   <time name="dav">   15.09   15.10</time>
   <time name="total">   22.46   22.50</time>
   <energy>
    <i name="e_fr_energy">    -32.58161417 </i>
    <i name="e_wo_entrp">    -32.58971162 </i>
    <i name="e_0_energy">    -32.58431332 </i>
   </energy>
  </scstep>
  <scstep>
   <time name="dav">   15.37   15.39</time>
   <time name="total">   22.83   22.86</time>
   <energy>
    <i name="e_fr_energy">    -32.58383494 </i>
    <i name="e_wo_entrp">    -32.59117163 </i>
    <i name="e_0_energy">    -32.58628051 </i>
   </energy>
  </scstep>
  <scstep>
   <time name="dav">   14.03   14.05</time>
   <time name="total">   21.47   21.50</time>
   <energy>
    <i name="e_fr_energy">    -32.58570856 </i>
    <i name="e_wo_entrp">    -32.59233405 </i>
    <i name="e_0_energy">    -32.58791706 </i>
   </energy>
  </scstep>
  <scstep>
   <time name="dav">   15.80   15.81</time>
   <time name="total">   23.36   23.40</time>
   <energy>
    <i name="e_fr_energy">    -32.58664775 </i>
    <i name="e_wo_entrp">    -32.59291642 </i>
    <i name="e_0_energy">    -32.58873731 </i>
   </energy>
  </scstep>
  <scstep>
   <time name="dav">   11.54   11.55</time>
   <time name="total">   18.66   18.69</time>
   <energy>
    <i name="e_fr_energy">    -32.58736357 </i>
    <i name="e_wo_entrp">    -32.59330663 </i>
    <i name="e_0_energy">    -32.58934459 </i>
   </energy>
  </scstep>
  <scstep>
   <time name="dav">   14.74   14.76</time>
   <time name="total">   22.29   22.32</time>
   <energy>
    <i name="e_fr_energy">    -32.58768073 </i>
    <i name="e_wo_entrp">    -32.59334233 </i>
    <i name="e_0_energy">    -32.58956793 </i>
   </energy>
  </scstep>
  <scstep>
   <time name="dav">   14.17   14.20</time>
   <time name="total">   21.78   21.82</time>
   <energy>
    <i name="e_fr_energy">    -32.58780854 </i>
    <i name="e_wo_entrp">    -32.59324363 </i>
    <i name="e_0_energy">    -32.58962023 </i>
   </energy>
  </scstep>
  <scstep>
   <time name="dav">   15.81   15.83</time>
   <time name="total">   20.89   20.91</time>
   <energy>
    <i name="alphaZ">      9.01295809 </i>
    <i name="ewald">  25393.97262084 </i>
    <i name="hartreedc"> -41811.12272670 </i>
    <i name="XCdc">    574.50527159 </i>
    <i name="pawpsdc">  16695.35915038 </i>
    <i name="pawaedc"> -18089.20802414 </i>
    <i name="eentropy">      0.00521995 </i>
    <i name="bandstr">   -887.56164095 </i>
    <i name="atom">  18082.44932260 </i>
    <i name="e_fr_energy">    -32.58784834 </i>
    <i name="e_wo_entrp">    -32.59306830 </i>
    <i name="e_0_energy">    -32.58958833 </i>
   </energy>
  </scstep>
  <structure>
   <crystal>
    <varray name="basis" >
     <v>      25.78315879       0.00000000       0.00000000 </v>
     <v>       0.00000000      23.38992054       0.00000000 </v>
     <v>       0.00000000       0.00000000      22.73875627 </v>
    </varray>
    <i name="volume">  13712.97159002 </i>
    <varray name="rec_basis" >
     <v>       0.03878501       0.00000000       0.00000000 </v>
     <v>       0.00000000       0.04275346       0.00000000 </v>
     <v>       0.00000000       0.00000000       0.04397778 </v>
    </varray>
   </crystal>
   <varray name="positions" >
    <v>       0.54804275       0.58770181       0.50825342 </v>
    <v>       0.49257756       0.49743350       0.51202998 </v>
    <v>       0.48344779       0.57635007       0.58911857 </v>
    <v>       0.57315240       0.61377243       0.60792228 </v>
    <v>       0.56158404       0.51125422       0.59107781 </v>
    <v>       0.40840969       0.51801255       0.55381714 </v>
    <v>       0.47512535       0.47382981       0.61934903 </v>
    <v>       0.58435870       0.48927460       0.48698807 </v>
    <v>       0.43896729       0.41673230       0.54060656 </v>
    <v>       0.53549344       0.41595100       0.55459208 </v>
    <v>       0.45344044       0.58797489       0.48527005 </v>
    <v>       0.63401855       0.56094314       0.54460482 </v>
    <v>       0.51941429       0.53877087       0.41998998 </v>
   </varray>
  </structure>
  <varray name="forces" >
   <v>       0.17833293      -0.17420213       0.11730968 </v>
   <v>      -0.32750168      -0.20074978       0.09525419 </v>
   <v>      -0.04621418      -0.16109522       0.02054964 </v>
   <v>      -0.10970035       0.04360614      -0.29014685 </v>
   <v>       0.13049333       0.03621985      -0.18236042 </v>
   <v>       0.15349158       0.07720723       0.04945073 </v>
   <v>      -0.04405281       0.21718167      -0.43373082 </v>
   <v>       0.10004816       0.17401881       0.36639606 </v>
   <v>       0.05623217      -0.00005801       0.07790122 </v>
   <v>      -0.14692932       0.19788114      -0.14247619 </v>
   <v>      -0.04040120      -0.26041883       0.36963871 </v>
   <v>      -0.15024727      -0.11168104      -0.14553785 </v>
   <v>       0.24644866       0.16209017       0.09775189 </v>
  </varray>
  <energy>
   <i name="e_fr_energy">    -32.58784834 </i>
   <i name="e_wo_entrp">    -32.59306830 </i>
   <i name="e_0_energy">    -32.58958833 </i>
  </energy>
  <time name="totalsc"> 1070.94 1072.56</time>
 </calculation>
 <calculation>
  <scstep>
   <time name="dav">   21.42   21.44</time>
   <time name="total">   28.27   28.31</time>
   <energy>
    <i name="alphaZ">      9.01295809 </i>
    <i name="ewald">  25529.56898347 </i>
    <i name="hartreedc"> -41945.67451248 </i>
    <i name="XCdc">    574.73955776 </i>
    <i name="pawpsdc">  16695.36008204 </i>
    <i name="pawaedc"> -18089.20879466 </i>
    <i name="eentropy">      0.00044739 </i>
    <i name="bandstr">   -888.85757352 </i>
    <i name="atom">  18082.44932260 </i>
    <i name="e_fr_energy">    -32.60952932 </i>
    <i name="e_wo_entrp">    -32.60997671 </i>
    <i name="e_0_energy">    -32.60967845 </i>
   </energy>
  </scstep>
  <scstep>
   <time name="dav">   25.85   25.88</time>
   <time name="total">   32.30   32.35</time>
   <energy>
    <i name="e_fr_energy">    -32.64126850 </i>
    <i name="e_wo_entrp">    -32.64142392 </i>
    <i name="e_0_energy">    -32.64132031 </i>
   </energy>
  </scstep>
  <scstep>
   <time name="dav">   21.50   21.52</time>
   <time name="total">   28.44   28.47</time>
   <energy>
    <i name="e_fr_energy">    -32.63979535 </i>
    <i name="e_wo_entrp">    -32.64005481 </i>
    <i name="e_0_energy">    -32.63988183 </i>
   </energy>
  </scstep>
  <scstep>
   <time name="dav">   23.03   23.05</time>
   <time name="total">   30.04   30.08</time>
   <energy>
    <i name="e_fr_energy">    -32.63973640 </i>
    <i name="e_wo_entrp">    -32.63990887 </i>
    <i name="e_0_energy">    -32.63979389 </i>
   </energy>
  </scstep>
  <scstep>
   <time name="dav">   20.10   20.13</time>
   <time name="total">   27.18   27.22</time>
   <energy>
    <i name="e_fr_energy">    -32.63959019 </i>
    <i name="e_wo_entrp">    -32.63950226 </i>
    <i name="e_0_energy">    -32.63956088 </i>
   </energy>
  </scstep>
  <scstep>
   <time name="dav">   14.14   14.16</time>
   <time name="total">   20.91   20.94</time>
   <energy>
    <i name="e_fr_energy">    -32.63941558 </i>
    <i name="e_wo_entrp">    -32.63887256 </i>
    <i name="e_0_energy">    -32.63923457 </i>
   </energy>
  </scstep>
  <scstep>
   <time name="dav">   23.32   23.35</time>
   <time name="total">   28.49   28.53</time>
   <energy>
    <i name="alphaZ">      9.01295809 </i>
    <i name="ewald">  25529.56898347 </i>
    <i name="hartreedc"> -41944.07178199 </i>
    <i name="XCdc">    574.64795397 </i>
    <i name="pawpsdc">  16723.77020934 </i>
    <i name="pawaedc"> -18118.13768758 </i>
    <i name="eentropy">     -0.00066072 </i>
    <i name="bandstr">   -889.87866690 </i>
    <i name="atom">  18082.44932260 </i>
    <i name="e_fr_energy">    -32.63936972 </i>
    <i name="e_wo_entrp">    -32.63870900 </i>
    <i name="e_0_energy">    -32.63914948 </i>
   </energy>
  </scstep>
  <structure>
   <crystal>
    <varray name="basis" >
     <v>      25.78315879       0.00000000       0.00000000 </v>
     <v>       0.00000000      23.38992054       0.00000000 </v>
     <v>       0.00000000       0.00000000      22.73875627 </v>
    </varray>
    <i name="volume">  13712.97159002 </i>
    <varray name="rec_basis" >
     <v>       0.03878501       0.00000000       0.00000000 </v>
     <v>       0.00000000       0.04275346       0.00000000 </v>
     <v>       0.00000000       0.00000000       0.04397778 </v>
    </varray>
   </crystal>
   <varray name="positions" >
    <v>       0.54837643       0.58734251       0.50850230 </v>
    <v>       0.49196477       0.49701944       0.51223207 </v>
    <v>       0.48336132       0.57601780       0.58916217 </v>
    <v>       0.57294715       0.61386237       0.60730671 </v>
    <v>       0.56182820       0.51132892       0.59069091 </v>
    <v>       0.40869689       0.51817179       0.55392206 </v>
    <v>       0.47504293       0.47427775       0.61842882 </v>
    <v>       0.58454590       0.48963352       0.48776542 </v>
    <v>       0.43907251       0.41673218       0.54077183 </v>
    <v>       0.53521852       0.41635914       0.55428980 </v>
    <v>       0.45336484       0.58743776       0.48605427 </v>
    <v>       0.63373743       0.56071279       0.54429605 </v>
    <v>       0.51987542       0.53910518       0.42019737 </v>
   </varray>
  </structure>
  <varray name="forces" >
   <v>       0.07379913      -0.12452544       0.04663464 </v>
   <v>      -0.16161988      -0.11995587      -0.06356601 </v>
   <v>       0.00445171      -0.08327371       0.05533733 </v>
   <v>      -0.09903655       0.07152748      -0.21429483 </v>
   <v>       0.09069348       0.01792034      -0.09017029 </v>
   <v>      -0.00870491       0.06962235       0.05821266 </v>
   <v>      -0.02648487       0.16119257      -0.27137397 </v>
   <v>       0.06033517       0.08200051       0.24599891 </v>
   <v>      -0.02126304      -0.07843547       0.04752513 </v>
   <v>      -0.07435750       0.12494456      -0.12496825 </v>
   <v>      -0.03486946      -0.20194265       0.28069856 </v>
   <v>      -0.01140372      -0.05914781      -0.10764308 </v>
   <v>       0.20846044       0.14007315       0.13760918 </v>
  </varray>
  <energy>
   <i name="e_fr_energy">    -32.63936972 </i>
   <i name="e_wo_entrp">    -32.63870900 </i>
   <i name="e_0_energy">    -32.63914948 </i>
  </energy>
  <time name="totalsc">  221.65  221.98</time>
 </calculation>
 <calculation>
  <scstep>
   <time name="dav">   19.73   19.76</time>
   <time name="total">   26.60   26.64</time>
   <energy>
    <i name="alphaZ">      9.01295809 </i>
    <i name="ewald">  25767.80342956 </i>
    <i name="hartreedc"> -42180.50597102 </i>
    <i name="XCdc">    575.08840593 </i>
    <i name="pawpsdc">  16723.75353270 </i>
    <i name="pawaedc"> -18118.17489506 </i>
    <i name="eentropy">     -0.01050320 </i>
    <i name="bandstr">   -891.98965703 </i>
    <i name="atom">  18082.44932260 </i>
    <i name="e_fr_energy">    -32.57337743 </i>
    <i name="e_wo_entrp">    -32.56287423 </i>
    <i name="e_0_energy">    -32.56987637 </i>
   </energy>
  </scstep>
  <scstep>
   <time name="dav">   25.72   25.76</time>
   <time name="total">   32.69   32.75</time>
   <energy>
    <i name="e_fr_energy">    -32.67742685 </i>
    <i name="e_wo_entrp">    -32.66703598 </i>
    <i name="e_0_energy">    -32.67396322 </i>
   </energy>
  </scstep>
  <scstep>
   <time name="dav">   20.16   20.18</time>
   <time name="total">   27.23   27.26</time>
   <energy>
    <i name="e_fr_energy">    -32.67070532 </i>
    <i name="e_wo_entrp">    -32.66013872 </i>
    <i name="e_0_energy">    -32.66718312 </i>
   </energy>
  </scstep>
  <scstep>
   <time name="dav">   21.93   21.95</time>
   <time name="total">   28.95   29.00</time>
   <energy>
    <i name="e_fr_energy">    -32.67057413 </i>
    <i name="e_wo_entrp">    -32.65989647 </i>
    <i name="e_0_energy">    -32.66701491 </i>
   </energy>
  </scstep>
  <scstep>
   <time name="dav">   20.05   20.08</time>
   <time name="total">   26.97   27.01</time>
   <energy>
    <i name="e_fr_energy">    -32.66985797 </i>
    <i name="e_wo_entrp">    -32.65869231 </i>
    <i name="e_0_energy">    -32.66613608 </i>
   </energy>
  </scstep>
  <scstep>
   <time name="dav">   29.48   29.52</time>
   <time name="total">   36.19   36.24</time>
   <energy>
    <i name="e_fr_energy">    -32.66949616 </i>
    <i name="e_wo_entrp">    -32.65743751 </i>
    <i name="e_0_energy">    -32.66547661 </i>
   </energy>
  </scstep>
  <scstep>
   <time name="dav">   17.71   17.73</time>
   <time name="total">   24.13   24.17</time>
   <energy>
    <i name="e_fr_energy">    -32.66931001 </i>
    <i name="e_wo_entrp">    -32.65719200 </i>
    <i name="e_0_energy">    -32.66527068 </i>
   </energy>
  </scstep>
  <scstep>
   <time name="dav">   19.95   19.98</time>
   <time name="total">   24.87   24.91</time>
   <energy>
    <i name="alphaZ">      9.01295809 </i>
    <i name="ewald">  25767.80342956 </i>
    <i name="hartreedc"> -42178.04922435 </i>
    <i name="XCdc">    574.93915924 </i>
    <i name="pawpsdc">  16778.00430382 </i>
    <i name="pawaedc"> -18173.52082368 </i>
    <i name="eentropy">     -0.01202992 </i>
    <i name="bandstr">   -893.29641542 </i>
    <i name="atom">  18082.44932260 </i>
    <i name="e_fr_energy">    -32.66932005 </i>
    <i name="e_wo_entrp">    -32.65729013 </i>
    <i name="e_0_energy">    -32.66531008 </i>
   </energy>
  </scstep>
  <structure>
   <crystal>
    <varray name="basis" >
     <v>      25.78315879       0.00000000       0.00000000 </v>
     <v>       0.00000000      23.38992054       0.00000000 </v>
     <v>       0.00000000       0.00000000      22.73875627 </v>
    </varray>
    <i name="volume">  13712.97159002 </i>
    <varray name="rec_basis" >
     <v>       0.03878501       0.00000000       0.00000000 </v>
     <v>       0.00000000       0.04275346       0.00000000 </v>
     <v>       0.00000000       0.00000000       0.04397778 </v>
    </varray>
   </crystal>
   <varray name="positions" >
    <v>       0.54895572       0.58671874       0.50893439 </v>
    <v>       0.49090092       0.49630061       0.51258292 </v>
    <v>       0.48321119       0.57544096       0.58923786 </v>
    <v>       0.57259080       0.61401851       0.60623801 </v>
    <v>       0.56225210       0.51145862       0.59001923 </v>
    <v>       0.40919549       0.51844825       0.55410420 </v>
    <v>       0.47489983       0.47505542       0.61683127 </v>
    <v>       0.58487089       0.49025663       0.48911496 </v>
    <v>       0.43925517       0.41673197       0.54105877 </v>
    <v>       0.53474124       0.41706770       0.55376502 </v>
    <v>       0.45323361       0.58650527       0.48741576 </v>
    <v>       0.63324937       0.56031289       0.54375999 </v>
    <v>       0.52067598       0.53968559       0.42055742 </v>
   </varray>
  </structure>
  <varray name="forces" >
   <v>      -0.12166713      -0.02850193      -0.09830904 </v>
   <v>       0.13806287       0.03282552      -0.37543423 </v>
   <v>       0.10265255       0.07915694       0.12399327 </v>
   <v>      -0.08209478       0.12538544      -0.06802157 </v>
   <v>       0.00246450      -0.01544421       0.10642277 </v>
   <v>      -0.32948598       0.05329039       0.07716190 </v>
   <v>       0.02746244       0.04435021       0.05426458 </v>
   <v>      -0.00888485      -0.11978420       0.01629282 </v>
   <v>      -0.17281005      -0.23360220      -0.00530462 </v>
   <v>       0.05437799      -0.01608835      -0.07829352 </v>
   <v>      -0.00667544      -0.07488475       0.07559911 </v>
   <v>       0.25998452       0.05796242      -0.02715492 </v>
   <v>       0.13661335       0.09533471       0.19878345 </v>
  </varray>
  <energy>
   <i name="e_fr_energy">    -32.66932005 </i>
   <i name="e_wo_entrp">    -32.65729013 </i>
   <i name="e_0_energy">    -32.66531008 </i>
  </energy>
  <time name="totalsc">  253.84  254.23</time>
 </calculation>
 <calculation>
  <scstep>
   <time name="dav">   20.35   20.37</time>
   <time name="total">   27.13   27.17</time>
   <energy>
    <i name="alphaZ">      9.01295809 </i>
    <i name="ewald">  25782.87502171 </i>
    <i name="hartreedc"> -42193.25621382 </i>
    <i name="XCdc">    574.97188421 </i>
    <i name="pawpsdc">  16777.65355436 </i>
    <i name="pawaedc"> -18173.10497159 </i>
    <i name="eentropy">     -0.01639822 </i>
    <i name="bandstr">   -893.24294036 </i>
    <i name="atom">  18082.44932260 </i>
    <i name="e_fr_energy">    -32.65778301 </i>
    <i name="e_wo_entrp">    -32.64138479 </i>
    <i name="e_0_energy">    -32.65231694 </i>
   </energy>
  </scstep>
  <scstep>
   <time name="dav">   25.78   25.80</time>
   <time name="total">   32.81   32.86</time>
   <energy>
    <i name="e_fr_energy">    -32.70053186 </i>
    <i name="e_wo_entrp">    -32.68450676 </i>
    <i name="e_0_energy">    -32.69519016 </i>
   </energy>
  </scstep>
  <scstep>
   <time name="dav">   20.73   20.75</time>
   <time name="total">   27.83   27.87</time>
   <energy>
    <i name="e_fr_energy">    -32.69822604 </i>
    <i name="e_wo_entrp">    -32.68201461 </i>
    <i name="e_0_energy">    -32.69282223 </i>
   </energy>
  </scstep>
  <scstep>
   <time name="dav">   22.75   22.78</time>
   <time name="total">   29.69   29.73</time>
   <energy>
    <i name="e_fr_energy">    -32.69805561 </i>
    <i name="e_wo_entrp">    -32.68185957 </i>
    <i name="e_0_energy">    -32.69265693 </i>
   </energy>
  </scstep>
  <scstep>
   <time name="dav">   19.94   19.97</time>
   <time name="total">   26.87   26.91</time>
   <energy>
    <i name="e_fr_energy">    -32.69760855 </i>
    <i name="e_wo_entrp">    -32.68114815 </i>
    <i name="e_0_energy">    -32.69212175 </i>
   </energy>
  </scstep>
  <scstep>
   <time name="dav">   27.35   27.38</time>
   <time name="total">   34.33   34.37</time>
   <energy>
    <i name="e_fr_energy">    -32.69741284 </i>
    <i name="e_wo_entrp">    -32.68013824 </i>
    <i name="e_0_energy">    -32.69165464 </i>
   </energy>
  </scstep>
  <scstep>
   <time name="dav">   16.98   17.00</time>
   <time name="total">   23.38   23.41</time>
   <energy>
    <i name="e_fr_energy">    -32.69730157 </i>
    <i name="e_wo_entrp">    -32.68007437 </i>
    <i name="e_0_energy">    -32.69155917 </i>
   </energy>
  </scstep>
  <scstep>
   <time name="dav">   15.75   15.76</time>
   <time name="total">   20.80   20.83</time>
   <energy>
    <i name="alphaZ">      9.01295809 </i>
    <i name="ewald">  25782.87502171 </i>
    <i name="hartreedc"> -42192.74945250 </i>
    <i name="XCdc">    574.94775010 </i>
    <i name="pawpsdc">  16781.70730941 </i>
    <i name="pawaedc"> -18177.24973343 </i>
    <i name="eentropy">     -0.01718833 </i>
    <i name="bandstr">   -893.67330568 </i>
    <i name="atom">  18082.44932260 </i>
    <i name="e_fr_energy">    -32.69731803 </i>
    <i name="e_wo_entrp">    -32.68012969 </i>
    <i name="e_0_energy">    -32.69158858 </i>
   </energy>
  </scstep>
  <structure>
   <crystal>
    <varray name="basis" >
     <v>      25.78315879       0.00000000       0.00000000 </v>
     <v>       0.00000000      23.38992054       0.00000000 </v>
     <v>       0.00000000       0.00000000      22.73875627 </v>
    </varray>
    <i name="volume">  13712.97159002 </i>
    <varray name="rec_basis" >
     <v>       0.03878501       0.00000000       0.00000000 </v>
     <v>       0.00000000       0.04275346       0.00000000 </v>
     <v>       0.00000000       0.00000000       0.04397778 </v>
    </varray>
   </crystal>
   <varray name="positions" >
    <v>       0.54891255       0.58635578       0.50884996 </v>
    <v>       0.49076499       0.49606481       0.51166944 </v>
    <v>       0.48340167       0.57539850       0.58962670 </v>
    <v>       0.57222175       0.61443795       0.60555742 </v>
    <v>       0.56245114       0.51147470       0.59001785 </v>
    <v>       0.40859175       0.51872210       0.55440760 </v>
    <v>       0.47490396       0.47553244       0.61625962 </v>
    <v>       0.58499634       0.49020726       0.48977546 </v>
    <v>       0.43890265       0.41608277       0.54117413 </v>
    <v>       0.53466119       0.41734534       0.55330251 </v>
    <v>       0.45315708       0.58587298       0.48825120 </v>
    <v>       0.63368270       0.56029203       0.54343852 </v>
    <v>       0.52138454       0.54021453       0.42128938 </v>
   </varray>
  </structure>
  <varray name="forces" >
   <v>      -0.06909652       0.03860940      -0.02296818 </v>
   <v>       0.02219908      -0.04617041      -0.23092169 </v>
   <v>       0.07761400       0.07182736       0.08623196 </v>
   <v>      -0.03492077       0.10578127      -0.05774926 </v>
   <v>      -0.00638677       0.02030721       0.12747479 </v>
   <v>      -0.20751634      -0.01079150       0.05687863 </v>
   <v>       0.00332387      -0.02072748       0.04975438 </v>
   <v>       0.01922312      -0.16087932      -0.03761422 </v>
   <v>      -0.11829545      -0.12296821       0.00772648 </v>
   <v>       0.03241797      -0.03748784      -0.04973457 </v>
   <v>      -0.04354265       0.01379585       0.01588138 </v>
   <v>       0.21185846       0.08639608       0.00310972 </v>
   <v>       0.11312202       0.06230759       0.05193058 </v>
  </varray>
  <energy>
   <i name="e_fr_energy">    -32.69731803 </i>
   <i name="e_wo_entrp">    -32.68012969 </i>
   <i name="e_0_energy">    -32.69158858 </i>
  </energy>
  <time name="totalsc">  249.00  249.36</time>
 </calculation>
 <calculation>
  <scstep>
   <time name="dav">   19.44   19.46</time>
   <time name="total">   26.48   26.51</time>
   <energy>
    <i name="alphaZ">      9.01295809 </i>
    <i name="ewald">  25799.92692900 </i>
    <i name="hartreedc"> -42210.06148776 </i>
    <i name="XCdc">    575.00068929 </i>
    <i name="pawpsdc">  16781.80074609 </i>
    <i name="pawaedc"> -18177.34490795 </i>
    <i name="eentropy">     -0.02189574 </i>
    <i name="bandstr">   -893.41583723 </i>
    <i name="atom">  18082.44932260 </i>
    <i name="e_fr_energy">    -32.65348360 </i>
    <i name="e_wo_entrp">    -32.63158786 </i>
    <i name="e_0_energy">    -32.64618502 </i>
   </energy>
  </scstep>
  <scstep>
   <time name="dav">   24.88   24.91</time>
   <time name="total">   31.82   31.87</time>
   <energy>
    <i name="e_fr_energy">    -32.71281104 </i>
    <i name="e_wo_entrp">    -32.69124598 </i>
    <i name="e_0_energy">    -32.70562269 </i>
   </energy>
  </scstep>
  <scstep>
   <time name="dav">   20.06   20.08</time>
   <time name="total">   27.13   27.16</time>
   <energy>
    <i name="e_fr_energy">    -32.70956894 </i>
    <i name="e_wo_entrp">    -32.68787884 </i>
    <i name="e_0_energy">    -32.70233890 </i>
   </energy>
  </scstep>
  <scstep>
   <time name="dav">   21.68   21.71</time>
   <time name="total">   28.81   28.86</time>
   <energy>
    <i name="e_fr_energy">    -32.70935180 </i>
    <i name="e_wo_entrp">    -32.68767212 </i>
    <i name="e_0_energy">    -32.70212524 </i>
   </energy>
  </scstep>
  <scstep>
   <time name="dav">   19.77   19.79</time>
   <time name="total">   26.67   26.70</time>
   <energy>
    <i name="e_fr_energy">    -32.70874534 </i>
    <i name="e_wo_entrp">    -32.68677838 </i>
    <i name="e_0_energy">    -32.70142302 </i>
   </energy>
  </scstep>
  <scstep>
   <time name="dav">   24.36   24.38</time>
   <time name="total">   30.77   30.80</time>
   <energy>
    <i name="e_fr_energy">    -32.70850355 </i>
    <i name="e_wo_entrp">    -32.68567335 </i>
    <i name="e_0_energy">    -32.70089349 </i>
   </energy>
  </scstep>
  <scstep>
   <time name="dav">   20.94   20.96</time>
   <time name="total">   27.88   27.93</time>
   <energy>
    <i name="e_fr_energy">    -32.70838046 </i>
    <i name="e_wo_entrp">    -32.68560709 </i>
    <i name="e_0_energy">    -32.70078934 </i>
   </energy>
  </scstep>
  <scstep>
   <time name="dav">   18.43   18.45</time>
   <time name="total">   23.57   23.60</time>
   <energy>
    <i name="alphaZ">      9.01295809 </i>
    <i name="ewald">  25799.92692900 </i>
    <i name="hartreedc"> -42209.40397980 </i>
    <i name="XCdc">    574.97323854 </i>
    <i name="pawpsdc">  16787.64467579 </i>
    <i name="pawaedc"> -18183.32509318 </i>
    <i name="eentropy">     -0.02271690 </i>
    <i name="bandstr">   -893.96375011 </i>
    <i name="atom">  18082.44932260 </i>
    <i name="e_fr_energy">    -32.70841597 </i>
    <i name="e_wo_entrp">    -32.68569907 </i>
    <i name="e_0_energy">    -32.70084367 </i>
   </energy>
  </scstep>
  <structure>
   <crystal>
    <varray name="basis" >
     <v>      25.78315879       0.00000000       0.00000000 </v>
     <v>       0.00000000      23.38992054       0.00000000 </v>
     <v>       0.00000000       0.00000000      22.73875627 </v>
    </varray>
    <i name="volume">  13712.97159002 </i>
    <varray name="rec_basis" >
     <v>       0.03878501       0.00000000       0.00000000 </v>
     <v>       0.00000000       0.04275346       0.00000000 </v>
     <v>       0.00000000       0.00000000       0.04397778 </v>
    </varray>
   </crystal>
   <varray name="positions" >
    <v>       0.54886220       0.58593235       0.50875146 </v>
    <v>       0.49060640       0.49578974       0.51060379 </v>
    <v>       0.48362386       0.57534897       0.59008031 </v>
    <v>       0.57179122       0.61492726       0.60476346 </v>
    <v>       0.56268335       0.51149347       0.59001624 </v>
    <v>       0.40788744       0.51904156       0.55476155 </v>
    <v>       0.47490877       0.47608891       0.61559274 </v>
    <v>       0.58514269       0.49014965       0.49054598 </v>
    <v>       0.43849141       0.41532542       0.54130872 </v>
    <v>       0.53456781       0.41766921       0.55276295 </v>
    <v>       0.45306780       0.58513537       0.48922581 </v>
    <v>       0.63418822       0.56026769       0.54306349 </v>
    <v>       0.52221112       0.54083158       0.42214328 </v>
   </varray>
  </structure>
  <varray name="forces" >
   <v>      -0.00573353       0.13056861       0.08309106 </v>
   <v>      -0.09123594      -0.15125184      -0.07781054 </v>
   <v>       0.04557003       0.07667828       0.05087695 </v>
   <v>       0.02946229       0.07934002      -0.03938471 </v>
   <v>      -0.01815328       0.06061031       0.16225942 </v>
   <v>      -0.08596784      -0.08445696       0.04163047 </v>
   <v>      -0.03195727      -0.10957401       0.05181377 </v>
   <v>       0.05311495      -0.21033595      -0.12240962 </v>
   <v>      -0.05524042      -0.00124886       0.01897857 </v>
   <v>       0.00576182      -0.07023956      -0.01500248 </v>
   <v>      -0.08722187       0.14095426      -0.04879556 </v>
   <v>       0.15282199       0.11748127       0.03469506 </v>
   <v>       0.08877907       0.02147444      -0.13994239 </v>
  </varray>
  <energy>
   <i name="e_fr_energy">    -32.70841597 </i>
   <i name="e_wo_entrp">    -32.68569907 </i>
   <i name="e_0_energy">    -32.70084367 </i>
  </energy>
  <time name="totalsc">  248.98  249.35</time>
 </calculation>
 <calculation>
  <scstep>
   <time name="dav">   16.28   16.30</time>
   <time name="total">   22.87   22.90</time>
   <energy>
    <i name="alphaZ">      9.01295809 </i>
    <i name="ewald">  25652.90236276 </i>
    <i name="hartreedc"> -42063.98752413 </i>
    <i name="XCdc">    574.75300154 </i>
    <i name="pawpsdc">  16787.70626348 </i>
    <i name="pawaedc"> -18183.38095103 </i>
    <i name="eentropy">     -0.02279479 </i>
    <i name="bandstr">   -892.13087105 </i>
    <i name="atom">  18082.44932260 </i>
    <i name="e_fr_energy">    -32.69823254 </i>
    <i name="e_wo_entrp">    -32.67543775 </i>
    <i name="e_0_energy">    -32.69063428 </i>
   </energy>
  </scstep>
  <scstep>
   <time name="dav">   26.00   26.04</time>
   <time name="total">   32.31   32.36</time>
   <energy>
    <i name="e_fr_energy">    -32.72539460 </i>
    <i name="e_wo_entrp">    -32.70234955 </i>
    <i name="e_0_energy">    -32.71771292 </i>
   </energy>
  </scstep>
  <scstep>
   <time name="dav">   20.80   20.83</time>
   <time name="total">   27.82   27.86</time>
   <energy>
    <i name="e_fr_energy">    -32.72412954 </i>
    <i name="e_wo_entrp">    -32.70138606 </i>
    <i name="e_0_energy">    -32.71654838 </i>
   </energy>
  </scstep>
  <scstep>
   <time name="dav">   23.05   23.08</time>
   <time name="total">   30.01   30.06</time>
   <energy>
    <i name="e_fr_energy">    -32.72394184 </i>
    <i name="e_wo_entrp">    -32.70115922 </i>
    <i name="e_0_energy">    -32.71634763 </i>
   </energy>
  </scstep>
  <scstep>
   <time name="dav">   20.64   20.66</time>
   <time name="total">   27.47   27.50</time>
   <energy>
    <i name="e_fr_energy">    -32.72366307 </i>
    <i name="e_wo_entrp">    -32.70080665 </i>
    <i name="e_0_energy">    -32.71604426 </i>
   </energy>
  </scstep>
  <scstep>
   <time name="dav">   21.50   21.52</time>
   <time name="total">   27.87   27.91</time>
   <energy>
    <i name="e_fr_energy">    -32.72358109 </i>
    <i name="e_wo_entrp">    -32.70044204 </i>
    <i name="e_0_energy">    -32.71586807 </i>
   </energy>
  </scstep>
  <scstep>
   <time name="dav">   14.50   14.52</time>
   <time name="total">   19.62   19.64</time>
   <energy>
    <i name="alphaZ">      9.01295809 </i>
    <i name="ewald">  25652.90236276 </i>
    <i name="hartreedc"> -42065.19595583 </i>
    <i name="XCdc">    574.81585370 </i>
    <i name="pawpsdc">  16759.24081757 </i>
    <i name="pawaedc"> -18154.29907371 </i>
    <i name="eentropy">     -0.02307987 </i>
    <i name="bandstr">   -891.62677040 </i>
    <i name="atom">  18082.44932260 </i>
    <i name="e_fr_energy">    -32.72356509 </i>
    <i name="e_wo_entrp">    -32.70048522 </i>
    <i name="e_0_energy">    -32.71587180 </i>
   </energy>
  </scstep>
  <structure>
   <crystal>
    <varray name="basis" >
     <v>      25.78315879       0.00000000       0.00000000 </v>
     <v>       0.00000000      23.38992054       0.00000000 </v>
     <v>       0.00000000       0.00000000      22.73875627 </v>
    </varray>
    <i name="volume">  13712.97159002 </i>
    <varray name="rec_basis" >
     <v>       0.03878501       0.00000000       0.00000000 </v>
     <v>       0.00000000       0.04275346       0.00000000 </v>
     <v>       0.00000000       0.00000000       0.04397778 </v>
    </varray>
   </crystal>
   <varray name="positions" >
    <v>       0.54882870       0.58624805       0.50901372 </v>
    <v>       0.49027341       0.49518580       0.50999789 </v>
    <v>       0.48383468       0.57559633       0.59040081 </v>
    <v>       0.57174885       0.61535141       0.60437756 </v>
    <v>       0.56269917       0.51170702       0.59058773 </v>
    <v>       0.40740102       0.51885153       0.55501845 </v>
    <v>       0.47481092       0.47588656       0.61556788 </v>
    <v>       0.58535335       0.48941091       0.49035424 </v>
    <v>       0.43819171       0.41508548       0.54141750 </v>
    <v>       0.53455666       0.41752929       0.55254217 </v>
    <v>       0.45276885       0.58538889       0.48935707 </v>
    <v>       0.63482063       0.56066273       0.54306909 </v>
    <v>       0.52274434       0.54109718       0.42191567 </v>
   </varray>
  </structure>
  <varray name="forces" >
   <v>      -0.00326334      -0.00788243       0.01630043 </v>
   <v>      -0.07900260      -0.03160022      -0.04525446 </v>
   <v>      -0.01473112      -0.00692520      -0.01143191 </v>
   <v>       0.06502005       0.08133544      -0.00692188 </v>
   <v>      -0.00049931       0.04692335       0.00541992 </v>
   <v>       0.02455463      -0.05877169       0.02394154 </v>
   <v>      -0.01608967      -0.06154388       0.00162899 </v>
   <v>       0.01068732      -0.03927587       0.02616375 </v>
   <v>      -0.03883716       0.01167599       0.02454441 </v>
   <v>      -0.00358002      -0.03557396       0.00132180 </v>
   <v>      -0.01673371       0.04321173       0.01289470 </v>
   <v>      -0.01532137       0.03354093       0.00938774 </v>
   <v>       0.08779631       0.02488581      -0.05799505 </v>
  </varray>
  <energy>
   <i name="e_fr_energy">    -32.72356509 </i>
   <i name="e_wo_entrp">    -32.70048522 </i>
   <i name="e_0_energy">    -32.71587180 </i>
  </energy>
  <time name="totalsc">  214.16  214.48</time>
 </calculation>
 <calculation>
  <scstep>
   <time name="dav">   19.83   19.86</time>
   <time name="total">   26.92   26.96</time>
   <energy>
    <i name="alphaZ">      9.01295809 </i>
    <i name="ewald">  25602.51809672 </i>
    <i name="hartreedc"> -42015.54371783 </i>
    <i name="XCdc">    574.75081020 </i>
    <i name="pawpsdc">  16759.64834704 </i>
    <i name="pawaedc"> -18154.77899344 </i>
    <i name="eentropy">     -0.02308379 </i>
    <i name="bandstr">   -890.75553009 </i>
    <i name="atom">  18082.44932260 </i>
    <i name="e_fr_energy">    -32.72179050 </i>
    <i name="e_wo_entrp">    -32.69870670 </i>
    <i name="e_0_energy">    -32.71409590 </i>
   </energy>
  </scstep>
  <scstep>
   <time name="dav">   24.90   24.93</time>
   <time name="total">   32.02   32.05</time>
   <energy>
    <i name="e_fr_energy">    -32.72466747 </i>
    <i name="e_wo_entrp">    -32.70153316 </i>
    <i name="e_0_energy">    -32.71695603 </i>
   </energy>
  </scstep>
  <scstep>
   <time name="dav">   19.94   19.97</time>
   <time name="total">   24.92   24.96</time>
   <energy>
    <i name="alphaZ">      9.01295809 </i>
    <i name="ewald">  25602.51809672 </i>
    <i name="hartreedc"> -42015.58217376 </i>
    <i name="XCdc">    574.76190854 </i>
    <i name="pawpsdc">  16754.99450860 </i>
    <i name="pawaedc"> -18150.01502544 </i>
    <i name="eentropy">     -0.02311315 </i>
    <i name="bandstr">   -890.84112047 </i>
    <i name="atom">  18082.44932260 </i>
    <i name="e_fr_energy">    -32.72463826 </i>
    <i name="e_wo_entrp">    -32.70152511 </i>
    <i name="e_0_energy">    -32.71693388 </i>
   </energy>
  </scstep>
  <structure>
   <crystal>
    <varray name="basis" >
     <v>      25.78315879       0.00000000       0.00000000 </v>
     <v>       0.00000000      23.38992054       0.00000000 </v>
     <v>       0.00000000       0.00000000      22.73875627 </v>
    </varray>
    <i name="volume">  13712.97159002 </i>
    <varray name="rec_basis" >
     <v>       0.03878501       0.00000000       0.00000000 </v>
     <v>       0.00000000       0.04275346       0.00000000 </v>
     <v>       0.00000000       0.00000000       0.04397778 </v>
    </varray>
   </crystal>
   <varray name="positions" >
    <v>       0.54881717       0.58635672       0.50910399 </v>
    <v>       0.49015879       0.49497792       0.50978934 </v>
    <v>       0.48390725       0.57568147       0.59051113 </v>
    <v>       0.57173426       0.61549742       0.60424473 </v>
    <v>       0.56270461       0.51178052       0.59078444 </v>
    <v>       0.40723358       0.51878612       0.55510687 </v>
    <v>       0.47477723       0.47581690       0.61555932 </v>
    <v>       0.58542587       0.48915662       0.49028824 </v>
    <v>       0.43808855       0.41500288       0.54145495 </v>
    <v>       0.53455283       0.41748112       0.55246617 </v>
    <v>       0.45266595       0.58547616       0.48940226 </v>
    <v>       0.63503832       0.56079870       0.54307102 </v>
    <v>       0.52292788       0.54118860       0.42183733 </v>
   </varray>
  </structure>
  <varray name="forces" >
   <v>      -0.00136087      -0.06174404      -0.01322796 </v>
   <v>      -0.06875873       0.02001649      -0.02168606 </v>
   <v>      -0.03879505      -0.03984834      -0.03789990 </v>
   <v>       0.08014255       0.07469320       0.01444120 </v>
   <v>       0.00584816       0.03883623      -0.05788816 </v>
   <v>       0.06688683      -0.04672572       0.01412728 </v>
   <v>      -0.00784575      -0.04096696      -0.01869830 </v>
   <v>      -0.00874410       0.03353625       0.07934486 </v>
   <v>      -0.02808337       0.01802166       0.02422706 </v>
   <v>      -0.00778814      -0.02191197       0.01175329 </v>
   <v>       0.01513305       0.00347857       0.03061089 </v>
   <v>      -0.08180215       0.00108224       0.00184984 </v>
   <v>       0.07516758       0.02153240      -0.02695404 </v>
  </varray>
  <energy>
   <i name="e_fr_energy">    -32.72463826 </i>
   <i name="e_wo_entrp">    -32.70152511 </i>
   <i name="e_0_energy">    -32.71693388 </i>
  </energy>
  <time name="totalsc">  109.93  110.12</time>
 </calculation>
 <calculation>
  <scstep>
   <time name="dav">   19.63   19.66</time>
   <time name="total">   26.78   26.81</time>
   <energy>
    <i name="alphaZ">      9.01295809 </i>
    <i name="ewald">  25579.85025592 </i>
    <i name="hartreedc"> -41993.13487648 </i>
    <i name="XCdc">    574.73922062 </i>
    <i name="pawpsdc">  16754.18900722 </i>
    <i name="pawaedc"> -18149.18693586 </i>
    <i name="eentropy">     -0.02454732 </i>
    <i name="bandstr">   -890.61764159 </i>
    <i name="atom">  18082.44932260 </i>
    <i name="e_fr_energy">    -32.72323679 </i>
    <i name="e_wo_entrp">    -32.69868947 </i>
    <i name="e_0_energy">    -32.71505435 </i>
   </energy>
  </scstep>
  <scstep>
   <time name="dav">   21.32   21.34</time>
   <time name="total">   27.44   27.48</time>
   <energy>
    <i name="e_fr_energy">    -32.72928597 </i>
    <i name="e_wo_entrp">    -32.70453812 </i>
    <i name="e_0_energy">    -32.72103669 </i>
   </energy>
  </scstep>
  <scstep>
   <time name="dav">   20.49   20.52</time>
   <time name="total">   27.17   27.21</time>
   <energy>
    <i name="e_fr_energy">    -32.72894919 </i>
    <i name="e_wo_entrp">    -32.70428177 </i>
    <i name="e_0_energy">    -32.72072672 </i>
   </energy>
  </scstep>
  <scstep>
   <time name="dav">   20.37   20.40</time>
   <time name="total">   25.49   25.53</time>
   <energy>
    <i name="alphaZ">      9.01295809 </i>
    <i name="ewald">  25579.85025592 </i>
    <i name="hartreedc"> -41993.40666128 </i>
    <i name="XCdc">    574.74694553 </i>
    <i name="pawpsdc">  16750.57255117 </i>
    <i name="pawaedc"> -18145.42737935 </i>
    <i name="eentropy">     -0.02472845 </i>
    <i name="bandstr">   -890.50215750 </i>
    <i name="atom">  18082.44932260 </i>
    <i name="e_fr_energy">    -32.72889326 </i>
    <i name="e_wo_entrp">    -32.70416482 </i>
    <i name="e_0_energy">    -32.72065045 </i>
   </energy>
  </scstep>
  <structure>
   <crystal>
    <varray name="basis" >
     <v>      25.78315879       0.00000000       0.00000000 </v>
     <v>       0.00000000      23.38992054       0.00000000 </v>
     <v>       0.00000000       0.00000000      22.73875627 </v>
    </varray>
    <i name="volume">  13712.97159002 </i>
    <varray name="rec_basis" >
     <v>       0.03878501       0.00000000       0.00000000 </v>
     <v>       0.00000000       0.04275346       0.00000000 </v>
     <v>       0.00000000       0.00000000       0.04397778 </v>
    </varray>
   </crystal>
   <varray name="positions" >
    <v>       0.54880221       0.58622892       0.50913587 </v>
    <v>       0.48982656       0.49486306       0.50951884 </v>
    <v>       0.48384402       0.57561259       0.59046819 </v>
    <v>       0.57198737       0.61590317       0.60417891 </v>
    <v>       0.56272897       0.51198932       0.59074440 </v>
    <v>       0.40730428       0.51855576       0.55524014 </v>
    <v>       0.47472067       0.47560380       0.61548112 </v>
    <v>       0.58546245       0.48904928       0.49052745 </v>
    <v>       0.43790184       0.41499413       0.54158012 </v>
    <v>       0.53452348       0.41735726       0.55244166 </v>
    <v>       0.45262309       0.58556789       0.48955849 </v>
    <v>       0.63496355       0.56092575       0.54307974 </v>
    <v>       0.52334380       0.54135023       0.42166485 </v>
   </varray>
  </structure>
  <varray name="forces" >
   <v>      -0.01290313      -0.04089657       0.00641592 </v>
   <v>      -0.01570617       0.00363239      -0.03379559 </v>
   <v>       0.00171807      -0.03448821      -0.01610355 </v>
   <v>       0.03580820       0.05839380      -0.01398260 </v>
   <v>      -0.02432993       0.02740114      -0.02835223 </v>
   <v>       0.02580507      -0.02371335       0.01280132 </v>
   <v>       0.02917534      -0.02592559      -0.00762828 </v>
   <v>      -0.01585846       0.01459467       0.05553972 </v>
   <v>      -0.03454202      -0.01014978       0.01437397 </v>
   <v>      -0.02144931       0.01671051       0.00345904 </v>
   <v>       0.01992240      -0.00289591       0.01898173 </v>
   <v>      -0.04657059       0.00291338      -0.00140486 </v>
   <v>       0.05893053       0.01442353      -0.01030458 </v>
  </varray>
  <energy>
   <i name="e_fr_energy">    -32.72889326 </i>
   <i name="e_wo_entrp">    -32.70416482 </i>
   <i name="e_0_energy">    -32.72065045 </i>
  </energy>
  <time name="totalsc">  132.81  133.01</time>
 </calculation>
 <calculation>
  <scstep>
   <time name="dav">   20.71   20.73</time>
   <time name="total">   27.75   27.79</time>
   <energy>
    <i name="alphaZ">      9.01295809 </i>
    <i name="ewald">  25542.76735117 </i>
    <i name="hartreedc"> -41956.50621291 </i>
    <i name="XCdc">    574.70731229 </i>
    <i name="pawpsdc">  16748.93159871 </i>
    <i name="pawaedc"> -18143.73137218 </i>
    <i name="eentropy">     -0.02693440 </i>
    <i name="bandstr">   -890.31917128 </i>
    <i name="atom">  18082.44932260 </i>
    <i name="e_fr_energy">    -32.71514793 </i>
    <i name="e_wo_entrp">    -32.68821353 </i>
    <i name="e_0_energy">    -32.70616979 </i>
   </energy>
  </scstep>
  <scstep>
   <time name="dav">   21.41   21.43</time>
   <time name="total">   27.57   27.60</time>
   <energy>
    <i name="e_fr_energy">    -32.73208893 </i>
    <i name="e_wo_entrp">    -32.70485614 </i>
    <i name="e_0_energy">    -32.72301133 </i>
   </energy>
  </scstep>
  <scstep>
   <time name="dav">   20.63   20.66</time>
   <time name="total">   27.23   27.27</time>
   <energy>
    <i name="e_fr_energy">    -32.73113178 </i>
    <i name="e_wo_entrp">    -32.70404450 </i>
    <i name="e_0_energy">    -32.72210269 </i>
   </energy>
  </scstep>
  <scstep>
   <time name="dav">   20.67   20.70</time>
   <time name="total">   27.34   27.38</time>
   <energy>
    <i name="e_fr_energy">    -32.73093595 </i>
    <i name="e_wo_entrp">    -32.70377706 </i>
    <i name="e_0_energy">    -32.72188299 </i>
   </energy>
  </scstep>
  <scstep>
   <time name="dav">   16.60   16.62</time>
   <time name="total">   23.10   23.13</time>
   <energy>
    <i name="e_fr_energy">    -32.73064240 </i>
    <i name="e_wo_entrp">    -32.70340226 </i>
    <i name="e_0_energy">    -32.72156235 </i>
   </energy>
  </scstep>
  <scstep>
   <time name="dav">   25.26   25.29</time>
   <time name="total">   32.28   32.32</time>
   <energy>
    <i name="e_fr_energy">    -32.73057506 </i>
    <i name="e_wo_entrp">    -32.70303439 </i>
    <i name="e_0_energy">    -32.72139484 </i>
   </energy>
  </scstep>
  <scstep>
   <time name="dav">   14.60   14.62</time>
   <time name="total">   19.69   19.72</time>
   <energy>
    <i name="alphaZ">      9.01295809 </i>
    <i name="ewald">  25542.76735117 </i>
    <i name="hartreedc"> -41957.17292748 </i>
    <i name="XCdc">    574.73201159 </i>
    <i name="pawpsdc">  16743.15678787 </i>
    <i name="pawaedc"> -18137.92765052 </i>
    <i name="eentropy">     -0.02749866 </i>
    <i name="bandstr">   -889.72092691 </i>
    <i name="atom">  18082.44932260 </i>
    <i name="e_fr_energy">    -32.73057226 </i>
    <i name="e_wo_entrp">    -32.70307360 </i>
    <i name="e_0_energy">    -32.72140604 </i>
   </energy>
  </scstep>
  <structure>
   <crystal>
    <varray name="basis" >
     <v>      25.78315879       0.00000000       0.00000000 </v>
     <v>       0.00000000      23.38992054       0.00000000 </v>
     <v>       0.00000000       0.00000000      22.73875627 </v>
    </varray>
    <i name="volume">  13712.97159002 </i>
    <varray name="rec_basis" >
     <v>       0.03878501       0.00000000       0.00000000 </v>
     <v>       0.00000000       0.04275346       0.00000000 </v>
     <v>       0.00000000       0.00000000       0.04397778 </v>
    </varray>
   </crystal>
   <varray name="positions" >
    <v>       0.54877785       0.58602073       0.50918779 </v>
    <v>       0.48928532       0.49467595       0.50907818 </v>
    <v>       0.48374102       0.57550036       0.59039824 </v>
    <v>       0.57239970       0.61656419       0.60407167 </v>
    <v>       0.56276866       0.51232946       0.59067916 </v>
    <v>       0.40741945       0.51818048       0.55545726 </v>
    <v>       0.47462853       0.47525662       0.61535373 </v>
    <v>       0.58552205       0.48887442       0.49091715 </v>
    <v>       0.43759769       0.41497988       0.54178405 </v>
    <v>       0.53447566       0.41715548       0.55240174 </v>
    <v>       0.45255327       0.58571734       0.48981302 </v>
    <v>       0.63484173       0.56113273       0.54309394 </v>
    <v>       0.52402137       0.54161354       0.42138387 </v>
   </varray>
  </structure>
  <varray name="forces" >
   <v>      -0.02871959      -0.01747794       0.02338414 </v>
   <v>       0.08079859       0.00262891      -0.02992365 </v>
   <v>       0.04731150      -0.03443917       0.00364551 </v>
   <v>      -0.02206071       0.01388238      -0.04717343 </v>
   <v>      -0.06747452       0.00380220      -0.00355811 </v>
   <v>      -0.01465947       0.00921139       0.00402840 </v>
   <v>       0.08436405      -0.00275112       0.00560030 </v>
   <v>      -0.03542396       0.00897687       0.02247171 </v>
   <v>      -0.03094618      -0.03583749      -0.00158628 </v>
   <v>      -0.04367407       0.07389413      -0.00415885 </v>
   <v>       0.03518225      -0.01730152       0.00052545 </v>
   <v>      -0.01543781      -0.00118247      -0.00369983 </v>
   <v>       0.01073992      -0.00340618       0.03044464 </v>
  </varray>
  <energy>
   <i name="e_fr_energy">    -32.73057226 </i>
   <i name="e_wo_entrp">    -32.70307360 </i>
   <i name="e_0_energy">    -32.72140604 </i>
  </energy>
  <time name="totalsc">  210.81  211.12</time>
 </calculation>
 <calculation>
  <scstep>
   <time name="dav">   16.27   16.29</time>
   <time name="total">   22.75   22.79</time>
   <energy>
    <i name="alphaZ">      9.01295809 </i>
    <i name="ewald">  25568.29554821 </i>
    <i name="hartreedc"> -41982.64329357 </i>
    <i name="XCdc">    574.78151046 </i>
    <i name="pawpsdc">  16743.29305241 </i>
    <i name="pawaedc"> -18138.09219924 </i>
    <i name="eentropy">     -0.02770040 </i>
    <i name="bandstr">   -889.79329579 </i>
    <i name="atom">  18082.44932260 </i>
    <i name="e_fr_energy">    -32.72409725 </i>
    <i name="e_wo_entrp">    -32.69639685 </i>
    <i name="e_0_energy">    -32.71486378 </i>
   </energy>
  </scstep>
  <scstep>
   <time name="dav">   25.80   25.83</time>
   <time name="total">   32.25   32.29</time>
   <energy>
    <i name="e_fr_energy">    -32.73343755 </i>
    <i name="e_wo_entrp">    -32.70559296 </i>
    <i name="e_0_energy">    -32.72415602 </i>
   </energy>
  </scstep>
  <scstep>
   <time name="dav">   18.35   18.38</time>
   <time name="total">   25.05   25.09</time>
   <energy>
    <i name="e_fr_energy">    -32.73300271 </i>
    <i name="e_wo_entrp">    -32.70512710 </i>
    <i name="e_0_energy">    -32.72371084 </i>
   </energy>
  </scstep>
  <scstep>
   <time name="dav">   15.40   15.43</time>
   <time name="total">   20.28   20.31</time>
   <energy>
    <i name="alphaZ">      9.01295809 </i>
    <i name="ewald">  25568.29554821 </i>
    <i name="hartreedc"> -41982.24968987 </i>
    <i name="XCdc">    574.75747359 </i>
    <i name="pawpsdc">  16745.97482030 </i>
    <i name="pawaedc"> -18140.63891695 </i>
    <i name="eentropy">     -0.02779982 </i>
    <i name="bandstr">   -890.30668382 </i>
    <i name="atom">  18082.44932260 </i>
    <i name="e_fr_energy">    -32.73296767 </i>
    <i name="e_wo_entrp">    -32.70516785 </i>
    <i name="e_0_energy">    -32.72370106 </i>
   </energy>
  </scstep>
  <structure>
   <crystal>
    <varray name="basis" >
     <v>      25.78315879       0.00000000       0.00000000 </v>
     <v>       0.00000000      23.38992054       0.00000000 </v>
     <v>       0.00000000       0.00000000      22.73875627 </v>
    </varray>
    <i name="volume">  13712.97159002 </i>
    <varray name="rec_basis" >
     <v>       0.03878501       0.00000000       0.00000000 </v>
     <v>       0.00000000       0.04275346       0.00000000 </v>
     <v>       0.00000000       0.00000000       0.04397778 </v>
    </varray>
   </crystal>
   <varray name="positions" >
    <v>       0.54863692       0.58581283       0.50933529 </v>
    <v>       0.48932147       0.49457815       0.50866831 </v>
    <v>       0.48388859       0.57526680       0.59037512 </v>
    <v>       0.57254615       0.61702219       0.60377265 </v>
    <v>       0.56249485       0.51254891       0.59062283 </v>
    <v>       0.40742292       0.51800346       0.55560567 </v>
    <v>       0.47494576       0.47503812       0.61530643 </v>
    <v>       0.58540120       0.48881469       0.49125968 </v>
    <v>       0.43728163       0.41479741       0.54189662 </v>
    <v>       0.53425499       0.41739511       0.55235737 </v>
    <v>       0.45266701       0.58572162       0.48996603 </v>
    <v>       0.63470174       0.56124929       0.54308385 </v>
    <v>       0.52446905       0.54175259       0.42136993 </v>
   </varray>
  </structure>
  <varray name="forces" >
   <v>      -0.01586869       0.02483993       0.00131919 </v>
   <v>       0.01738987      -0.00996499       0.00550321 </v>
   <v>       0.01368610      -0.00999749       0.02489173 </v>
   <v>      -0.03970018       0.00796276      -0.02975488 </v>
   <v>      -0.01047204       0.00479822       0.04082978 </v>
   <v>       0.01739075       0.01160062      -0.00222386 </v>
   <v>       0.03685966      -0.00017678       0.00474904 </v>
   <v>       0.00053279      -0.00466091      -0.02695217 </v>
   <v>      -0.00063068       0.00080521      -0.00111307 </v>
   <v>      -0.02739371       0.01444350      -0.00486767 </v>
   <v>       0.01496354      -0.02247514      -0.00783198 </v>
   <v>       0.00804204      -0.01055860      -0.00459885 </v>
   <v>      -0.01479945      -0.00661633       0.00004953 </v>
  </varray>
  <energy>
   <i name="e_fr_energy">    -32.73296767 </i>
   <i name="e_wo_entrp">    -32.70516785 </i>
   <i name="e_0_energy">    -32.72370106 </i>
  </energy>
  <time name="totalsc">  123.60  123.81</time>
 </calculation>
 <calculation>
  <scstep>
   <time name="dav">   14.52   14.54</time>
   <time name="total">   20.39   20.42</time>
   <energy>
    <i name="alphaZ">      9.01295809 </i>
    <i name="ewald">  25569.93396943 </i>
    <i name="hartreedc"> -41983.75741481 </i>
    <i name="XCdc">    574.75694403 </i>
    <i name="pawpsdc">  16746.53912061 </i>
    <i name="pawaedc"> -18141.23300102 </i>
    <i name="eentropy">     -0.02790567 </i>
    <i name="bandstr">   -890.40692322 </i>
    <i name="atom">  18082.44932260 </i>
    <i name="e_fr_energy">    -32.73292997 </i>
    <i name="e_wo_entrp">    -32.70502430 </i>
    <i name="e_0_energy">    -32.72362808 </i>
   </energy>
  </scstep>
  <scstep>
[...]
       <r>    -1.3220     5.8953    80.0379 </r>
       <r>    -1.2715     6.3133    80.3564 </r>
       <r>    -1.2211     7.4179    80.7306 </r>
       <r>    -1.1706     8.6191    81.1653 </r>
       <r>    -1.1202     9.2214    81.6305 </r>
       <r>    -1.0697     8.8185    82.0753 </r>
       <r>    -1.0193     7.5522    82.4563 </r>
       <r>    -0.9689     6.0764    82.7628 </r>
       <r>    -0.9184     5.1981    83.0250 </r>
       <r>    -0.8680     5.3664    83.2957 </r>
       <r>    -0.8175     6.3551    83.6163 </r>
       <r>    -0.7671     7.4262    83.9909 </r>
       <r>    -0.7166     7.8852    84.3886 </r>
       <r>    -0.6662     7.5658    84.7703 </r>
       <r>    -0.6157     6.8429    85.1155 </r>
       <r>    -0.5653     6.2291    85.4297 </r>
       <r>    -0.5149     5.9656    85.7306 </r>
       <r>    -0.4644     5.9165    86.0290 </r>
       <r>    -0.4140     5.7367    86.3184 </r>
       <r>    -0.3635     5.1201    86.5767 </r>
       <r>    -0.3131     3.9917    86.7781 </r>
       <r>    -0.2626     2.5835    86.9084 </r>
       <r>    -0.2122     1.3488    86.9764 </r>
       <r>    -0.1618     0.7285    87.0132 </r>
       <r>    -0.1113     0.8970    87.0584 </r>
       <r>    -0.0609     1.6726    87.1428 </r>
       <r>    -0.0104     2.7045    87.2792 </r>
       <r>     0.0400     3.8413    87.4730 </r>
       <r>     0.0905     5.3580    87.7432 </r>
       <r>     0.1409     7.7187    88.1326 </r>
       <r>     0.1913    10.9427    88.6846 </r>
       <r>     0.2418    14.1529    89.3985 </r>
       <r>     0.2922    15.8854    90.1998 </r>
       <r>     0.3427    15.0592    90.9595 </r>
       <r>     0.3931    11.7965    91.5545 </r>
       <r>     0.4436     7.3642    91.9260 </r>
       <r>     0.4940     3.3249    92.0937 </r>
       <r>     0.5444     0.6510    92.1266 </r>
       <r>     0.5949    -0.5630    92.0982 </r>
       <r>     0.6453    -0.7897    92.0583 </r>
       <r>     0.6958    -0.5906    92.0285 </r>
       <r>     0.7462    -0.3311    92.0118 </r>
       <r>     0.7967    -0.1509    92.0042 </r>
       <r>     0.8471    -0.0577    92.0013 </r>
       <r>     0.8976    -0.0188    92.0003 </r>
       <r>     0.9480    -0.0053    92.0001 </r>
       <r>     0.9984    -0.0013    92.0000 </r>
       <r>     1.0489    -0.0003    92.0000 </r>
       <r>     1.0993    -0.0001    92.0000 </r>
       <r>     1.1498    -0.0000    92.0000 </r>
       <r>     1.2002    -0.0000    92.0000 </r>
       <r>     1.2507    -0.0000    92.0000 </r>
       <r>     1.3011    -0.0000    92.0000 </r>
       <r>     1.3515    -0.0000    92.0000 </r>
       <r>     1.4020    -0.0000    92.0000 </r>
       <r>     1.4524    -0.0000    92.0000 </r>
       <r>     1.5029    -0.0000    92.0000 </r>
       <r>     1.5533    -0.0000    92.0000 </r>
       <r>     1.6038     0.0000    92.0000 </r>
       <r>     1.6542     0.0000    92.0000 </r>
       <r>     1.7046     0.0000    92.0000 </r>
       <r>     1.7551     0.0000    92.0000 </r>
       <r>     1.8055     0.0000    92.0000 </r>
       <r>     1.8560     0.0000    92.0000 </r>
       <r>     1.9064     0.0000    92.0000 </r>
       <r>     1.9569     0.0000    92.0000 </r>
       <r>     2.0073     0.0000    92.0000 </r>
       <r>     2.0578     0.0000    92.0000 </r>
       <r>     2.1082     0.0000    92.0000 </r>
       <r>     2.1586     0.0000    92.0000 </r>
       <r>     2.2091     0.0000    92.0000 </r>
       <r>     2.2595     0.0000    92.0000 </r>
       <r>     2.3100     0.0000    92.0000 </r>
       <r>     2.3604     0.0000    92.0000 </r>
       <r>     2.4109     0.0000    92.0000 </r>
      </set>
      <set comment="spin 2">
       <r>   -12.7222     0.0000     0.0000 </r>
       <r>   -12.6717     0.0000     0.0000 </r>
       <r>   -12.6213     0.0000     0.0000 </r>
       <r>   -12.5708     0.0000     0.0000 </r>
       <r>   -12.5204     0.0000     0.0000 </r>
       <r>   -12.4699     0.0000     0.0000 </r>
       <r>   -12.4195     0.0000     0.0000 </r>
       <r>   -12.3691     0.0000     0.0000 </r>
       <r>   -12.3186    -0.0000    -0.0000 </r>
       <r>   -12.2682    -0.0000    -0.0000 </r>
       <r>   -12.2177    -0.0000    -0.0000 </r>
       <r>   -12.1673    -0.0000    -0.0000 </r>
       <r>   -12.1168    -0.0000    -0.0000 </r>
       <r>   -12.0664    -0.0000    -0.0000 </r>
       <r>   -12.0159    -0.0000    -0.0000 </r>
       <r>   -11.9655    -0.0000    -0.0000 </r>
       <r>   -11.9151    -0.0000    -0.0000 </r>
       <r>   -11.8646    -0.0000    -0.0000 </r>
       <r>   -11.8142    -0.0000    -0.0000 </r>
       <r>   -11.7637    -0.0000    -0.0000 </r>
       <r>   -11.7133    -0.0000    -0.0000 </r>
       <r>   -11.6628    -0.0000    -0.0000 </r>
       <r>   -11.6124    -0.0000    -0.0000 </r>
       <r>   -11.5620    -0.0000    -0.0000 </r>
       <r>   -11.5115    -0.0000    -0.0000 </r>
       <r>   -11.4611    -0.0000    -0.0000 </r>
       <r>   -11.4106    -0.0001    -0.0000 </r>
       <r>   -11.3602    -0.0004    -0.0000 </r>
       <r>   -11.3097    -0.0017    -0.0001 </r>
       <r>   -11.2593    -0.0062    -0.0004 </r>
       <r>   -11.2089    -0.0190    -0.0014 </r>
       <r>   -11.1584    -0.0492    -0.0039 </r>
       <r>   -11.1080    -0.1060    -0.0092 </r>
       <r>   -11.0575    -0.1824    -0.0184 </r>
       <r>   -11.0071    -0.2252    -0.0298 </r>
       <r>   -10.9566    -0.1104    -0.0353 </r>
       <r>   -10.9062     0.3316    -0.0186 </r>
       <r>   -10.8558     1.2058     0.0422 </r>
       <r>   -10.8053     2.4041     0.1635 </r>
       <r>   -10.7549     3.5521     0.3427 </r>
       <r>   -10.7044     4.1665     0.5528 </r>
       <r>   -10.6540     3.9547     0.7523 </r>
       <r>   -10.6035     3.0199     0.9047 </r>
       <r>   -10.5531     1.7871     0.9948 </r>
       <r>   -10.5026     0.7184     1.0310 </r>
       <r>   -10.4522     0.0616     1.0341 </r>
       <r>   -10.4018    -0.1975     1.0242 </r>
       <r>   -10.3513    -0.2143     1.0134 </r>
       <r>   -10.3009    -0.1439     1.0061 </r>
       <r>   -10.2504    -0.0743     1.0024 </r>
       <r>   -10.2000    -0.0314     1.0008 </r>
       <r>   -10.1495    -0.0111     1.0002 </r>
       <r>   -10.0991    -0.0034     1.0001 </r>
       <r>   -10.0487    -0.0009     1.0000 </r>
       <r>    -9.9982    -0.0002     1.0000 </r>
       <r>    -9.9478    -0.0000     1.0000 </r>
       <r>    -9.8973    -0.0000     1.0000 </r>
       <r>    -9.8469    -0.0000     1.0000 </r>
       <r>    -9.7964    -0.0000     1.0000 </r>
       <r>    -9.7460    -0.0000     1.0000 </r>
       <r>    -9.6956    -0.0002     1.0000 </r>
       <r>    -9.6451    -0.0010     0.9999 </r>
       <r>    -9.5947    -0.0037     0.9997 </r>
       <r>    -9.5442    -0.0122     0.9991 </r>
       <r>    -9.4938    -0.0339     0.9974 </r>
       <r>    -9.4433    -0.0790     0.9934 </r>
       <r>    -9.3929    -0.1503     0.9859 </r>
       <r>    -9.3425    -0.2179     0.9749 </r>
       <r>    -9.2920    -0.1879     0.9654 </r>
       <r>    -9.2416     0.0984     0.9704 </r>
       <r>    -9.1911     0.7909     1.0102 </r>
       <r>    -9.1407     1.8846     1.1053 </r>
       <r>    -9.0902     3.1074     1.2621 </r>
       <r>    -9.0398     3.9833     1.4630 </r>
       <r>    -8.9893     4.0931     1.6695 </r>
       <r>    -8.9389     3.3533     1.8386 </r>
       <r>    -8.8885     2.0801     1.9435 </r>
       <r>    -8.8380     0.7997     1.9839 </r>
       <r>    -8.7876    -0.0084     1.9835 </r>
       <r>    -8.7371    -0.0454     1.9812 </r>
       <r>    -8.6867     0.7942     2.0212 </r>
       <r>    -8.6362     2.4098     2.1428 </r>
       <r>    -8.5858     4.4430     2.3669 </r>
       <r>    -8.5354     6.2952     2.6845 </r>
       <r>    -8.4849     7.3180     3.0536 </r>
       <r>    -8.4345     7.1133     3.4124 </r>
       <r>    -8.3840     5.7481     3.7024 </r>
       <r>    -8.3336     3.7239     3.8902 </r>
       <r>    -8.2831     1.7329     3.9776 </r>
       <r>    -8.2327     0.3783     3.9967 </r>
       <r>    -8.1823     0.0171     3.9976 </r>
       <r>    -8.1318     0.7309     4.0345 </r>
       <r>    -8.0814     2.3326     4.1521 </r>
       <r>    -8.0309     4.3824     4.3732 </r>
       <r>    -7.9805     6.2916     4.6906 </r>
       <r>    -7.9300     7.5590     5.0719 </r>
       <r>    -7.8796     8.0163     5.4762 </r>
       <r>    -7.8291     7.8759     5.8735 </r>
       <r>    -7.7787     7.5238     6.2530 </r>
       <r>    -7.7283     7.2439     6.6184 </r>
       <r>    -7.6778     7.1192     6.9776 </r>
       <r>    -7.6274     7.1460     7.3380 </r>
       <r>    -7.5769     7.3558     7.7091 </r>
       <r>    -7.5265     7.7525     8.1001 </r>
       <r>    -7.4760     8.1551     8.5115 </r>
       <r>    -7.4256     8.2357     8.9269 </r>
       <r>    -7.3752     7.8608     9.3235 </r>
       <r>    -7.3247     7.4202     9.6978 </r>
       <r>    -7.2743     7.7034    10.0864 </r>
       <r>    -7.2238     9.3102    10.5560 </r>
       <r>    -7.1734    12.1070    11.1667 </r>
       <r>    -7.1229    15.2390    11.9354 </r>
       <r>    -7.0725    17.6793    12.8272 </r>
       <r>    -7.0221    18.8399    13.7776 </r>
       <r>    -6.9716    18.8145    14.7266 </r>
       <r>    -6.9212    18.1755    15.6435 </r>
       <r>    -6.8707    17.5567    16.5291 </r>
       <r>    -6.8203    17.3314    17.4033 </r>
       <r>    -6.7698    17.5721    18.2897 </r>
       <r>    -6.7194    18.2181    19.2087 </r>
       <r>    -6.6690    19.1956    20.1770 </r>
       <r>    -6.6185    20.3434    21.2032 </r>
       <r>    -6.5681    21.2847    22.2769 </r>
       <r>    -6.5176    21.5030    23.3616 </r>
       <r>    -6.4672    20.6697    24.4042 </r>
       <r>    -6.4167    18.9876    25.3620 </r>
       <r>    -6.3663    17.2452    26.2319 </r>
       <r>    -6.3158    16.4721    27.0628 </r>
       <r>    -6.2654    17.3545    27.9382 </r>
       <r>    -6.2150    19.7541    28.9347 </r>
       <r>    -6.1645    22.6782    30.0787 </r>
       <r>    -6.1141    24.8194    31.3306 </r>
       <r>    -6.0636    25.3848    32.6111 </r>
       <r>    -6.0132    24.6692    33.8555 </r>
       <r>    -5.9627    23.9490    35.0636 </r>
       <r>    -5.9123    24.7386    36.3115 </r>
       <r>    -5.8619    27.8696    37.7173 </r>
       <r>    -5.8114    32.9606    39.3800 </r>
       <r>    -5.7610    38.5855    41.3264 </r>
       <r>    -5.7105    42.9997    43.4954 </r>
       <r>    -5.6601    44.9720    45.7640 </r>
       <r>    -5.6096    44.3078    47.9990 </r>
       <r>    -5.5592    41.9162    50.1134 </r>
       <r>    -5.5088    39.4476    52.1033 </r>
       <r>    -5.4583    38.5587    54.0483 </r>
       <r>    -5.4079    40.0042    56.0662 </r>
       <r>    -5.3574    43.0310    58.2369 </r>
       <r>    -5.3070    45.5965    60.5369 </r>
       <r>    -5.2565    45.4404    62.8291 </r>
       <r>    -5.2061    41.3519    64.9150 </r>
       <r>    -5.1557    33.7753    66.6187 </r>
       <r>    -5.1052    24.4245    67.8508 </r>
       <r>    -5.0548    15.3219    68.6237 </r>
       <r>    -5.0043     7.9538    69.0249 </r>
       <r>    -4.9539     2.9304    69.1727 </r>
       <r>    -4.9034     0.1043    69.1780 </r>
       <r>    -4.8530    -1.0927    69.1229 </r>
       <r>    -4.8025    -1.2971    69.0574 </r>
       <r>    -4.7521    -0.9593    69.0090 </r>
       <r>    -4.7017    -0.2624    68.9958 </r>
       <r>    -4.6512     0.7641    69.0343 </r>
       <r>    -4.6008     2.0217    69.1363 </r>
       <r>    -4.5503     3.2015    69.2978 </r>
       <r>    -4.4999     3.8885    69.4940 </r>
       <r>    -4.4494     3.8663    69.6890 </r>
       <r>    -4.3990     3.3484    69.8579 </r>
       <r>    -4.3486     2.8690    70.0026 </r>
       <r>    -4.2981     2.8704    70.1474 </r>
       <r>    -4.2477     3.3335    70.3156 </r>
       <r>    -4.1972     3.7901    70.5067 </r>
       <r>    -4.1468     3.7173    70.6943 </r>
       <r>    -4.0963     2.9738    70.8443 </r>
       <r>    -4.0459     1.9239    70.9413 </r>
       <r>    -3.9955     1.1819    71.0009 </r>
       <r>    -3.9450     1.1970    71.0613 </r>
       <r>    -3.8946     1.9617    71.1603 </r>
       <r>    -3.8441     3.0072    71.3120 </r>
       <r>    -3.7937     3.6891    71.4981 </r>
       <r>    -3.7432     3.6073    71.6800 </r>
       <r>    -3.6928     2.8949    71.8261 </r>
       <r>    -3.6424     2.1592    71.9350 </r>
       <r>    -3.5919     2.0954    72.0407 </r>
       <r>    -3.5415     3.0422    72.1941 </r>
       <r>    -3.4910     4.7870    72.4356 </r>
       <r>    -3.4406     6.7222    72.7747 </r>
       <r>    -3.3901     8.2002    73.1883 </r>
       <r>    -3.3397     8.8199    73.6332 </r>
       <r>    -3.2892     8.4952    74.0618 </r>
       <r>    -3.2388     7.3619    74.4331 </r>
       <r>    -3.1884     5.6776    74.7195 </r>
       <r>    -3.1379     3.7791    74.9102 </r>
       <r>    -3.0875     2.0340    75.0128 </r>
       <r>    -3.0370     0.7331    75.0497 </r>
       <r>    -2.9866    -0.0165    75.0489 </r>
       <r>    -2.9361    -0.3049    75.0335 </r>
       <r>    -2.8857    -0.3286    75.0169 </r>
       <r>    -2.8353    -0.2739    75.0031 </r>
       <r>    -2.7848    -0.2479    74.9906 </r>
       <r>    -2.7344    -0.2594    74.9775 </r>
       <r>    -2.6839    -0.2205    74.9664 </r>
       <r>    -2.6335     0.0331    74.9681 </r>
       <r>    -2.5830     0.6649    75.0016 </r>
       <r>    -2.5326     1.6950    75.0871 </r>
       <r>    -2.4822     2.8793    75.2324 </r>
       <r>    -2.4317     3.7627    75.4222 </r>
       <r>    -2.3813     3.9514    75.6215 </r>
       <r>    -2.3308     3.4324    75.7946 </r>
       <r>    -2.2804     2.6494    75.9283 </r>
       <r>    -2.2299     2.2169    76.0401 </r>
       <r>    -2.1795     2.4692    76.1647 </r>
       <r>    -2.1290     3.2033    76.3263 </r>
       <r>    -2.0786     3.8281    76.5194 </r>
       <r>    -2.0282     3.7964    76.7109 </r>
       <r>    -1.9777     2.9768    76.8610 </r>
       <r>    -1.9273     1.7040    76.9470 </r>
       <r>    -1.8768     0.5427    76.9744 </r>
       <r>    -1.8264     0.0022    76.9745 </r>
       <r>    -1.7759     0.3781    76.9935 </r>
       <r>    -1.7255     1.7011    77.0793 </r>
       <r>    -1.6751     3.7184    77.2669 </r>
       <r>    -1.6246     5.9233    77.5657 </r>
       <r>    -1.5742     7.7107    77.9547 </r>
       <r>    -1.5237     8.6252    78.3897 </r>
       <r>    -1.4733     8.5525    78.8212 </r>
       <r>    -1.4228     7.7411    79.2116 </r>
       <r>    -1.3724     6.6835    79.5488 </r>
       <r>    -1.3220     5.9376    79.8483 </r>
       <r>    -1.2715     5.9241    80.1471 </r>
       <r>    -1.2211     6.7255    80.4864 </r>
       <r>    -1.1706     7.9902    80.8894 </r>
       <r>    -1.1202     9.0604    81.3465 </r>
       <r>    -1.0697     9.3114    81.8162 </r>
       <r>    -1.0193     8.5312    82.2465 </r>
       <r>    -0.9689     7.1014    82.6047 </r>
       <r>    -0.9184     5.8180    82.8982 </r>
       <r>    -0.8680     5.3974    83.1705 </r>
       <r>    -0.8175     5.9796    83.4721 </r>
       <r>    -0.7671     7.0281    83.8266 </r>
       <r>    -0.7166     7.7528    84.2177 </r>
       <r>    -0.6662     7.7117    84.6067 </r>
       <r>    -0.6157     7.0719    84.9635 </r>
       <r>    -0.5653     6.3509    85.2838 </r>
       <r>    -0.5149     5.9467    85.5838 </r>
       <r>    -0.4644     5.8801    85.8804 </r>
       <r>    -0.4140     5.8675    86.1764 </r>
       <r>    -0.3635     5.5555    86.4566 </r>
       <r>    -0.3131     4.7326    86.6953 </r>
       <r>    -0.2626     3.4416    86.8689 </r>
       <r>    -0.2122     1.9629    86.9680 </r>
       <r>    -0.1618     0.6830    87.0024 </r>
       <r>    -0.1113    -0.0739    86.9987 </r>
       <r>    -0.0609    -0.1498    86.9911 </r>
       <r>    -0.0104     0.4262    87.0126 </r>
       <r>     0.0400     1.4729    87.0869 </r>
       <r>     0.0905     2.7620    87.2262 </r>
       <r>     0.1409     4.2071    87.4385 </r>
       <r>     0.1913     5.9962    87.7409 </r>
       <r>     0.2418     8.4307    88.1662 </r>
       <r>     0.2922    11.4568    88.7441 </r>
       <r>     0.3427    14.2983    89.4654 </r>
       <r>     0.3931    15.6904    90.2569 </r>
       <r>     0.4436    14.6959    90.9982 </r>
       <r>     0.4940    11.4445    91.5755 </r>
       <r>     0.5444     7.1177    91.9345 </r>
       <r>     0.5949     3.1904    92.0954 </r>
       <r>     0.6453     0.5947    92.1254 </r>
       <r>     0.6958    -0.5765    92.0964 </r>
       <r>     0.7462    -0.7845    92.0568 </r>
       <r>     0.7967    -0.5802    92.0275 </r>
       <r>     0.8471    -0.3220    92.0113 </r>
       <r>     0.8976    -0.1450    92.0040 </r>
       <r>     0.9480    -0.0547    92.0012 </r>
       <r>     0.9984    -0.0176    92.0003 </r>
       <r>     1.0489    -0.0049    92.0001 </r>
       <r>     1.0993    -0.0012    92.0000 </r>
       <r>     1.1498    -0.0002    92.0000 </r>
       <r>     1.2002    -0.0000    92.0000 </r>
       <r>     1.2507    -0.0000    92.0000 </r>
       <r>     1.3011    -0.0000    92.0000 </r>
       <r>     1.3515    -0.0000    92.0000 </r>
       <r>     1.4020    -0.0000    92.0000 </r>
       <r>     1.4524    -0.0000    92.0000 </r>
       <r>     1.5029    -0.0000    92.0000 </r>
       <r>     1.5533    -0.0000    92.0000 </r>
       <r>     1.6038    -0.0000    92.0000 </r>
       <r>     1.6542    -0.0000    92.0000 </r>
       <r>     1.7046     0.0000    92.0000 </r>
       <r>     1.7551     0.0000    92.0000 </r>
       <r>     1.8055     0.0000    92.0000 </r>
       <r>     1.8560     0.0000    92.0000 </r>
       <r>     1.9064     0.0000    92.0000 </r>
       <r>     1.9569     0.0000    92.0000 </r>
       <r>     2.0073     0.0000    92.0000 </r>
       <r>     2.0578     0.0000    92.0000 </r>
       <r>     2.1082     0.0000    92.0000 </r>
       <r>     2.1586     0.0000    92.0000 </r>
       <r>     2.2091     0.0000    92.0000 </r>
       <r>     2.2595     0.0000    92.0000 </r>
       <r>     2.3100     0.0000    92.0000 </r>
       <r>     2.3604     0.0000    92.0000 </r>
       <r>     2.4109     0.0000    92.0000 </r>
      </set>
     </set>
    </array>
   </total>
  </dos>
 </calculation>
 <structure name="finalpos" >
  <crystal>
   <varray name="basis" >
    <v>      25.78315879       0.00000000       0.00000000 </v>
    <v>       0.00000000      23.38992054       0.00000000 </v>
    <v>       0.00000000       0.00000000      22.73875627 </v>
   </varray>
   <i name="volume">  13712.97159002 </i>
   <varray name="rec_basis" >
    <v>       0.03878501       0.00000000       0.00000000 </v>
    <v>       0.00000000       0.04275346       0.00000000 </v>
    <v>       0.00000000       0.00000000       0.04397778 </v>
   </varray>
  </crystal>
  <varray name="positions" >
   <v>       0.54856548       0.58590740       0.50935043 </v>
   <v>       0.48938591       0.49452326       0.50866415 </v>
   <v>       0.48395710       0.57519907       0.59048363 </v>
   <v>       0.57240142       0.61708261       0.60359288 </v>
   <v>       0.56242989       0.51258996       0.59080064 </v>
   <v>       0.40748760       0.51802856       0.55561117 </v>
   <v>       0.47511426       0.47501382       0.61530991 </v>
   <v>       0.58538472       0.48879185       0.49117084 </v>
   <v>       0.43726855       0.41480338       0.54190629 </v>
   <v>       0.53412164       0.41748591       0.55232969 </v>
   <v>       0.45273755       0.58562567       0.48994856 </v>
   <v>       0.63472084       0.56121570       0.54306393 </v>
   <v>       0.52445733       0.54173398       0.42138765 </v>
  </varray>
 </structure>
</modeling>
