unknown system                          
            1
    25.783159    0.000000    0.000000
     0.000000   23.389921    0.000000
     0.000000    0.000000   22.738756
   Cu
    13
Direct configuration=     1
   0.54804275  0.58770181  0.50825342
   0.49257756  0.49743350  0.51202998
   0.48344779  0.57635007  0.58911857
   0.57315240  0.61377243  0.60792228
   0.56158404  0.51125422  0.59107781
   0.40840969  0.51801255  0.55381714
   0.47512535  0.47382981  0.61934903
   0.58435870  0.48927460  0.48698807
   0.43896729  0.41673230  0.54060656
   0.53549344  0.41595100  0.55459208
   0.45344044  0.58797489  0.48527005
   0.63401855  0.56094314  0.54460482
   0.51941429  0.53877087  0.41998998
Direct configuration=     2
   0.54837643  0.58734251  0.50850230
   0.49196477  0.49701944  0.51223207
   0.48336132  0.57601780  0.58916217
   0.57294715  0.61386237  0.60730671
   0.56182820  0.51132892  0.59069091
   0.40869689  0.51817179  0.55392206
   0.47504293  0.47427775  0.61842882
   0.58454590  0.48963352  0.48776542
   0.43907251  0.41673218  0.54077183
   0.53521852  0.41635914  0.55428980
   0.45336484  0.58743776  0.48605427
   0.63373743  0.56071279  0.54429605
   0.51987542  0.53910518  0.42019737
Direct configuration=     3
   0.54895572  0.58671874  0.50893439
   0.49090092  0.49630061  0.51258292
   0.48321119  0.57544096  0.58923786
   0.57259080  0.61401851  0.60623801
   0.56225210  0.51145862  0.59001923
   0.40919549  0.51844825  0.55410420
   0.47489983  0.47505542  0.61683127
   0.58487089  0.49025663  0.48911496
   0.43925517  0.41673197  0.54105877
   0.53474124  0.41706770  0.55376502
   0.45323361  0.58650527  0.48741576
   0.63324937  0.56031289  0.54375999
   0.52067598  0.53968559  0.42055742
Direct configuration=     4
   0.54891255  0.58635578  0.50884996
   0.49076499  0.49606481  0.51166944
   0.48340167  0.57539850  0.58962670
   0.57222175  0.61443795  0.60555742
   0.56245114  0.51147470  0.59001785
   0.40859175  0.51872210  0.55440760
   0.47490396  0.47553244  0.61625962
   0.58499634  0.49020726  0.48977546
   0.43890265  0.41608277  0.54117413
   0.53466119  0.41734534  0.55330251
   0.45315708  0.58587298  0.48825120
   0.63368270  0.56029203  0.54343852
   0.52138454  0.54021453  0.42128938
Direct configuration=     5
   0.54886220  0.58593235  0.50875146
   0.49060640  0.49578974  0.51060379
   0.48362386  0.57534897  0.59008031
   0.57179122  0.61492726  0.60476346
   0.56268335  0.51149347  0.59001624
   0.40788744  0.51904156  0.55476155
   0.47490877  0.47608891  0.61559274
   0.58514269  0.49014965  0.49054598
   0.43849141  0.41532542  0.54130872
   0.53456781  0.41766921  0.55276295
   0.45306780  0.58513537  0.48922581
   0.63418822  0.56026769  0.54306349
   0.52221112  0.54083158  0.42214328
Direct configuration=     6
   0.54882870  0.58624805  0.50901372
   0.49027341  0.49518580  0.50999789
   0.48383468  0.57559633  0.59040081
   0.57174885  0.61535141  0.60437756
   0.56269917  0.51170702  0.59058773
   0.40740102  0.51885153  0.55501845
   0.47481092  0.47588656  0.61556788
   0.58535335  0.48941091  0.49035424
   0.43819171  0.41508548  0.54141750
   0.53455666  0.41752929  0.55254217
   0.45276885  0.58538889  0.48935707
   0.63482063  0.56066273  0.54306909
   0.52274434  0.54109718  0.42191567
Direct configuration=     7
   0.54881717  0.58635672  0.50910399
   0.49015879  0.49497792  0.50978934
   0.48390725  0.57568147  0.59051113
   0.57173426  0.61549742  0.60424473
   0.56270461  0.51178052  0.59078444
   0.40723358  0.51878612  0.55510687
   0.47477723  0.47581690  0.61555932
   0.58542587  0.48915662  0.49028824
   0.43808855  0.41500288  0.54145495
   0.53455283  0.41748112  0.55246617
   0.45266595  0.58547616  0.48940226
   0.63503832  0.56079870  0.54307102
   0.52292788  0.54118860  0.42183733
Direct configuration=     8
   0.54880221  0.58622892  0.50913587
   0.48982656  0.49486306  0.50951884
   0.48384402  0.57561259  0.59046819
   0.57198737  0.61590317  0.60417891
   0.56272897  0.51198932  0.59074440
   0.40730428  0.51855576  0.55524014
   0.47472067  0.47560380  0.61548112
   0.58546245  0.48904928  0.49052745
   0.43790184  0.41499413  0.54158012
   0.53452348  0.41735726  0.55244166
   0.45262309  0.58556789  0.48955849
   0.63496355  0.56092575  0.54307974
   0.52334380  0.54135023  0.42166485
Direct configuration=     9
   0.54877785  0.58602073  0.50918779
   0.48928532  0.49467595  0.50907818
   0.48374102  0.57550036  0.59039824
   0.57239970  0.61656419  0.60407167
   0.56276866  0.51232946  0.59067916
   0.40741945  0.51818048  0.55545726
   0.47462853  0.47525662  0.61535373
   0.58552205  0.48887442  0.49091715
   0.43759769  0.41497988  0.54178405
   0.53447566  0.41715548  0.55240174
   0.45255327  0.58571734  0.48981302
   0.63484173  0.56113273  0.54309394
   0.52402137  0.54161354  0.42138387
Direct configuration=    10
   0.54863692  0.58581283  0.50933529
   0.48932147  0.49457815  0.50866831
   0.48388859  0.57526680  0.59037512
   0.57254615  0.61702219  0.60377265
   0.56249485  0.51254891  0.59062283
   0.40742292  0.51800346  0.55560567
   0.47494576  0.47503812  0.61530643
   0.58540120  0.48881469  0.49125968
   0.43728163  0.41479741  0.54189662
   0.53425499  0.41739511  0.55235737
   0.45266701  0.58572162  0.48996603
   0.63470174  0.56124929  0.54308385
   0.52446905  0.54175259  0.42136993
Direct configuration=    11
   0.54862784  0.58579944  0.50934479
   0.48932380  0.49457185  0.50864191
   0.48389809  0.57525175  0.59037363
   0.57255559  0.61705170  0.60375339
   0.56247721  0.51256305  0.59061920
   0.40742315  0.51799206  0.55561523
   0.47496620  0.47502405  0.61530338
   0.58539342  0.48881084  0.49128174
   0.43726127  0.41478566  0.54190388
   0.53424078  0.41741054  0.55235451
   0.45267434  0.58572190  0.48997589
   0.63469272  0.56125680  0.54308320
   0.52449789  0.54176154  0.42136903
Direct configuration=    12
   0.54855593  0.58592394  0.50935130
   0.48939542  0.49451581  0.50866756
   0.48396614  0.57519100  0.59050048
   0.57237781  0.61708735  0.60356829
   0.56242264  0.51259408  0.59082844
   0.40749747  0.51803415  0.55561055
   0.47513694  0.47501226  0.61531091
   0.58538339  0.48878894  0.49115385
   0.43726967  0.41480610  0.54190666
   0.53410339  0.41749745  0.55232589
   0.45274724  0.58561093  0.48994437
   0.63472515  0.56120940  0.54306098
   0.52445111  0.54172975  0.42139051
Direct configuration=    13
   0.54856548  0.58590740  0.50935043
   0.48938591  0.49452326  0.50866415
   0.48395710  0.57519907  0.59048363
   0.57240142  0.61708261  0.60359288
   0.56242989  0.51258996  0.59080064
   0.40748760  0.51802856  0.55561117
   0.47511426  0.47501382  0.61530991
   0.58538472  0.48879185  0.49117084
   0.43726855  0.41480338  0.54190629
   0.53412164  0.41748591  0.55232969
   0.45273755  0.58562567  0.48994856
   0.63472084  0.56121570  0.54306393
   0.52445733  0.54173398  0.42138765
