  16  16   0   0
  0.9056423E+03  0.2552114E-08  0.2585137E-08  0.2196308E-08  0.5000000E-15
   1.0000000000000000E-004
  CAR 
 unknown system                          
      2.30630894    -10.89075030  301     -4.15418095      1.00000000
    -10.891  0.0000E+00  0.0000E+00  0.0000E+00  0.0000E+00
    -10.847  0.0000E+00  0.0000E+00  0.0000E+00  0.0000E+00
    -10.803  0.0000E+00  0.0000E+00  0.0000E+00  0.0000E+00
    -10.759  0.0000E+00  0.0000E+00  0.0000E+00  0.0000E+00
    -10.715  0.0000E+00  0.0000E+00  0.0000E+00  0.0000E+00
    -10.671  0.0000E+00  0.0000E+00  0.0000E+00  0.0000E+00
    -10.627  0.0000E+00  0.0000E+00  0.0000E+00  0.0000E+00
    -10.583  0.0000E+00  0.0000E+00  0.0000E+00  0.0000E+00
    -10.539  0.0000E+00  0.0000E+00  0.0000E+00  0.0000E+00
    -10.495 -0.5945E-29  0.0000E+00 -0.2615E-30  0.0000E+00
    -10.451 -0.1817E-27 -0.6973E-29 -0.8255E-29 -0.3068E-30
    -10.407 -0.5185E-26 -0.2122E-27 -0.2363E-27 -0.9640E-29
    -10.363 -0.1341E-24 -0.6027E-26 -0.6137E-26 -0.2748E-27
    -10.319 -0.3146E-23 -0.1552E-24 -0.1446E-24 -0.7103E-26
    -10.275 -0.6690E-22 -0.3625E-23 -0.3088E-23 -0.1666E-24
    -10.231 -0.1289E-20 -0.7673E-22 -0.5981E-22 -0.3542E-23
    -10.187 -0.2252E-19 -0.1472E-20 -0.1051E-20 -0.6830E-22
    -10.143 -0.3565E-18 -0.2560E-19 -0.1673E-19 -0.1194E-20
    -10.099 -0.5112E-17 -0.4033E-18 -0.2416E-18 -0.1894E-19
    -10.055 -0.6388E-16 -0.5758E-17 -0.3052E-17 -0.2722E-18
    -10.011 -0.7573E-15 -0.7194E-16 -0.3637E-16 -0.3437E-17
     -9.967 -0.8039E-14 -0.8444E-15 -0.3900E-15 -0.4058E-16
     -9.923 -0.7729E-13 -0.8932E-14 -0.3790E-14 -0.4335E-15
     -9.879 -0.6722E-12 -0.8549E-13 -0.3336E-13 -0.4194E-14
     -9.835 -0.5286E-11 -0.7401E-12 -0.2659E-12 -0.3675E-13
     -9.791 -0.3757E-10 -0.5794E-11 -0.1919E-11 -0.2916E-12
     -9.747 -0.2412E-09 -0.4099E-10 -0.1253E-10 -0.2095E-11
     -9.703 -0.1398E-08 -0.2619E-09 -0.7401E-10 -0.1362E-10
     -9.659 -0.7303E-08 -0.1510E-08 -0.3952E-09 -0.8006E-10
     -9.615 -0.3437E-07 -0.7855E-08 -0.1907E-08 -0.4256E-09
     -9.571 -0.1455E-06 -0.3680E-07 -0.8310E-08 -0.2044E-08
     -9.527 -0.5534E-06 -0.1550E-06 -0.3266E-07 -0.8865E-08
     -9.483 -0.1885E-05 -0.5867E-06 -0.1156E-06 -0.3467E-07
     -9.439 -0.5736E-05 -0.1988E-05 -0.3679E-06 -0.1221E-06
     -9.395 -0.1552E-04 -0.6018E-05 -0.1051E-05 -0.3869E-06
     -9.351 -0.3707E-04 -0.1619E-04 -0.2681E-05 -0.1099E-05
     -9.307 -0.7736E-04 -0.3845E-04 -0.6084E-05 -0.2790E-05
     -9.263 -0.1384E-03 -0.7972E-04 -0.1217E-04 -0.6297E-05
     -9.219 -0.2040E-03 -0.1415E-03 -0.2114E-04 -0.1252E-04
     -9.175 -0.2228E-03 -0.2064E-03 -0.3094E-04 -0.2160E-04
     -9.131 -0.1008E-03 -0.2212E-03 -0.3538E-04 -0.3133E-04
     -9.087  0.2775E-03 -0.8991E-04 -0.2317E-04 -0.3528E-04
     -9.043  0.9871E-03  0.3027E-03  0.2025E-04 -0.2197E-04
     -8.999  0.1982E-02  0.1028E-02  0.1075E-03  0.2326E-04
     -8.955  0.3054E-02  0.2035E-02  0.2418E-03  0.1128E-03
     -8.911  0.3874E-02  0.3109E-02  0.4122E-03  0.2496E-03
     -8.867  0.4139E-02  0.3926E-02  0.5943E-03  0.4223E-03
     -8.823  0.3720E-02  0.4196E-02  0.7579E-03  0.6068E-03
     -8.779  0.2738E-02  0.3811E-02  0.8784E-03  0.7745E-03
     -8.735  0.1506E-02  0.2905E-02  0.9446E-03  0.9023E-03
     -8.691  0.4028E-03  0.1774E-02  0.9623E-03  0.9803E-03
     -8.647 -0.2407E-03  0.7189E-03  0.9517E-03  0.1012E-02
     -8.603 -0.1921E-03 -0.6893E-04  0.9433E-03  0.1009E-02
     -8.559  0.6729E-03 -0.5275E-03  0.9729E-03  0.9857E-03
     -8.515  0.2356E-02 -0.6504E-03  0.1077E-02  0.9571E-03
     -8.471  0.4713E-02 -0.4036E-03  0.1284E-02  0.9393E-03
     -8.427  0.7474E-02  0.2941E-03  0.1613E-02  0.9522E-03
     -8.383  0.1032E-01  0.1511E-02  0.2067E-02  0.1019E-02
     -8.339  0.1297E-01  0.3212E-02  0.2637E-02  0.1160E-02
     -8.295  0.1525E-01  0.5228E-02  0.3308E-02  0.1390E-02
     -8.251  0.1701E-01  0.7321E-02  0.4056E-02  0.1712E-02
     -8.207  0.1806E-01  0.9311E-02  0.4851E-02  0.2122E-02
     -8.163  0.1818E-01  0.1116E-01  0.5650E-02  0.2612E-02
     -8.119  0.1726E-01  0.1291E-01  0.6410E-02  0.3180E-02
     -8.075  0.1548E-01  0.1455E-01  0.7091E-02  0.3820E-02
     -8.031  0.1329E-01  0.1590E-01  0.7675E-02  0.4520E-02
     -7.987  0.1126E-01  0.1665E-01  0.8171E-02  0.5252E-02
     -7.943  0.9791E-02  0.1656E-01  0.8601E-02  0.5981E-02
     -7.899  0.8946E-02  0.1563E-01  0.8995E-02  0.6669E-02
     -7.855  0.8495E-02  0.1418E-01  0.9369E-02  0.7292E-02
     -7.811  0.8154E-02  0.1262E-01  0.9727E-02  0.7847E-02
     -7.767  0.7807E-02  0.1128E-01  0.1007E-01  0.8343E-02
     -7.723  0.7583E-02  0.1027E-01  0.1040E-01  0.8795E-02
     -7.679  0.7754E-02  0.9508E-02  0.1075E-01  0.9214E-02
     -7.635  0.8537E-02  0.8830E-02  0.1112E-01  0.9602E-02
     -7.591  0.9929E-02  0.8151E-02  0.1156E-01  0.9961E-02
     -7.547  0.1168E-01  0.7515E-02  0.1207E-01  0.1029E-01
     -7.504  0.1344E-01  0.7084E-02  0.1266E-01  0.1060E-01
     -7.460  0.1497E-01  0.7054E-02  0.1332E-01  0.1091E-01
     -7.416  0.1626E-01  0.7554E-02  0.1404E-01  0.1125E-01
     -7.372  0.1748E-01  0.8588E-02  0.1481E-01  0.1162E-01
     -7.328  0.1877E-01  0.1005E-01  0.1563E-01  0.1207E-01
     -7.284  0.2005E-01  0.1180E-01  0.1651E-01  0.1258E-01
     -7.240  0.2097E-01  0.1378E-01  0.1744E-01  0.1319E-01
     -7.196  0.2113E-01  0.1593E-01  0.1837E-01  0.1389E-01
     -7.152  0.2038E-01  0.1817E-01  0.1926E-01  0.1469E-01
     -7.108  0.1895E-01  0.2025E-01  0.2010E-01  0.1558E-01
     -7.064  0.1737E-01  0.2176E-01  0.2086E-01  0.1654E-01
     -7.020  0.1614E-01  0.2228E-01  0.2157E-01  0.1752E-01
     -6.976  0.1558E-01  0.2161E-01  0.2225E-01  0.1847E-01
     -6.932  0.1567E-01  0.1995E-01  0.2294E-01  0.1935E-01
     -6.888  0.1618E-01  0.1782E-01  0.2366E-01  0.2013E-01
     -6.844  0.1679E-01  0.1584E-01  0.2439E-01  0.2083E-01
     -6.800  0.1723E-01  0.1447E-01  0.2515E-01  0.2146E-01
     -6.756  0.1729E-01  0.1388E-01  0.2591E-01  0.2208E-01
     -6.712  0.1695E-01  0.1404E-01  0.2666E-01  0.2269E-01
     -6.668  0.1631E-01  0.1478E-01  0.2738E-01  0.2334E-01
     -6.624  0.1561E-01  0.1588E-01  0.2806E-01  0.2404E-01
     -6.580  0.1507E-01  0.1704E-01  0.2873E-01  0.2479E-01
     -6.536  0.1487E-01  0.1790E-01  0.2938E-01  0.2558E-01
     -6.492  0.1506E-01  0.1821E-01  0.3004E-01  0.2638E-01
     -6.448  0.1552E-01  0.1785E-01  0.3072E-01  0.2716E-01
     -6.404  0.1601E-01  0.1695E-01  0.3143E-01  0.2791E-01
     -6.360  0.1630E-01  0.1584E-01  0.3215E-01  0.2861E-01
     -6.316  0.1620E-01  0.1490E-01  0.3286E-01  0.2926E-01
     -6.272  0.1573E-01  0.1444E-01  0.3355E-01  0.2990E-01
     -6.228  0.1507E-01  0.1455E-01  0.3421E-01  0.3054E-01
     -6.184  0.1448E-01  0.1505E-01  0.3485E-01  0.3120E-01
     -6.140  0.1417E-01  0.1558E-01  0.3547E-01  0.3189E-01
     -6.096  0.1414E-01  0.1577E-01  0.3610E-01  0.3258E-01
     -6.052  0.1422E-01  0.1544E-01  0.3672E-01  0.3326E-01
     -6.008  0.1414E-01  0.1470E-01  0.3734E-01  0.3390E-01
     -5.964  0.1380E-01  0.1389E-01  0.3795E-01  0.3452E-01
     -5.920  0.1332E-01  0.1338E-01  0.3854E-01  0.3510E-01
     -5.876  0.1300E-01  0.1341E-01  0.3911E-01  0.3569E-01
     -5.832  0.1309E-01  0.1389E-01  0.3968E-01  0.3631E-01
     -5.788  0.1368E-01  0.1453E-01  0.4029E-01  0.3694E-01
     -5.744  0.1463E-01  0.1501E-01  0.4093E-01  0.3761E-01
     -5.700  0.1580E-01  0.1521E-01  0.4162E-01  0.3827E-01
     -5.656  0.1717E-01  0.1523E-01  0.4238E-01  0.3894E-01
     -5.612  0.1883E-01  0.1529E-01  0.4321E-01  0.3962E-01
     -5.568  0.2085E-01  0.1560E-01  0.4413E-01  0.4030E-01
     -5.524  0.2306E-01  0.1620E-01  0.4514E-01  0.4102E-01
     -5.480  0.2510E-01  0.1709E-01  0.4624E-01  0.4177E-01
     -5.436  0.2653E-01  0.1824E-01  0.4741E-01  0.4257E-01
     -5.392  0.2716E-01  0.1962E-01  0.4861E-01  0.4343E-01
     -5.348  0.2725E-01  0.2120E-01  0.4981E-01  0.4437E-01
     -5.304  0.2739E-01  0.2278E-01  0.5101E-01  0.4537E-01
     -5.260  0.2815E-01  0.2409E-01  0.5225E-01  0.4643E-01
     -5.216  0.2971E-01  0.2494E-01  0.5356E-01  0.4752E-01
     -5.172  0.3169E-01  0.2537E-01  0.5495E-01  0.4864E-01
     -5.128  0.3343E-01  0.2580E-01  0.5642E-01  0.4978E-01
     -5.084  0.3434E-01  0.2683E-01  0.5793E-01  0.5096E-01
     -5.040  0.3426E-01  0.2880E-01  0.5944E-01  0.5222E-01
     -4.996  0.3342E-01  0.3149E-01  0.6091E-01  0.5361E-01
     -4.952  0.3225E-01  0.3409E-01  0.6233E-01  0.5511E-01
     -4.908  0.3103E-01  0.3559E-01  0.6369E-01  0.5667E-01
     -4.864  0.2982E-01  0.3533E-01  0.6500E-01  0.5823E-01
     -4.820  0.2854E-01  0.3341E-01  0.6626E-01  0.5970E-01
     -4.776  0.2724E-01  0.3058E-01  0.6746E-01  0.6104E-01
     -4.732  0.2619E-01  0.2790E-01  0.6861E-01  0.6227E-01
     -4.688  0.2584E-01  0.2615E-01  0.6975E-01  0.6342E-01
     -4.644  0.2658E-01  0.2553E-01  0.7092E-01  0.6454E-01
     -4.600  0.2844E-01  0.2569E-01  0.7217E-01  0.6567E-01
     -4.556  0.3090E-01  0.2606E-01  0.7353E-01  0.6682E-01
     -4.512  0.3304E-01  0.2621E-01  0.7498E-01  0.6797E-01
     -4.468  0.3382E-01  0.2605E-01  0.7647E-01  0.6912E-01
     -4.424  0.3259E-01  0.2579E-01  0.7790E-01  0.7025E-01
     -4.380  0.2939E-01  0.2565E-01  0.7919E-01  0.7138E-01
     -4.336  0.2492E-01  0.2565E-01  0.8029E-01  0.7251E-01
     -4.292  0.2022E-01  0.2561E-01  0.8118E-01  0.7364E-01
     -4.248  0.1611E-01  0.2529E-01  0.8189E-01  0.7475E-01
     -4.204  0.1295E-01  0.2461E-01  0.8246E-01  0.7583E-01
     -4.160  0.1060E-01  0.2376E-01  0.8292E-01  0.7688E-01
     -4.116  0.8754E-02  0.2301E-01  0.8331E-01  0.7789E-01
     -4.072  0.7166E-02  0.2253E-01  0.8362E-01  0.7888E-01
     -4.028  0.5838E-02  0.2222E-01  0.8388E-01  0.7986E-01
     -3.984  0.4885E-02  0.2170E-01  0.8410E-01  0.8081E-01
     -3.940  0.4343E-02  0.2055E-01  0.8429E-01  0.8172E-01
     -3.896  0.4057E-02  0.1849E-01  0.8447E-01  0.8253E-01
     -3.852  0.3750E-02  0.1563E-01  0.8463E-01  0.8322E-01
     -3.808  0.3232E-02  0.1237E-01  0.8477E-01  0.8376E-01
     -3.764  0.2545E-02  0.9265E-02  0.8488E-01  0.8417E-01
     -3.720  0.1958E-02  0.6687E-02  0.8497E-01  0.8446E-01
     -3.676  0.1776E-02  0.4742E-02  0.8505E-01  0.8467E-01
     -3.632  0.2121E-02  0.3343E-02  0.8514E-01  0.8482E-01
     -3.588  0.2820E-02  0.2397E-02  0.8527E-01  0.8492E-01
     -3.544  0.3492E-02  0.1917E-02  0.8542E-01  0.8501E-01
     -3.500  0.3768E-02  0.1954E-02  0.8559E-01  0.8509E-01
     -3.456  0.3518E-02  0.2440E-02  0.8574E-01  0.8520E-01
     -3.412  0.2933E-02  0.3114E-02  0.8587E-01  0.8534E-01
     -3.368  0.2398E-02  0.3609E-02  0.8597E-01  0.8550E-01
     -3.324  0.2255E-02  0.3668E-02  0.8607E-01  0.8566E-01
     -3.280  0.2586E-02  0.3307E-02  0.8619E-01  0.8580E-01
     -3.236  0.3179E-02  0.2810E-02  0.8633E-01  0.8593E-01
     -3.192  0.3690E-02  0.2538E-02  0.8649E-01  0.8604E-01
     -3.148  0.3886E-02  0.2681E-02  0.8666E-01  0.8616E-01
     -3.104  0.3790E-02  0.3150E-02  0.8683E-01  0.8630E-01
     -3.060  0.3633E-02  0.3667E-02  0.8699E-01  0.8646E-01
     -3.017  0.3640E-02  0.3981E-02  0.8715E-01  0.8663E-01
     -2.973  0.3832E-02  0.4045E-02  0.8732E-01  0.8681E-01
     -2.929  0.3996E-02  0.4006E-02  0.8749E-01  0.8699E-01
     -2.885  0.3845E-02  0.4033E-02  0.8766E-01  0.8716E-01
     -2.841  0.3242E-02  0.4135E-02  0.8780E-01  0.8735E-01
     -2.797  0.2314E-02  0.4134E-02  0.8791E-01  0.8753E-01
     -2.753  0.1404E-02  0.3801E-02  0.8797E-01  0.8770E-01
     -2.709  0.8918E-03  0.3064E-02  0.8801E-01  0.8783E-01
     -2.665  0.1003E-02  0.2095E-02  0.8805E-01  0.8792E-01
     -2.621  0.1701E-02  0.1243E-02  0.8813E-01  0.8798E-01
     -2.577  0.2691E-02  0.8561E-03  0.8824E-01  0.8801E-01
     -2.533  0.3544E-02  0.1105E-02  0.8840E-01  0.8806E-01
     -2.489  0.3891E-02  0.1893E-02  0.8857E-01  0.8815E-01
     -2.445  0.3601E-02  0.2884E-02  0.8873E-01  0.8827E-01
     -2.401  0.2862E-02  0.3647E-02  0.8886E-01  0.8843E-01
     -2.357  0.2079E-02  0.3861E-02  0.8895E-01  0.8860E-01
     -2.313  0.1666E-02  0.3477E-02  0.8902E-01  0.8876E-01
     -2.269  0.1833E-02  0.2751E-02  0.8910E-01  0.8888E-01
     -2.225  0.2492E-02  0.2107E-02  0.8921E-01  0.8897E-01
     -2.181  0.3344E-02  0.1906E-02  0.8936E-01  0.8905E-01
     -2.137  0.4068E-02  0.2255E-02  0.8954E-01  0.8915E-01
     -2.093  0.4499E-02  0.2979E-02  0.8973E-01  0.8928E-01
     -2.049  0.4673E-02  0.3760E-02  0.8994E-01  0.8945E-01
     -2.005  0.4739E-02  0.4342E-02  0.9015E-01  0.8964E-01
     -1.961  0.4820E-02  0.4661E-02  0.9036E-01  0.8985E-01
     -1.917  0.4944E-02  0.4824E-02  0.9058E-01  0.9006E-01
     -1.873  0.5059E-02  0.4981E-02  0.9080E-01  0.9028E-01
     -1.829  0.5089E-02  0.5199E-02  0.9102E-01  0.9051E-01
     -1.785  0.4950E-02  0.5429E-02  0.9124E-01  0.9074E-01
     -1.741  0.4578E-02  0.5544E-02  0.9144E-01  0.9099E-01
     -1.697  0.3996E-02  0.5408E-02  0.9162E-01  0.9123E-01
     -1.653  0.3388E-02  0.4935E-02  0.9177E-01  0.9144E-01
     -1.609  0.3099E-02  0.4175E-02  0.9190E-01  0.9163E-01
     -1.565  0.3469E-02  0.3364E-02  0.9206E-01  0.9178E-01
     -1.521  0.4602E-02  0.2896E-02  0.9226E-01  0.9190E-01
     -1.477  0.6222E-02  0.3154E-02  0.9253E-01  0.9204E-01
     -1.433  0.7775E-02  0.4272E-02  0.9288E-01  0.9223E-01
     -1.389  0.8716E-02  0.5989E-02  0.9326E-01  0.9249E-01
     -1.345  0.8785E-02  0.7732E-02  0.9365E-01  0.9283E-01
     -1.301  0.8076E-02  0.8898E-02  0.9400E-01  0.9322E-01
     -1.257  0.6894E-02  0.9142E-02  0.9430E-01  0.9363E-01
     -1.213  0.5556E-02  0.8494E-02  0.9455E-01  0.9400E-01
     -1.169  0.4299E-02  0.7249E-02  0.9474E-01  0.9432E-01
     -1.125  0.3306E-02  0.5783E-02  0.9488E-01  0.9457E-01
     -1.081  0.2736E-02  0.4427E-02  0.9500E-01  0.9477E-01
     -1.037  0.2662E-02  0.3430E-02  0.9512E-01  0.9492E-01
     -0.993  0.2985E-02  0.2945E-02  0.9525E-01  0.9505E-01
     -0.949  0.3428E-02  0.2968E-02  0.9540E-01  0.9518E-01
     -0.905  0.3679E-02  0.3295E-02  0.9556E-01  0.9532E-01
     -0.861  0.3589E-02  0.3601E-02  0.9572E-01  0.9548E-01
     -0.817  0.3279E-02  0.3613E-02  0.9587E-01  0.9564E-01
     -0.773  0.3041E-02  0.3295E-02  0.9600E-01  0.9579E-01
     -0.729  0.3133E-02  0.2873E-02  0.9614E-01  0.9591E-01
     -0.685  0.3616E-02  0.2684E-02  0.9630E-01  0.9603E-01
     -0.641  0.4338E-02  0.2956E-02  0.9649E-01  0.9616E-01
     -0.597  0.5078E-02  0.3674E-02  0.9671E-01  0.9632E-01
     -0.553  0.5682E-02  0.4631E-02  0.9696E-01  0.9653E-01
     -0.509  0.6122E-02  0.5571E-02  0.9723E-01  0.9677E-01
     -0.465  0.6454E-02  0.6329E-02  0.9751E-01  0.9705E-01
     -0.421  0.6742E-02  0.6863E-02  0.9781E-01  0.9735E-01
     -0.377  0.7012E-02  0.7208E-02  0.9812E-01  0.9767E-01
     -0.333  0.7256E-02  0.7411E-02  0.9844E-01  0.9799E-01
     -0.289  0.7442E-02  0.7506E-02  0.9877E-01  0.9833E-01
     -0.245  0.7528E-02  0.7519E-02  0.9910E-01  0.9866E-01
     -0.201  0.7469E-02  0.7473E-02  0.9943E-01  0.9898E-01
     -0.157  0.7243E-02  0.7374E-02  0.9974E-01  0.9931E-01
     -0.113  0.6892E-02  0.7210E-02  0.1000E+00  0.9963E-01
     -0.069  0.6566E-02  0.6982E-02  0.1003E+00  0.9993E-01
     -0.025  0.6520E-02  0.6764E-02  0.1006E+00  0.1002E+00
      0.019  0.7012E-02  0.6735E-02  0.1009E+00  0.1005E+00
      0.063  0.8124E-02  0.7126E-02  0.1013E+00  0.1008E+00
      0.107  0.9614E-02  0.8060E-02  0.1017E+00  0.1012E+00
      0.151  0.1093E-01  0.9391E-02  0.1022E+00  0.1016E+00
      0.195  0.1143E-01  0.1067E-01  0.1027E+00  0.1021E+00
      0.239  0.1072E-01  0.1130E-01  0.1032E+00  0.1026E+00
      0.283  0.8851E-02  0.1085E-01  0.1036E+00  0.1031E+00
      0.327  0.6304E-02  0.9269E-02  0.1038E+00  0.1035E+00
      0.371  0.3726E-02  0.6907E-02  0.1040E+00  0.1038E+00
      0.415  0.1646E-02  0.4358E-02  0.1041E+00  0.1040E+00
      0.459  0.3055E-03  0.2169E-02  0.1041E+00  0.1041E+00
      0.503 -0.3434E-03  0.6478E-03  0.1041E+00  0.1041E+00
      0.547 -0.5123E-03 -0.1766E-03  0.1040E+00  0.1041E+00
      0.591 -0.4372E-03 -0.4694E-03  0.1040E+00  0.1041E+00
      0.635 -0.2914E-03 -0.4576E-03  0.1040E+00  0.1040E+00
      0.679 -0.1636E-03 -0.3297E-03  0.1040E+00  0.1040E+00
      0.723 -0.7980E-04 -0.1967E-03  0.1040E+00  0.1040E+00
      0.767 -0.3432E-04 -0.1011E-03  0.1040E+00  0.1040E+00
      0.811 -0.1313E-04 -0.4564E-04  0.1040E+00  0.1040E+00
      0.855 -0.4489E-05 -0.1828E-04  0.1040E+00  0.1040E+00
      0.899 -0.1377E-05 -0.6533E-05  0.1040E+00  0.1040E+00
      0.943 -0.3797E-06 -0.2091E-05  0.1040E+00  0.1040E+00
      0.987 -0.9431E-07 -0.6014E-06  0.1040E+00  0.1040E+00
      1.031 -0.2112E-07 -0.1556E-06  0.1040E+00  0.1040E+00
      1.075 -0.4268E-08 -0.3627E-07  0.1040E+00  0.1040E+00
      1.119 -0.7789E-09 -0.7627E-08  0.1040E+00  0.1040E+00
      1.163 -0.1285E-09 -0.1448E-08  0.1040E+00  0.1040E+00
      1.207 -0.1916E-10 -0.2482E-09  0.1040E+00  0.1040E+00
      1.251 -0.2584E-11 -0.3845E-10  0.1040E+00  0.1040E+00
      1.295 -0.3153E-12 -0.5387E-11  0.1040E+00  0.1040E+00
      1.339 -0.3483E-13 -0.6826E-12  0.1040E+00  0.1040E+00
      1.383 -0.3483E-14 -0.7826E-13  0.1040E+00  0.1040E+00
      1.427 -0.3130E-15 -0.8122E-14  0.1040E+00  0.1040E+00
      1.470 -0.3029E-16 -0.7622E-15  0.1040E+00  0.1040E+00
      1.514  0.0000E+00 -0.6562E-16  0.1040E+00  0.1040E+00
      1.558  0.0000E+00 -0.5048E-17  0.1040E+00  0.1040E+00
      1.602  0.0000E+00  0.0000E+00  0.1040E+00  0.1040E+00
      1.646  0.0000E+00  0.0000E+00  0.1040E+00  0.1040E+00
      1.690  0.0000E+00  0.0000E+00  0.1040E+00  0.1040E+00
      1.734  0.0000E+00  0.0000E+00  0.1040E+00  0.1040E+00
      1.778  0.0000E+00  0.0000E+00  0.1040E+00  0.1040E+00
      1.822  0.0000E+00  0.0000E+00  0.1040E+00  0.1040E+00
      1.866  0.0000E+00  0.0000E+00  0.1040E+00  0.1040E+00
      1.910  0.0000E+00  0.0000E+00  0.1040E+00  0.1040E+00
      1.954  0.0000E+00  0.0000E+00  0.1040E+00  0.1040E+00
      1.998  0.0000E+00  0.0000E+00  0.1040E+00  0.1040E+00
      2.042  0.0000E+00  0.0000E+00  0.1040E+00  0.1040E+00
      2.086  0.0000E+00  0.0000E+00  0.1040E+00  0.1040E+00
      2.130  0.0000E+00  0.0000E+00  0.1040E+00  0.1040E+00
      2.174  0.0000E+00  0.0000E+00  0.1040E+00  0.1040E+00
      2.218  0.0000E+00  0.0000E+00  0.1040E+00  0.1040E+00
      2.262  0.0000E+00  0.0000E+00  0.1040E+00  0.1040E+00
      2.306  0.0000E+00  0.0000E+00  0.1040E+00  0.1040E+00
