   16   16 1000    2
  0.9056423E+03  0.2552114E-08  0.2585137E-08  0.2196308E-08  0.5000000E-15
   1.0000000000000000E-004
  CAR 
 unknown system                          
    160      1    104
 
  0.1262379E-14  0.1262379E-14  0.1262379E-14  0.1000000E+01
    1       -8.890750     -8.848766   1.000000   1.000000
    2       -8.421180     -8.268006   1.000000   1.000000
    3       -8.356674     -8.186800   1.000000   1.000000
    4       -8.277824     -8.084142   1.000000   1.000000
    5       -8.219010     -8.010449   1.000000   1.000000
    6       -8.159528     -7.973013   1.000000   1.000000
    7       -8.127217     -7.946218   1.000000   1.000000
    8       -8.083714     -7.839019   1.000000   1.000000
    9       -7.929750     -7.747847   1.000000   1.000000
   10       -7.848246     -7.649726   1.000000   1.000000
   11       -7.722846     -7.529640   1.000000   1.000000
   12       -7.568032     -7.367424   1.000000   1.000000
   13       -7.519769     -7.301649   1.000000   1.000000
   14       -7.453227     -7.202587   1.000000   1.000000
   15       -7.400678     -7.167915   1.000000   1.000000
   16       -7.321983     -7.100779   1.000000   1.000000
   17       -7.262756     -7.039141   1.000000   1.000000
   18       -7.232148     -7.026155   1.000000   1.000000
   19       -7.186387     -6.979555   1.000000   1.000000
   20       -7.178002     -6.971700   1.000000   1.000000
   21       -7.096285     -6.855654   1.000000   1.000000
   22       -6.997182     -6.786186   1.000000   1.000000
   23       -6.977786     -6.742438   1.000000   1.000000
   24       -6.881292     -6.628388   1.000000   1.000000
   25       -6.835408     -6.600524   1.000000   1.000000
   26       -6.782521     -6.536868   1.000000   1.000000
   27       -6.717613     -6.479348   1.000000   1.000000
   28       -6.679400     -6.449558   1.000000   1.000000
   29       -6.583534     -6.367666   1.000000   1.000000
   30       -6.535625     -6.308088   1.000000   1.000000
   31       -6.451453     -6.215723   1.000000   1.000000
   32       -6.387410     -6.141671   1.000000   1.000000
   33       -6.349333     -6.121200   1.000000   1.000000
   34       -6.277744     -6.036243   1.000000   1.000000
   35       -6.220282     -5.984907   1.000000   1.000000
   36       -6.126402     -5.875596   1.000000   1.000000
   37       -6.062781     -5.803567   1.000000   1.000000
   38       -5.979299     -5.751826   1.000000   1.000000
   39       -5.966620     -5.711410   1.000000   1.000000
   40       -5.827727     -5.608990   1.000000   1.000000
   41       -5.754257     -5.542323   1.000000   1.000000
   42       -5.733441     -5.512824   1.000000   1.000000
   43       -5.650779     -5.439487   1.000000   1.000000
   44       -5.579592     -5.375720   1.000000   1.000000
   45       -5.558308     -5.341711   1.000000   1.000000
   46       -5.499254     -5.305642   1.000000   1.000000
   47       -5.453013     -5.235642   1.000000   1.000000
   48       -5.431361     -5.212284   1.000000   1.000000
   49       -5.397418     -5.190211   1.000000   1.000000
   50       -5.376788     -5.164674   1.000000   1.000000
   51       -5.368744     -5.125569   1.000000   1.000000
   52       -5.261404     -5.029597   1.000000   1.000000
   53       -5.229800     -5.006954   1.000000   1.000000
   54       -5.212951     -4.981401   1.000000   1.000000
   55       -5.181970     -4.973488   1.000000   1.000000
   56       -5.154489     -4.932028   1.000000   1.000000
   57       -5.119199     -4.916479   1.000000   1.000000
   58       -5.091591     -4.887138   1.000000   1.000001
   59       -5.073396     -4.864972   1.000000   1.000003
   60       -5.056729     -4.841739   1.000000   1.000007
   61       -5.024786     -4.822863   1.000000   1.000012
   62       -4.977723     -4.773506   1.000000   1.000054
   63       -4.930089     -4.708454   1.000000   1.000317
   64       -4.908336     -4.688945   1.000001   1.000514
   65       -4.891199     -4.620831   1.000001   1.002361
   66       -4.836000     -4.591155   1.000008   1.004207
   67       -4.821782     -4.577056   1.000012   1.005430
   68       -4.790968     -4.542189   1.000032   1.009657
   69       -4.740942     -4.493534   1.000135   1.018689
   70       -4.702661     -4.466045   1.000367   1.024948
   71       -4.644291     -4.407399   1.001440   1.035209
   72       -4.626286     -4.364166   1.002111   1.029562
   73       -4.575292     -4.339173   1.005601   1.015485
   74       -4.520707     -4.273984   1.013209   0.919573
   75       -4.515084     -4.262680   1.014258   0.892538
   76       -4.494362     -4.244279   1.018508   0.841705
   77       -4.473216     -4.182279   1.023289   0.617604
   78       -4.444139     -4.128296   1.029820   0.391484
   79       -4.414249     -4.080469   1.034665   0.210344
   80       -4.391687     -4.032107   1.035233   0.075386
   81       -4.359610     -4.006221   1.027720   0.026996
   82       -4.256579     -3.927358   0.876613  -0.034030
   83       -4.192095     -3.907301   0.657275  -0.035444
   84       -4.098150     -3.873865   0.272915  -0.031714
   85       -3.873286     -3.689626  -0.031607  -0.002463
   86       -3.524094     -3.367864  -0.000039  -0.000000
   87       -3.193076     -3.052489  -0.000000  -0.000000
   88       -2.919859     -2.796522  -0.000000  -0.000000
   89       -2.508925     -2.386511  -0.000000  -0.000000
   90       -2.150738     -2.042050  -0.000000  -0.000000
   91       -1.931059     -1.826577  -0.000000  -0.000000
   92       -1.732004     -1.646203  -0.000000  -0.000000
   93       -1.430629     -1.325343  -0.000000  -0.000000
   94       -1.406005     -1.324885  -0.000000  -0.000000
   95       -1.218582     -1.138208  -0.000000  -0.000000
   96       -0.922967     -0.855053  -0.000000  -0.000000
   97       -0.638400     -0.557173  -0.000000  -0.000000
   98       -0.467157     -0.399246  -0.000000  -0.000000
   99       -0.323555     -0.269286  -0.000000  -0.000000
  100       -0.192567     -0.129550  -0.000000  -0.000000
  101       -0.057521      0.001890  -0.000000  -0.000000
  102        0.133822      0.185315  -0.000000  -0.000000
  103        0.167554      0.220569  -0.000000  -0.000000
  104        0.246261      0.306309  -0.000000  -0.000000
