       N       E                     dE             d eps       ncg     rms          rms(c)
DAV:   1     0.141336883199E+04    0.14134E+04   -0.26911E+04   416   0.731E+02
DAV:   2     0.740605032422E+03   -0.67276E+03   -0.60212E+03   800   0.877E+01
DAV:   3     0.139331520539E+03   -0.60127E+03   -0.55886E+03   688   0.823E+01
DAV:   4    -0.414970302272E+02   -0.18083E+03   -0.16570E+03   584   0.503E+01
DAV:   5    -0.641482691791E+02   -0.22651E+02   -0.17821E+02   568   0.174E+01    0.237E+01
DAV:   6    -0.550732465815E+02    0.90750E+01   -0.41903E+01   440   0.144E+01    0.131E+01
DAV:   7    -0.530375879505E+02    0.20357E+01   -0.20261E+01   456   0.297E+01    0.220E+01
DAV:   8    -0.480544763630E+02    0.49831E+01   -0.13221E+01   456   0.240E+01    0.139E+01
DAV:   9    -0.474727311885E+02    0.58175E+00   -0.12371E+01   464   0.159E+01    0.997E+00
DAV:  10    -0.482499525963E+02   -0.77722E+00   -0.50777E+00   464   0.117E+01    0.754E+00
DAV:  11    -0.493338048445E+02   -0.10839E+01   -0.17493E+00   448   0.844E+00    0.527E+00
DAV:  12    -0.505230229015E+02   -0.11892E+01   -0.86523E-01   448   0.462E+00    0.293E+00
DAV:  13    -0.530577792437E+02   -0.25348E+01   -0.94459E-01   440   0.353E+00    0.232E+00
DAV:  14    -0.550234200230E+02   -0.19656E+01   -0.64955E-01   456   0.318E+00    0.231E+00
DAV:  15    -0.557753936937E+02   -0.75197E+00   -0.19626E-01   456   0.232E+00    0.153E+00
DAV:  16    -0.565475812197E+02   -0.77219E+00   -0.12732E-01   440   0.167E+00    0.127E+00
DAV:  17    -0.574435800161E+02   -0.89600E+00   -0.14322E-01   448   0.128E+00    0.992E-01
DAV:  18    -0.579454215036E+02   -0.50184E+00   -0.56923E-02   456   0.958E-01    0.916E-01
DAV:  19    -0.587780173611E+02   -0.83260E+00   -0.98861E-02   440   0.915E-01    0.733E-01
DAV:  20    -0.595496593312E+02   -0.77164E+00   -0.88438E-02   448   0.909E-01    0.740E-01
DAV:  21    -0.601500882282E+02   -0.60043E+00   -0.66660E-02   448   0.798E-01    0.644E-01
DAV:  22    -0.606466642050E+02   -0.49658E+00   -0.68461E-02   440   0.787E-01    0.580E-01
DAV:  23    -0.610132046165E+02   -0.36654E+00   -0.30878E-02   480   0.642E-01    0.378E-01
DAV:  24    -0.613929129727E+02   -0.37971E+00   -0.15737E-02   448   0.435E-01    0.271E-01
DAV:  25    -0.616580614791E+02   -0.26515E+00   -0.84614E-03   488   0.340E-01    0.232E-01
DAV:  26    -0.619835659981E+02   -0.32550E+00   -0.10696E-02   440   0.330E-01    0.166E-01
DAV:  27    -0.621320000680E+02   -0.14843E+00   -0.43016E-03   496   0.232E-01    0.147E-01
DAV:  28    -0.622277376437E+02   -0.95738E-01   -0.22465E-03   448   0.188E-01    0.918E-02
DAV:  29    -0.623373600815E+02   -0.10962E+00   -0.28990E-03   480   0.129E-01    0.662E-02
DAV:  30    -0.623891210328E+02   -0.51761E-01   -0.10402E-03   424   0.101E-01    0.644E-02
DAV:  31    -0.624200121041E+02   -0.30891E-01   -0.56441E-04   384   0.840E-02    0.359E-02
DAV:  32    -0.624396104770E+02   -0.19598E-01   -0.23409E-04   344   0.441E-02    0.281E-02
DAV:  33    -0.624492855389E+02   -0.96751E-02   -0.82051E-05   304   0.397E-02    0.216E-02
DAV:  34    -0.624594235742E+02   -0.10138E-01   -0.92249E-05   320   0.281E-02    0.137E-02
DAV:  35    -0.624662542064E+02   -0.68306E-02   -0.54666E-05   296   0.154E-02    0.105E-02
DAV:  36    -0.624690006118E+02   -0.27464E-02   -0.23026E-05   296   0.126E-02    0.787E-03
DAV:  37    -0.624708376255E+02   -0.18370E-02   -0.17240E-05   280   0.129E-02    0.735E-03
DAV:  38    -0.624721642567E+02   -0.13266E-02   -0.12429E-05   280   0.995E-03    0.409E-03
DAV:  39    -0.624731430240E+02   -0.97877E-03   -0.83787E-06   280   0.516E-03    0.274E-03
DAV:  40    -0.624738746964E+02   -0.73167E-03   -0.46792E-06   264   0.410E-03    0.192E-03
DAV:  41    -0.624742974353E+02   -0.42274E-03   -0.27054E-06   264   0.343E-03    0.155E-03
DAV:  42    -0.624744289149E+02   -0.13148E-03   -0.11373E-06   256   0.257E-03    0.111E-03
DAV:  43    -0.624745813196E+02   -0.15240E-03   -0.65160E-07   280   0.168E-03    0.739E-04
DAV:  44    -0.624747271934E+02   -0.14587E-03   -0.61884E-07   280   0.146E-03    0.534E-04
DAV:  45    -0.624748190635E+02   -0.91870E-04   -0.46606E-07   280   0.126E-03
   1 F= -.62474819E+02 E0= -.62484488E+02  d E =-.624748E+02  mag=     5.9569
       N       E                     dE             d eps       ncg     rms          rms(c)
DAV:   1    -0.624750822988E+02   -0.35511E-03   -0.12602E-01   448   0.926E-01    0.605E-02
DAV:   2    -0.624753546741E+02   -0.27238E-03   -0.23954E-03   456   0.200E-01    0.161E-01
DAV:   3    -0.624752138742E+02    0.14080E-03   -0.78592E-04   328   0.159E-01    0.583E-02
DAV:   4    -0.624752349010E+02   -0.21027E-04   -0.16773E-04   264   0.690E-02
   2 F= -.62475235E+02 E0= -.62484934E+02  d E =-.415838E-03  mag=     5.9572
       N       E                     dE             d eps       ncg     rms          rms(c)
DAV:   1    -0.624752729221E+02   -0.59048E-04   -0.11119E-01   448   0.871E-01    0.592E-02
DAV:   2    -0.624754682330E+02   -0.19531E-03   -0.19904E-03   456   0.177E-01    0.139E-01
DAV:   3    -0.624753699308E+02    0.98302E-04   -0.61690E-04   272   0.137E-01
   3 F= -.62475370E+02 E0= -.62485031E+02  d E =-.550867E-03  mag=     5.9579
