unknown system                          
            1
    25.521137    0.000000    0.000000
     0.000000   25.851367    0.000000
     0.000000    0.000000   21.963076
   Pd
    16
Direct configuration=     1
   0.47023624  0.48105866  0.53990836
   0.50872603  0.57510549  0.53225939
   0.37342628  0.47361511  0.50136918
   0.53680394  0.49988930  0.43445669
   0.45328987  0.43805459  0.41805598
   0.60464242  0.56344796  0.48381839
   0.44315356  0.53939072  0.43531862
   0.36688672  0.48738733  0.38316305
   0.53318928  0.41091733  0.49492481
   0.34713069  0.56830165  0.46200164
   0.62508129  0.45979885  0.47254349
   0.52379049  0.60226863  0.41663230
   0.43367562  0.63289606  0.47819249
   0.56981849  0.49438796  0.56501984
   0.40746958  0.56149054  0.56103101
   0.43211067  0.38872480  0.51957672
Direct configuration=     2
   0.47017473  0.48102591  0.53993183
   0.50871747  0.57515001  0.53220100
   0.37340332  0.47361975  0.50138130
   0.53677354  0.49988312  0.43445578
   0.45333398  0.43804273  0.41802161
   0.60463899  0.56343435  0.48381502
   0.44312668  0.53935958  0.43530597
   0.36690828  0.48738601  0.38314389
   0.53319418  0.41094021  0.49492622
   0.34709611  0.56833119  0.46202176
   0.62505985  0.45980117  0.47253359
   0.52383874  0.60226451  0.41667211
   0.43369740  0.63293534  0.47819730
   0.56984227  0.49439474  0.56501684
   0.40749411  0.56143243  0.56103206
   0.43213150  0.38873391  0.51961568
Direct configuration=     3
   0.47011719  0.48099527  0.53995380
   0.50870946  0.57519166  0.53214636
   0.37338183  0.47362410  0.50139264
   0.53674510  0.49987734  0.43445493
   0.45337527  0.43803164  0.41798945
   0.60463578  0.56342161  0.48381186
   0.44310153  0.53933045  0.43529413
   0.36692845  0.48738477  0.38312596
   0.53319878  0.41096162  0.49492754
   0.34706375  0.56835884  0.46204059
   0.62503978  0.45980334  0.47252433
   0.52388390  0.60226065  0.41670936
   0.43371778  0.63297210  0.47820180
   0.56986452  0.49440109  0.56501403
   0.40751706  0.56137805  0.56103305
   0.43215099  0.38874244  0.51965214
