   7   7   0   0
  0.1589676E+04  0.2254454E-08  0.2183981E-08  0.2260041E-08  0.5000000E-15
   1.0000000000000000E-004
  CAR 
 unknown system                          
      1.17351966    -14.32442372  301     -4.00584834      1.00000000
    -14.324  0.0000E+00  0.0000E+00  0.0000E+00  0.0000E+00
    -14.273  0.0000E+00  0.0000E+00  0.0000E+00  0.0000E+00
    -14.221  0.0000E+00  0.0000E+00  0.0000E+00  0.0000E+00
    -14.169  0.0000E+00  0.0000E+00  0.0000E+00  0.0000E+00
    -14.118  0.0000E+00  0.0000E+00  0.0000E+00  0.0000E+00
    -14.066  0.0000E+00  0.0000E+00  0.0000E+00  0.0000E+00
    -14.014  0.0000E+00  0.0000E+00  0.0000E+00  0.0000E+00
    -13.963 -0.3208E-30  0.0000E+00 -0.1657E-31  0.0000E+00
    -13.911 -0.1969E-28  0.0000E+00 -0.1034E-29  0.0000E+00
    -13.859 -0.1071E-26 -0.1841E-30 -0.5637E-28 -0.9508E-32
    -13.808 -0.5091E-25 -0.1150E-28 -0.2687E-26 -0.6037E-30
    -13.756 -0.2114E-23 -0.6369E-27 -0.1119E-24 -0.3351E-28
    -13.705 -0.7670E-22 -0.3082E-25 -0.4074E-23 -0.1626E-26
    -13.653 -0.2430E-20 -0.1303E-23 -0.1296E-21 -0.6893E-25
    -13.601 -0.6723E-19 -0.4811E-22 -0.3603E-20 -0.2554E-23
    -13.550 -0.1624E-17 -0.1552E-20 -0.8749E-19 -0.8272E-22
    -13.498 -0.3316E-16 -0.4371E-19 -0.1801E-17 -0.2341E-20
    -13.446 -0.6104E-15 -0.1075E-17 -0.3333E-16 -0.5787E-19
    -13.395 -0.9754E-14 -0.2200E-16 -0.5372E-15 -0.1194E-17
    -13.343 -0.1360E-12 -0.4192E-15 -0.7561E-14 -0.2285E-16
    -13.291 -0.1650E-11 -0.6819E-14 -0.9282E-13 -0.3751E-15
    -13.240 -0.1744E-10 -0.9678E-13 -0.9935E-12 -0.5375E-14
    -13.188 -0.1602E-09 -0.1196E-11 -0.9268E-11 -0.6718E-13
    -13.136 -0.1278E-08 -0.1287E-10 -0.7530E-10 -0.7323E-12
    -13.085 -0.8848E-08 -0.1205E-09 -0.5324E-09 -0.6956E-11
    -13.033 -0.5303E-07 -0.9795E-09 -0.3272E-08 -0.5756E-10
    -12.981 -0.2746E-06 -0.6910E-08 -0.1746E-07 -0.4145E-09
    -12.930 -0.1225E-05 -0.4222E-07 -0.8073E-07 -0.2595E-08
    -12.878 -0.4683E-05 -0.2229E-06 -0.3227E-06 -0.1411E-07
    -12.826 -0.1525E-04 -0.1014E-05 -0.1111E-05 -0.6650E-07
    -12.775 -0.4186E-04 -0.3959E-05 -0.3273E-05 -0.2710E-06
    -12.723 -0.9506E-04 -0.1318E-04 -0.8184E-05 -0.9517E-06
    -12.671 -0.1721E-03 -0.3702E-04 -0.1707E-04 -0.2864E-05
    -12.620 -0.2251E-03 -0.8633E-04 -0.2870E-04 -0.7324E-05
    -12.568 -0.1306E-03 -0.1616E-03 -0.3545E-04 -0.1567E-04
    -12.516  0.2913E-03 -0.2231E-03 -0.2040E-04 -0.2719E-04
    -12.465  0.1163E-02 -0.1579E-03  0.3970E-04 -0.3535E-04
    -12.413  0.2384E-02  0.2109E-03  0.1628E-03 -0.2445E-04
    -12.361  0.3558E-02  0.1023E-02  0.3467E-03  0.2839E-04
    -12.310  0.4171E-02  0.2214E-02  0.5622E-03  0.1428E-03
    -12.258  0.3917E-02  0.3425E-02  0.7645E-03  0.3197E-03
    -12.206  0.2925E-02  0.4137E-02  0.9156E-03  0.5335E-03
    -12.155  0.1662E-02  0.4000E-02  0.1001E-02  0.7401E-03
    -12.103  0.6099E-03  0.3083E-02  0.1033E-02  0.8994E-03
    -12.051  0.1678E-06  0.1825E-02  0.1033E-02  0.9937E-03
    -12.000 -0.2126E-03  0.7253E-03  0.1022E-02  0.1031E-02
    -11.948 -0.2031E-03  0.5485E-04  0.1011E-02  0.1034E-02
    -11.896 -0.1266E-03 -0.2013E-03  0.1005E-02  0.1024E-02
    -11.845 -0.6104E-04 -0.2108E-03  0.1002E-02  0.1013E-02
    -11.793 -0.2405E-04 -0.1369E-03  0.1001E-02  0.1006E-02
    -11.741 -0.7936E-05 -0.6804E-04  0.1000E-02  0.1002E-02
    -11.690 -0.2221E-05 -0.2749E-04  0.1000E-02  0.1001E-02
    -11.638 -0.5318E-06 -0.9276E-05  0.1000E-02  0.1000E-02
    -11.586 -0.1095E-06 -0.2652E-05  0.1000E-02  0.1000E-02
    -11.535 -0.1944E-07 -0.6479E-06  0.1000E-02  0.1000E-02
    -11.483 -0.2987E-08 -0.1360E-06  0.1000E-02  0.1000E-02
    -11.431 -0.3978E-09 -0.2463E-07  0.1000E-02  0.1000E-02
    -11.380 -0.4599E-10 -0.3856E-08  0.1000E-02  0.1000E-02
    -11.328 -0.4622E-11 -0.5233E-09  0.1000E-02  0.1000E-02
    -11.276 -0.4042E-12 -0.6164E-10  0.1000E-02  0.1000E-02
    -11.225 -0.3077E-13 -0.6310E-11  0.1000E-02  0.1000E-02
    -11.173 -0.2042E-14 -0.5620E-12  0.1000E-02  0.1000E-02
    -11.122 -0.1203E-15 -0.4357E-13  0.1000E-02  0.1000E-02
    -11.070 -0.4298E-17 -0.2940E-14  0.1000E-02  0.1000E-02
    -11.018 -0.1135E-20 -0.1762E-15  0.1000E-02  0.1000E-02
    -10.967 -0.3236E-19 -0.8596E-17  0.1000E-02  0.1000E-02
    -10.915 -0.8058E-18 -0.3505E-24  0.1000E-02  0.1000E-02
    -10.863 -0.1751E-16 -0.1358E-22  0.1000E-02  0.1000E-02
    -10.812 -0.3214E-15 -0.4596E-21  0.1000E-02  0.1000E-02
    -10.760 -0.5309E-14 -0.1358E-19  0.1000E-02  0.1000E-02
    -10.708 -0.7631E-13 -0.3505E-18  0.1000E-02  0.1000E-02
    -10.657 -0.9555E-12 -0.7896E-17  0.1000E-02  0.1000E-02
    -10.605 -0.1041E-10 -0.1498E-15  0.1000E-02  0.1000E-02
    -10.553 -0.9871E-10 -0.2575E-14  0.1000E-02  0.1000E-02
    -10.502 -0.8130E-09 -0.3836E-13  0.1000E-02  0.1000E-02
    -10.450 -0.5811E-08 -0.4981E-12  0.1000E-02  0.1000E-02
    -10.398 -0.3598E-07 -0.5631E-11  0.1000E-02  0.1000E-02
    -10.347 -0.1925E-06 -0.5538E-10  0.1000E-02  0.1000E-02
    -10.295 -0.8882E-06 -0.4734E-09  0.9999E-03  0.1000E-02
    -10.243 -0.3517E-05 -0.3512E-08  0.9998E-03  0.1000E-02
    -10.192 -0.1188E-04 -0.2259E-07  0.9991E-03  0.1000E-02
    -10.140 -0.3392E-04 -0.1256E-06  0.9974E-03  0.1000E-02
    -10.088 -0.8055E-04 -0.6028E-06  0.9932E-03  0.1000E-02
    -10.037 -0.1542E-03 -0.2486E-05  0.9853E-03  0.9998E-03
     -9.985 -0.2204E-03 -0.8763E-05  0.9739E-03  0.9994E-03
     -9.933 -0.1736E-03 -0.2618E-04  0.9649E-03  0.9980E-03
     -9.882  0.1597E-03 -0.6541E-04  0.9732E-03  0.9946E-03
     -9.830  0.9296E-03 -0.1331E-03  0.1021E-02  0.9878E-03
     -9.778  0.2097E-02 -0.2081E-03  0.1130E-02  0.9770E-03
     -9.727  0.3327E-02 -0.2059E-03  0.1301E-02  0.9664E-03
     -9.675  0.4105E-02  0.3395E-04  0.1513E-02  0.9681E-03
     -9.623  0.4050E-02  0.6820E-03  0.1723E-02  0.1003E-02
     -9.572  0.3189E-02  0.1765E-02  0.1887E-02  0.1095E-02
     -9.520  0.1939E-02  0.3025E-02  0.1988E-02  0.1251E-02
     -9.468  0.8038E-03  0.3970E-02  0.2029E-02  0.1456E-02
     -9.417  0.7625E-04  0.4146E-02  0.2033E-02  0.1670E-02
     -9.365 -0.2498E-03  0.3454E-02  0.2020E-02  0.1849E-02
     -9.313 -0.3536E-03  0.2217E-02  0.2002E-02  0.1963E-02
     -9.262 -0.4081E-03  0.9330E-03  0.1981E-02  0.2011E-02
     -9.210 -0.4554E-03 -0.3320E-04  0.1957E-02  0.2010E-02
     -9.158 -0.3543E-03 -0.5498E-03  0.1939E-02  0.1981E-02
     -9.107  0.1896E-03 -0.5740E-03  0.1949E-02  0.1951E-02
     -9.055  0.1468E-02  0.2383E-04  0.2025E-02  0.1953E-02
     -9.003  0.3497E-02  0.1426E-02  0.2205E-02  0.2026E-02
     -8.952  0.5812E-02  0.3597E-02  0.2505E-02  0.2212E-02
     -8.900  0.7557E-02  0.6018E-02  0.2896E-02  0.2523E-02
     -8.848  0.7954E-02  0.7779E-02  0.3307E-02  0.2925E-02
     -8.797  0.6814E-02  0.8078E-02  0.3659E-02  0.3342E-02
     -8.745  0.4669E-02  0.6774E-02  0.3900E-02  0.3692E-02
     -8.694  0.2408E-02  0.4493E-02  0.4024E-02  0.3924E-02
     -8.642  0.7324E-03  0.2189E-02  0.4062E-02  0.4037E-02
     -8.590 -0.1405E-03  0.5581E-03  0.4055E-02  0.4066E-02
     -8.539 -0.3912E-03 -0.2333E-03  0.4035E-02  0.4054E-02
     -8.487 -0.3314E-03 -0.4173E-03  0.4018E-02  0.4033E-02
     -8.435 -0.1966E-03 -0.3244E-03  0.4007E-02  0.4016E-02
     -8.384 -0.9237E-04 -0.1824E-03  0.4003E-02  0.4006E-02
     -8.332 -0.3589E-04 -0.8191E-04  0.4001E-02  0.4002E-02
     -8.280 -0.1177E-04 -0.3053E-04  0.4000E-02  0.4001E-02
     -8.229 -0.3292E-05 -0.9614E-05  0.4000E-02  0.4000E-02
     -8.177 -0.7912E-06 -0.2585E-05  0.4000E-02  0.4000E-02
     -8.125 -0.1641E-06 -0.5975E-06  0.4000E-02  0.4000E-02
     -8.074 -0.2944E-07 -0.1192E-06  0.4000E-02  0.4000E-02
     -8.022 -0.4581E-08 -0.2058E-07  0.4000E-02  0.4000E-02
     -7.970 -0.6192E-09 -0.3082E-08  0.4000E-02  0.4000E-02
     -7.919 -0.7277E-10 -0.4011E-09  0.4000E-02  0.4000E-02
     -7.867 -0.7445E-11 -0.4542E-10  0.4000E-02  0.4000E-02
     -7.815 -0.6634E-12 -0.4477E-11  0.4000E-02  0.4000E-02
     -7.764 -0.5204E-13 -0.3845E-12  0.4000E-02  0.4000E-02
     -7.712 -0.1173E-13 -0.2880E-13  0.4000E-02  0.4000E-02
     -7.660 -0.1162E-12 -0.1883E-14  0.4000E-02  0.4000E-02
     -7.609 -0.1420E-11 -0.1075E-15  0.4000E-02  0.4000E-02
     -7.557 -0.1513E-10 -0.4335E-17  0.4000E-02  0.4000E-02
     -7.505 -0.1402E-09 -0.9004E-18  0.4000E-02  0.4000E-02
     -7.454 -0.1129E-08 -0.1840E-16  0.4000E-02  0.4000E-02
     -7.402 -0.7881E-08 -0.3568E-15  0.4000E-02  0.4000E-02
     -7.350 -0.4767E-07 -0.5846E-14  0.4000E-02  0.4000E-02
     -7.299 -0.2491E-06 -0.8362E-13  0.4000E-02  0.4000E-02
     -7.247 -0.1121E-05 -0.1042E-11  0.4000E-02  0.4000E-02
     -7.195 -0.4330E-05 -0.1130E-10  0.4000E-02  0.4000E-02
     -7.144 -0.1425E-04 -0.1066E-09  0.3999E-02  0.4000E-02
     -7.092 -0.3953E-04 -0.8735E-09  0.3997E-02  0.4000E-02
     -7.040 -0.9090E-04 -0.6212E-08  0.3992E-02  0.4000E-02
     -6.989 -0.1672E-03 -0.3826E-07  0.3984E-02  0.4000E-02
     -6.937 -0.2244E-03 -0.2037E-06  0.3972E-02  0.4000E-02
     -6.885 -0.1441E-03 -0.9348E-06  0.3965E-02  0.4000E-02
     -6.834  0.2526E-03 -0.3681E-05  0.3978E-02  0.4000E-02
     -6.782  0.1097E-02 -0.1237E-04  0.4034E-02  0.3999E-02
     -6.730  0.2304E-02 -0.3509E-04  0.4153E-02  0.3997E-02
     -6.679  0.3497E-02 -0.8276E-04  0.4334E-02  0.3993E-02
     -6.627  0.4157E-02 -0.1571E-03  0.4549E-02  0.3985E-02
     -6.575  0.3954E-02 -0.2219E-03  0.4753E-02  0.3973E-02
     -6.524  0.2988E-02 -0.1697E-03  0.4907E-02  0.3965E-02
     -6.472  0.1702E-02  0.1719E-03  0.4995E-02  0.3974E-02
     -6.420  0.5708E-03  0.9418E-03  0.5025E-02  0.4022E-02
     -6.369 -0.1692E-03  0.2076E-02  0.5016E-02  0.4129E-02
     -6.317 -0.5309E-03  0.3213E-02  0.4989E-02  0.4295E-02
     -6.265 -0.5818E-03  0.3830E-02  0.4958E-02  0.4493E-02
     -6.214 -0.2530E-03  0.3622E-02  0.4945E-02  0.4680E-02
     -6.162  0.6698E-03  0.2827E-02  0.4980E-02  0.4826E-02
     -6.111  0.2337E-02  0.2186E-02  0.5101E-02  0.4939E-02
     -6.059  0.4550E-02  0.2487E-02  0.5336E-02  0.5068E-02
     -6.007  0.6657E-02  0.3975E-02  0.5680E-02  0.5273E-02
     -5.956  0.7818E-02  0.6074E-02  0.6084E-02  0.5587E-02
     -5.904  0.7507E-02  0.7682E-02  0.6471E-02  0.5984E-02
     -5.852  0.5871E-02  0.7870E-02  0.6775E-02  0.6390E-02
     -5.801  0.3629E-02  0.6489E-02  0.6962E-02  0.6726E-02
     -5.749  0.1608E-02  0.4201E-02  0.7045E-02  0.6943E-02
     -5.697  0.2953E-03  0.1963E-02  0.7061E-02  0.7044E-02
     -5.646 -0.2829E-03  0.4305E-03  0.7046E-02  0.7066E-02
     -5.594 -0.3828E-03 -0.2796E-03  0.7026E-02  0.7052E-02
     -5.542 -0.2970E-03 -0.4247E-03  0.7011E-02  0.7030E-02
     -5.491 -0.2187E-03 -0.3382E-03  0.6999E-02  0.7012E-02
     -5.439 -0.2337E-03 -0.2502E-03  0.6987E-02  0.6999E-02
     -5.387 -0.3522E-03 -0.2635E-03  0.6969E-02  0.6986E-02
     -5.336 -0.5028E-03 -0.3879E-03  0.6943E-02  0.6966E-02
     -5.284 -0.4807E-03 -0.5362E-03  0.6918E-02  0.6938E-02
     -5.232  0.7799E-04 -0.4724E-03  0.6922E-02  0.6914E-02
     -5.181  0.1580E-02  0.2024E-03  0.7004E-02  0.6924E-02
     -5.129  0.4180E-02  0.1901E-02  0.7220E-02  0.7022E-02
     -5.077  0.7451E-02  0.4713E-02  0.7605E-02  0.7266E-02
     -5.026  0.1036E-01  0.8085E-02  0.8140E-02  0.7684E-02
     -4.974  0.1170E-01  0.1086E-01  0.8745E-02  0.8245E-02
     -4.922  0.1086E-01  0.1185E-01  0.9305E-02  0.8857E-02
     -4.871  0.8189E-02  0.1057E-01  0.9728E-02  0.9402E-02
     -4.819  0.4827E-02  0.7600E-02  0.9978E-02  0.9795E-02
     -4.767  0.1957E-02  0.4195E-02  0.1008E-01  0.1001E-01
     -4.716  0.1942E-03  0.1489E-02  0.1009E-01  0.1009E-01
     -4.664 -0.5176E-03 -0.3900E-04  0.1006E-01  0.1009E-01
     -4.612 -0.6031E-03 -0.5612E-03  0.1003E-01  0.1006E-01
     -4.561 -0.4831E-03 -0.5296E-03  0.1001E-01  0.1003E-01
     -4.509 -0.3808E-03 -0.3317E-03  0.9986E-02  0.1001E-01
     -4.457 -0.3023E-03 -0.1619E-03  0.9971E-02  0.1000E-01
     -4.406 -0.9570E-04 -0.6485E-04  0.9966E-02  0.1000E-01
     -4.354  0.4462E-03 -0.2182E-04  0.9989E-02  0.1000E-01
     -4.302  0.1426E-02 -0.6242E-05  0.1006E-01  0.1000E-01
     -4.251  0.2682E-02 -0.1530E-05  0.1020E-01  0.1000E-01
     -4.199  0.3770E-02 -0.3236E-06  0.1040E-01  0.1000E-01
     -4.147  0.4192E-02 -0.6385E-07  0.1061E-01  0.1000E-01
     -4.096  0.3737E-02 -0.4040E-07  0.1081E-01  0.1000E-01
     -4.044  0.2632E-02 -0.1700E-06  0.1094E-01  0.1000E-01
     -3.992  0.1381E-02 -0.7900E-06  0.1101E-01  0.1000E-01
     -3.941  0.4212E-03 -0.3179E-05  0.1103E-01  0.1000E-01
     -3.889 -0.9282E-04 -0.1095E-04  0.1103E-01  0.9999E-02
     -3.837 -0.2611E-03 -0.3206E-04  0.1102E-01  0.9998E-02
     -3.786 -0.2776E-03 -0.7883E-04  0.1100E-01  0.9993E-02
     -3.734 -0.2879E-03 -0.1596E-03  0.1099E-01  0.9985E-02
     -3.683 -0.3252E-03 -0.2552E-03  0.1097E-01  0.9972E-02
     -3.631 -0.2975E-03 -0.2855E-03  0.1095E-01  0.9957E-02
     -3.579 -0.9379E-05 -0.9893E-04  0.1095E-01  0.9952E-02
     -3.528  0.7554E-03  0.4800E-03  0.1099E-01  0.9977E-02
     -3.476  0.2085E-02  0.1551E-02  0.1110E-01  0.1006E-01
     -3.424  0.3800E-02  0.3067E-02  0.1130E-01  0.1022E-01
     -3.373  0.5456E-02  0.4854E-02  0.1158E-01  0.1047E-01
     -3.321  0.6531E-02  0.6676E-02  0.1192E-01  0.1081E-01
     -3.269  0.6712E-02  0.8239E-02  0.1226E-01  0.1124E-01
     -3.218  0.6093E-02  0.9172E-02  0.1258E-01  0.1171E-01
     -3.166  0.5149E-02  0.9167E-02  0.1284E-01  0.1218E-01
     -3.114  0.4428E-02  0.8254E-02  0.1307E-01  0.1261E-01
     -3.063  0.4174E-02  0.6891E-02  0.1329E-01  0.1297E-01
     -3.011  0.4160E-02  0.5650E-02  0.1350E-01  0.1326E-01
     -2.959  0.3920E-02  0.4764E-02  0.1371E-01  0.1350E-01
     -2.908  0.3168E-02  0.4026E-02  0.1387E-01  0.1371E-01
     -2.856  0.2023E-02  0.3125E-02  0.1397E-01  0.1387E-01
     -2.804  0.8585E-03  0.2011E-02  0.1402E-01  0.1398E-01
     -2.753 -0.8428E-05  0.9155E-03  0.1402E-01  0.1403E-01
     -2.701 -0.4676E-03  0.9356E-04  0.1399E-01  0.1403E-01
     -2.649 -0.5261E-03 -0.3786E-03  0.1397E-01  0.1401E-01
     -2.598 -0.1423E-03 -0.5735E-03  0.1396E-01  0.1398E-01
     -2.546  0.8054E-03 -0.5308E-03  0.1400E-01  0.1395E-01
     -2.494  0.2368E-02 -0.1247E-03  0.1412E-01  0.1395E-01
     -2.443  0.4328E-02  0.8849E-03  0.1435E-01  0.1399E-01
     -2.391  0.6158E-02  0.2620E-02  0.1467E-01  0.1413E-01
     -2.339  0.7217E-02  0.4822E-02  0.1504E-01  0.1438E-01
     -2.288  0.7094E-02  0.6812E-02  0.1540E-01  0.1473E-01
     -2.236  0.5838E-02  0.7784E-02  0.1571E-01  0.1513E-01
     -2.184  0.3935E-02  0.7298E-02  0.1591E-01  0.1551E-01
     -2.133  0.2030E-02  0.5568E-02  0.1601E-01  0.1580E-01
     -2.081  0.5981E-03  0.3315E-02  0.1605E-01  0.1597E-01
     -2.029 -0.2189E-03  0.1315E-02  0.1603E-01  0.1604E-01
     -1.978 -0.5288E-03  0.1785E-04  0.1601E-01  0.1604E-01
     -1.926 -0.4770E-03 -0.4992E-03  0.1598E-01  0.1601E-01
     -1.874 -0.8871E-04 -0.3328E-03  0.1598E-01  0.1599E-01
     -1.823  0.7043E-03  0.4170E-03  0.1601E-01  0.1601E-01
     -1.771  0.1879E-02  0.1616E-02  0.1611E-01  0.1610E-01
     -1.719  0.3154E-02  0.2954E-02  0.1627E-01  0.1625E-01
     -1.668  0.4036E-02  0.3944E-02  0.1648E-01  0.1645E-01
     -1.616  0.4112E-02  0.4148E-02  0.1669E-01  0.1667E-01
     -1.564  0.3350E-02  0.3483E-02  0.1687E-01  0.1685E-01
     -1.513  0.2123E-02  0.2288E-02  0.1698E-01  0.1697E-01
     -1.461  0.9493E-03  0.1083E-02  0.1703E-01  0.1702E-01
     -1.409  0.1659E-03  0.2431E-03  0.1703E-01  0.1704E-01
     -1.358 -0.1870E-03 -0.1545E-03  0.1703E-01  0.1703E-01
     -1.306 -0.2663E-03 -0.2483E-03  0.1701E-01  0.1701E-01
     -1.254 -0.2568E-03 -0.2273E-03  0.1700E-01  0.1700E-01
     -1.203 -0.2605E-03 -0.2167E-03  0.1698E-01  0.1699E-01
     -1.151 -0.2598E-03 -0.2422E-03  0.1697E-01  0.1698E-01
     -1.100 -0.1223E-03 -0.2266E-03  0.1696E-01  0.1697E-01
     -1.048  0.3438E-03 -0.4097E-05  0.1698E-01  0.1697E-01
     -0.996  0.1256E-02  0.6088E-03  0.1705E-01  0.1700E-01
     -0.945  0.2492E-02  0.1662E-02  0.1718E-01  0.1708E-01
     -0.893  0.3639E-02  0.2925E-02  0.1736E-01  0.1724E-01
     -0.841  0.4185E-02  0.3917E-02  0.1758E-01  0.1744E-01
     -0.790  0.3856E-02  0.4171E-02  0.1778E-01  0.1765E-01
     -0.738  0.2820E-02  0.3558E-02  0.1793E-01  0.1784E-01
     -0.686  0.1559E-02  0.2384E-02  0.1801E-01  0.1796E-01
     -0.635  0.5400E-03  0.1163E-02  0.1803E-01  0.1802E-01
     -0.583 -0.3124E-04  0.2913E-03  0.1803E-01  0.1804E-01
     -0.531 -0.2178E-03 -0.1306E-03  0.1802E-01  0.1803E-01
     -0.480 -0.1976E-03 -0.2251E-03  0.1801E-01  0.1802E-01
     -0.428 -0.1200E-03 -0.1721E-03  0.1800E-01  0.1801E-01
     -0.376 -0.5681E-04 -0.9506E-04  0.1800E-01  0.1800E-01
     -0.325 -0.2204E-04 -0.4186E-04  0.1800E-01  0.1800E-01
     -0.273 -0.7167E-05 -0.1525E-04  0.1800E-01  0.1800E-01
     -0.221 -0.1979E-05 -0.4683E-05  0.1800E-01  0.1800E-01
     -0.170 -0.4677E-06 -0.1225E-05  0.1800E-01  0.1800E-01
     -0.118 -0.9505E-07 -0.2746E-06  0.1800E-01  0.1800E-01
     -0.066 -0.1667E-07 -0.5303E-07  0.1800E-01  0.1800E-01
     -0.015 -0.2530E-08 -0.8848E-08  0.1800E-01  0.1800E-01
      0.037 -0.3330E-09 -0.1278E-08  0.1800E-01  0.1800E-01
      0.089 -0.3804E-10 -0.1602E-09  0.1800E-01  0.1800E-01
      0.140 -0.3778E-11 -0.1744E-10  0.1800E-01  0.1800E-01
      0.192 -0.3265E-12 -0.1650E-11  0.1800E-01  0.1800E-01
      0.244 -0.2457E-13 -0.1360E-12  0.1800E-01  0.1800E-01
      0.295 -0.1612E-14 -0.9757E-14  0.1800E-01  0.1800E-01
      0.347 -0.9026E-16 -0.6103E-15  0.1800E-01  0.1800E-01
      0.399 -0.4298E-17 -0.3439E-16  0.1800E-01  0.1800E-01
      0.450  0.0000E+00  0.0000E+00  0.1800E-01  0.1800E-01
      0.502  0.0000E+00  0.0000E+00  0.1800E-01  0.1800E-01
      0.554  0.0000E+00  0.0000E+00  0.1800E-01  0.1800E-01
      0.605  0.0000E+00  0.0000E+00  0.1800E-01  0.1800E-01
      0.657  0.0000E+00  0.0000E+00  0.1800E-01  0.1800E-01
      0.709  0.0000E+00  0.0000E+00  0.1800E-01  0.1800E-01
      0.760  0.0000E+00  0.0000E+00  0.1800E-01  0.1800E-01
      0.812  0.0000E+00  0.0000E+00  0.1800E-01  0.1800E-01
      0.864  0.0000E+00  0.0000E+00  0.1800E-01  0.1800E-01
      0.915  0.0000E+00  0.0000E+00  0.1800E-01  0.1800E-01
      0.967  0.0000E+00  0.0000E+00  0.1800E-01  0.1800E-01
      1.019  0.0000E+00  0.0000E+00  0.1800E-01  0.1800E-01
      1.070  0.0000E+00  0.0000E+00  0.1800E-01  0.1800E-01
      1.122  0.0000E+00  0.0000E+00  0.1800E-01  0.1800E-01
      1.174  0.0000E+00  0.0000E+00  0.1800E-01  0.1800E-01
