    7    7 1000    2
  0.1589676E+04  0.2254454E-08  0.2183981E-08  0.2260041E-08  0.5000000E-15
   1.0000000000000000E-004
  CAR 
 unknown system                          
     21      1     18
 
  0.1262379E-14  0.1262379E-14  0.1262379E-14  0.1000000E+01
    1      -12.324424    -12.214284   1.000000   1.000000
    2       -9.678215     -9.457987   1.000000   1.000000
    3       -8.920753     -8.864545   1.000000   1.000000
    4       -8.853672     -8.814179   1.000000   1.000000
    5       -6.638645     -6.270490   1.000000   1.000000
    6       -6.004570     -5.925423   1.000000   1.000000
    7       -5.927548     -5.875194   1.000000   1.000000
    8       -5.054144     -5.006796   1.000000   1.000000
    9       -4.971162     -4.930701   1.000000   1.000000
   10       -4.961139     -4.921580   1.000000   1.000000
   11       -4.174296     -3.371376   1.000078  -0.000034
   12       -3.378660     -3.205496  -0.000043  -0.000000
   13       -3.245935     -3.171995  -0.000001  -0.000000
   14       -3.000414     -2.943150  -0.000000  -0.000000
   15       -2.401695     -2.294211  -0.000000  -0.000000
   16       -2.287295     -2.211306  -0.000000  -0.000000
   17       -1.663509     -1.656848  -0.000000  -0.000000
   18       -0.860335     -0.826480  -0.000000  -0.000000
