       N       E                     dE             d eps       ncg     rms          rms(c)
DAV:   1     0.456399032148E+02    0.45640E+02   -0.32294E+03   104   0.414E+02
DAV:   2    -0.556327831082E+01   -0.51203E+02   -0.50702E+02   104   0.619E+01
DAV:   3    -0.167364563746E+02   -0.11173E+02   -0.10893E+02    96   0.282E+01
DAV:   4    -0.172841458457E+02   -0.54769E+00   -0.54247E+00    90   0.815E+00
DAV:   5    -0.173067071378E+02   -0.22561E-01   -0.22534E-01   112   0.223E+00    0.559E+00
DAV:   6    -0.127036092581E+02    0.46031E+01   -0.94772E+00    76   0.110E+01    0.283E+00
DAV:   7    -0.897001239187E+01    0.37336E+01   -0.32888E+00    86   0.637E+00    0.157E+00
DAV:   8    -0.996006552477E+01   -0.99005E+00   -0.45256E-01    86   0.318E+00    0.112E+00
DAV:   9    -0.111299714330E+02   -0.11699E+01   -0.31207E-01    92   0.209E+00    0.767E-01
DAV:  10    -0.126310409092E+02   -0.15011E+01   -0.42906E-01    74   0.196E+00    0.576E-01
DAV:  11    -0.138170611592E+02   -0.11860E+01   -0.27114E-01    72   0.153E+00    0.454E-01
DAV:  12    -0.143453000867E+02   -0.52824E+00   -0.67023E-02    92   0.811E-01    0.412E-01
DAV:  13    -0.148143685925E+02   -0.46907E+00   -0.56664E-02    82   0.792E-01    0.357E-01
DAV:  14    -0.153367229984E+02   -0.52235E+00   -0.12316E-01    74   0.120E+00    0.294E-01
DAV:  15    -0.154535281967E+02   -0.11681E+00   -0.69889E-02    86   0.948E-01    0.255E-01
DAV:  16    -0.155224112718E+02   -0.68883E-01   -0.11711E-02    96   0.419E-01    0.252E-01
DAV:  17    -0.155350771090E+02   -0.12666E-01   -0.61401E-04    94   0.113E-01    0.258E-01
DAV:  18    -0.155653362917E+02   -0.30259E-01   -0.87702E-04    74   0.119E-01    0.276E-01
DAV:  19    -0.155646847190E+02    0.65157E-03   -0.51171E-05    38   0.363E-02    0.274E-01
DAV:  20    -0.156239516219E+02   -0.59267E-01   -0.95185E-03    74   0.308E-01    0.222E-01
DAV:  21    -0.159244559301E+02   -0.30050E+00   -0.30568E-01    78   0.153E+00    0.764E-01
DAV:  22    -0.158562393948E+02    0.68217E-01   -0.31994E-02    76   0.635E-01    0.476E-01
DAV:  23    -0.159275018166E+02   -0.71262E-01   -0.21678E-02    74   0.355E-01    0.473E-01
DAV:  24    -0.159542914856E+02   -0.26790E-01   -0.61635E-03    96   0.199E-01    0.322E-01
DAV:  25    -0.159483289849E+02    0.59625E-02   -0.13416E-03    74   0.954E-02    0.322E-01
DAV:  26    -0.159493912084E+02   -0.10622E-02   -0.72156E-05    36   0.300E-02    0.323E-01
DAV:  27    -0.159654267748E+02   -0.16036E-01   -0.23791E-02    78   0.281E-01    0.361E-01
DAV:  28    -0.159657834505E+02   -0.35668E-03   -0.12053E-03    96   0.106E-01    0.366E-01
DAV:  29    -0.159598002967E+02    0.59832E-02   -0.77609E-03    76   0.191E-01    0.286E-01
DAV:  30    -0.159950788075E+02   -0.35279E-01   -0.61271E-02    74   0.499E-01    0.332E-01
DAV:  31    -0.159979755759E+02   -0.28968E-02   -0.15844E-01    78   0.690E-01    0.269E-01
DAV:  32    -0.160060371593E+02   -0.80616E-02   -0.36328E-03    84   0.255E-01    0.223E-01
DAV:  33    -0.160206126894E+02   -0.14576E-01   -0.20193E-02    74   0.264E-01    0.195E-01
DAV:  34    -0.160422175134E+02   -0.21605E-01   -0.47696E-02    74   0.390E-01    0.248E-01
DAV:  35    -0.160686855798E+02   -0.26468E-01   -0.92435E-02    78   0.540E-01    0.205E-01
DAV:  36    -0.160728662061E+02   -0.41806E-02   -0.28180E-03    86   0.203E-01    0.140E-01
DAV:  37    -0.160835812857E+02   -0.10715E-01   -0.12807E-02    76   0.254E-01    0.128E-01
DAV:  38    -0.160848495243E+02   -0.12682E-02   -0.83894E-03    76   0.211E-01    0.404E-02
DAV:  39    -0.160932585776E+02   -0.84091E-02   -0.51055E-03    74   0.149E-01    0.272E-02
DAV:  40    -0.160975966900E+02   -0.43381E-02   -0.26445E-03    86   0.993E-02    0.344E-02
DAV:  41    -0.161007859639E+02   -0.31893E-02   -0.94876E-04    92   0.710E-02    0.350E-02
DAV:  42    -0.161020786939E+02   -0.12927E-02   -0.91440E-04    58   0.594E-02    0.206E-02
DAV:  43    -0.161040092386E+02   -0.19305E-02   -0.12868E-03    76   0.703E-02    0.194E-02
DAV:  44    -0.161048354646E+02   -0.82623E-03   -0.75402E-04    58   0.516E-02    0.132E-02
DAV:  45    -0.161054667660E+02   -0.63130E-03   -0.15121E-04    50   0.301E-02    0.772E-03
DAV:  46    -0.161063762821E+02   -0.90952E-03   -0.24661E-05    58   0.157E-02    0.459E-03
DAV:  47    -0.161069580914E+02   -0.58181E-03   -0.14732E-05    50   0.121E-02    0.320E-03
DAV:  48    -0.161072783401E+02   -0.32025E-03   -0.13424E-05    38   0.976E-03    0.321E-03
DAV:  49    -0.161074753952E+02   -0.19706E-03   -0.66790E-06    40   0.813E-03    0.167E-03
DAV:  50    -0.161075963719E+02   -0.12098E-03   -0.68778E-06    36   0.615E-03    0.269E-03
DAV:  51    -0.161076382665E+02   -0.41895E-04   -0.12372E-06    36   0.387E-03
   1 F= -.16107638E+02 E0= -.16123264E+02  d E =-.161076E+02  mag=     1.0837
       N       E                     dE             d eps       ncg     rms          rms(c)
DAV:   1    -0.161895161663E+02   -0.81920E-01   -0.52013E-01    72   0.359E+00    0.228E-01
DAV:   2    -0.161903911084E+02   -0.87494E-03   -0.31960E-02   104   0.845E-01    0.117E-01
DAV:   3    -0.161895017009E+02    0.88941E-03   -0.29740E-03   100   0.214E-01    0.792E-02
DAV:   4    -0.161892061403E+02    0.29556E-03   -0.74067E-04    74   0.839E-02    0.533E-02
DAV:   5    -0.161888620802E+02    0.34406E-03   -0.98016E-04    76   0.658E-02    0.328E-02
DAV:   6    -0.161884662405E+02    0.39584E-03   -0.16350E-03    74   0.794E-02    0.318E-02
DAV:   7    -0.161884417643E+02    0.24476E-04   -0.85850E-05    36   0.313E-02
   2 F= -.16188442E+02 E0= -.16205462E+02  d E =-.808035E-01  mag=     1.0718
       N       E                     dE             d eps       ncg     rms          rms(c)
DAV:   1    -0.163169740428E+02   -0.12851E+00   -0.46495E+00    74   0.108E+01    0.654E-01
DAV:   2    -0.163236209397E+02   -0.66469E-02   -0.27940E-01   110   0.260E+00    0.344E-01
DAV:   3    -0.163184335519E+02    0.51874E-02   -0.22380E-02    94   0.607E-01    0.239E-01
DAV:   4    -0.163175753955E+02    0.85816E-03   -0.41033E-03   108   0.229E-01    0.158E-01
DAV:   5    -0.163167888968E+02    0.78650E-03   -0.27495E-03    82   0.126E-01    0.802E-02
DAV:   6    -0.163167044931E+02    0.84404E-04   -0.36889E-03    84   0.134E-01    0.403E-02
DAV:   7    -0.163175407821E+02   -0.83629E-03   -0.91332E-04    82   0.747E-02    0.368E-02
DAV:   8    -0.163184950597E+02   -0.95428E-03   -0.13144E-03    92   0.724E-02    0.326E-02
DAV:   9    -0.163193452759E+02   -0.85022E-03   -0.30341E-03    84   0.107E-01    0.295E-02
DAV:  10    -0.163202382335E+02   -0.89296E-03   -0.69810E-03    92   0.160E-01    0.264E-02
DAV:  11    -0.163224410980E+02   -0.22029E-02   -0.66360E-03    86   0.163E-01    0.225E-02
DAV:  12    -0.163247575484E+02   -0.23165E-02   -0.86530E-03    92   0.184E-01    0.149E-02
DAV:  13    -0.163263061925E+02   -0.15486E-02   -0.13515E-03    96   0.942E-02    0.181E-02
DAV:  14    -0.163271685938E+02   -0.86240E-03   -0.29718E-04    58   0.429E-02    0.102E-02
DAV:  15    -0.163281812086E+02   -0.10126E-02   -0.34932E-04    78   0.469E-02    0.540E-03
DAV:  16    -0.163292593752E+02   -0.10782E-02   -0.49159E-05    60   0.287E-02    0.398E-03
DAV:  17    -0.163297212700E+02   -0.46189E-03   -0.15654E-04    50   0.308E-02    0.346E-03
DAV:  18    -0.163303499845E+02   -0.62871E-03   -0.24519E-05    60   0.199E-02    0.190E-03
DAV:  19    -0.163307750691E+02   -0.42508E-03   -0.32741E-05    52   0.177E-02    0.129E-03
DAV:  20    -0.163311307067E+02   -0.35564E-03   -0.16082E-05    52   0.135E-02    0.814E-04
DAV:  21    -0.163312347684E+02   -0.10406E-03   -0.45095E-06    36   0.925E-03    0.802E-04
DAV:  22    -0.163313029146E+02   -0.68146E-04   -0.31902E-06    36   0.742E-03
   3 F= -.16331303E+02 E0= -.16349526E+02  d E =-.223665E+00  mag=     1.0042
       N       E                     dE             d eps       ncg     rms          rms(c)
DAV:   1    -0.163319712360E+02   -0.73647E-03   -0.45363E-02    76   0.108E+00    0.689E-02
DAV:   2    -0.163320697492E+02   -0.98513E-04   -0.28819E-03   102   0.255E-01    0.383E-02
DAV:   3    -0.163319400497E+02    0.12970E-03   -0.23596E-04    68   0.635E-02    0.242E-02
DAV:   4    -0.163317893943E+02    0.15066E-03   -0.13209E-04    52   0.400E-02    0.163E-02
DAV:   5    -0.163316548953E+02    0.13450E-03   -0.83151E-05    38   0.315E-02    0.860E-03
DAV:   6    -0.163315486805E+02    0.10621E-03   -0.90805E-05    42   0.298E-02    0.559E-03
DAV:   7    -0.163315501864E+02   -0.15059E-05   -0.71447E-05    36   0.266E-02
   4 F= -.16331550E+02 E0= -.16349290E+02  d E =-.223912E+00  mag=     1.0059
       N       E                     dE             d eps       ncg     rms          rms(c)
DAV:   1    -0.163763119604E+02   -0.44763E-01   -0.82728E-01    76   0.472E+00    0.332E-01
DAV:   2    -0.163792927033E+02   -0.29807E-02   -0.58306E-02   104   0.109E+00    0.199E-01
DAV:   3    -0.163761013156E+02    0.31914E-02   -0.71493E-03   102   0.315E-01    0.142E-01
DAV:   4    -0.163729183219E+02    0.31830E-02   -0.53384E-03    76   0.184E-01    0.969E-02
DAV:   5    -0.163704014360E+02    0.25169E-02   -0.73014E-03    88   0.195E-01    0.577E-02
DAV:   6    -0.163696943428E+02    0.70709E-03   -0.50659E-03    96   0.160E-01    0.448E-02
DAV:   7    -0.163710147443E+02   -0.13204E-02   -0.30872E-03    82   0.121E-01    0.356E-02
DAV:   8    -0.163732532756E+02   -0.22385E-02   -0.81706E-03    92   0.181E-01    0.235E-02
DAV:   9    -0.163752020466E+02   -0.19488E-02   -0.68226E-04    96   0.795E-02    0.274E-02
DAV:  10    -0.163769727882E+02   -0.17707E-02   -0.59308E-04    68   0.562E-02    0.172E-02
DAV:  11    -0.163797318703E+02   -0.27591E-02   -0.46776E-04    84   0.589E-02    0.120E-02
DAV:  12    -0.163811612731E+02   -0.14294E-02   -0.18744E-04    78   0.357E-02    0.906E-03
DAV:  13    -0.163829491228E+02   -0.17878E-02   -0.33016E-04    76   0.436E-02    0.470E-03
DAV:  14    -0.163844059435E+02   -0.14568E-02   -0.95654E-05    76   0.307E-02    0.390E-03
DAV:  15    -0.163854157748E+02   -0.10098E-02   -0.40800E-05    60   0.227E-02    0.266E-03
DAV:  16    -0.163860210353E+02   -0.60526E-03   -0.13521E-05    50   0.153E-02    0.156E-03
DAV:  17    -0.163865338473E+02   -0.51281E-03   -0.17629E-05    60   0.143E-02    0.106E-03
DAV:  18    -0.163867655047E+02   -0.23166E-03   -0.44496E-06    42   0.943E-03    0.101E-03
DAV:  19    -0.163868946504E+02   -0.12915E-03   -0.27654E-06    36   0.721E-03    0.116E-03
DAV:  20    -0.163869465732E+02   -0.51923E-04   -0.86488E-07    36   0.484E-03
   5 F= -.16386947E+02 E0= -.16401363E+02  d E =-.553964E-01  mag=     1.0515
       N       E                     dE             d eps       ncg     rms          rms(c)
DAV:   1    -0.164089247742E+02   -0.22030E-01   -0.65762E-01    78   0.424E+00    0.298E-01
DAV:   2    -0.164112610759E+02   -0.23363E-02   -0.44995E-02   110   0.980E-01    0.177E-01
DAV:   3    -0.164091320539E+02    0.21290E-02   -0.40501E-03    94   0.267E-01    0.117E-01
DAV:   4    -0.164071956477E+02    0.19364E-02   -0.15603E-03    94   0.126E-01    0.687E-02
DAV:   5    -0.164066289265E+02    0.56672E-03   -0.10755E-03    78   0.963E-02    0.304E-02
DAV:   6    -0.164073020638E+02   -0.67314E-03   -0.35898E-04    78   0.568E-02    0.162E-02
DAV:   7    -0.164087539271E+02   -0.14519E-02   -0.16780E-04    60   0.426E-02    0.107E-02
DAV:   8    -0.164099045378E+02   -0.11506E-02   -0.17094E-04    76   0.382E-02    0.713E-03
DAV:   9    -0.164106114749E+02   -0.70694E-03   -0.89802E-05    70   0.299E-02    0.506E-03
DAV:  10    -0.164112066553E+02   -0.59518E-03   -0.51346E-05    60   0.243E-02    0.341E-03
DAV:  11    -0.164117432363E+02   -0.53658E-03   -0.36391E-05    68   0.206E-02    0.220E-03
DAV:  12    -0.164121624424E+02   -0.41921E-03   -0.20312E-05    60   0.163E-02    0.139E-03
DAV:  13    -0.164124813782E+02   -0.31894E-03   -0.13131E-05    60   0.132E-02    0.928E-04
DAV:  14    -0.164126896187E+02   -0.20824E-03   -0.47995E-06    38   0.938E-03    0.727E-04
DAV:  15    -0.164127935612E+02   -0.10394E-03   -0.25216E-06    38   0.706E-03    0.594E-04
DAV:  16    -0.164128561563E+02   -0.62595E-04   -0.12280E-06    38   0.544E-03
   6 F= -.16412856E+02 E0= -.16425062E+02  d E =-.813060E-01  mag=     1.0674
       N       E                     dE             d eps       ncg     rms          rms(c)
DAV:   1    -0.163696111295E+02    0.43182E-01   -0.25735E+00    78   0.846E+00    0.585E-01
DAV:   2    -0.163779004022E+02   -0.82893E-02   -0.17923E-01   110   0.196E+00    0.344E-01
DAV:   3    -0.163713714212E+02    0.65290E-02   -0.12977E-02   104   0.514E-01    0.229E-01
DAV:   4    -0.163684208515E+02    0.29506E-02   -0.30951E-03   108   0.215E-01    0.128E-01
DAV:   5    -0.163700260132E+02   -0.16052E-02   -0.14736E-03    78   0.134E-01    0.567E-02
DAV:   6    -0.163725195502E+02   -0.24935E-02   -0.49332E-04    94   0.725E-02    0.294E-02
DAV:   7    -0.163749542339E+02   -0.24347E-02   -0.12127E-04    64   0.402E-02    0.192E-02
DAV:   8    -0.163774903840E+02   -0.25362E-02   -0.18379E-04    84   0.407E-02    0.103E-02
DAV:   9    -0.163785461129E+02   -0.10557E-02   -0.46843E-05    62   0.233E-02    0.724E-03
DAV:  10    -0.163794206022E+02   -0.87449E-03   -0.25726E-05    48   0.174E-02    0.528E-03
DAV:  11    -0.163803865068E+02   -0.96590E-03   -0.48367E-05    68   0.192E-02    0.365E-03
DAV:  12    -0.163809528849E+02   -0.56638E-03   -0.25337E-05    60   0.144E-02    0.230E-03
DAV:  13    -0.163813286572E+02   -0.37577E-03   -0.12901E-05    52   0.106E-02    0.141E-03
DAV:  14    -0.163815684305E+02   -0.23977E-03   -0.66834E-06    48   0.760E-03    0.969E-04
DAV:  15    -0.163817277920E+02   -0.15936E-03   -0.31865E-06    40   0.573E-03    0.620E-04
DAV:  16    -0.163818163557E+02   -0.88564E-04   -0.17740E-06    38   0.440E-03
   7 F= -.16381816E+02 E0= -.16391262E+02  d E =-.502662E-01  mag=     1.0723
       N       E                     dE             d eps       ncg     rms          rms(c)
DAV:   1    -0.164091362610E+02   -0.27408E-01   -0.15382E+00    78   0.659E+00    0.467E-01
DAV:   2    -0.164126350237E+02   -0.34988E-02   -0.10677E-01   110   0.153E+00    0.280E-01
DAV:   3    -0.164082719201E+02    0.43631E-02   -0.77232E-03   112   0.408E-01    0.178E-01
DAV:   4    -0.164069600902E+02    0.13118E-02   -0.17890E-03    92   0.168E-01    0.101E-01
DAV:   5    -0.164083432787E+02   -0.13832E-02   -0.99545E-04    84   0.107E-01    0.465E-02
DAV:   6    -0.164099335568E+02   -0.15903E-02   -0.33043E-04    80   0.607E-02    0.211E-02
DAV:   7    -0.164117961620E+02   -0.18626E-02   -0.14138E-04    66   0.393E-02    0.125E-02
DAV:   8    -0.164131739092E+02   -0.13777E-02   -0.13755E-04    68   0.355E-02    0.736E-03
DAV:   9    -0.164138472051E+02   -0.67330E-03   -0.40479E-05    54   0.225E-02    0.565E-03
DAV:  10    -0.164145875641E+02   -0.74036E-03   -0.46108E-05    60   0.212E-02    0.374E-03
DAV:  11    -0.164150613724E+02   -0.47381E-03   -0.32903E-05    68   0.175E-02    0.267E-03
DAV:  12    -0.164153453745E+02   -0.28400E-03   -0.13117E-05    52   0.125E-02    0.180E-03
DAV:  13    -0.164156177585E+02   -0.27238E-03   -0.13973E-05    60   0.113E-02    0.107E-03
DAV:  14    -0.164157964606E+02   -0.17870E-03   -0.51908E-06    42   0.805E-03    0.825E-04
DAV:  15    -0.164158869027E+02   -0.90442E-04   -0.28425E-06    36   0.566E-03
   8 F= -.16415887E+02 E0= -.16427374E+02  d E =-.843367E-01  mag=     1.0700
       N       E                     dE             d eps       ncg     rms          rms(c)
DAV:   1    -0.164623990542E+02   -0.46603E-01   -0.96576E-01    74   0.485E+00    0.393E-01
DAV:   2    -0.164656776721E+02   -0.32786E-02   -0.74897E-02   110   0.118E+00    0.247E-01
DAV:   3    -0.164571868212E+02    0.84909E-02   -0.93179E-03    92   0.368E-01    0.155E-01
DAV:   4    -0.164540011455E+02    0.31857E-02   -0.33815E-03    84   0.224E-01    0.844E-02
DAV:   5    -0.164568924888E+02   -0.28913E-02   -0.12483E-03    78   0.119E-01    0.399E-02
DAV:   6    -0.164601053790E+02   -0.32129E-02   -0.32335E-04    88   0.617E-02    0.258E-02
DAV:   7    -0.164630607437E+02   -0.29554E-02   -0.17938E-04    62   0.454E-02    0.161E-02
DAV:   8    -0.164647494520E+02   -0.16887E-02   -0.96185E-05    76   0.346E-02    0.819E-03
DAV:   9    -0.164660959878E+02   -0.13465E-02   -0.62240E-05    70   0.274E-02    0.586E-03
DAV:  10    -0.164672280000E+02   -0.11320E-02   -0.47530E-05    68   0.224E-02    0.351E-03
DAV:  11    -0.164680252237E+02   -0.79722E-03   -0.38569E-05    68   0.189E-02    0.242E-03
DAV:  12    -0.164684062461E+02   -0.38102E-03   -0.14087E-05    52   0.129E-02    0.169E-03
DAV:  13    -0.164687134927E+02   -0.30725E-03   -0.89764E-06    60   0.102E-02    0.116E-03
DAV:  14    -0.164689355792E+02   -0.22209E-03   -0.39143E-06    38   0.774E-03    0.948E-04
DAV:  15    -0.164690713907E+02   -0.13581E-03   -0.29478E-06    40   0.620E-03    0.552E-04
DAV:  16    -0.164691308638E+02   -0.59473E-04   -0.12862E-06    38   0.471E-03
   9 F= -.16469131E+02 E0= -.16479589E+02  d E =-.532440E-01  mag=     1.0741
       N       E                     dE             d eps       ncg     rms          rms(c)
DAV:   1    -0.164982062243E+02   -0.29135E-01   -0.78335E+00    72   0.141E+01    0.928E-01
DAV:   2    -0.165340657635E+02   -0.35860E-01   -0.52382E-01   112   0.324E+00    0.532E-01
DAV:   3    -0.165112373526E+02    0.22828E-01   -0.33270E-02   100   0.782E-01    0.335E-01
DAV:   4    -0.165073498869E+02    0.38875E-02   -0.88524E-03   100   0.362E-01    0.200E-01
DAV:   5    -0.165137449742E+02   -0.63951E-02   -0.38595E-03    84   0.217E-01    0.837E-02
DAV:   6    -0.165218811692E+02   -0.81362E-02   -0.15033E-03    86   0.133E-01    0.413E-02
DAV:   7    -0.165274919004E+02   -0.56107E-02   -0.25297E-04    84   0.609E-02    0.309E-02
DAV:   8    -0.165340003322E+02   -0.65084E-02   -0.25837E-04    82   0.507E-02    0.177E-02
DAV:   9    -0.165390604129E+02   -0.50601E-02   -0.22710E-04    92   0.448E-02    0.102E-02
DAV:  10    -0.165410895055E+02   -0.20291E-02   -0.43772E-05    62   0.221E-02    0.758E-03
DAV:  11    -0.165441883210E+02   -0.30988E-02   -0.15989E-04    92   0.327E-02    0.435E-03
DAV:  12    -0.165453632701E+02   -0.11749E-02   -0.42271E-05    68   0.176E-02    0.304E-03
DAV:  13    -0.165461343824E+02   -0.77111E-03   -0.19667E-05    52   0.119E-02    0.216E-03
DAV:  14    -0.165465480283E+02   -0.41365E-03   -0.95146E-06    58   0.815E-03    0.131E-03
DAV:  15    -0.165467818064E+02   -0.23378E-03   -0.40015E-06    42   0.588E-03    0.734E-04
DAV:  16    -0.165469130104E+02   -0.13120E-03   -0.27499E-06    40   0.469E-03    0.403E-04
DAV:  17    -0.165469489210E+02   -0.35911E-04   -0.74833E-07    36   0.288E-03
  10 F= -.16546949E+02 E0= -.16559485E+02  d E =-.131062E+00  mag=     1.1054
       N       E                     dE             d eps       ncg     rms          rms(c)
DAV:   1    -0.165896747536E+02   -0.42762E-01   -0.64091E-01    72   0.432E+00    0.266E-01
DAV:   2    -0.165920893039E+02   -0.24146E-02   -0.41481E-02   112   0.934E-01    0.138E-01
DAV:   3    -0.165906786688E+02    0.14106E-02   -0.22059E-03   102   0.210E-01    0.903E-02
DAV:   4    -0.165894449231E+02    0.12337E-02   -0.38205E-04    82   0.787E-02    0.544E-02
DAV:   5    -0.165889738363E+02    0.47109E-03   -0.23549E-04    60   0.623E-02    0.216E-02
DAV:   6    -0.165893968429E+02   -0.42301E-03   -0.10400E-04    68   0.435E-02    0.837E-03
DAV:   7    -0.165903525915E+02   -0.95575E-03   -0.56305E-05    60   0.320E-02    0.577E-03
DAV:   8    -0.165912669176E+02   -0.91433E-03   -0.56764E-05    68   0.275E-02    0.372E-03
DAV:   9    -0.165919183985E+02   -0.65148E-03   -0.31163E-05    60   0.208E-02    0.240E-03
DAV:  10    -0.165922953947E+02   -0.37700E-03   -0.13337E-05    42   0.152E-02    0.165E-03
DAV:  11    -0.165925823426E+02   -0.28695E-03   -0.10393E-05    50   0.124E-02    0.106E-03
DAV:  12    -0.165927679320E+02   -0.18559E-03   -0.53426E-06    38   0.953E-03    0.752E-04
DAV:  13    -0.165928779738E+02   -0.11004E-03   -0.29483E-06    40   0.735E-03    0.529E-04
DAV:  14    -0.165929551451E+02   -0.77171E-04   -0.17011E-06    36   0.581E-03
  11 F= -.16592955E+02 E0= -.16605767E+02  d E =-.460062E-01  mag=     1.1269
       N       E                     dE             d eps       ncg     rms          rms(c)
DAV:   1    -0.166283026518E+02   -0.35425E-01   -0.28000E+00    72   0.911E+00    0.501E-01
DAV:   2    -0.166390049367E+02   -0.10702E-01   -0.16516E-01   112   0.192E+00    0.249E-01
DAV:   3    -0.166357738897E+02    0.32310E-02   -0.78033E-03   108   0.411E-01    0.166E-01
DAV:   4    -0.166323283002E+02    0.34456E-02   -0.12010E-03   110   0.138E-01    0.110E-01
DAV:   5    -0.166275524806E+02    0.47758E-02   -0.85480E-04    84   0.974E-02    0.501E-02
DAV:   6    -0.166254076587E+02    0.21448E-02   -0.26176E-04    70   0.589E-02    0.292E-02
DAV:   7    -0.166265663672E+02   -0.11587E-02   -0.11554E-04    58   0.421E-02    0.224E-02
DAV:   8    -0.166288952855E+02   -0.23289E-02   -0.24798E-04    66   0.497E-02    0.151E-02
DAV:   9    -0.166316190978E+02   -0.27238E-02   -0.15667E-04    74   0.390E-02    0.112E-02
DAV:  10    -0.166348348594E+02   -0.32158E-02   -0.12222E-04    66   0.331E-02    0.757E-03
DAV:  11    -0.166383330184E+02   -0.34982E-02   -0.17521E-04    84   0.345E-02    0.409E-03
DAV:  12    -0.166397722077E+02   -0.14392E-02   -0.32122E-05    60   0.174E-02    0.285E-03
DAV:  13    -0.166408798370E+02   -0.11076E-02   -0.28956E-05    66   0.148E-02    0.180E-03
DAV:  14    -0.166414597479E+02   -0.57991E-03   -0.98525E-06    50   0.972E-03    0.107E-03
DAV:  15    -0.166417262606E+02   -0.26651E-03   -0.41531E-06    48   0.657E-03    0.528E-04
DAV:  16    -0.166418171455E+02   -0.90885E-04   -0.11684E-06    36   0.417E-03
  12 F= -.16641817E+02 E0= -.16654758E+02  d E =-.948682E-01  mag=     0.9594
       N       E                     dE             d eps       ncg     rms          rms(c)
DAV:   1    -0.166437851221E+02   -0.20589E-02   -0.32062E-01    72   0.309E+00    0.169E-01
DAV:   2    -0.166448217929E+02   -0.10367E-02   -0.18425E-02   112   0.652E-01    0.816E-02
DAV:   3    -0.166445949966E+02    0.22680E-03   -0.82013E-04    92   0.139E-01    0.541E-02
DAV:   4    -0.166443275677E+02    0.26743E-03   -0.79843E-05    58   0.442E-02    0.328E-02
DAV:   5    -0.166440006935E+02    0.32687E-03   -0.71795E-05    52   0.390E-02    0.119E-02
DAV:   6    -0.166439373151E+02    0.63378E-04   -0.19019E-05    36   0.240E-02
  13 F= -.16643937E+02 E0= -.16656894E+02  d E =-.969884E-01  mag=     0.9490
       N       E                     dE             d eps       ncg     rms          rms(c)
DAV:   1    -0.167094780128E+02   -0.65477E-01   -0.55530E-01    72   0.397E+00    0.217E-01
DAV:   2    -0.167114986640E+02   -0.20207E-02   -0.32364E-02    88   0.904E-01    0.120E-01
DAV:   3    -0.167113230317E+02    0.17563E-03   -0.34428E-03   104   0.293E-01    0.837E-02
DAV:   4    -0.167111068455E+02    0.21619E-03   -0.20621E-04    86   0.734E-02    0.617E-02
DAV:   5    -0.167106472684E+02    0.45958E-03   -0.93112E-05    52   0.378E-02    0.220E-02
DAV:   6    -0.167104381005E+02    0.20917E-03   -0.70355E-05    50   0.340E-02    0.106E-02
DAV:   7    -0.167105466501E+02   -0.10855E-03   -0.12007E-05    38   0.185E-02    0.808E-03
DAV:   8    -0.167108996087E+02   -0.35296E-03   -0.15353E-05    48   0.170E-02    0.499E-03
DAV:   9    -0.167112809472E+02   -0.38134E-03   -0.18324E-05    50   0.151E-02    0.394E-03
DAV:  10    -0.167116016299E+02   -0.32068E-03   -0.65209E-06    40   0.993E-03    0.264E-03
DAV:  11    -0.167123517856E+02   -0.75016E-03   -0.39975E-05    58   0.160E-02    0.126E-03
DAV:  12    -0.167124806147E+02   -0.12883E-03   -0.39534E-06    40   0.673E-03    0.918E-04
DAV:  13    -0.167126475116E+02   -0.16690E-03   -0.28145E-06    38   0.577E-03    0.714E-04
DAV:  14    -0.167128183718E+02   -0.17086E-03   -0.31361E-06    42   0.504E-03    0.406E-04
DAV:  15    -0.167128831800E+02   -0.64808E-04   -0.86437E-07    38   0.315E-03
  14 F= -.16712883E+02 E0= -.16725277E+02  d E =-.689459E-01  mag=     0.9042
       N       E                     dE             d eps       ncg     rms          rms(c)
DAV:   1    -0.167807726621E+02   -0.67954E-01   -0.16453E+00    72   0.681E+00    0.383E-01
DAV:   2    -0.167869012241E+02   -0.61286E-02   -0.98701E-02    88   0.158E+00    0.219E-01
DAV:   3    -0.167867312274E+02    0.17000E-03   -0.77661E-03   112   0.436E-01    0.153E-01
DAV:   4    -0.167865812951E+02    0.14993E-03   -0.51963E-04    96   0.109E-01    0.109E-01
DAV:   5    -0.167863581892E+02    0.22311E-03   -0.22424E-04    62   0.609E-02    0.402E-02
DAV:   6    -0.167862825976E+02    0.75592E-04   -0.15493E-04    52   0.534E-02
  15 F= -.16786283E+02 E0= -.16796724E+02  d E =-.142345E+00  mag=     0.8967
       N       E                     dE             d eps       ncg     rms          rms(c)
DAV:   1    -0.167025538305E+02    0.83804E-01   -0.67870E+00    74   0.137E+01    0.823E-01
DAV:   2    -0.167270093675E+02   -0.24456E-01   -0.42496E-01    96   0.329E+00    0.485E-01
DAV:   3    -0.167251395837E+02    0.18698E-02   -0.24027E-02   112   0.743E-01    0.332E-01
DAV:   4    -0.167234312269E+02    0.17084E-02   -0.26527E-03    96   0.223E-01    0.226E-01
DAV:   5    -0.167211433481E+02    0.22879E-02   -0.13924E-03    88   0.143E-01    0.738E-02
DAV:   6    -0.167205839027E+02    0.55945E-03   -0.45089E-04    88   0.879E-02    0.270E-02
DAV:   7    -0.167209912788E+02   -0.40738E-03   -0.47922E-05    48   0.388E-02    0.184E-02
DAV:   8    -0.167220566657E+02   -0.10654E-02   -0.11283E-04    62   0.366E-02    0.101E-02
DAV:   9    -0.167228808469E+02   -0.82418E-03   -0.41701E-05    62   0.242E-02    0.795E-03
DAV:  10    -0.167242950014E+02   -0.14142E-02   -0.72546E-05    68   0.254E-02    0.463E-03
DAV:  11    -0.167252774495E+02   -0.98245E-03   -0.64027E-05    60   0.215E-02    0.332E-03
DAV:  12    -0.167257494752E+02   -0.47203E-03   -0.12317E-05    48   0.119E-02    0.202E-03
DAV:  13    -0.167262235939E+02   -0.47412E-03   -0.16330E-05    60   0.112E-02    0.128E-03
DAV:  14    -0.167264244016E+02   -0.20081E-03   -0.55708E-06    44   0.780E-03    0.104E-03
DAV:  15    -0.167264886418E+02   -0.64240E-04   -0.21655E-06    38   0.534E-03
  16 F= -.16726489E+02 E0= -.16731277E+02  d E =-.825513E-01  mag=     0.9577
       N       E                     dE             d eps       ncg     rms          rms(c)
DAV:   1    -0.167915780574E+02   -0.65154E-01   -0.36413E+00    72   0.101E+01    0.622E-01
DAV:   2    -0.168020299160E+02   -0.10452E-01   -0.21466E-01    88   0.226E+00    0.381E-01
DAV:   3    -0.167996939195E+02    0.23360E-02   -0.23493E-02   104   0.749E-01    0.245E-01
DAV:   4    -0.167981284169E+02    0.15655E-02   -0.15701E-03   112   0.198E-01    0.173E-01
DAV:   5    -0.167963598584E+02    0.17686E-02   -0.47164E-04    80   0.866E-02    0.786E-02
DAV:   6    -0.167952666795E+02    0.10932E-02   -0.52666E-04    80   0.884E-02    0.292E-02
DAV:   7    -0.167958057876E+02   -0.53911E-03   -0.55041E-05    44   0.393E-02    0.207E-02
DAV:   8    -0.167972275061E+02   -0.14217E-02   -0.94956E-05    60   0.344E-02    0.934E-03
DAV:   9    -0.167982634267E+02   -0.10359E-02   -0.63525E-05    68   0.258E-02    0.745E-03
DAV:  10    -0.167990475080E+02   -0.78408E-03   -0.23986E-05    52   0.164E-02    0.518E-03
DAV:  11    -0.168003027981E+02   -0.12553E-02   -0.85047E-05    76   0.221E-02    0.229E-03
DAV:  12    -0.168007844025E+02   -0.48160E-03   -0.19744E-05    50   0.119E-02    0.171E-03
DAV:  13    -0.168011082730E+02   -0.32387E-03   -0.96718E-06    52   0.823E-03    0.101E-03
DAV:  14    -0.168013343841E+02   -0.22611E-03   -0.49938E-06    40   0.634E-03    0.709E-04
DAV:  15    -0.168014047285E+02   -0.70344E-04   -0.17160E-06    42   0.397E-03
  17 F= -.16801405E+02 E0= -.16810356E+02  d E =-.157467E+00  mag=     0.8999
       N       E                     dE             d eps       ncg     rms          rms(c)
DAV:   1    -0.168623544991E+02   -0.61020E-01   -0.11197E+00    74   0.575E+00    0.327E-01
DAV:   2    -0.168665201289E+02   -0.41656E-02   -0.56514E-02   104   0.117E+00    0.182E-01
DAV:   3    -0.168661425940E+02    0.37753E-03   -0.39383E-03    94   0.305E-01    0.142E-01
DAV:   4    -0.168659053351E+02    0.23726E-03   -0.34767E-04   104   0.881E-02    0.104E-01
DAV:   5    -0.168651549623E+02    0.75037E-03   -0.37432E-04    76   0.726E-02    0.315E-02
DAV:   6    -0.168648728684E+02    0.28209E-03   -0.12518E-04    64   0.484E-02    0.141E-02
DAV:   7    -0.168649792503E+02   -0.10638E-03   -0.20092E-05    42   0.246E-02    0.106E-02
DAV:   8    -0.168653121642E+02   -0.33291E-03   -0.30270E-05    54   0.222E-02    0.471E-03
DAV:   9    -0.168656340819E+02   -0.32192E-03   -0.23192E-05    58   0.176E-02    0.390E-03
DAV:  10    -0.168659056878E+02   -0.27161E-03   -0.59070E-06    46   0.109E-02    0.253E-03
DAV:  11    -0.168664027967E+02   -0.49711E-03   -0.27193E-05    58   0.139E-02    0.189E-03
DAV:  12    -0.168665301671E+02   -0.12737E-03   -0.47257E-06    44   0.759E-03    0.953E-04
DAV:  13    -0.168666446951E+02   -0.11453E-03   -0.28236E-06    36   0.573E-03    0.655E-04
DAV:  14    -0.168667742901E+02   -0.12960E-03   -0.28069E-06    44   0.521E-03    0.418E-04
DAV:  15    -0.168668423455E+02   -0.68055E-04   -0.12041E-06    36   0.369E-03
  18 F= -.16866842E+02 E0= -.16873775E+02  d E =-.654376E-01  mag=     0.9264
       N       E                     dE             d eps       ncg     rms          rms(c)
DAV:   1    -0.168911524380E+02   -0.24378E-01   -0.22839E+00    74   0.825E+00    0.488E-01
DAV:   2    -0.168987821290E+02   -0.76297E-02   -0.11883E-01   104   0.169E+00    0.271E-01
DAV:   3    -0.168968778954E+02    0.19042E-02   -0.84679E-03   104   0.445E-01    0.203E-01
DAV:   4    -0.168955108885E+02    0.13670E-02   -0.73406E-04   104   0.125E-01    0.143E-01
DAV:   5    -0.168932064838E+02    0.23044E-02   -0.71037E-04    80   0.985E-02    0.421E-02
DAV:   6    -0.168929533488E+02    0.25313E-03   -0.22461E-04    88   0.613E-02    0.187E-02
DAV:   7    -0.168936011531E+02   -0.64780E-03   -0.28180E-05    56   0.266E-02    0.142E-02
DAV:   8    -0.168952734208E+02   -0.16723E-02   -0.11515E-04    70   0.331E-02    0.771E-03
DAV:   9    -0.168964321334E+02   -0.11587E-02   -0.59793E-05    66   0.222E-02    0.576E-03
DAV:  10    -0.168972717429E+02   -0.83961E-03   -0.24138E-05    54   0.146E-02    0.392E-03
DAV:  11    -0.168983406880E+02   -0.10689E-02   -0.44935E-05    68   0.162E-02    0.200E-03
DAV:  12    -0.168988482389E+02   -0.50755E-03   -0.18900E-05    52   0.108E-02    0.139E-03
DAV:  13    -0.168991852098E+02   -0.33697E-03   -0.76565E-06    52   0.757E-03    0.830E-04
DAV:  14    -0.168993661224E+02   -0.18091E-03   -0.35018E-06    44   0.553E-03    0.617E-04
DAV:  15    -0.168994238257E+02   -0.57703E-04   -0.12995E-06    36   0.357E-03
  19 F= -.16899424E+02 E0= -.16902272E+02  d E =-.980191E-01  mag=     0.9889
       N       E                     dE             d eps       ncg     rms          rms(c)
DAV:   1    -0.169536917800E+02   -0.54326E-01   -0.91828E-01    72   0.527E+00    0.267E-01
DAV:   2    -0.169568422636E+02   -0.31505E-02   -0.43054E-02   112   0.101E+00    0.130E-01
DAV:   3    -0.169561780815E+02    0.66418E-03   -0.17067E-03   104   0.200E-01    0.889E-02
DAV:   4    -0.169561062111E+02    0.71870E-04   -0.30005E-04    72   0.760E-02
  20 F= -.16956106E+02 E0= -.16958420E+02  d E =-.566824E-01  mag=     0.9921
       N       E                     dE             d eps       ncg     rms          rms(c)
DAV:   1    -0.170259460492E+02   -0.69768E-01   -0.81766E+00    72   0.155E+01    0.774E-01
DAV:   2    -0.170567653216E+02   -0.30819E-01   -0.41884E-01   120   0.305E+00    0.392E-01
DAV:   3    -0.170535722193E+02    0.31931E-02   -0.15998E-02   104   0.606E-01    0.255E-01
DAV:   4    -0.170550013110E+02   -0.14291E-02   -0.25734E-03    94   0.218E-01    0.148E-01
DAV:   5    -0.170569779271E+02   -0.19766E-02   -0.10805E-03    92   0.130E-01    0.567E-02
DAV:   6    -0.170586196866E+02   -0.16418E-02   -0.26445E-04    80   0.667E-02    0.223E-02
DAV:   7    -0.170600856811E+02   -0.14660E-02   -0.59680E-05    68   0.349E-02    0.152E-02
DAV:   8    -0.170620065326E+02   -0.19209E-02   -0.12839E-04    84   0.394E-02    0.857E-03
DAV:   9    -0.170627963453E+02   -0.78981E-03   -0.34382E-05    68   0.220E-02    0.589E-03
DAV:  10    -0.170637181555E+02   -0.92181E-03   -0.45508E-05    76   0.217E-02    0.349E-03
DAV:  11    -0.170642406309E+02   -0.52248E-03   -0.25161E-05    68   0.158E-02    0.238E-03
DAV:  12    -0.170645857656E+02   -0.34513E-03   -0.13764E-05    60   0.114E-02    0.147E-03
DAV:  13    -0.170648489925E+02   -0.26323E-03   -0.11144E-05    60   0.974E-03    0.875E-04
DAV:  14    -0.170649297436E+02   -0.80751E-04   -0.20017E-06    36   0.536E-03
  21 F= -.17064930E+02 E0= -.17066914E+02  d E =-.165506E+00  mag=     0.9998
       N       E                     dE             d eps       ncg     rms          rms(c)
DAV:   1    -0.167209193687E+02    0.34393E+00   -0.32315E+01    72   0.297E+01    0.146E+00
DAV:   2    -0.168755951931E+02   -0.15468E+00   -0.19949E+00   112   0.642E+00    0.890E-01
DAV:   3    -0.168757936240E+02   -0.19843E-03   -0.15467E-01   104   0.185E+00    0.502E-01
DAV:   4    -0.168811696489E+02   -0.53760E-02   -0.10142E-02   112   0.483E-01    0.372E-01
DAV:   5    -0.168869816637E+02   -0.58120E-02   -0.41632E-03    94   0.255E-01    0.188E-01
DAV:   6    -0.168849388785E+02    0.20428E-02   -0.32871E-03    86   0.211E-01    0.101E-01
DAV:   7    -0.168870994933E+02   -0.21606E-02   -0.62667E-04    96   0.100E-01    0.807E-02
DAV:   8    -0.168942566192E+02   -0.71571E-02   -0.79561E-04    84   0.921E-02    0.742E-02
DAV:   9    -0.168912980902E+02    0.29585E-02   -0.24411E-04    86   0.581E-02    0.650E-02
DAV:  10    -0.168991322147E+02   -0.78341E-02   -0.66256E-04    86   0.802E-02    0.772E-02
DAV:  11    -0.169017331872E+02   -0.26010E-02   -0.18970E-04    94   0.437E-02    0.673E-02
DAV:  12    -0.169044145280E+02   -0.26813E-02   -0.21342E-04    86   0.415E-02    0.550E-02
DAV:  13    -0.169015386127E+02    0.28759E-02   -0.22598E-04    94   0.429E-02    0.633E-02
DAV:  14    -0.169027668417E+02   -0.12282E-02   -0.67895E-05    78   0.276E-02    0.597E-02
DAV:  15    -0.169038489999E+02   -0.10822E-02   -0.67145E-05    70   0.250E-02    0.559E-02
DAV:  16    -0.169045032226E+02   -0.65422E-03   -0.65319E-05    70   0.240E-02    0.511E-02
DAV:  17    -0.169047154389E+02   -0.21222E-03   -0.71903E-05    62   0.261E-02    0.441E-02
DAV:  18    -0.169046518632E+02    0.63576E-04   -0.26289E-05    48   0.183E-02
  22 F= -.16904652E+02 E0= -.16911750E+02  d E =-.522804E-02  mag=     1.0611
       N       E                     dE             d eps       ncg     rms          rms(c)
DAV:   1    -0.169508658458E+02   -0.46150E-01   -0.21372E+01    72   0.243E+01    0.120E+00
DAV:   2    -0.170538932864E+02   -0.10303E+00   -0.13069E+00   128   0.541E+00    0.613E-01
DAV:   3    -0.170473117133E+02    0.65816E-02   -0.49868E-02   110   0.104E+00    0.437E-01
DAV:   4    -0.170504686750E+02   -0.31570E-02   -0.55462E-03   104   0.324E-01    0.305E-01
DAV:   5    -0.170562238539E+02   -0.57552E-02   -0.38761E-03    90   0.233E-01    0.133E-01
DAV:   6    -0.170596502086E+02   -0.34264E-02   -0.15797E-03    94   0.148E-01    0.423E-02
DAV:   7    -0.170624870355E+02   -0.28368E-02   -0.11889E-04    70   0.551E-02    0.291E-02
DAV:   8    -0.170682812418E+02   -0.57942E-02   -0.37480E-04    84   0.667E-02    0.167E-02
DAV:   9    -0.170704340036E+02   -0.21528E-02   -0.80767E-05    78   0.315E-02    0.132E-02
DAV:  10    -0.170729398811E+02   -0.25059E-02   -0.84464E-05    74   0.285E-02    0.694E-03
DAV:  11    -0.170747576083E+02   -0.18177E-02   -0.75555E-05    84   0.243E-02    0.438E-03
DAV:  12    -0.170754168245E+02   -0.65922E-03   -0.12346E-05    52   0.115E-02    0.332E-03
DAV:  13    -0.170762648120E+02   -0.84799E-03   -0.24132E-05    68   0.136E-02    0.176E-03
DAV:  14    -0.170766229678E+02   -0.35816E-03   -0.94277E-06    52   0.896E-03    0.114E-03
DAV:  15    -0.170767595515E+02   -0.13658E-03   -0.25208E-06    40   0.594E-03    0.776E-04
DAV:  16    -0.170769000592E+02   -0.14051E-03   -0.32595E-06    60   0.619E-03    0.558E-04
DAV:  17    -0.170769265881E+02   -0.26529E-04   -0.51365E-07    36   0.412E-03
  23 F= -.17076927E+02 E0= -.17078900E+02  d E =-.177503E+00  mag=     0.9998
       N       E                     dE             d eps       ncg     rms          rms(c)
DAV:   1    -0.171257868745E+02   -0.48887E-01   -0.55940E-01    72   0.412E+00    0.196E-01
DAV:   2    -0.171282254712E+02   -0.24386E-02   -0.27784E-02   126   0.803E-01    0.908E-02
DAV:   3    -0.171278486583E+02    0.37681E-03   -0.74639E-04   104   0.134E-01    0.642E-02
DAV:   4    -0.171276943195E+02    0.15434E-03   -0.11809E-04    60   0.490E-02    0.358E-02
DAV:   5    -0.171277029372E+02   -0.86177E-05   -0.10529E-04    66   0.440E-02
  24 F= -.17127703E+02 E0= -.17129672E+02  d E =-.507763E-01  mag=     0.9999
       N       E                     dE             d eps       ncg     rms          rms(c)
DAV:   1    -0.172364855572E+02   -0.10879E+00   -0.51110E+00    72   0.123E+01    0.584E-01
DAV:   2    -0.172590220615E+02   -0.22537E-01   -0.25688E-01   112   0.248E+00    0.278E-01
DAV:   3    -0.172578283862E+02    0.11937E-02   -0.18331E-02   104   0.680E-01    0.202E-01
DAV:   4    -0.172580505876E+02   -0.22220E-03   -0.95980E-04   112   0.153E-01    0.144E-01
DAV:   5    -0.172589337926E+02   -0.88320E-03   -0.77779E-04    84   0.106E-01    0.569E-02
DAV:   6    -0.172595850842E+02   -0.65129E-03   -0.24722E-04    86   0.622E-02    0.242E-02
DAV:   7    -0.172604816188E+02   -0.89653E-03   -0.34208E-05    64   0.280E-02    0.167E-02
DAV:   8    -0.172623271914E+02   -0.18456E-02   -0.10755E-04    90   0.335E-02    0.835E-03
DAV:   9    -0.172631110821E+02   -0.78389E-03   -0.26239E-05    76   0.167E-02    0.798E-03
DAV:  10    -0.172638413322E+02   -0.73025E-03   -0.22185E-05    68   0.139E-02    0.393E-03
DAV:  11    -0.172645604198E+02   -0.71909E-03   -0.25186E-05    76   0.135E-02    0.274E-03
DAV:  12    -0.172648924472E+02   -0.33203E-03   -0.10188E-05    60   0.861E-03    0.220E-03
DAV:  13    -0.172651905502E+02   -0.29810E-03   -0.83989E-06    76   0.761E-03    0.110E-03
DAV:  14    -0.172653205917E+02   -0.13004E-03   -0.23948E-06    42   0.447E-03    0.107E-03
DAV:  15    -0.172653801829E+02   -0.59591E-04   -0.77347E-07    38   0.295E-03
  25 F= -.17265380E+02 E0= -.17267357E+02  d E =-.188454E+00  mag=     1.0002
       N       E                     dE             d eps       ncg     rms          rms(c)
DAV:   1    -0.172102975295E+02    0.55023E-01   -0.21305E+01    72   0.243E+01    0.114E+00
DAV:   2    -0.173143026156E+02   -0.10401E+00   -0.11963E+00   112   0.526E+00    0.632E-01
DAV:   3    -0.173124862155E+02    0.18164E-02   -0.87933E-02   112   0.145E+00    0.414E-01
DAV:   4    -0.173136081643E+02   -0.11219E-02   -0.48123E-03   104   0.339E-01    0.312E-01
DAV:   5    -0.173168699224E+02   -0.32618E-02   -0.29830E-03    96   0.210E-01    0.138E-01
DAV:   6    -0.173183898892E+02   -0.15200E-02   -0.15379E-03    96   0.147E-01    0.517E-02
DAV:   7    -0.173203893614E+02   -0.19995E-02   -0.13483E-04    72   0.573E-02    0.348E-02
DAV:   8    -0.173238176176E+02   -0.34283E-02   -0.19282E-04    80   0.532E-02    0.170E-02
DAV:   9    -0.173262226067E+02   -0.24050E-02   -0.14667E-04    80   0.405E-02    0.172E-02
DAV:  10    -0.173277071217E+02   -0.14845E-02   -0.63069E-05    80   0.280E-02    0.121E-02
DAV:  11    -0.173293957463E+02   -0.16886E-02   -0.71295E-05    80   0.266E-02    0.524E-03
DAV:  12    -0.173305926181E+02   -0.11969E-02   -0.63150E-05    80   0.231E-02    0.732E-03
DAV:  13    -0.173310984298E+02   -0.50581E-03   -0.15697E-05    64   0.132E-02    0.250E-03
DAV:  14    -0.173315896578E+02   -0.49123E-03   -0.14157E-05    64   0.115E-02    0.381E-03
DAV:  15    -0.173317515775E+02   -0.16192E-03   -0.29447E-06    48   0.692E-03    0.255E-03
DAV:  16    -0.173318246473E+02   -0.73070E-04   -0.13984E-06    48   0.504E-03
  26 F= -.17331825E+02 E0= -.17334328E+02  d E =-.254898E+00  mag=     0.9967
       N       E                     dE             d eps       ncg     rms          rms(c)
DAV:   1    -0.173299751322E+02    0.17764E-02   -0.42931E+00    72   0.110E+01    0.516E-01
DAV:   2    -0.173509299152E+02   -0.20955E-01   -0.24296E-01   104   0.233E+00    0.257E-01
DAV:   3    -0.173501766357E+02    0.75328E-03   -0.18647E-02   112   0.686E-01    0.206E-01
DAV:   4    -0.173503103405E+02   -0.13370E-03   -0.87040E-04   112   0.146E-01    0.146E-01
DAV:   5    -0.173505346444E+02   -0.22430E-03   -0.73075E-04    88   0.105E-01    0.517E-02
DAV:   6    -0.173507468137E+02   -0.21217E-03   -0.28555E-04    80   0.668E-02    0.281E-02
DAV:   7    -0.173511603668E+02   -0.41355E-03   -0.27224E-05    48   0.288E-02    0.188E-02
DAV:   8    -0.173522544367E+02   -0.10941E-02   -0.66609E-05    72   0.303E-02    0.878E-03
DAV:   9    -0.173526489763E+02   -0.39454E-03   -0.21310E-05    56   0.188E-02    0.958E-03
DAV:  10    -0.173528815254E+02   -0.23255E-03   -0.51821E-06    48   0.112E-02    0.503E-03
DAV:  11    -0.173535129507E+02   -0.63143E-03   -0.28459E-05    72   0.161E-02    0.545E-03
DAV:  12    -0.173536329778E+02   -0.12003E-03   -0.35990E-06    48   0.797E-03    0.360E-03
DAV:  13    -0.173537369661E+02   -0.10399E-03   -0.22753E-06    48   0.615E-03    0.155E-03
DAV:  14    -0.173538891185E+02   -0.15215E-03   -0.36097E-06    48   0.633E-03    0.985E-04
DAV:  15    -0.173539550219E+02   -0.65903E-04   -0.12489E-06    48   0.412E-03
  27 F= -.17353955E+02 E0= -.17356000E+02  d E =-.277028E+00  mag=     1.0001
       N       E                     dE             d eps       ncg     rms          rms(c)
DAV:   1    -0.174851609283E+02   -0.13127E+00   -0.13504E+00    72   0.605E+00    0.300E-01
DAV:   2    -0.174910305822E+02   -0.58697E-02   -0.78631E-02   104   0.137E+00    0.157E-01
DAV:   3    -0.174904629553E+02    0.56763E-03   -0.33781E-03   104   0.276E-01    0.106E-01
DAV:   4    -0.174902387541E+02    0.22420E-03   -0.39742E-04    80   0.899E-02    0.713E-02
DAV:   5    -0.174900959310E+02    0.14282E-03   -0.13398E-04    64   0.539E-02    0.216E-02
DAV:   6    -0.174901677903E+02   -0.71859E-04   -0.77312E-05    56   0.411E-02
  28 F= -.17490168E+02 E0= -.17492167E+02  d E =-.136213E+00  mag=     1.0001
       N       E                     dE             d eps       ncg     rms          rms(c)
DAV:   1    -0.175850272479E+02   -0.94931E-01   -0.12475E+01    72   0.181E+01    0.930E-01
DAV:   2    -0.176354177877E+02   -0.50391E-01   -0.72483E-01   104   0.429E+00    0.496E-01
DAV:   3    -0.176295785378E+02    0.58392E-02   -0.34600E-02   112   0.863E-01    0.354E-01
DAV:   4    -0.176281589979E+02    0.14195E-02   -0.41480E-03    96   0.280E-01    0.248E-01
DAV:   5    -0.176278769481E+02    0.28205E-03   -0.11593E-03    94   0.140E-01    0.950E-02
DAV:   6    -0.176285774962E+02   -0.70055E-03   -0.59409E-04    86   0.955E-02    0.254E-02
DAV:   7    -0.176293139067E+02   -0.73641E-03   -0.47370E-05    56   0.389E-02    0.161E-02
DAV:   8    -0.176307648506E+02   -0.14509E-02   -0.66183E-05    60   0.332E-02    0.778E-03
DAV:   9    -0.176315311136E+02   -0.76626E-03   -0.25386E-05    54   0.215E-02    0.499E-03
DAV:  10    -0.176322097083E+02   -0.67859E-03   -0.14774E-05    56   0.161E-02    0.347E-03
DAV:  11    -0.176330422612E+02   -0.83255E-03   -0.31038E-05    62   0.176E-02    0.199E-03
DAV:  12    -0.176333258585E+02   -0.28360E-03   -0.69948E-06    48   0.104E-02    0.148E-03
DAV:  13    -0.176335737168E+02   -0.24786E-03   -0.58590E-06    54   0.909E-03    0.102E-03
DAV:  14    -0.176337159575E+02   -0.14224E-03   -0.26282E-06    48   0.700E-03    0.771E-04
DAV:  15    -0.176338162523E+02   -0.10029E-03   -0.13956E-06    44   0.554E-03    0.528E-04
DAV:  16    -0.176338734097E+02   -0.57157E-04   -0.94601E-07    48   0.443E-03
  29 F= -.17633873E+02 E0= -.17635849E+02  d E =-.279918E+00  mag=     0.9998
       N       E                     dE             d eps       ncg     rms          rms(c)
DAV:   1    -0.176429064739E+02   -0.90902E-02   -0.97695E-01    72   0.515E+00    0.278E-01
DAV:   2    -0.176460925124E+02   -0.31860E-02   -0.55029E-02    80   0.115E+00    0.160E-01
DAV:   3    -0.176453928784E+02    0.69963E-03   -0.58266E-03   104   0.385E-01    0.984E-02
DAV:   4    -0.176453207173E+02    0.72161E-04   -0.37049E-04    88   0.983E-02
  30 F= -.17645321E+02 E0= -.17647292E+02  d E =-.291366E+00  mag=     0.9998
       N       E                     dE             d eps       ncg     rms          rms(c)
DAV:   1    -0.176463554588E+02   -0.96258E-03   -0.43119E-02    72   0.108E+00    0.591E-02
DAV:   2    -0.176467433164E+02   -0.38786E-03   -0.25769E-03    88   0.249E-01    0.227E-02
DAV:   3    -0.176468847396E+02   -0.14142E-03   -0.20698E-04    72   0.752E-02    0.111E-02
DAV:   4    -0.176469804069E+02   -0.95667E-04   -0.15668E-05    48   0.257E-02
  31 F= -.17646980E+02 E0= -.17648953E+02  d E =-.293025E+00  mag=     0.9999
       N       E                     dE             d eps       ncg     rms          rms(c)
DAV:   1    -0.177184327359E+02   -0.71548E-01   -0.68590E-01    76   0.451E+00    0.262E-01
DAV:   2    -0.177191774450E+02   -0.74471E-03   -0.35916E-02   112   0.946E-01    0.157E-01
DAV:   3    -0.177189367773E+02    0.24067E-03   -0.21788E-03   112   0.227E-01    0.102E-01
DAV:   4    -0.177186726595E+02    0.26412E-03   -0.19792E-04    78   0.711E-02    0.585E-02
DAV:   5    -0.177184216873E+02    0.25097E-03   -0.20165E-04    72   0.650E-02    0.186E-02
DAV:   6    -0.177184673928E+02   -0.45706E-04   -0.52633E-05    46   0.391E-02
  32 F= -.17718467E+02 E0= -.17720415E+02  d E =-.714870E-01  mag=     1.0000
       N       E                     dE             d eps       ncg     rms          rms(c)
DAV:   1    -0.177608398463E+02   -0.42418E-01   -0.18501E+00    76   0.742E+00    0.426E-01
DAV:   2    -0.177624704563E+02   -0.16306E-02   -0.98798E-02   112   0.155E+00    0.257E-01
DAV:   3    -0.177615983880E+02    0.87207E-03   -0.58390E-03   112   0.373E-01    0.168E-01
DAV:   4    -0.177609644009E+02    0.63399E-03   -0.60761E-04   104   0.113E-01    0.985E-02
DAV:   5    -0.177606706831E+02    0.29372E-03   -0.40773E-04    88   0.822E-02    0.394E-02
DAV:   6    -0.177610612423E+02   -0.39056E-03   -0.11739E-04    64   0.470E-02    0.167E-02
DAV:   7    -0.177618928481E+02   -0.83161E-03   -0.46900E-05    64   0.303E-02    0.110E-02
DAV:   8    -0.177632568091E+02   -0.13640E-02   -0.10670E-04    72   0.348E-02    0.658E-03
DAV:   9    -0.177640134210E+02   -0.75661E-03   -0.38063E-05    64   0.219E-02    0.549E-03
DAV:  10    -0.177648462896E+02   -0.83287E-03   -0.34055E-05    72   0.188E-02    0.292E-03
DAV:  11    -0.177653032472E+02   -0.45696E-03   -0.21131E-05    64   0.139E-02    0.204E-03
DAV:  12    -0.177655151973E+02   -0.21195E-03   -0.48301E-06    48   0.815E-03    0.130E-03
DAV:  13    -0.177657722278E+02   -0.25703E-03   -0.94732E-06    62   0.872E-03    0.918E-04
DAV:  14    -0.177658387150E+02   -0.66487E-04   -0.16113E-06    48   0.488E-03
  33 F= -.17765839E+02 E0= -.17767789E+02  d E =-.118858E+00  mag=     1.0001
       N       E                     dE             d eps       ncg     rms          rms(c)
DAV:   1    -0.177831099271E+02   -0.17338E-01   -0.28301E-01    72   0.287E+00    0.161E-01
DAV:   2    -0.177842487305E+02   -0.11388E-02   -0.17642E-02   112   0.645E-01    0.932E-02
DAV:   3    -0.177840709015E+02    0.17783E-03   -0.73506E-04   102   0.128E-01    0.670E-02
DAV:   4    -0.177839764192E+02    0.94482E-04   -0.71297E-05    54   0.421E-02
  34 F= -.17783976E+02 E0= -.17785928E+02  d E =-.181377E-01  mag=     1.0001
       N       E                     dE             d eps       ncg     rms          rms(c)
DAV:   1    -0.177885053257E+02   -0.44344E-02   -0.23705E-01    72   0.264E+00    0.148E-01
DAV:   2    -0.177893287264E+02   -0.82340E-03   -0.14513E-02   112   0.585E-01    0.903E-02
DAV:   3    -0.177891634413E+02    0.16529E-03   -0.60824E-04   104   0.118E-01    0.655E-02
DAV:   4    -0.177890969219E+02    0.66519E-04   -0.59753E-05    56   0.385E-02
  35 F= -.17789097E+02 E0= -.17791053E+02  d E =-.232582E-01  mag=     1.0001
       N       E                     dE             d eps       ncg     rms          rms(c)
DAV:   1    -0.177915654210E+02   -0.24020E-02   -0.55567E-02    72   0.125E+00    0.653E-02
DAV:   2    -0.177918936905E+02   -0.32827E-03   -0.31215E-03    96   0.280E-01    0.375E-02
DAV:   3    -0.177919432353E+02   -0.49545E-04   -0.10739E-04    56   0.615E-02
  36 F= -.17791943E+02 E0= -.17793898E+02  d E =-.284631E-02  mag=     1.0001
       N       E                     dE             d eps       ncg     rms          rms(c)
DAV:   1    -0.177922791190E+02   -0.38543E-03   -0.16244E-02    76   0.682E-01    0.357E-02
DAV:   2    -0.177923851523E+02   -0.10603E-03   -0.93928E-04    96   0.154E-01    0.260E-02
DAV:   3    -0.177924037512E+02   -0.18599E-04   -0.33979E-05    46   0.363E-02
  37 F= -.17792404E+02 E0= -.17794358E+02  d E =-.330683E-02  mag=     1.0001
       N       E                     dE             d eps       ncg     rms          rms(c)
DAV:   1    -0.177930555506E+02   -0.67040E-03   -0.11647E-02    76   0.591E-01    0.306E-02
DAV:   2    -0.177931159056E+02   -0.60355E-04   -0.50664E-04    86   0.118E-01
  38 F= -.17793116E+02 E0= -.17795071E+02  d E =-.712154E-03  mag=     1.0001
       N       E                     dE             d eps       ncg     rms          rms(c)
DAV:   1    -0.177934215557E+02   -0.36601E-03   -0.23266E-02    76   0.833E-01    0.425E-02
DAV:   2    -0.177934768370E+02   -0.55281E-04   -0.11281E-03   110   0.171E-01    0.279E-02
DAV:   3    -0.177934486894E+02    0.28148E-04   -0.36437E-05    48   0.357E-02
  39 F= -.17793449E+02 E0= -.17795406E+02  d E =-.104494E-02  mag=     1.0001
       N       E                     dE             d eps       ncg     rms          rms(c)
DAV:   1    -0.177939680501E+02   -0.49121E-03   -0.75084E-03    76   0.478E-01    0.248E-02
DAV:   2    -0.177939909858E+02   -0.22936E-04   -0.28477E-04    80   0.918E-02
  40 F= -.17793991E+02 E0= -.17795950E+02  d E =-.542296E-03  mag=     1.0001
       N       E                     dE             d eps       ncg     rms          rms(c)
DAV:   1    -0.177948611701E+02   -0.89312E-03   -0.67271E-02    72   0.144E+00    0.712E-02
DAV:   2    -0.177949668723E+02   -0.10570E-03   -0.26708E-03   112   0.268E-01    0.400E-02
DAV:   3    -0.177948228604E+02    0.14401E-03   -0.10319E-04    56   0.547E-02    0.261E-02
DAV:   4    -0.177947344438E+02    0.88417E-04   -0.69087E-05    54   0.420E-02
  41 F= -.17794734E+02 E0= -.17796698E+02  d E =-.128575E-02  mag=     1.0001
       N       E                     dE             d eps       ncg     rms          rms(c)
DAV:   1    -0.177953757806E+02   -0.55292E-03   -0.10104E-02    72   0.519E-01    0.322E-02
DAV:   2    -0.177954398990E+02   -0.64118E-04   -0.67104E-04   112   0.127E-01
  42 F= -.17795440E+02 E0= -.17797398E+02  d E =-.705455E-03  mag=     1.0001
       N       E                     dE             d eps       ncg     rms          rms(c)
DAV:   1    -0.177955971292E+02   -0.22135E-03   -0.89807E-03    74   0.495E-01    0.325E-02
DAV:   2    -0.177955816406E+02    0.15489E-04   -0.61470E-04   112   0.121E-01
  43 F= -.17795582E+02 E0= -.17797536E+02  d E =-.847197E-03  mag=     1.0001
