 vasp.6.1.2 22Jul20 (build Aug  2 2021 21:04:21) gamma-only                      
 executed on             LinuxPGI date 2021.12.29  14:09:30
 running on    8 total cores
 distrk:  each k-point on    8 cores,    1 groups
 distr:  one band on NCORE=   8 cores,    1 groups


--------------------------------------------------------------------------------------------------------


 INCAR:
 POTCAR:    PAW_PBE Al 04Jan2001                  
 -----------------------------------------------------------------------------
|                                                                             |
|           W    W    AA    RRRRR   N    N  II  N    N   GGGG   !!!           |
|           W    W   A  A   R    R  NN   N  II  NN   N  G    G  !!!           |
|           W    W  A    A  R    R  N N  N  II  N N  N  G       !!!           |
|           W WW W  AAAAAA  RRRRR   N  N N  II  N  N N  G  GGG   !            |
|           WW  WW  A    A  R   R   N   NN  II  N   NN  G    G                |
|           W    W  A    A  R    R  N    N  II  N    N   GGGG   !!!           |
|                                                                             |
|     You use a magnetic or noncollinear calculation, but did not specify     |
|     the initial magnetic moment with the MAGMOM tag. Note that a            |
|     default of 1 will be used for all atoms. This ferromagnetic setup       |
|     may break the symmetry of the crystal, in particular it may rule        |
|     out finding an antiferromagnetic solution. Thence, we recommend         |
|     setting the initial magnetic moment manually or verifying carefully     |
|     that this magnetic setup is desired.                                    |
|                                                                             |
 -----------------------------------------------------------------------------

 -----------------------------------------------------------------------------
|                                                                             |
|           W    W    AA    RRRRR   N    N  II  N    N   GGGG   !!!           |
|           W    W   A  A   R    R  NN   N  II  NN   N  G    G  !!!           |
|           W    W  A    A  R    R  N N  N  II  N N  N  G       !!!           |
|           W WW W  AAAAAA  RRRRR   N  N N  II  N  N N  G  GGG   !            |
|           WW  WW  A    A  R   R   N   NN  II  N   NN  G    G                |
|           W    W  A    A  R    R  N    N  II  N    N   GGGG   !!!           |
|                                                                             |
|     For optimal performance we recommend to set                             |
|       NCORE = 4 - approx SQRT(number of cores).                             |
|     NCORE specifies how many cores store one orbital (NPAR=cpu/NCORE).      |
|     This setting can greatly improve the performance of VASP for DFT.       |
|     The default, NCORE=1 might be grossly inefficient on modern             |
|     multi-core architectures or massively parallel machines. Do your        |
|     own testing!!!!                                                         |
|     Unfortunately you need to use the default for GW and RPA                |
|     calculations (for HF NCORE is supported but not extensively tested      |
|     yet).                                                                   |
|                                                                             |
 -----------------------------------------------------------------------------

 POTCAR:    PAW_PBE Al 04Jan2001                  
   SHA256 =  17880443556af62b473fe41b62a467bd001ad55d2cabe504a3f22e34d4e9db96 Al/POTCAR             
   COPYR  = (c) Copyright 04Jan2001 Georg Kresse                                                    
   COPYR  = This file is part of the software VASP. Any use, copying, and all other rights are regul
   COPYR  = If you do not have a valid VASP license, you may not use, copy or distribute this file. 
   VRHFIN =Al: s2p1                                                                                 
   LEXCH  = PE                                                                                      
   EATOM  =    53.5387 eV,    3.9350 Ry                                                             
                                                                                                    
   TITEL  = PAW_PBE Al 04Jan2001                                                                    
   LULTRA =        F    use ultrasoft PP ?                                                          
   IUNSCR =        1    unscreen: 0-lin 1-nonlin 2-no                                               
   RPACOR =    1.500    partial core radius                                                         
   POMASS =   26.981; ZVAL   =    3.000    mass and valenz                                          
   RCORE  =    1.900    outmost cutoff radius                                                       
   RWIGS  =    2.650; RWIGS  =    1.402    wigner-seitz radius (au A)                               
   ENMAX  =  240.300; ENMIN  =  180.225 eV                                                          
   ICORE  =        2    local potential                                                             
   LCOR   =        T    correct aug charges                                                         
   LPAW   =        T    paw PP                                                                      
   EAUG   =  291.052                                                                                
   DEXC   =    0.000                                                                                
   RMAX   =    1.939    core radius for proj-oper                                                   
   RAUG   =    1.300    factor for augmentation sphere                                              
   RDEP   =    1.966    radius for radial grids                                                     
   RDEPT  =    1.856    core radius for aug-charge                                                  
                                                                                                    
   Atomic configuration                                                                             
    6 entries                                                                                       
     n  l   j            E        occ.                                                              
     1  0  0.50     -1511.1048   2.0000                                                             
     2  0  0.50      -108.1629   2.0000                                                             
     2  1  1.50       -69.6402   6.0000                                                             
     3  0  0.50        -7.7528   2.0000                                                             
     3  1  1.50        -2.7121   1.0000                                                             
     3  2  2.50        -2.7212   0.0000                                                             
   Description                                                                                      
     l       E           TYP  RCUT    TYP  RCUT                                                     
     0     -7.7528455     23  1.900                                                                 
     0     -3.3096929     23  1.900                                                                 
     1     -2.7120682     23  1.900                                                                 
     1     13.6058260     23  1.900                                                                 
     2     -2.7211652      7  1.900                                                                 
  local pseudopotential read in
  partial core-charges read in
  partial kinetic energy density read in
  atomic valenz-charges read in
  non local Contribution for L=            0  read in
    real space projection operators read in
  non local Contribution for L=            0  read in
    real space projection operators read in
  non local Contribution for L=            1  read in
    real space projection operators read in
  non local Contribution for L=            1  read in
    real space projection operators read in
    PAW grid and wavefunctions read in
 
   number of l-projection  operators is LMAX  =            4
   number of lm-projection operators is LMMAX =            8
 
  PAW_PBE Al 04Jan2001                  :
 energy of atom  1       EATOM=  -53.5387
 kinetic energy error for atom=    0.0005 (will be added to EATOM!!)
 
 
 POSCAR: Al
  positions in cartesian coordinates
  No initial velocities read in
 exchange correlation table for  LEXCH =        8
   RHO(1)=    0.500       N(1)  =     2000
   RHO(2)=  100.500       N(2)  =     4000
 


--------------------------------------------------------------------------------------------------------


 ion  position               nearest neighbor table
   1  0.449  0.514  0.608-   7 2.70   2 2.73   3 2.76   6 2.87
   2  0.385  0.565  0.518-   4 2.71   1 2.73   3 2.78   6 2.78
   3  0.463  0.470  0.495-   5 2.62   4 2.75   1 2.76   2 2.78   6 2.83   7 3.08
   4  0.450  0.566  0.417-   6 2.69   2 2.71   3 2.75
   5  0.568  0.418  0.499-   7 2.59   3 2.62
   6  0.506  0.589  0.520-   4 2.69   7 2.70   2 2.78   3 2.83   1 2.87
   7  0.565  0.501  0.581-   5 2.59   1 2.70   6 2.70   3 3.08
 

IMPORTANT INFORMATION: All symmetrisations will be switched off!
NOSYMM: (Re-)initialisation of all symmetry stuff for point group C_1.


----------------------------------------------------------------------------------------

                                     Primitive cell                                     

  volume of cell :   11127.7292

  direct lattice vectors                    reciprocal lattice vectors
    22.544535633  0.000000000  0.000000000     0.044356647  0.000000000  0.000000000
     0.000000000 21.839813546  0.000000000     0.000000000  0.045787937  0.000000000
     0.000000000  0.000000000 22.600410503     0.000000000  0.000000000  0.044246984

  length of vectors
    22.544535633 21.839813546 22.600410503     0.044356647  0.045787937  0.044246984

  position of ions in fractional coordinates (direct lattice)
     0.448851816  0.514391056  0.608076622
     0.384822149  0.564791724  0.517829111
     0.463442507  0.469778653  0.494767580
     0.450149710  0.565572873  0.417242444
     0.568323792  0.418115204  0.499462432
     0.505911637  0.588854558  0.520225316
     0.564800581  0.501319454  0.581193346

  ion indices of the primitive-cell ions
   primitive index   ion index
                 1           1
                 2           2
                 3           3
                 4           4
                 5           5
                 6           6
                 7           7

----------------------------------------------------------------------------------------

 
 
 KPOINTS: KPOINTS created by Atomic Simulation Env

Automatic generation of k-mesh.
Space group operators:
 irot       det(A)        alpha          n_x          n_y          n_z        tau_x        tau_y        tau_z
    1     1.000000     0.000000     1.000000     0.000000     0.000000     0.000000     0.000000     0.000000
 
 Subroutine IBZKPT returns following result:
 ===========================================
 
 Found      1 irreducible k-points:
 
 Following reciprocal coordinates:
            Coordinates               Weight
  0.000000  0.000000  0.000000      1.000000
 
 Following cartesian coordinates:
            Coordinates               Weight
  0.000000  0.000000  0.000000      1.000000
 


--------------------------------------------------------------------------------------------------------




 Dimension of arrays:
   k-points           NKPTS =      1   k-points in BZ     NKDIM =      1   number of bands    NBANDS=     18
   number of dos      NEDOS =    301   number of ions     NIONS =      7
   non local maximal  LDIM  =      4   non local SUM 2l+1 LMDIM =      8
   total plane-waves  NPLWV = ******
   max r-space proj   IRMAX =      1   max aug-charges    IRDMAX=   4937
   dimension x,y,z NGX =   112 NGY =  108 NGZ =  112
   dimension x,y,z NGXF=   224 NGYF=  216 NGZF=  224
   support grid    NGXF=   224 NGYF=  216 NGZF=  224
   ions per type =               7
   NGX,Y,Z   is equivalent  to a cutoff of   8.26,  8.22,  8.24 a.u.
   NGXF,Y,Z  is equivalent  to a cutoff of  16.52, 16.44, 16.48 a.u.

 SYSTEM =  unknown system                          
 POSCAR =  Al                                      

 Startparameter for this run:
   NWRITE =      2    write-flag & timer
   PREC   = normal    normal or accurate (medium, high low for compatibility)
   ISTART =      0    job   : 0-new  1-cont  2-samecut
   ICHARG =      2    charge: 1-file 2-atom 10-const
   ISPIN  =      2    spin polarized calculation?
   LNONCOLLINEAR =      F non collinear calculations
   LSORBIT =      F    spin-orbit coupling
   INIWAV =      1    electr: 0-lowe 1-rand  2-diag
   LASPH  =      F    aspherical Exc in radial PAW
   METAGGA=      F    non-selfconsistent MetaGGA calc.

 Electronic Relaxation 1
   ENCUT  =  400.0 eV  29.40 Ry    5.42 a.u.  36.76 35.62 36.86*2*pi/ulx,y,z
   ENINI  =  400.0     initial cutoff
   ENAUG  =  291.1 eV  augmentation charge cutoff
   NELM   =     60;   NELMIN=  2; NELMDL=  0     # of ELM steps 
   EDIFF  = 0.1E-03   stopping-criterion for ELM
   LREAL  =      F    real-space projection
   NLSPLINE    = F    spline interpolate recip. space projectors
   LCOMPAT=      F    compatible to vasp.4.4
   GGA_COMPAT  = T    GGA compatible to vasp.4.4-vasp.4.6
   LMAXPAW     = -100 max onsite density
   LMAXMIX     =    2 max onsite mixed and CHGCAR
   VOSKOWN=      0    Vosko Wilk Nusair interpolation
   ROPT   =    0.00000
 Ionic relaxation
   EDIFFG = 0.1E-02   stopping-criterion for IOM
   NSW    =   1000    number of steps for IOM
   NBLOCK =      1;   KBLOCK =   1000    inner block; outer block 
   IBRION =      2    ionic relax: 0-MD 1-quasi-New 2-CG
   NFREE  =      1    steps in history (QN), initial steepest desc. (CG)
   ISIF   =      0    stress and relaxation
   IWAVPR =     11    prediction:  0-non 1-charg 2-wave 3-comb
   ISYM   =      0    0-nonsym 1-usesym 2-fastsym
   LCORR  =      T    Harris-Foulkes like correction to forces

   POTIM  = 0.5000    time-step for ionic-motion
   TEIN   =    0.0    initial temperature
   TEBEG  =    0.0;   TEEND  =   0.0 temperature during run
   SMASS  =  -3.00    Nose mass-parameter (am)
   estimated Nose-frequenzy (Omega)   =  0.10E-29 period in steps = 0.13E+47 mass=  -0.116E-25a.u.
   SCALEE = 1.0000    scale energy and forces
   NPACO  =    256;   APACO  = 16.0  distance and # of slots for P.C.
   PSTRESS=    0.0 pullay stress

  Mass of Ions in am
   POMASS =  26.98
  Ionic Valenz
   ZVAL   =   3.00
  Atomic Wigner-Seitz radii
   RWIGS  =  -1.00
  virtual crystal weights 
   VCA    =   1.00
   NELECT =      21.0000    total number of electrons
   NUPDOWN=      -1.0000    fix difference up-down

 DOS related values:
   EMIN   =  10.00;   EMAX   =-10.00  energy-range for DOS
   EFERMI =   0.00
   ISMEAR =     1;   SIGMA  =   0.20  broadening in eV -4-tet -1-fermi 0-gaus

 Electronic relaxation 2 (details)
   IALGO  =     38    algorithm
   LDIAG  =      T    sub-space diagonalisation (order eigenvalues)
   LSUBROT=      F    optimize rotation matrix (better conditioning)
   TURBO    =      0    0=normal 1=particle mesh
   IRESTART =      0    0=no restart 2=restart with 2 vectors
   NREBOOT  =      0    no. of reboots
   NMIN     =      0    reboot dimension
   EREF     =   0.00    reference energy to select bands
   IMIX   =      4    mixing-type and parameters
     AMIX     =   0.40;   BMIX     =  1.00
     AMIX_MAG =   1.60;   BMIX_MAG =  1.00
     AMIN     =   0.10
     WC   =   100.;   INIMIX=   1;  MIXPRE=   1;  MAXMIX= -45

 Intra band minimization:
   WEIMIN = 0.0010     energy-eigenvalue tresh-hold
   EBREAK =  0.14E-05  absolut break condition
   DEPER  =   0.30     relativ break condition  

   TIME   =   0.40     timestep for ELM

  volume/ion in A,a.u.               =    1589.68     10727.66
  Fermi-wavevector in a.u.,A,eV,Ry     =   0.202308  0.382306  0.556865  0.040928
  Thomas-Fermi vector in A             =   0.959092
 
 Write flags
   LWAVE        =      F    write WAVECAR
   LDOWNSAMPLE  =      F    k-point downsampling of WAVECAR
   LCHARG       =      F    write CHGCAR
   LVTOT        =      F    write LOCPOT, total local potential
   LVHAR        =      F    write LOCPOT, Hartree potential only
   LELF         =      F    write electronic localiz. function (ELF)
   LORBIT       =      0    0 simple, 1 ext, 2 COOP (PROOUT), +10 PAW based schemes


 Dipole corrections
   LMONO  =      F    monopole corrections only (constant potential shift)
   LDIPOL =      F    correct potential (dipole corrections)
   IDIPOL =      0    1-x, 2-y, 3-z, 4-all directions 
   EPSILON=  1.0000000 bulk dielectric constant

 Exchange correlation treatment:
   GGA     =    PE    GGA type
   LEXCH   =     8    internal setting for exchange type
   VOSKOWN=      0    Vosko Wilk Nusair interpolation
   LHFCALC =     F    Hartree Fock is set to
   LHFONE  =     F    Hartree Fock one center treatment
   AEXX    =    0.0000 exact exchange contribution

 Linear response parameters
   LEPSILON=     F    determine dielectric tensor
   LRPA    =     F    only Hartree local field effects (RPA)
   LNABLA  =     F    use nabla operator in PAW spheres
   LVEL    =     F    velocity operator in full k-point grid
   LINTERFAST=   F  fast interpolation
   KINTER  =     0    interpolate to denser k-point grid
   CSHIFT  =0.1000    complex shift for real part using Kramers Kronig
   OMEGAMAX=  -1.0    maximum frequency
   DEG_THRESHOLD= 0.2000000E-02 threshold for treating states as degnerate
   RTIME   =   -0.100 relaxation time in fs
  (WPLASMAI=    0.000 imaginary part of plasma frequency in eV, 0.658/RTIME)
   DFIELD  = 0.0000000 0.0000000 0.0000000 field for delta impulse in time
 
 Orbital magnetization related:
   ORBITALMAG=     F  switch on orbital magnetization
   LCHIMAG   =     F  perturbation theory with respect to B field
   DQ        =  0.001000  dq finite difference perturbation B field
   LLRAUG    =     F  two centre corrections for induced B field



--------------------------------------------------------------------------------------------------------


 conjugate gradient relaxation of ions
 charge density and potential will be updated during run
 spin polarized calculation
 Variant of blocked Davidson
 Davidson routine will perform the subspace rotation
 perform sub-space diagonalisation
    after iterative eigenvector-optimisation
 modified Broyden-mixing scheme, WC =      100.0
 initial mixing is a Kerker type mixing with AMIX =  0.4000 and BMIX =      1.0000
 Hartree-type preconditioning will be used
 using additional bands             7
 reciprocal scheme for non local part
 use partial core corrections
 calculate Harris-corrections to forces 
   (improved forces if not selfconsistent)
 use gradient corrections 
 use of overlap-Matrix (Vanderbilt PP)
 Methfessel and Paxton  Order N= 1 SIGMA  =   0.20


--------------------------------------------------------------------------------------------------------


  energy-cutoff  :      400.00
  volume of cell :    11127.73
      direct lattice vectors                 reciprocal lattice vectors
    22.544535633  0.000000000  0.000000000     0.044356647  0.000000000  0.000000000
     0.000000000 21.839813546  0.000000000     0.000000000  0.045787937  0.000000000
     0.000000000  0.000000000 22.600410503     0.000000000  0.000000000  0.044246984

  length of vectors
    22.544535633 21.839813546 22.600410503     0.044356647  0.045787937  0.044246984


 
 k-points in units of 2pi/SCALE and weight: KPOINTS created by Atomic Simulation Env
   0.00000000  0.00000000  0.00000000       1.000
 
 k-points in reciprocal lattice and weights: KPOINTS created by Atomic Simulation Env
   0.00000000  0.00000000  0.00000000       1.000
 
 position of ions in fractional coordinates (direct lattice) 
   0.44885182  0.51439106  0.60807662
   0.38482215  0.56479172  0.51782911
   0.46344251  0.46977865  0.49476758
   0.45014971  0.56557287  0.41724244
   0.56832379  0.41811520  0.49946243
   0.50591164  0.58885456  0.52022532
   0.56480058  0.50131945  0.58119335
 
 position of ions in cartesian coordinates  (Angst):
  10.11915577 11.23420475 13.74278127
   8.67563665 12.33494595 11.70315047
  10.44809611 10.25987818 11.18195042
  10.14841618 12.35200609  9.42985050
  12.81259599  9.13155810 11.28805599
  11.40554292 12.86047375 11.75730569
  12.73316683 10.94872340 13.13520821
 


--------------------------------------------------------------------------------------------------------


 use parallel FFT for orbitals z direction half grid
 k-point   1 :   0.0000 0.0000 0.0000  plane waves:  101052

 maximum and minimum number of plane-waves per node :     12643    12622

 maximum number of plane-waves:    101052
 maximum index in each direction: 
   IXMAX=   36   IYMAX=   35   IZMAX=   36
   IXMIN=  -36   IYMIN=  -35   IZMIN=    0


 parallel 3D FFT for wavefunctions:
    minimum data exchange during FFTs selected (reduces bandwidth)
 parallel 3D FFT for charge:
    minimum data exchange during FFTs selected (reduces bandwidth)


 total amount of memory used by VASP MPI-rank0   200756. kBytes
=======================================================================

   base      :      30000. kBytes
   nonl-proj :       2225. kBytes
   fftplans  :      49429. kBytes
   grid      :     111815. kBytes
   one-center:          3. kBytes
   wavefun   :       7284. kBytes
 
     INWAV:  cpu time    0.0000: real time    0.0000
 Broyden mixing: mesh for mixing (old mesh)
   NGX = 73   NGY = 71   NGZ = 73
  (NGX  =224   NGY  =216   NGZ  =224)
  gives a total of 378359 points

 initial charge density was supplied:
 charge density of overlapping atoms calculated
 number of electron      21.0000000 magnetization       7.0000000
 keeping initial charge density in first step


--------------------------------------------------------------------------------------------------------


 Maximum index for augmentation-charges           600 (set IRDMAX)


--------------------------------------------------------------------------------------------------------


 First call to EWALD:  gamma=   0.079
 Maximum number of real-space cells 3x 3x 3
 Maximum number of reciprocal cells 3x 3x 3

    FEWALD:  cpu time    0.0011: real time    0.0011


--------------------------------------- Iteration      1(   1)  ---------------------------------------


    POTLOK:  cpu time    4.0640: real time    4.0734
    SETDIJ:  cpu time    0.0263: real time    0.0263
     EDDAV:  cpu time    2.3170: real time    2.3191
       DOS:  cpu time    0.0008: real time    0.0008
    --------------------------------------------
      LOOP:  cpu time    6.4081: real time    6.4196

 eigenvalue-minimisations  :   104
 total energy-change (2. order) : 0.4563990E+02  (-0.3229419E+03)
 number of electron      21.0000000 magnetization       7.0000000
 augmentation part       21.0000000 magnetization       7.0000000

 Free energy of the ion-electron system (eV)
  ---------------------------------------------------
  alpha Z        PSCENC =        -0.01479023
  Ewald energy   TEWEN  =       463.12613773
  -Hartree energ DENC   =      -711.31011172
  -exchange      EXHF   =         0.00000000
  -V(xc)+E(xc)   XCENC  =      -190.42907279
  PAW double counting   =       462.65713654     -238.99141827
  entropy T*S    EENTRO =        -0.00484743
  eigenvalues    EBANDS =      -114.16021087
  atomic energy  EATOM  =       374.76708025
  Solvation  Ediel_sol  =         0.00000000
  ---------------------------------------------------
  free energy    TOTEN  =        45.63990321 eV

  energy without entropy =       45.64475064  energy(sigma->0) =       45.64151902


--------------------------------------------------------------------------------------------------------




--------------------------------------- Iteration      1(   2)  ---------------------------------------


     EDDAV:  cpu time    2.1999: real time    2.2067
       DOS:  cpu time    0.0015: real time    0.0015
    --------------------------------------------
      LOOP:  cpu time    2.2015: real time    2.2101

 eigenvalue-minimisations  :   104
 total energy-change (2. order) :-0.5120318E+02  (-0.5070223E+02)
 number of electron      21.0000000 magnetization       7.0000000
 augmentation part       21.0000000 magnetization       7.0000000

 Free energy of the ion-electron system (eV)
  ---------------------------------------------------
  alpha Z        PSCENC =        -0.01479023
  Ewald energy   TEWEN  =       463.12613773
  -Hartree energ DENC   =      -711.31011172
  -exchange      EXHF   =         0.00000000
  -V(xc)+E(xc)   XCENC  =      -190.42907279
  PAW double counting   =       462.65713654     -238.99141827
  entropy T*S    EENTRO =         0.02089186
  eigenvalues    EBANDS =      -165.38913168
  atomic energy  EATOM  =       374.76708025
  Solvation  Ediel_sol  =         0.00000000
  ---------------------------------------------------
  free energy    TOTEN  =        -5.56327831 eV

  energy without entropy =       -5.58417017  energy(sigma->0) =       -5.57024226


--------------------------------------------------------------------------------------------------------




--------------------------------------- Iteration      1(   3)  ---------------------------------------


     EDDAV:  cpu time    2.1649: real time    2.1712
       DOS:  cpu time    0.0018: real time    0.0018
    --------------------------------------------
      LOOP:  cpu time    2.1666: real time    2.1711

 eigenvalue-minimisations  :    96
 total energy-change (2. order) :-0.1117318E+02  (-0.1089319E+02)
 number of electron      21.0000000 magnetization       7.0000000
 augmentation part       21.0000000 magnetization       7.0000000

 Free energy of the ion-electron system (eV)
  ---------------------------------------------------
  alpha Z        PSCENC =        -0.01479023
  Ewald energy   TEWEN  =       463.12613773
  -Hartree energ DENC   =      -711.31011172
  -exchange      EXHF   =         0.00000000
  -V(xc)+E(xc)   XCENC  =      -190.42907279
  PAW double counting   =       462.65713654     -238.99141827
  entropy T*S    EENTRO =         0.00454018
  eigenvalues    EBANDS =      -176.54595807
  atomic energy  EATOM  =       374.76708025
  Solvation  Ediel_sol  =         0.00000000
  ---------------------------------------------------
  free energy    TOTEN  =       -16.73645637 eV

  energy without entropy =      -16.74099656  energy(sigma->0) =      -16.73796977


--------------------------------------------------------------------------------------------------------




--------------------------------------- Iteration      1(   4)  ---------------------------------------


     EDDAV:  cpu time    1.9798: real time    1.9843
       DOS:  cpu time    0.0014: real time    0.0014
    --------------------------------------------
      LOOP:  cpu time    1.9811: real time    1.9857

 eigenvalue-minimisations  :    90
 total energy-change (2. order) :-0.5476895E+00  (-0.5424723E+00)
 number of electron      21.0000000 magnetization       7.0000000
 augmentation part       21.0000000 magnetization       7.0000000

 Free energy of the ion-electron system (eV)
  ---------------------------------------------------
  alpha Z        PSCENC =        -0.01479023
  Ewald energy   TEWEN  =       463.12613773
  -Hartree energ DENC   =      -711.31011172
  -exchange      EXHF   =         0.00000000
  -V(xc)+E(xc)   XCENC  =      -190.42907279
  PAW double counting   =       462.65713654     -238.99141827
  entropy T*S    EENTRO =         0.03448114
  eigenvalues    EBANDS =      -177.12358850
  atomic energy  EATOM  =       374.76708025
  Solvation  Ediel_sol  =         0.00000000
  ---------------------------------------------------
  free energy    TOTEN  =       -17.28414585 eV

  energy without entropy =      -17.31862699  energy(sigma->0) =      -17.29563956


--------------------------------------------------------------------------------------------------------




--------------------------------------- Iteration      1(   5)  ---------------------------------------


     EDDAV:  cpu time    2.4052: real time    2.4080
       DOS:  cpu time    0.0013: real time    0.0013
    CHARGE:  cpu time    0.4588: real time    0.4659
    MIXING:  cpu time    0.0656: real time    0.0656
    --------------------------------------------
      LOOP:  cpu time    2.9308: real time    2.9408

 eigenvalue-minimisations  :   112
 total energy-change (2. order) :-0.2256129E-01  (-0.2253358E-01)
 number of electron      21.0000000 magnetization       6.5404230
 augmentation part       -0.3692412 magnetization       3.5414664

 Broyden mixing:
  rms(total) = 0.55939E+00    rms(broyden)= 0.55939E+00
  rms(prec ) = 0.67732E+00
  weight for this iteration     100.00

 Free energy of the ion-electron system (eV)
  ---------------------------------------------------
  alpha Z        PSCENC =        -0.01479023
  Ewald energy   TEWEN  =       463.12613773
  -Hartree energ DENC   =      -711.31011172
  -exchange      EXHF   =         0.00000000
  -V(xc)+E(xc)   XCENC  =      -190.42907279
  PAW double counting   =       462.65713654     -238.99141827
  entropy T*S    EENTRO =         0.03393644
  eigenvalues    EBANDS =      -177.14560509
  atomic energy  EATOM  =       374.76708025
  Solvation  Ediel_sol  =         0.00000000
  ---------------------------------------------------
  free energy    TOTEN  =       -17.30670714 eV

  energy without entropy =      -17.34064358  energy(sigma->0) =      -17.31801928


--------------------------------------------------------------------------------------------------------




--------------------------------------- Iteration      1(   6)  ---------------------------------------


    POTLOK:  cpu time    4.0195: real time    4.0326
    SETDIJ:  cpu time    0.0253: real time    0.0254
     EDDAV:  cpu time    1.8404: real time    1.8465
       DOS:  cpu time    0.0010: real time    0.0010
    CHARGE:  cpu time    0.4448: real time    0.4473
    MIXING:  cpu time    0.0865: real time    0.0887
    --------------------------------------------
      LOOP:  cpu time    6.4176: real time    6.4415

 eigenvalue-minimisations  :    76
 total energy-change (2. order) : 0.4603098E+01  (-0.9477154E+00)
 number of electron      21.0000000 magnetization       5.9778964
 augmentation part       -0.3764113 magnetization       2.9027508

 Broyden mixing:
  rms(total) = 0.28294E+00    rms(broyden)= 0.28294E+00
  rms(prec ) = 0.32906E+00
  weight for this iteration     100.00

 eigenvalues of (default mixing * dielectric matrix)
  average eigenvalue GAMMA=   1.1139
  1.1139

 Free energy of the ion-electron system (eV)
  ---------------------------------------------------
  alpha Z        PSCENC =        -0.01479023
  Ewald energy   TEWEN  =       463.12613773
  -Hartree energ DENC   =      -723.42186933
  -exchange      EXHF   =         0.00000000
  -V(xc)+E(xc)   XCENC  =      -187.97336836
  PAW double counting   =       565.83488007     -342.22602670
  entropy T*S    EENTRO =         0.02978623
  eigenvalues    EBANDS =      -162.82543893
  atomic energy  EATOM  =       374.76708025
  Solvation  Ediel_sol  =         0.00000000
  ---------------------------------------------------
  free energy    TOTEN  =       -12.70360926 eV

  energy without entropy =      -12.73339549  energy(sigma->0) =      -12.71353800


--------------------------------------------------------------------------------------------------------




--------------------------------------- Iteration      1(   7)  ---------------------------------------


    POTLOK:  cpu time    3.9978: real time    4.0028
    SETDIJ:  cpu time    0.0284: real time    0.0284
     EDDAV:  cpu time    1.9662: real time    1.9702
       DOS:  cpu time    0.0011: real time    0.0011
    CHARGE:  cpu time    0.4478: real time    0.4504
    MIXING:  cpu time    0.0760: real time    0.0760
    --------------------------------------------
      LOOP:  cpu time    6.5172: real time    6.5289

 eigenvalue-minimisations  :    86
 total energy-change (2. order) : 0.3733597E+01  (-0.3288842E+00)
 number of electron      21.0000000 magnetization       5.6008990
 augmentation part       -0.3728591 magnetization       2.6106127

 Broyden mixing:
  rms(total) = 0.15693E+00    rms(broyden)= 0.15693E+00
  rms(prec ) = 0.17120E+00
  weight for this iteration     100.00

 eigenvalues of (default mixing * dielectric matrix)
  average eigenvalue GAMMA=   1.1948
  0.7799  1.6098

 Free energy of the ion-electron system (eV)
  ---------------------------------------------------
  alpha Z        PSCENC =        -0.01479023
  Ewald energy   TEWEN  =       463.12613773
  -Hartree energ DENC   =      -732.79717479
  -exchange      EXHF   =         0.00000000
  -V(xc)+E(xc)   XCENC  =      -184.25219271
  PAW double counting   =       648.59242906     -425.04372064
  entropy T*S    EENTRO =         0.03370466
  eigenvalues    EBANDS =      -153.38148573
  atomic energy  EATOM  =       374.76708025
  Solvation  Ediel_sol  =         0.00000000
  ---------------------------------------------------
  free energy    TOTEN  =        -8.97001239 eV

  energy without entropy =       -9.00371705  energy(sigma->0) =       -8.98124728


--------------------------------------------------------------------------------------------------------




--------------------------------------- Iteration      1(   8)  ---------------------------------------


    POTLOK:  cpu time    3.9732: real time    3.9857
    SETDIJ:  cpu time    0.0261: real time    0.0261
     EDDAV:  cpu time    1.9477: real time    1.9540
       DOS:  cpu time    0.0004: real time    0.0004
    CHARGE:  cpu time    0.4373: real time    0.4399
    MIXING:  cpu time    0.1137: real time    0.1138
    --------------------------------------------
      LOOP:  cpu time    6.4985: real time    6.5199

 eigenvalue-minimisations  :    86
 total energy-change (2. order) :-0.9900531E+00  (-0.4525561E-01)
 number of electron      21.0000000 magnetization       5.1697399
 augmentation part       -0.3711464 magnetization       2.2651507

 Broyden mixing:
  rms(total) = 0.11170E+00    rms(broyden)= 0.11170E+00
  rms(prec ) = 0.12201E+00
  weight for this iteration     100.00

 eigenvalues of (default mixing * dielectric matrix)
  average eigenvalue GAMMA=   1.1882
  1.7786  1.1054  0.6804

 Free energy of the ion-electron system (eV)
  ---------------------------------------------------
  alpha Z        PSCENC =        -0.01479023
  Ewald energy   TEWEN  =       463.12613773
  -Hartree energ DENC   =      -735.56707051
  -exchange      EXHF   =         0.00000000
  -V(xc)+E(xc)   XCENC  =      -184.88513338
  PAW double counting   =       677.75741623     -454.21266643
  entropy T*S    EENTRO =         0.04181854
  eigenvalues    EBANDS =      -150.97285773
  atomic energy  EATOM  =       374.76708025
  Solvation  Ediel_sol  =         0.00000000
  ---------------------------------------------------
  free energy    TOTEN  =        -9.96006552 eV

  energy without entropy =      -10.00188407  energy(sigma->0) =       -9.97400504


--------------------------------------------------------------------------------------------------------




--------------------------------------- Iteration      1(   9)  ---------------------------------------


    POTLOK:  cpu time    3.9717: real time    3.9832
    SETDIJ:  cpu time    0.0238: real time    0.0238
     EDDAV:  cpu time    2.0320: real time    2.0339
       DOS:  cpu time    0.0004: real time    0.0004
    CHARGE:  cpu time    0.4254: real time    0.4259
    MIXING:  cpu time    0.0872: real time    0.0872
    --------------------------------------------
      LOOP:  cpu time    6.5406: real time    6.5544

 eigenvalue-minimisations  :    92
 total energy-change (2. order) :-0.1169906E+01  (-0.3120748E-01)
 number of electron      21.0000000 magnetization       4.8164179
 augmentation part       -0.3670158 magnetization       1.7965333

 Broyden mixing:
  rms(total) = 0.76748E-01    rms(broyden)= 0.76748E-01
  rms(prec ) = 0.83227E-01
  weight for this iteration     100.00

 eigenvalues of (default mixing * dielectric matrix)
  average eigenvalue GAMMA=   1.1831
  1.5737  1.5737  0.9468  0.6381

 Free energy of the ion-electron system (eV)
  ---------------------------------------------------
  alpha Z        PSCENC =        -0.01479023
  Ewald energy   TEWEN  =       463.12613773
  -Hartree energ DENC   =      -738.06255583
  -exchange      EXHF   =         0.00000000
  -V(xc)+E(xc)   XCENC  =      -185.65690128
  PAW double counting   =       699.59427833     -476.05564607
  entropy T*S    EENTRO =         0.04299977
  eigenvalues    EBANDS =      -148.87057410
  atomic energy  EATOM  =       374.76708025
  Solvation  Ediel_sol  =         0.00000000
  ---------------------------------------------------
  free energy    TOTEN  =       -11.12997143 eV

  energy without entropy =      -11.17297120  energy(sigma->0) =      -11.14430469


--------------------------------------------------------------------------------------------------------




--------------------------------------- Iteration      1(  10)  ---------------------------------------


    POTLOK:  cpu time    3.9823: real time    3.9894
    SETDIJ:  cpu time    0.0251: real time    0.0251
     EDDAV:  cpu time    1.7195: real time    1.7232
       DOS:  cpu time    0.0004: real time    0.0004
    CHARGE:  cpu time    0.4491: real time    0.4517
    MIXING:  cpu time    0.0954: real time    0.0955
    --------------------------------------------
      LOOP:  cpu time    6.2718: real time    6.2854

 eigenvalue-minimisations  :    74
 total energy-change (2. order) :-0.1501069E+01  (-0.4290591E-01)
 number of electron      21.0000000 magnetization       4.4302752
 augmentation part       -0.3642057 magnetization       1.4593099

 Broyden mixing:
  rms(total) = 0.57617E-01    rms(broyden)= 0.57617E-01
  rms(prec ) = 0.61530E-01
  weight for this iteration     100.00

 eigenvalues of (default mixing * dielectric matrix)
  average eigenvalue GAMMA=   1.2691
  1.9375  1.9375  0.9360  0.9360  0.5985

 Free energy of the ion-electron system (eV)
  ---------------------------------------------------
  alpha Z        PSCENC =        -0.01479023
  Ewald energy   TEWEN  =       463.12613773
  -Hartree energ DENC   =      -739.68368352
  -exchange      EXHF   =         0.00000000
  -V(xc)+E(xc)   XCENC  =      -186.76480875
  PAW double counting   =       715.94506684     -492.39711040
  entropy T*S    EENTRO =         0.03165244
  eigenvalues    EBANDS =      -147.64058527
  atomic energy  EATOM  =       374.76708025
  Solvation  Ediel_sol  =         0.00000000
  ---------------------------------------------------
  free energy    TOTEN  =       -12.63104091 eV

  energy without entropy =      -12.66269334  energy(sigma->0) =      -12.64159172


--------------------------------------------------------------------------------------------------------




--------------------------------------- Iteration      1(  11)  ---------------------------------------


    POTLOK:  cpu time    3.9363: real time    3.9474
    SETDIJ:  cpu time    0.0268: real time    0.0268
     EDDAV:  cpu time    1.7254: real time    1.7315
       DOS:  cpu time    0.0004: real time    0.0004
    CHARGE:  cpu time    0.4462: real time    0.4510
    MIXING:  cpu time    0.1037: real time    0.1038
    --------------------------------------------
      LOOP:  cpu time    6.2388: real time    6.2609

 eigenvalue-minimisations  :    72
 total energy-change (2. order) :-0.1186020E+01  (-0.2711397E-01)
 number of electron      21.0000000 magnetization       4.1497650
 augmentation part       -0.3627420 magnetization       1.3089977

 Broyden mixing:
  rms(total) = 0.45434E-01    rms(broyden)= 0.45434E-01
  rms(prec ) = 0.48230E-01
  weight for this iteration     100.00

 eigenvalues of (default mixing * dielectric matrix)
  average eigenvalue GAMMA=   1.2834
  2.0838  2.0838  1.2205  0.9342  0.7469  0.6312

 Free energy of the ion-electron system (eV)
  ---------------------------------------------------
  alpha Z        PSCENC =        -0.01479023
  Ewald energy   TEWEN  =       463.12613773
  -Hartree energ DENC   =      -740.71464925
  -exchange      EXHF   =         0.00000000
  -V(xc)+E(xc)   XCENC  =      -187.70531696
  PAW double counting   =       728.72706927     -505.16477828
  entropy T*S    EENTRO =         0.01313314
  eigenvalues    EBANDS =      -146.85094684
  atomic energy  EATOM  =       374.76708025
  Solvation  Ediel_sol  =         0.00000000
  ---------------------------------------------------
  free energy    TOTEN  =       -13.81706116 eV

  energy without entropy =      -13.83019430  energy(sigma->0) =      -13.82143887


--------------------------------------------------------------------------------------------------------




--------------------------------------- Iteration      1(  12)  ---------------------------------------


    POTLOK:  cpu time    3.9769: real time    3.9883
    SETDIJ:  cpu time    0.0250: real time    0.0272
     EDDAV:  cpu time    2.0612: real time    2.0631
       DOS:  cpu time    0.0005: real time    0.0005
    CHARGE:  cpu time    0.4473: real time    0.4476
    MIXING:  cpu time    0.1110: real time    0.1111
    --------------------------------------------
      LOOP:  cpu time    6.6218: real time    6.6378

 eigenvalue-minimisations  :    92
 total energy-change (2. order) :-0.5282389E+00  (-0.6702344E-02)
 number of electron      21.0000000 magnetization       3.7994601
 augmentation part       -0.3622304 magnetization       1.0778063

 Broyden mixing:
  rms(total) = 0.41241E-01    rms(broyden)= 0.41241E-01
  rms(prec ) = 0.43722E-01
  weight for this iteration     100.00

 eigenvalues of (default mixing * dielectric matrix)
  average eigenvalue GAMMA=   1.3128
  2.4515  1.6136  1.6136  1.0912  1.0912  0.7284  0.6003

 Free energy of the ion-electron system (eV)
  ---------------------------------------------------
  alpha Z        PSCENC =        -0.01479023
  Ewald energy   TEWEN  =       463.12613773
  -Hartree energ DENC   =      -741.23564550
  -exchange      EXHF   =         0.00000000
  -V(xc)+E(xc)   XCENC  =      -188.14507129
  PAW double counting   =       733.79331598     -510.22186153
  entropy T*S    EENTRO =        -0.00189509
  eigenvalues    EBANDS =      -146.41257040
  atomic energy  EATOM  =       374.76708025
  Solvation  Ediel_sol  =         0.00000000
  ---------------------------------------------------
  free energy    TOTEN  =       -14.34530009 eV

  energy without entropy =      -14.34340499  energy(sigma->0) =      -14.34466839


--------------------------------------------------------------------------------------------------------




--------------------------------------- Iteration      1(  13)  ---------------------------------------


    POTLOK:  cpu time    3.9258: real time    3.9309
    SETDIJ:  cpu time    0.0239: real time    0.0239
     EDDAV:  cpu time    1.8757: real time    1.8798
       DOS:  cpu time    0.0004: real time    0.0004
    CHARGE:  cpu time    0.4445: real time    0.4448
    MIXING:  cpu time    0.1248: real time    0.1250
    --------------------------------------------
      LOOP:  cpu time    6.3951: real time    6.4049

 eigenvalue-minimisations  :    82
 total energy-change (2. order) :-0.4690685E+00  (-0.5666354E-02)
 number of electron      21.0000000 magnetization       3.1878064
 augmentation part       -0.3622657 magnetization       0.6418151

 Broyden mixing:
  rms(total) = 0.35720E-01    rms(broyden)= 0.35720E-01
  rms(prec ) = 0.37675E-01
  weight for this iteration     100.00

 eigenvalues of (default mixing * dielectric matrix)
  average eigenvalue GAMMA=   1.5769
  3.6729  2.0372  2.0372  1.4348  1.1728  0.9597  0.6250  0.6755

 Free energy of the ion-electron system (eV)
  ---------------------------------------------------
  alpha Z        PSCENC =        -0.01479023
  Ewald energy   TEWEN  =       463.12613773
  -Hartree energ DENC   =      -741.57121681
  -exchange      EXHF   =         0.00000000
  -V(xc)+E(xc)   XCENC  =      -188.57285699
  PAW double counting   =       734.41536657     -510.83475918
  entropy T*S    EENTRO =        -0.01838452
  eigenvalues    EBANDS =      -146.11094541
  atomic energy  EATOM  =       374.76708025
  Solvation  Ediel_sol  =         0.00000000
  ---------------------------------------------------
  free energy    TOTEN  =       -14.81436859 eV

  energy without entropy =      -14.79598407  energy(sigma->0) =      -14.80824042


--------------------------------------------------------------------------------------------------------




--------------------------------------- Iteration      1(  14)  ---------------------------------------


    POTLOK:  cpu time    3.9633: real time    3.9729
    SETDIJ:  cpu time    0.0250: real time    0.0251
     EDDAV:  cpu time    1.7333: real time    1.7393
       DOS:  cpu time    0.0005: real time    0.0005
    CHARGE:  cpu time    0.4289: real time    0.4295
    MIXING:  cpu time    0.1279: real time    0.1280
    --------------------------------------------
      LOOP:  cpu time    6.2789: real time    6.2952

 eigenvalue-minimisations  :    74
 total energy-change (2. order) :-0.5223544E+00  (-0.1231620E-01)
 number of electron      21.0000000 magnetization       2.6542251
 augmentation part       -0.3624157 magnetization       0.4515301

 Broyden mixing:
  rms(total) = 0.29373E-01    rms(broyden)= 0.29373E-01
  rms(prec ) = 0.30885E-01
  weight for this iteration     100.00

 eigenvalues of (default mixing * dielectric matrix)
  average eigenvalue GAMMA=   1.8245
  6.1322  2.3933  2.3933  1.4492  1.0826  0.9918  0.7275  0.6057  0.6452

 Free energy of the ion-electron system (eV)
  ---------------------------------------------------
  alpha Z        PSCENC =        -0.01479023
  Ewald energy   TEWEN  =       463.12613773
  -Hartree energ DENC   =      -741.77855028
  -exchange      EXHF   =         0.00000000
  -V(xc)+E(xc)   XCENC  =      -189.06796875
  PAW double counting   =       729.92843494     -506.33784084
  entropy T*S    EENTRO =        -0.03457430
  eigenvalues    EBANDS =      -145.92465153
  atomic energy  EATOM  =       374.76708025
  Solvation  Ediel_sol  =         0.00000000
  ---------------------------------------------------
  free energy    TOTEN  =       -15.33672300 eV

  energy without entropy =      -15.30214870  energy(sigma->0) =      -15.32519823


--------------------------------------------------------------------------------------------------------




--------------------------------------- Iteration      1(  15)  ---------------------------------------


    POTLOK:  cpu time    3.9824: real time    3.9926
    SETDIJ:  cpu time    0.0244: real time    0.0245
     EDDAV:  cpu time    1.9163: real time    1.9182
       DOS:  cpu time    0.0005: real time    0.0005
    CHARGE:  cpu time    0.4379: real time    0.4405
    MIXING:  cpu time    0.1320: real time    0.1321
    --------------------------------------------
      LOOP:  cpu time    6.4934: real time    6.5083

 eigenvalue-minimisations  :    86
 total energy-change (2. order) :-0.1168052E+00  (-0.6988921E-02)
 number of electron      21.0000000 magnetization       2.4612330
 augmentation part       -0.3624118 magnetization       0.5754580

 Broyden mixing:
  rms(total) = 0.25457E-01    rms(broyden)= 0.25457E-01
  rms(prec ) = 0.27141E-01
  weight for this iteration     100.00

 eigenvalues of (default mixing * dielectric matrix)
  average eigenvalue GAMMA=   1.7257
  6.5923  2.4479  2.4479  1.4330  1.0686  0.9931  0.7021  0.6384  0.5372  0.3969

 Free energy of the ion-electron system (eV)
  ---------------------------------------------------
  alpha Z        PSCENC =        -0.01479023
  Ewald energy   TEWEN  =       463.12613773
  -Hartree energ DENC   =      -741.97355511
  -exchange      EXHF   =         0.00000000
  -V(xc)+E(xc)   XCENC  =      -189.17948935
  PAW double counting   =       726.21421998     -502.62115878
  entropy T*S    EENTRO =        -0.03231758
  eigenvalues    EBANDS =      -145.73965511
  atomic energy  EATOM  =       374.76708025
  Solvation  Ediel_sol  =         0.00000000
  ---------------------------------------------------
  free energy    TOTEN  =       -15.45352820 eV

  energy without entropy =      -15.42121062  energy(sigma->0) =      -15.44275567


--------------------------------------------------------------------------------------------------------




--------------------------------------- Iteration      1(  16)  ---------------------------------------


    POTLOK:  cpu time    3.9713: real time    3.9824
    SETDIJ:  cpu time    0.0263: real time    0.0263
     EDDAV:  cpu time    2.0732: real time    2.0752
       DOS:  cpu time    0.0005: real time    0.0005
    CHARGE:  cpu time    0.4397: real time    0.4401
    MIXING:  cpu time    0.1424: real time    0.1425
    --------------------------------------------
      LOOP:  cpu time    6.6533: real time    6.6669

 eigenvalue-minimisations  :    96
 total energy-change (2. order) :-0.6888308E-01  (-0.1171144E-02)
 number of electron      21.0000000 magnetization       2.4299344
 augmentation part       -0.3624482 magnetization       0.6765806

 Broyden mixing:
  rms(total) = 0.25219E-01    rms(broyden)= 0.25219E-01
  rms(prec ) = 0.26938E-01
  weight for this iteration     100.00

 eigenvalues of (default mixing * dielectric matrix)
  average eigenvalue GAMMA=   1.6418
  6.6367  2.4425  2.4425  1.4373  1.0258  1.0258  0.7022  0.6378  0.5897  0.5596
  0.5596

 Free energy of the ion-electron system (eV)
  ---------------------------------------------------
  alpha Z        PSCENC =        -0.01479023
  Ewald energy   TEWEN  =       463.12613773
  -Hartree energ DENC   =      -742.00147493
  -exchange      EXHF   =         0.00000000
  -V(xc)+E(xc)   XCENC  =      -189.25307686
  PAW double counting   =       724.77507825     -501.18232581
  entropy T*S    EENTRO =        -0.02651775
  eigenvalues    EBANDS =      -145.71252193
  atomic energy  EATOM  =       374.76708025
  Solvation  Ediel_sol  =         0.00000000
  ---------------------------------------------------
  free energy    TOTEN  =       -15.52241127 eV

  energy without entropy =      -15.49589352  energy(sigma->0) =      -15.51357202


--------------------------------------------------------------------------------------------------------




--------------------------------------- Iteration      1(  17)  ---------------------------------------


    POTLOK:  cpu time    3.9150: real time    3.9216
    SETDIJ:  cpu time    0.0253: real time    0.0253
     EDDAV:  cpu time    2.0202: real time    2.0243
       DOS:  cpu time    0.0013: real time    0.0013
    CHARGE:  cpu time    0.4115: real time    0.4141
    MIXING:  cpu time    0.1617: real time    0.1620
    --------------------------------------------
      LOOP:  cpu time    6.5352: real time    6.5486

 eigenvalue-minimisations  :    94
 total energy-change (2. order) :-0.1266584E-01  (-0.6140053E-04)
 number of electron      21.0000000 magnetization       2.3715678
 augmentation part       -0.3625230 magnetization       0.6434921

 Broyden mixing:
  rms(total) = 0.25831E-01    rms(broyden)= 0.25831E-01
  rms(prec ) = 0.27495E-01
  weight for this iteration     100.00

 eigenvalues of (default mixing * dielectric matrix)
  average eigenvalue GAMMA=   1.5162
  6.5925  2.4397  2.4397  1.4326  1.0272  1.0272  0.7074  0.6368  0.5867  0.5409
  0.5409  0.2226

 Free energy of the ion-electron system (eV)
  ---------------------------------------------------
  alpha Z        PSCENC =        -0.01479023
  Ewald energy   TEWEN  =       463.12613773
  -Hartree energ DENC   =      -741.99016998
  -exchange      EXHF   =         0.00000000
  -V(xc)+E(xc)   XCENC  =      -189.26762323
  PAW double counting   =       724.58004338     -500.98717113
  entropy T*S    EENTRO =        -0.02510214
  eigenvalues    EBANDS =      -145.72348176
  atomic energy  EATOM  =       374.76708025
  Solvation  Ediel_sol  =         0.00000000
  ---------------------------------------------------
  free energy    TOTEN  =       -15.53507711 eV

  energy without entropy =      -15.50997497  energy(sigma->0) =      -15.52670973


--------------------------------------------------------------------------------------------------------




--------------------------------------- Iteration      1(  18)  ---------------------------------------


    POTLOK:  cpu time    3.9762: real time    3.9818
    SETDIJ:  cpu time    0.0254: real time    0.0254
     EDDAV:  cpu time    1.7557: real time    1.7616
       DOS:  cpu time    0.0018: real time    0.0018
    CHARGE:  cpu time    0.4468: real time    0.4473
    MIXING:  cpu time    0.1699: real time    0.1722
    --------------------------------------------
      LOOP:  cpu time    6.3758: real time    6.3901

 eigenvalue-minimisations  :    74
 total energy-change (2. order) :-0.3025918E-01  (-0.8770242E-04)
 number of electron      21.0000000 magnetization       2.3706809
 augmentation part       -0.3625247 magnetization       0.6840897

 Broyden mixing:
  rms(total) = 0.27622E-01    rms(broyden)= 0.27622E-01
  rms(prec ) = 0.29250E-01
  weight for this iteration     100.00

 eigenvalues of (default mixing * dielectric matrix)
  average eigenvalue GAMMA=   1.5283
  6.4988  2.4247  2.4247  1.0263  1.0263  1.4309  1.0228  1.0228  0.6969  0.6427
  0.5813  0.5351  0.5351

 Free energy of the ion-electron system (eV)
  ---------------------------------------------------
  alpha Z        PSCENC =        -0.01479023
  Ewald energy   TEWEN  =       463.12613773
  -Hartree energ DENC   =      -741.96642205
  -exchange      EXHF   =         0.00000000
  -V(xc)+E(xc)   XCENC  =      -189.30179784
  PAW double counting   =       723.94247491     -500.34939726
  entropy T*S    EENTRO =        -0.02239559
  eigenvalues    EBANDS =      -145.74622621
  atomic energy  EATOM  =       374.76708025
  Solvation  Ediel_sol  =         0.00000000
  ---------------------------------------------------
  free energy    TOTEN  =       -15.56533629 eV

  energy without entropy =      -15.54294070  energy(sigma->0) =      -15.55787109


--------------------------------------------------------------------------------------------------------




--------------------------------------- Iteration      1(  19)  ---------------------------------------


    POTLOK:  cpu time    3.9467: real time    3.9564
    SETDIJ:  cpu time    0.0258: real time    0.0258
     EDDAV:  cpu time    1.1501: real time    1.1533
       DOS:  cpu time    0.0027: real time    0.0027
    CHARGE:  cpu time    0.4094: real time    0.4122
    MIXING:  cpu time    0.1728: real time    0.1730
    --------------------------------------------
      LOOP:  cpu time    5.7074: real time    5.7233

 eigenvalue-minimisations  :    38
 total energy-change (2. order) : 0.6515727E-03  (-0.5117089E-05)
 number of electron      21.0000000 magnetization       2.1971336
 augmentation part       -0.3625226 magnetization       0.5113532

 Broyden mixing:
  rms(total) = 0.27430E-01    rms(broyden)= 0.27430E-01
  rms(prec ) = 0.29058E-01
  weight for this iteration     100.00

 eigenvalues of (default mixing * dielectric matrix)
  average eigenvalue GAMMA=   1.5245
  6.4893  2.4141  2.4141  1.4770  1.4770  1.4308  1.0205  1.0205  0.5983  0.5983
  0.6941  0.6423  0.5675  0.4988

 Free energy of the ion-electron system (eV)
  ---------------------------------------------------
  alpha Z        PSCENC =        -0.01479023
  Ewald energy   TEWEN  =       463.12613773
  -Hartree energ DENC   =      -741.96746079
  -exchange      EXHF   =         0.00000000
  -V(xc)+E(xc)   XCENC  =      -189.30111128
  PAW double counting   =       723.90334715     -500.31028863
  entropy T*S    EENTRO =        -0.02234921
  eigenvalues    EBANDS =      -145.74524971
  atomic energy  EATOM  =       374.76708025
  Solvation  Ediel_sol  =         0.00000000
  ---------------------------------------------------
  free energy    TOTEN  =       -15.56468472 eV

  energy without entropy =      -15.54233551  energy(sigma->0) =      -15.55723498


--------------------------------------------------------------------------------------------------------




--------------------------------------- Iteration      1(  20)  ---------------------------------------


    POTLOK:  cpu time    3.9822: real time    3.9893
    SETDIJ:  cpu time    0.0253: real time    0.0253
     EDDAV:  cpu time    1.7214: real time    1.7230
       DOS:  cpu time    0.0019: real time    0.0019
    CHARGE:  cpu time    0.4280: real time    0.4354
    MIXING:  cpu time    0.2006: real time    0.2008
    --------------------------------------------
      LOOP:  cpu time    6.3594: real time    6.3756

 eigenvalue-minimisations  :    74
 total energy-change (2. order) :-0.5926690E-01  (-0.9518451E-03)
 number of electron      21.0000000 magnetization       1.1827415
 augmentation part       -0.3624400 magnetization      -0.3777030

 Broyden mixing:
  rms(total) = 0.22154E-01    rms(broyden)= 0.22154E-01
  rms(prec ) = 0.24019E-01
  weight for this iteration     100.00

 eigenvalues of (default mixing * dielectric matrix)
  average eigenvalue GAMMA=   1.8610
  9.3571  2.6668  2.6668  2.3868  2.3868  1.2400  1.2400  1.0117  1.0117  0.9177
  0.7762  0.6343  0.6236  0.6236  0.3724

 Free energy of the ion-electron system (eV)
  ---------------------------------------------------
  alpha Z        PSCENC =        -0.01479023
  Ewald energy   TEWEN  =       463.12613773
  -Hartree energ DENC   =      -741.96198185
  -exchange      EXHF   =         0.00000000
  -V(xc)+E(xc)   XCENC  =      -189.36423944
  PAW double counting   =       722.49711620     -498.90391730
  entropy T*S    EENTRO =        -0.01255266
  eigenvalues    EBANDS =      -145.75680433
  atomic energy  EATOM  =       374.76708025
  Solvation  Ediel_sol  =         0.00000000
  ---------------------------------------------------
  free energy    TOTEN  =       -15.62395162 eV

  energy without entropy =      -15.61139897  energy(sigma->0) =      -15.61976740


--------------------------------------------------------------------------------------------------------




--------------------------------------- Iteration      1(  21)  ---------------------------------------


    POTLOK:  cpu time    3.9799: real time    3.9882
    SETDIJ:  cpu time    0.0259: real time    0.0260
     EDDAV:  cpu time    1.8236: real time    1.8275
       DOS:  cpu time    0.0016: real time    0.0016
    CHARGE:  cpu time    0.4462: real time    0.4466
    MIXING:  cpu time    0.2090: real time    0.2092
    --------------------------------------------
      LOOP:  cpu time    6.4862: real time    6.4991

 eigenvalue-minimisations  :    78
 total energy-change (2. order) :-0.3005043E+00  (-0.3056791E-01)
 number of electron      21.0000000 magnetization       1.4344948
 augmentation part       -0.3617120 magnetization       0.3374549

 Broyden mixing:
  rms(total) = 0.76363E-01    rms(broyden)= 0.76363E-01
  rms(prec ) = 0.78589E-01
  weight for this iteration     100.00

 eigenvalues of (default mixing * dielectric matrix)
  average eigenvalue GAMMA=   1.6652
  7.9704  2.7414  2.7414  2.0968  2.0968  1.2993  1.2993  0.8818  0.8818  0.8897
  0.8897  0.6433  0.6253  0.6253  0.4809  0.4809

 Free energy of the ion-electron system (eV)
  ---------------------------------------------------
  alpha Z        PSCENC =        -0.01479023
  Ewald energy   TEWEN  =       463.12613773
  -Hartree energ DENC   =      -741.92638304
  -exchange      EXHF   =         0.00000000
  -V(xc)+E(xc)   XCENC  =      -189.65951121
  PAW double counting   =       717.97488000     -494.38111307
  entropy T*S    EENTRO =         0.04756720
  eigenvalues    EBANDS =      -145.85832356
  atomic energy  EATOM  =       374.76708025
  Solvation  Ediel_sol  =         0.00000000
  ---------------------------------------------------
  free energy    TOTEN  =       -15.92445593 eV

  energy without entropy =      -15.97202313  energy(sigma->0) =      -15.94031166


--------------------------------------------------------------------------------------------------------




--------------------------------------- Iteration      1(  22)  ---------------------------------------


    POTLOK:  cpu time    3.9322: real time    3.9397
    SETDIJ:  cpu time    0.0255: real time    0.0255
     EDDAV:  cpu time    1.7811: real time    1.7895
       DOS:  cpu time    0.0017: real time    0.0017
    CHARGE:  cpu time    0.4437: real time    0.4463
    MIXING:  cpu time    0.2211: real time    0.2213
    --------------------------------------------
      LOOP:  cpu time    6.4052: real time    6.4239

 eigenvalue-minimisations  :    76
 total energy-change (2. order) : 0.6821654E-01  (-0.3199373E-02)
 number of electron      21.0000000 magnetization       1.2726774
 augmentation part       -0.3619974 magnetization       0.1002468

 Broyden mixing:
  rms(total) = 0.47573E-01    rms(broyden)= 0.47573E-01
  rms(prec ) = 0.48206E-01
  weight for this iteration     100.00

 eigenvalues of (default mixing * dielectric matrix)
  average eigenvalue GAMMA=   1.6307
  8.1182  3.1754  3.1754  1.8926  1.8926  1.3000  1.3000  0.9500  0.9500  0.9018
  0.9018  0.6466  0.6264  0.6264  0.4825  0.4825  0.2991

 Free energy of the ion-electron system (eV)
  ---------------------------------------------------
  alpha Z        PSCENC =        -0.01479023
  Ewald energy   TEWEN  =       463.12613773
  -Hartree energ DENC   =      -741.89716014
  -exchange      EXHF   =         0.00000000
  -V(xc)+E(xc)   XCENC  =      -189.58778613
  PAW double counting   =       719.82432057     -496.23089894
  entropy T*S    EENTRO =         0.03672771
  eigenvalues    EBANDS =      -145.87987022
  atomic energy  EATOM  =       374.76708025
  Solvation  Ediel_sol  =         0.00000000
  ---------------------------------------------------
  free energy    TOTEN  =       -15.85623939 eV

  energy without entropy =      -15.89296710  energy(sigma->0) =      -15.86848196


--------------------------------------------------------------------------------------------------------




--------------------------------------- Iteration      1(  23)  ---------------------------------------


    POTLOK:  cpu time    3.9766: real time    3.9902
    SETDIJ:  cpu time    0.0243: real time    0.0243
     EDDAV:  cpu time    1.7048: real time    1.7108
       DOS:  cpu time    0.0014: real time    0.0014
    CHARGE:  cpu time    0.4297: real time    0.4322
    MIXING:  cpu time    0.2548: real time    0.2550
    --------------------------------------------
      LOOP:  cpu time    6.3915: real time    6.4140

 eigenvalue-minimisations  :    74
 total energy-change (2. order) :-0.7126242E-01  (-0.2167766E-02)
 number of electron      21.0000000 magnetization       1.3034895
 augmentation part       -0.3618505 magnetization       0.1885059

 Broyden mixing:
  rms(total) = 0.47280E-01    rms(broyden)= 0.47280E-01
  rms(prec ) = 0.48475E-01
  weight for this iteration     100.00

 eigenvalues of (default mixing * dielectric matrix)
  average eigenvalue GAMMA=   1.6468
  8.5603  3.2671  3.2671  1.9810  1.9810  1.0972  1.0972  1.2713  1.2713  0.8854
  0.8854  0.6779  0.6779  0.6338  0.6338  0.6287  0.4127  0.4127

 Free energy of the ion-electron system (eV)
  ---------------------------------------------------
  alpha Z        PSCENC =        -0.01479023
  Ewald energy   TEWEN  =       463.12613773
  -Hartree energ DENC   =      -741.75748746
  -exchange      EXHF   =         0.00000000
  -V(xc)+E(xc)   XCENC  =      -189.65573986
  PAW double counting   =       718.49862469     -494.90543445
  entropy T*S    EENTRO =         0.04493255
  eigenvalues    EBANDS =      -146.03082504
  atomic energy  EATOM  =       374.76708025
  Solvation  Ediel_sol  =         0.00000000
  ---------------------------------------------------
  free energy    TOTEN  =       -15.92750182 eV

  energy without entropy =      -15.97243437  energy(sigma->0) =      -15.94247933


--------------------------------------------------------------------------------------------------------




--------------------------------------- Iteration      1(  24)  ---------------------------------------


    POTLOK:  cpu time    3.9470: real time    3.9575
    SETDIJ:  cpu time    0.0254: real time    0.0254
     EDDAV:  cpu time    2.0654: real time    2.0673
       DOS:  cpu time    0.0018: real time    0.0018
    CHARGE:  cpu time    0.4491: real time    0.4518
    MIXING:  cpu time    0.2526: real time    0.2550
    --------------------------------------------
      LOOP:  cpu time    6.7413: real time    6.7588

 eigenvalue-minimisations  :    96
 total energy-change (2. order) :-0.2678967E-01  (-0.6163473E-03)
 number of electron      21.0000000 magnetization       1.3160652
 augmentation part       -0.3619014 magnetization       0.2018301

 Broyden mixing:
  rms(total) = 0.32178E-01    rms(broyden)= 0.32178E-01
  rms(prec ) = 0.33544E-01
  weight for this iteration     100.00

 eigenvalues of (default mixing * dielectric matrix)
  average eigenvalue GAMMA=   1.6457
  9.3683  3.0268  3.0268  1.1964  1.8244  1.8244  1.2645  1.2645  1.2954  1.2954
  0.8969  0.8969  0.6588  0.6588  0.6466  0.6466  0.6267  0.4256  0.4256

 Free energy of the ion-electron system (eV)
  ---------------------------------------------------
  alpha Z        PSCENC =        -0.01479023
  Ewald energy   TEWEN  =       463.12613773
  -Hartree energ DENC   =      -741.66337498
  -exchange      EXHF   =         0.00000000
  -V(xc)+E(xc)   XCENC  =      -189.68261244
  PAW double counting   =       718.77178600     -495.17815458
  entropy T*S    EENTRO =         0.04303173
  eigenvalues    EBANDS =      -146.12339498
  atomic energy  EATOM  =       374.76708025
  Solvation  Ediel_sol  =         0.00000000
  ---------------------------------------------------
  free energy    TOTEN  =       -15.95429149 eV

  energy without entropy =      -15.99732322  energy(sigma->0) =      -15.96863540


--------------------------------------------------------------------------------------------------------




--------------------------------------- Iteration      1(  25)  ---------------------------------------


    POTLOK:  cpu time    3.9843: real time    3.9977
    SETDIJ:  cpu time    0.0261: real time    0.0261
     EDDAV:  cpu time    1.7135: real time    1.7173
       DOS:  cpu time    0.0016: real time    0.0016
    CHARGE:  cpu time    0.4296: real time    0.4300
    MIXING:  cpu time    0.2808: real time    0.2810
    --------------------------------------------
      LOOP:  cpu time    6.4359: real time    6.4538

 eigenvalue-minimisations  :    74
 total energy-change (2. order) : 0.5962501E-02  (-0.1341575E-03)
 number of electron      21.0000000 magnetization       1.3107093
 augmentation part       -0.3618932 magnetization       0.1865683

 Broyden mixing:
  rms(total) = 0.32241E-01    rms(broyden)= 0.32241E-01
  rms(prec ) = 0.33621E-01
  weight for this iteration     100.00

 eigenvalues of (default mixing * dielectric matrix)
  average eigenvalue GAMMA=   1.6272
  9.5296  2.9370  2.9370  2.0668  1.7948  1.7948  1.3584  1.3584  1.3025  1.3025
  0.8805  0.8805  0.6797  0.6797  0.6197  0.6611  0.6611  0.4340  0.4340  0.2320

 Free energy of the ion-electron system (eV)
  ---------------------------------------------------
  alpha Z        PSCENC =        -0.01479023
  Ewald energy   TEWEN  =       463.12613773
  -Hartree energ DENC   =      -741.68723317
  -exchange      EXHF   =         0.00000000
  -V(xc)+E(xc)   XCENC  =      -189.67817315
  PAW double counting   =       718.53831997     -494.94478212
  entropy T*S    EENTRO =         0.04198097
  eigenvalues    EBANDS =      -146.09686922
  atomic energy  EATOM  =       374.76708025
  Solvation  Ediel_sol  =         0.00000000
  ---------------------------------------------------
  free energy    TOTEN  =       -15.94832898 eV

  energy without entropy =      -15.99030995  energy(sigma->0) =      -15.96232264


--------------------------------------------------------------------------------------------------------




--------------------------------------- Iteration      1(  26)  ---------------------------------------


    POTLOK:  cpu time    3.9643: real time    3.9709
    SETDIJ:  cpu time    0.0256: real time    0.0256
     EDDAV:  cpu time    1.1199: real time    1.1232
       DOS:  cpu time    0.0008: real time    0.0008
    CHARGE:  cpu time    0.4492: real time    0.4517
    MIXING:  cpu time    0.2893: real time    0.2917
    --------------------------------------------
      LOOP:  cpu time    5.8491: real time    5.8639

 eigenvalue-minimisations  :    36
 total energy-change (2. order) :-0.1062224E-02  (-0.7215571E-05)
 number of electron      21.0000000 magnetization       1.2203073
 augmentation part       -0.3618872 magnetization       0.0990163

 Broyden mixing:
  rms(total) = 0.32308E-01    rms(broyden)= 0.32308E-01
  rms(prec ) = 0.33707E-01
  weight for this iteration     100.00

 eigenvalues of (default mixing * dielectric matrix)
  average eigenvalue GAMMA=   1.6198
  9.9198  2.8131  2.8131  1.5429  1.5429  1.7350  1.7350  1.5468  1.5468  1.3912
  1.2236  0.8858  0.8858  0.7270  0.7083  0.6172  0.5970  0.5970  0.4428  0.4428
  0.3026

 Free energy of the ion-electron system (eV)
  ---------------------------------------------------
  alpha Z        PSCENC =        -0.01479023
  Ewald energy   TEWEN  =       463.12613773
  -Hartree energ DENC   =      -741.68498691
  -exchange      EXHF   =         0.00000000
  -V(xc)+E(xc)   XCENC  =      -189.67879903
  PAW double counting   =       718.56631063     -494.97276709
  entropy T*S    EENTRO =         0.04234850
  eigenvalues    EBANDS =      -146.09992507
  atomic energy  EATOM  =       374.76708025
  Solvation  Ediel_sol  =         0.00000000
  ---------------------------------------------------
  free energy    TOTEN  =       -15.94939121 eV

  energy without entropy =      -15.99173971  energy(sigma->0) =      -15.96350738


--------------------------------------------------------------------------------------------------------




--------------------------------------- Iteration      1(  27)  ---------------------------------------


    POTLOK:  cpu time    3.9179: real time    3.9229
    SETDIJ:  cpu time    0.0262: real time    0.0262
     EDDAV:  cpu time    1.8094: real time    1.8133
       DOS:  cpu time    0.0004: real time    0.0004
    CHARGE:  cpu time    0.4473: real time    0.4499
    MIXING:  cpu time    0.3050: real time    0.3096
    --------------------------------------------
      LOOP:  cpu time    6.5063: real time    6.5223

 eigenvalue-minimisations  :    78
 total energy-change (2. order) :-0.1603557E-01  (-0.2379064E-02)
 number of electron      21.0000000 magnetization       1.2138652
 augmentation part       -0.3617357 magnetization       0.1395096

 Broyden mixing:
  rms(total) = 0.36100E-01    rms(broyden)= 0.36100E-01
  rms(prec ) = 0.37692E-01
  weight for this iteration     100.00

 eigenvalues of (default mixing * dielectric matrix)
  average eigenvalue GAMMA=   1.5354
  9.9705  2.9164  2.9164  1.3013  1.3013  1.7688  1.7688  1.3526  1.3526  1.3674
  1.2470  0.8866  0.8866  0.7252  0.7037  0.6170  0.5922  0.5922  0.4445  0.4445
  0.3150  0.3078

 Free energy of the ion-electron system (eV)
  ---------------------------------------------------
  alpha Z        PSCENC =        -0.01479023
  Ewald energy   TEWEN  =       463.12613773
  -Hartree energ DENC   =      -741.65227315
  -exchange      EXHF   =         0.00000000
  -V(xc)+E(xc)   XCENC  =      -189.68536934
  PAW double counting   =       718.62950469     -495.03606690
  entropy T*S    EENTRO =         0.04804179
  eigenvalues    EBANDS =      -146.14769161
  atomic energy  EATOM  =       374.76708025
  Solvation  Ediel_sol  =         0.00000000
  ---------------------------------------------------
  free energy    TOTEN  =       -15.96542677 eV

  energy without entropy =      -16.01346856  energy(sigma->0) =      -15.98144070


--------------------------------------------------------------------------------------------------------




--------------------------------------- Iteration      1(  28)  ---------------------------------------


    POTLOK:  cpu time    3.9812: real time    3.9921
    SETDIJ:  cpu time    0.0280: real time    0.0280
     EDDAV:  cpu time    2.0153: real time    2.0171
       DOS:  cpu time    0.0011: real time    0.0011
    CHARGE:  cpu time    0.4219: real time    0.4223
    MIXING:  cpu time    0.3186: real time    0.3212
    --------------------------------------------
      LOOP:  cpu time    6.7661: real time    6.7818

 eigenvalue-minimisations  :    96
 total energy-change (2. order) :-0.3566757E-03  (-0.1205273E-03)
 number of electron      21.0000000 magnetization       1.2824048
 augmentation part       -0.3617011 magnetization       0.2130387

 Broyden mixing:
  rms(total) = 0.36614E-01    rms(broyden)= 0.36614E-01
  rms(prec ) = 0.38206E-01
  weight for this iteration     100.00

 eigenvalues of (default mixing * dielectric matrix)
  average eigenvalue GAMMA=   1.5831
  9.7479  2.1734  2.9905  2.9905  1.4070  1.4070  1.8521  1.8521  1.2713  1.2713
  1.3413  1.3413  0.8921  0.8921  0.8004  0.6732  0.6225  0.5840  0.5840  0.5255
  0.4373  0.4373  0.3177

 Free energy of the ion-electron system (eV)
  ---------------------------------------------------
  alpha Z        PSCENC =        -0.01479023
  Ewald energy   TEWEN  =       463.12613773
  -Hartree energ DENC   =      -741.65193730
  -exchange      EXHF   =         0.00000000
  -V(xc)+E(xc)   XCENC  =      -189.68395610
  PAW double counting   =       718.64977125     -495.05631520
  entropy T*S    EENTRO =         0.04853888
  eigenvalues    EBANDS =      -146.15031273
  atomic energy  EATOM  =       374.76708025
  Solvation  Ediel_sol  =         0.00000000
  ---------------------------------------------------
  free energy    TOTEN  =       -15.96578345 eV

  energy without entropy =      -16.01432233  energy(sigma->0) =      -15.98196308


--------------------------------------------------------------------------------------------------------




--------------------------------------- Iteration      1(  29)  ---------------------------------------


    POTLOK:  cpu time    3.8950: real time    3.9016
    SETDIJ:  cpu time    0.0259: real time    0.0259
     EDDAV:  cpu time    1.7680: real time    1.7718
       DOS:  cpu time    0.0011: real time    0.0011
    CHARGE:  cpu time    0.4499: real time    0.4527
    MIXING:  cpu time    0.3426: real time    0.3429
    --------------------------------------------
      LOOP:  cpu time    6.4825: real time    6.4960

 eigenvalue-minimisations  :    76
 total energy-change (2. order) : 0.5983154E-02  (-0.7760900E-03)
 number of electron      21.0000000 magnetization       1.2090080
 augmentation part       -0.3618262 magnetization       0.1148129

 Broyden mixing:
  rms(total) = 0.28594E-01    rms(broyden)= 0.28594E-01
  rms(prec ) = 0.29739E-01
  weight for this iteration     100.00

 eigenvalues of (default mixing * dielectric matrix)
  average eigenvalue GAMMA=   1.8451
 13.5198  4.7540  3.3772  3.3772  1.4889  1.4889  1.8035  1.8035  1.3862  1.3862
  1.2131  1.2131  0.8927  0.8927  0.8632  0.7079  0.5471  0.5471  0.6270  0.6270
  0.5817  0.4381  0.4381  0.3095

 Free energy of the ion-electron system (eV)
  ---------------------------------------------------
  alpha Z        PSCENC =        -0.01479023
  Ewald energy   TEWEN  =       463.12613773
  -Hartree energ DENC   =      -741.61552508
  -exchange      EXHF   =         0.00000000
  -V(xc)+E(xc)   XCENC  =      -189.68531507
  PAW double counting   =       718.55749238     -494.96402830
  entropy T*S    EENTRO =         0.04389683
  eigenvalues    EBANDS =      -146.17474882
  atomic energy  EATOM  =       374.76708025
  Solvation  Ediel_sol  =         0.00000000
  ---------------------------------------------------
  free energy    TOTEN  =       -15.95980030 eV

  energy without entropy =      -16.00369713  energy(sigma->0) =      -15.97443257


--------------------------------------------------------------------------------------------------------




--------------------------------------- Iteration      1(  30)  ---------------------------------------


    POTLOK:  cpu time    3.9372: real time    3.9463
    SETDIJ:  cpu time    0.0258: real time    0.0258
     EDDAV:  cpu time    1.7085: real time    1.7149
       DOS:  cpu time    0.0010: real time    0.0010
    CHARGE:  cpu time    0.4361: real time    0.4364
    MIXING:  cpu time    0.3605: real time    0.3629
    --------------------------------------------
      LOOP:  cpu time    6.4690: real time    6.4873

 eigenvalue-minimisations  :    74
 total energy-change (2. order) :-0.3527851E-01  (-0.6127113E-02)
 number of electron      21.0000000 magnetization       1.3865897
 augmentation part       -0.3620561 magnetization       0.2623705

 Broyden mixing:
  rms(total) = 0.33244E-01    rms(broyden)= 0.33244E-01
  rms(prec ) = 0.34517E-01
  weight for this iteration     100.00

 eigenvalues of (default mixing * dielectric matrix)
  average eigenvalue GAMMA=   1.9197
 14.1409  7.4025  3.3113  3.3113  1.5110  1.5110  1.9605  1.9605  1.3482  1.3482
  0.8965  0.8965  0.9206  0.9206  0.8416  0.8416  0.6338  0.6338  0.6378  0.6082
  0.6082  0.5546  0.4397  0.4397  0.3146

 Free energy of the ion-electron system (eV)
  ---------------------------------------------------
  alpha Z        PSCENC =        -0.01479023
  Ewald energy   TEWEN  =       463.12613773
  -Hartree energ DENC   =      -741.47270913
  -exchange      EXHF   =         0.00000000
  -V(xc)+E(xc)   XCENC  =      -189.73839312
  PAW double counting   =       717.07266693     -493.47834869
  entropy T*S    EENTRO =         0.04404128
  eigenvalues    EBANDS =      -146.30076383
  atomic energy  EATOM  =       374.76708025
  Solvation  Ediel_sol  =         0.00000000
  ---------------------------------------------------
  free energy    TOTEN  =       -15.99507881 eV

  energy without entropy =      -16.03912009  energy(sigma->0) =      -16.00975923


--------------------------------------------------------------------------------------------------------




--------------------------------------- Iteration      1(  31)  ---------------------------------------


    POTLOK:  cpu time    3.9394: real time    3.9489
    SETDIJ:  cpu time    0.0253: real time    0.0253
     EDDAV:  cpu time    1.7849: real time    1.7866
       DOS:  cpu time    0.0011: real time    0.0011
    CHARGE:  cpu time    0.4354: real time    0.4380
    MIXING:  cpu time    0.3871: real time    0.3896
    --------------------------------------------
      LOOP:  cpu time    6.5731: real time    6.5895

 eigenvalue-minimisations  :    78
 total energy-change (2. order) :-0.2896768E-02  (-0.1584388E-01)
 number of electron      21.0000000 magnetization       1.3256473
[...]
  8.854  15.109   0.001   0.005  -0.002   0.004   0.015  -0.006
 15.109  25.782   0.002   0.009  -0.004   0.007   0.026  -0.011
  0.001   0.002   1.973   0.000  -0.000   5.770   0.001  -0.001
  0.005   0.009   0.000   1.973  -0.000   0.001   5.772  -0.001
 -0.002  -0.004  -0.000  -0.000   1.973  -0.001  -0.001   5.769
  0.004   0.007   5.770   0.001  -0.001  16.742   0.002  -0.002
  0.015   0.026   0.001   5.772  -0.001   0.002  16.747  -0.004
 -0.006  -0.011  -0.001  -0.001   5.769  -0.002  -0.004  16.740
 total augmentation occupancy for first ion, spin component:            1
  2.901  -0.497  -0.057  -0.437   0.166   0.009   0.064  -0.024
 -0.497   0.155  -0.007   0.226  -0.071  -0.000  -0.020   0.006
 -0.057  -0.007   0.797  -0.025   0.093  -0.041  -0.001  -0.003
 -0.437   0.226  -0.025   0.767   0.107   0.000  -0.043  -0.004
  0.166  -0.071   0.093   0.107   0.919  -0.004  -0.003  -0.048
  0.009  -0.000  -0.041   0.000  -0.004   0.002   0.000   0.000
  0.064  -0.020  -0.001  -0.043  -0.003   0.000   0.003  -0.000
 -0.024   0.006  -0.003  -0.004  -0.048   0.000  -0.000   0.003
 total augmentation occupancy for first ion, spin component:            2
  0.027  -0.010   0.001  -0.003   0.001  -0.000   0.000   0.000
 -0.010   0.001  -0.002   0.001   0.002   0.000  -0.000  -0.000
  0.001  -0.002   0.003   0.019  -0.011  -0.000  -0.000   0.000
 -0.003   0.001   0.019   0.039  -0.027  -0.000  -0.001   0.001
  0.001   0.002  -0.011  -0.027   0.013   0.000   0.001  -0.001
 -0.000   0.000  -0.000  -0.000   0.000   0.000   0.000   0.000
  0.000  -0.000  -0.000  -0.001   0.001   0.000   0.000  -0.000
  0.000  -0.000   0.000   0.001  -0.001   0.000  -0.000   0.000


------------------------ aborting loop because EDIFF is reached ----------------------------------------


    CHARGE:  cpu time    0.4165: real time    0.4169
    FORLOC:  cpu time    0.0965: real time    0.0966
    FORNL :  cpu time    0.5214: real time    0.5217
    FORCOR:  cpu time    3.7040: real time    3.7082
    FORHAR:  cpu time    0.4678: real time    0.4682
    MIXING:  cpu time    0.0671: real time    0.0672
    OFIELD:  cpu time    0.0000: real time    0.0000

 VOLUME and BASIS-vectors are now :
 -----------------------------------------------------------------------------
  energy-cutoff  :      400.00
  volume of cell :    11127.73
      direct lattice vectors                 reciprocal lattice vectors
    22.544535633  0.000000000  0.000000000     0.044356647  0.000000000  0.000000000
     0.000000000 21.839813546  0.000000000     0.000000000  0.045787937  0.000000000
     0.000000000  0.000000000 22.600410503     0.000000000  0.000000000  0.044246984

  length of vectors
    22.544535633 21.839813546 22.600410503     0.044356647  0.045787937  0.044246984


 FORCES acting on ions
    electron-ion (+dipol)            ewald-force                    non-local-force                 convergence-correction
 -----------------------------------------------------------------------------------------------
   0.228E+02 -.620E+00 -.646E+02   -.212E+02 -.538E+00 0.610E+02   -.162E+01 0.118E+01 0.358E+01   -.858E-02 0.125E-02 0.130E-01
   0.631E+02 -.250E+02 0.129E+02   -.593E+02 0.233E+02 -.124E+02   -.374E+01 0.174E+01 -.496E+00   -.176E-01 0.970E-02 -.207E-02
   0.323E+02 0.562E+02 0.198E+01   -.311E+02 -.535E+02 -.152E+01   -.119E+01 -.271E+01 -.449E+00   -.609E-02 -.137E-01 -.172E-02
   -.818E+01 -.152E+02 0.626E+02   0.772E+01 0.150E+02 -.596E+02   0.474E+00 0.213E+00 -.294E+01   0.135E-02 0.359E-02 -.674E-02
   -.370E+02 0.436E+02 0.270E+02   0.357E+02 -.420E+02 -.259E+02   0.125E+01 -.165E+01 -.112E+01   0.620E-02 -.655E-02 0.123E-03
   -.150E+02 -.661E+02 -.884E+01   0.151E+02 0.622E+02 0.760E+01   -.987E-01 0.387E+01 0.126E+01   0.132E-02 0.161E-01 -.206E-03
   -.557E+02 0.525E+01 -.317E+02   0.530E+02 -.444E+01 0.308E+02   0.261E+01 -.812E+00 0.859E+00   0.129E-01 -.192E-02 0.192E-02
 -----------------------------------------------------------------------------------------------
   0.233E+01 -.184E+01 -.691E+00   -.711E-14 -.213E-13 0.000E+00   -.232E+01 0.183E+01 0.686E+00   -.105E-01 0.846E-02 0.430E-02
 
 
 POSITION                                       TOTAL-FORCE (eV/Angst)
 -----------------------------------------------------------------------------------
     10.12854     11.38735     13.71627        -0.002405      0.020625     -0.005289
      8.94127     12.16343     11.44452         0.006361     -0.013407     -0.004394
     10.00358      9.78395     11.69927         0.006080     -0.015123      0.008503
     11.10777     11.73692     10.03716         0.015747      0.003187      0.019096
     12.41619      9.50492     10.63258        -0.008546     -0.010800     -0.015190
     11.26961     13.36174     12.03303        -0.005796      0.020486      0.015084
     12.47566     11.18348     12.67548        -0.011442     -0.004967     -0.017809
 -----------------------------------------------------------------------------------
    total drift:                                0.001134     -0.000088     -0.000181


--------------------------------------------------------------------------------------------------------



  FREE ENERGIE OF THE ION-ELECTRON SYSTEM (eV)
  ---------------------------------------------------
  free  energy   TOTEN  =       -17.79543990 eV

  energy  without entropy=      -17.80131439  energy(sigma->0) =      -17.79739806
 
 d Force = 0.6361343E-03[ 0.418E-03, 0.855E-03]  d Energy = 0.7054552E-03-0.693E-04
 d Force =-0.7366179E+00[-0.737E+00,-0.736E+00]  d Ewald  =-0.7366174E+00-0.507E-06


--------------------------------------------------------------------------------------------------------


    POTLOK:  cpu time    3.9799: real time    3.9922


--------------------------------------------------------------------------------------------------------


 Steepest descent step on ions:
 trial-energy change:   -0.000705  1 .order   -0.000636   -0.000855   -0.000418
  (g-gl).g = 0.285E-03      g.g   = 0.398E-03  gl.gl    = 0.418E-03
 g(Force)  = 0.398E-03   g(Stress)= 0.000E+00 ortho     = 0.175E-03
 gamma     =   0.00000
 trial     =   2.14467
 opt step  =   4.19461  (harmonic =   4.19461) maximal distance =0.00829636
 next E    =   -17.795570   (d E  =  -0.00084)


--------------------------------------------------------------------------------------------------------


    WAVPRE:  cpu time    0.2126: real time    0.3418
    FEWALD:  cpu time    0.0080: real time    0.0080
    ORTHCH:  cpu time    0.0639: real time    0.0640
     LOOP+:  cpu time   21.9739: real time   22.1548


--------------------------------------- Iteration     43(   1)  ---------------------------------------


    POTLOK:  cpu time    3.9607: real time    3.9679
    SETDIJ:  cpu time    0.0266: real time    0.0266
     EDDAV:  cpu time    1.7089: real time    1.7105
       DOS:  cpu time    0.0013: real time    0.0013
    CHARGE:  cpu time    0.4439: real time    0.4443
    MIXING:  cpu time    0.0593: real time    0.0615
    --------------------------------------------
      LOOP:  cpu time    6.2007: real time    6.2121

 eigenvalue-minimisations  :    74
 total energy-change (2. order) :-0.2213486E-03  (-0.8980681E-03)
 number of electron      21.0000000 magnetization       1.0000696
 augmentation part       -0.3553034 magnetization      -0.0006142

 Broyden mixing:
  rms(total) = 0.32489E-02    rms(broyden)= 0.32488E-02
  rms(prec ) = 0.38234E-02
  weight for this iteration     100.00

 Free energy of the ion-electron system (eV)
  ---------------------------------------------------
  alpha Z        PSCENC =        -0.01479023
  Ewald energy   TEWEN  =       515.44934641
  -Hartree energ DENC   =      -792.70166534
  -exchange      EXHF   =         0.00000000
  -V(xc)+E(xc)   XCENC  =      -188.99879851
  PAW double counting   =       794.20993759     -570.67483160
  entropy T*S    EENTRO =         0.00586472
  eigenvalues    EBANDS =      -149.83774042
  atomic energy  EATOM  =       374.76708025
  Solvation  Ediel_sol  =         0.00000000
  ---------------------------------------------------
  free energy    TOTEN  =       -17.79559713 eV

  energy without entropy =      -17.80146185  energy(sigma->0) =      -17.79755204


--------------------------------------------------------------------------------------------------------




--------------------------------------- Iteration     43(   2)  ---------------------------------------


    POTLOK:  cpu time    3.9014: real time    3.9122
    SETDIJ:  cpu time    0.0264: real time    0.0264
     EDDAV:  cpu time    2.2940: real time    2.3004
       DOS:  cpu time    0.0016: real time    0.0016
    --------------------------------------------
      LOOP:  cpu time    6.2233: real time    6.2406

 eigenvalue-minimisations  :   112
 total energy-change (2. order) : 0.1548859E-04  (-0.6146982E-04)
 number of electron      21.0000000 magnetization       1.0000696
 augmentation part       -0.3553034 magnetization      -0.0006142

 Free energy of the ion-electron system (eV)
  ---------------------------------------------------
  alpha Z        PSCENC =        -0.01479023
  Ewald energy   TEWEN  =       515.44934641
  -Hartree energ DENC   =      -792.75006242
  -exchange      EXHF   =         0.00000000
  -V(xc)+E(xc)   XCENC  =      -188.99717235
  PAW double counting   =       795.35696025     -571.82299744
  entropy T*S    EENTRO =         0.00586279
  eigenvalues    EBANDS =      -149.78980890
  atomic energy  EATOM  =       374.76708025
  Solvation  Ediel_sol  =         0.00000000
  ---------------------------------------------------
  free energy    TOTEN  =       -17.79558164 eV

  energy without entropy =      -17.80144443  energy(sigma->0) =      -17.79753590


--------------------------------------------------------------------------------------------------------




 average (electrostatic) potential at core
  the test charge radii are     1.0406
  (the norm of the test charge is              1.0000)
       1 -84.5282       2 -84.5041       3 -84.3679       4 -84.3735       5 -84.6087
       6 -84.5272       7 -84.4084
 
 
 
 E-fermi :  -4.0058     XC(G=0):  -0.2822     alpha+bet : -0.1544


 spin component 1

 k-point     1 :       0.0000    0.0000    0.0000
  band No.  band energies     occupation 
      1     -12.3244      1.00000
      2      -9.6782      1.00000
      3      -8.9208      1.00000
      4      -8.8537      1.00000
      5      -6.6386      1.00000
      6      -6.0046      1.00000
      7      -5.9275      1.00000
      8      -5.0541      1.00000
      9      -4.9712      1.00000
     10      -4.9611      1.00000
     11      -4.1743      1.00008
     12      -3.3787     -0.00004
     13      -3.2459     -0.00000
     14      -3.0004     -0.00000
     15      -2.4017     -0.00000
     16      -2.2873     -0.00000
     17      -1.6635     -0.00000
     18      -0.8603     -0.00000

 spin component 2

 k-point     1 :       0.0000    0.0000    0.0000
  band No.  band energies     occupation 
      1     -12.2143      1.00000
      2      -9.4580      1.00000
      3      -8.8645      1.00000
      4      -8.8142      1.00000
      5      -6.2705      1.00000
      6      -5.9254      1.00000
      7      -5.8752      1.00000
      8      -5.0068      1.00000
      9      -4.9307      1.00000
     10      -4.9216      1.00000
     11      -3.3714     -0.00003
     12      -3.2055     -0.00000
     13      -3.1720     -0.00000
     14      -2.9432     -0.00000
     15      -2.2942     -0.00000
     16      -2.2113     -0.00000
     17      -1.6568     -0.00000
     18      -0.8265     -0.00000


--------------------------------------------------------------------------------------------------------


 soft charge-density along one line, spin component            1
         0         1         2         3         4         5         6         7         8         9
 total charge-density along one line
 
 soft charge-density along one line, spin component            2
         0         1         2         3         4         5         6         7         8         9
 total charge-density along one line
 
 pseudopotential strength for first ion, spin component:            1
  8.855  15.110   0.001   0.005  -0.002   0.004   0.015  -0.007
 15.110  25.785   0.002   0.009  -0.004   0.007   0.026  -0.011
  0.001   0.002   1.973   0.000  -0.000   5.771   0.001  -0.001
  0.005   0.009   0.000   1.974  -0.001   0.001   5.773  -0.001
 -0.002  -0.004  -0.000  -0.001   1.973  -0.001  -0.001   5.770
  0.004   0.007   5.771   0.001  -0.001  16.744   0.002  -0.003
  0.015   0.026   0.001   5.773  -0.001   0.002  16.751  -0.004
 -0.007  -0.011  -0.001  -0.001   5.770  -0.003  -0.004  16.743
 pseudopotential strength for first ion, spin component:            2
  8.854  15.109   0.001   0.005  -0.002   0.004   0.015  -0.006
 15.109  25.782   0.002   0.009  -0.004   0.007   0.026  -0.011
  0.001   0.002   1.973   0.000  -0.000   5.770   0.001  -0.001
  0.005   0.009   0.000   1.974  -0.000   0.001   5.772  -0.001
 -0.002  -0.004  -0.000  -0.000   1.973  -0.001  -0.001   5.769
  0.004   0.007   5.770   0.001  -0.001  16.742   0.002  -0.002
  0.015   0.026   0.001   5.772  -0.001   0.002  16.748  -0.004
 -0.006  -0.011  -0.001  -0.001   5.769  -0.002  -0.004  16.741
 total augmentation occupancy for first ion, spin component:            1
  2.921  -0.505  -0.056  -0.440   0.167   0.008   0.063  -0.024
 -0.505   0.157  -0.007   0.227  -0.071  -0.000  -0.020   0.006
 -0.056  -0.007   0.801  -0.025   0.092  -0.041  -0.001  -0.003
 -0.440   0.227  -0.025   0.771   0.109   0.001  -0.043  -0.004
  0.167  -0.071   0.092   0.109   0.924  -0.004  -0.003  -0.048
  0.008  -0.000  -0.041   0.001  -0.004   0.002   0.000   0.000
  0.063  -0.020  -0.001  -0.043  -0.003   0.000   0.003  -0.000
 -0.024   0.006  -0.003  -0.004  -0.048   0.000  -0.000   0.003
 total augmentation occupancy for first ion, spin component:            2
  0.029  -0.010   0.001  -0.003   0.001  -0.000   0.000  -0.000
 -0.010   0.002  -0.002   0.001   0.002   0.000  -0.000  -0.000
  0.001  -0.002   0.004   0.020  -0.012  -0.000  -0.000   0.000
 -0.003   0.001   0.020   0.040  -0.027  -0.000  -0.001   0.001
  0.001   0.002  -0.012  -0.027   0.013   0.000   0.001  -0.001
 -0.000   0.000  -0.000  -0.000   0.000   0.000   0.000   0.000
  0.000  -0.000  -0.000  -0.001   0.001   0.000   0.000  -0.000
 -0.000  -0.000   0.000   0.001  -0.001   0.000  -0.000   0.000


------------------------ aborting loop because EDIFF is reached ----------------------------------------


    CHARGE:  cpu time    0.4462: real time    0.4466
    FORLOC:  cpu time    0.0967: real time    0.0968
    FORNL :  cpu time    0.5253: real time    0.5279
    FORCOR:  cpu time    3.7218: real time    3.7286
    FORHAR:  cpu time    0.4693: real time    0.4696
    MIXING:  cpu time    0.0666: real time    0.0667
    OFIELD:  cpu time    0.0000: real time    0.0000

 VOLUME and BASIS-vectors are now :
 -----------------------------------------------------------------------------
  energy-cutoff  :      400.00
  volume of cell :    11127.73
      direct lattice vectors                 reciprocal lattice vectors
    22.544535633  0.000000000  0.000000000     0.044356647  0.000000000  0.000000000
     0.000000000 21.839813546  0.000000000     0.000000000  0.045787937  0.000000000
     0.000000000  0.000000000 22.600410503     0.000000000  0.000000000  0.044246984

  length of vectors
    22.544535633 21.839813546 22.600410503     0.044356647  0.045787937  0.044246984


 FORCES acting on ions
    electron-ion (+dipol)            ewald-force                    non-local-force                 convergence-correction
 -----------------------------------------------------------------------------------------------
   0.228E+02 -.652E+00 -.648E+02   -.212E+02 -.508E+00 0.612E+02   -.163E+01 0.118E+01 0.364E+01   -.947E-02 0.890E-03 0.121E-01
   0.632E+02 -.251E+02 0.130E+02   -.594E+02 0.233E+02 -.125E+02   -.378E+01 0.177E+01 -.511E+00   -.184E-01 0.992E-02 -.119E-02
   0.323E+02 0.563E+02 0.197E+01   -.311E+02 -.536E+02 -.151E+01   -.119E+01 -.275E+01 -.458E+00   -.683E-02 -.147E-01 -.123E-02
   -.824E+01 -.152E+02 0.626E+02   0.778E+01 0.150E+02 -.597E+02   0.480E+00 0.215E+00 -.295E+01   0.155E-02 0.396E-02 -.449E-02
   -.370E+02 0.437E+02 0.270E+02   0.357E+02 -.420E+02 -.259E+02   0.125E+01 -.165E+01 -.111E+01   0.684E-02 -.696E-02 0.157E-02
   -.150E+02 -.662E+02 -.886E+01   0.151E+02 0.623E+02 0.762E+01   -.967E-01 0.391E+01 0.126E+01   0.203E-02 0.170E-01 -.503E-03
   -.558E+02 0.530E+01 -.317E+02   0.531E+02 -.449E+01 0.308E+02   0.263E+01 -.821E+00 0.851E+00   0.137E-01 -.169E-02 0.902E-03
 -----------------------------------------------------------------------------------------------
   0.235E+01 -.186E+01 -.732E+00   0.711E-14 -.178E-14 -.355E-14   -.234E+01 0.185E+01 0.725E+00   -.106E-01 0.850E-02 0.721E-02
 
 
 POSITION                                       TOTAL-FORCE (eV/Angst)
 -----------------------------------------------------------------------------------
     10.12844     11.38925     13.71187        -0.004263      0.022571      0.035495
      8.94359     12.16103     11.44584        -0.012582     -0.001737     -0.022539
     10.00392      9.78343     11.70092         0.008719     -0.027292      0.000282
     11.10920     11.73739     10.04121         0.018218      0.001723     -0.003867
     12.41547      9.50333     10.63061        -0.009919     -0.006480     -0.011566
     11.26919     13.36334     12.03424        -0.007127      0.026820      0.018370
     12.47280     11.18403     12.67361         0.006953     -0.015605     -0.016173
 -----------------------------------------------------------------------------------
    total drift:                                0.000977      0.000226     -0.000021


--------------------------------------------------------------------------------------------------------



  FREE ENERGIE OF THE ION-ELECTRON SYSTEM (eV)
  ---------------------------------------------------
  free  energy   TOTEN  =       -17.79558164 eV

  energy  without entropy=      -17.80144443  energy(sigma->0) =      -17.79753590
 
 d Force = 0.1852136E-03[-0.288E-04, 0.399E-03]  d Energy = 0.1417416E-03 0.435E-04
 d Force =-0.7052154E+00[-0.706E+00,-0.705E+00]  d Ewald  =-0.7052149E+00-0.448E-06


--------------------------------------------------------------------------------------------------------


    POTLOK:  cpu time    3.9834: real time    3.9891


--------------------------------------------------------------------------------------------------------




--------------------------------------------------------------------------------------------------------


  
 reached required accuracy - stopping structural energy minimisation
     LOOP+:  cpu time   21.7358: real time   21.7996
    4ORBIT:  cpu time    0.0000: real time    0.0000

 total amount of memory used by VASP MPI-rank0   200756. kBytes
=======================================================================

   base      :      30000. kBytes
   nonl-proj :       2225. kBytes
   fftplans  :      49429. kBytes
   grid      :     111815. kBytes
   one-center:          3. kBytes
   wavefun   :       7284. kBytes
 
  
  
 General timing and accounting informations for this job:
 ========================================================
  
                  Total CPU time used (sec):     3275.973
                            User time (sec):     3214.690
                          System time (sec):       61.283
                         Elapsed time (sec):     3288.229
  
                   Maximum memory used (kb):      465648.
                   Average memory used (kb):           0.
  
                          Minor page faults:     18802894
                          Major page faults:        39335
                 Voluntary context switches:         2862
