<?xml version="1.0" encoding="ISO-8859-1"?>
<modeling>
 <generator>
  <i name="program" type="string">vasp </i>
  <i name="version" type="string">6.1.2  </i>
  <i name="subversion" type="string">22Jul20 (build Aug  2 2021 21:04:21) gamma-only                       parallel </i>
  <i name="platform" type="string">LinuxPGI </i>
  <i name="date" type="string">2021 12 29 </i>
  <i name="time" type="string">14:09:30 </i>
 </generator>
 <incar>
  <i type="int" name="ISPIN">     2</i>
  <i type="int" name="IBRION">     2</i>
  <i type="int" name="NSW">  1000</i>
  <i type="int" name="ISIF">     0</i>
  <i type="int" name="ISYM">     0</i>
  <i name="ENCUT">    400.00000000</i>
  <i type="logical" name="LREAL"> F  </i>
  <i type="int" name="ISMEAR">     1</i>
  <i name="SIGMA">      0.20000000</i>
  <i type="logical" name="LWAVE"> F  </i>
  <i type="logical" name="LCHARG"> F  </i>
  <i type="int" name="KPAR">     1</i>
  <i type="int" name="NCORE">     8</i>
  <i type="string" name="GGA"> PE</i>
  <i type="int" name="ISPIN">     2</i>
 </incar>
 <structure name="primitive_cell" >
  <crystal>
   <varray name="basis" >
    <v>      22.54453563       0.00000000       0.00000000 </v>
    <v>       0.00000000      21.83981355       0.00000000 </v>
    <v>       0.00000000       0.00000000      22.60041050 </v>
   </varray>
   <i name="volume">  11127.72919559 </i>
   <varray name="rec_basis" >
    <v>       0.04435665       0.00000000       0.00000000 </v>
    <v>       0.00000000       0.04578794       0.00000000 </v>
    <v>       0.00000000       0.00000000       0.04424698 </v>
   </varray>
  </crystal>
  <varray name="positions" >
   <v>       0.44885182       0.51439106       0.60807662 </v>
   <v>       0.38482215       0.56479172       0.51782911 </v>
   <v>       0.46344251       0.46977865       0.49476758 </v>
   <v>       0.45014971       0.56557287       0.41724244 </v>
   <v>       0.56832379       0.41811520       0.49946243 </v>
   <v>       0.50591164       0.58885456       0.52022532 </v>
   <v>       0.56480058       0.50131945       0.58119335 </v>
  </varray>
 </structure>
 <varray name="primitive_index" >
  <v type="int" >        1 </v>
  <v type="int" >        2 </v>
  <v type="int" >        3 </v>
  <v type="int" >        4 </v>
  <v type="int" >        5 </v>
  <v type="int" >        6 </v>
  <v type="int" >        7 </v>
 </varray>
 <kpoints>
  <generation param="Gamma">
   <v type="int" name="divisions">       1        1        1 </v>
   <v name="usershift">      0.00000000       0.00000000       0.00000000 </v>
   <v name="genvec1">      1.00000000       0.00000000       0.00000000 </v>
   <v name="genvec2">      0.00000000       1.00000000       0.00000000 </v>
   <v name="genvec3">      0.00000000       0.00000000       1.00000000 </v>
   <v name="shift">      0.00000000       0.00000000       0.00000000 </v>
  </generation>
  <varray name="kpointlist" >
   <v>       0.00000000       0.00000000       0.00000000 </v>
  </varray>
  <varray name="weights" >
   <v>       1.00000000 </v>
  </varray>
 </kpoints>
 <parameters>
  <separator name="general" >
   <i type="string" name="SYSTEM">unknown system</i>
   <i type="logical" name="LCOMPAT"> F  </i>
  </separator>
  <separator name="electronic" >
   <i type="string" name="PREC">normal</i>
   <i name="ENMAX">    400.00000000</i>
   <i name="ENAUG">    291.05200000</i>
   <i name="EDIFF">      0.00010000</i>
   <i type="int" name="IALGO">    38</i>
   <i type="int" name="IWAVPR">    11</i>
   <i type="int" name="NBANDS">    18</i>
   <i type="int" name="NBANDSLOW">    -1</i>
   <i type="int" name="NBANDSHIGH">    -1</i>
   <i name="NELECT">     21.00000000</i>
   <i type="int" name="TURBO">     0</i>
   <i type="int" name="IRESTART">     0</i>
   <i type="int" name="NREBOOT">     0</i>
   <i type="int" name="NMIN">     0</i>
   <i name="EREF">      0.00000000</i>
   <separator name="electronic smearing" >
    <i type="int" name="ISMEAR">     1</i>
    <i name="SIGMA">      0.20000000</i>
    <i name="KSPACING">      0.50000000</i>
    <i type="logical" name="KGAMMA"> T  </i>
    <i type="logical" name="KBLOWUP"> T  </i>
   </separator>
   <separator name="electronic projectors" >
    <i type="logical" name="LREAL"> F  </i>
    <v name="ROPT">      0.00000000</v>
    <i type="int" name="LMAXPAW">  -100</i>
    <i type="int" name="LMAXMIX">     2</i>
    <i type="logical" name="NLSPLINE"> F  </i>
   </separator>
   <separator name="electronic startup" >
    <i type="int" name="ISTART">     0</i>
    <i type="int" name="ICHARG">     2</i>
    <i type="int" name="INIWAV">     1</i>
   </separator>
   <separator name="electronic spin" >
    <i type="int" name="ISPIN">     2</i>
    <i type="logical" name="LNONCOLLINEAR"> F  </i>
    <v name="MAGMOM">      1.00000000      1.00000000      1.00000000      1.00000000      1.00000000      1.00000000      1.00000000</v>
    <i name="NUPDOWN">     -1.00000000</i>
    <i type="logical" name="LSORBIT"> F  </i>
    <v name="SAXIS">      0.00000000      0.00000000      1.00000000</v>
    <i type="logical" name="LSPIRAL"> F  </i>
    <v name="QSPIRAL">      0.00000000      0.00000000      0.00000000</v>
    <i type="logical" name="LZEROZ"> F  </i>
   </separator>
   <separator name="electronic exchange-correlation" >
    <i type="logical" name="LASPH"> F  </i>
    <i type="logical" name="LMETAGGA"> F  </i>
   </separator>
   <separator name="electronic convergence" >
    <i type="int" name="NELM">    60</i>
    <i type="int" name="NELMDL">     0</i>
    <i type="int" name="NELMIN">     2</i>
    <i name="ENINI">    400.00000000</i>
    <separator name="electronic convergence detail" >
     <i type="logical" name="LDIAG"> T  </i>
     <i type="logical" name="LSUBROT"> F  </i>
     <i name="WEIMIN">      0.00100000</i>
     <i name="EBREAK">      0.00000139</i>
     <i name="DEPER">      0.30000000</i>
     <i type="int" name="NRMM">     4</i>
     <i name="TIME">      0.40000000</i>
    </separator>
   </separator>
   <separator name="electronic mixer" >
    <i name="AMIX">      0.40000000</i>
    <i name="BMIX">      1.00000000</i>
    <i name="AMIN">      0.10000000</i>
    <i name="AMIX_MAG">      1.60000000</i>
    <i name="BMIX_MAG">      1.00000000</i>
    <separator name="electronic mixer details" >
     <i type="int" name="IMIX">     4</i>
     <i type="logical" name="MIXFIRST"> F  </i>
     <i type="int" name="MAXMIX">   -45</i>
     <i name="WC">    100.00000000</i>
     <i type="int" name="INIMIX">     1</i>
     <i type="int" name="MIXPRE">     1</i>
     <i type="int" name="MREMOVE">     5</i>
    </separator>
   </separator>
   <separator name="electronic dipolcorrection" >
    <i type="logical" name="LDIPOL"> F  </i>
    <i type="logical" name="LMONO"> F  </i>
    <i type="int" name="IDIPOL">     0</i>
    <i name="EPSILON">      1.00000000</i>
    <v name="DIPOL">   -100.00000000   -100.00000000   -100.00000000</v>
    <i name="EFIELD">      0.00000000</i>
   </separator>
  </separator>
  <separator name="grids" >
   <i type="int" name="NGX">   112</i>
   <i type="int" name="NGY">   108</i>
   <i type="int" name="NGZ">   112</i>
   <i type="int" name="NGXF">   224</i>
   <i type="int" name="NGYF">   216</i>
   <i type="int" name="NGZF">   224</i>
   <i type="logical" name="ADDGRID"> F  </i>
  </separator>
  <separator name="ionic" >
   <i type="int" name="NSW">  1000</i>
   <i type="int" name="IBRION">     2</i>
   <i type="int" name="MDALGO">     0</i>
   <i type="int" name="ISIF">     0</i>
   <i name="PSTRESS">      0.00000000</i>
   <i name="EDIFFG">      0.00100000</i>
   <i type="int" name="NFREE">     1</i>
   <i name="POTIM">      0.50000000</i>
   <i name="SMASS">     -3.00000000</i>
   <i name="SCALEE">      1.00000000</i>
  </separator>
  <separator name="ionic md" >
   <i name="TEBEG">      0.00010000</i>
   <i name="TEEND">      0.00010000</i>
   <i type="int" name="NBLOCK">     1</i>
   <i type="int" name="KBLOCK">  1000</i>
   <i type="int" name="NPACO">   256</i>
   <i name="APACO">     16.00000000</i>
  </separator>
  <separator name="symmetry" >
   <i type="int" name="ISYM">     0</i>
   <i name="SYMPREC">      0.00001000</i>
  </separator>
  <separator name="dos" >
   <i type="int" name="LORBIT">     0</i>
   <v name="RWIGS">     -1.00000000</v>
   <i type="int" name="NEDOS">   301</i>
   <i name="EMIN">     10.00000000</i>
   <i name="EMAX">    -10.00000000</i>
   <i name="EFERMI">      0.00000000</i>
  </separator>
  <separator name="writing" >
   <i type="int" name="NWRITE">     2</i>
   <i type="logical" name="LWAVE"> F  </i>
   <i type="logical" name="LDOWNSAMPLE"> F  </i>
   <i type="logical" name="LCHARG"> F  </i>
   <i type="logical" name="LPARD"> F  </i>
   <i type="logical" name="LVTOT"> F  </i>
   <i type="logical" name="LVHAR"> F  </i>
   <i type="logical" name="LELF"> F  </i>
   <i type="logical" name="LOPTICS"> F  </i>
   <v name="STM">      0.00000000      0.00000000      0.00000000      0.00000000      0.00000000      0.00000000      0.00000000</v>
  </separator>
  <separator name="performance" >
   <i type="int" name="NPAR">     1</i>
   <i type="int" name="NSIM">     4</i>
   <i type="int" name="NBLK">    -1</i>
   <i type="logical" name="LPLANE"> T  </i>
   <i type="logical" name="LSCALAPACK"> T  </i>
   <i type="logical" name="LSCAAWARE"> F  </i>
   <i type="logical" name="LSCALU"> F  </i>
   <i type="logical" name="LASYNC"> F  </i>
   <i type="logical" name="LORBITALREAL"> F  </i>
  </separator>
  <separator name="miscellaneous" >
   <i type="int" name="IDIOT">     3</i>
   <i type="int" name="PHON_NSTRUCT">    -1</i>
   <i type="logical" name="LMUSIC"> F  </i>
   <v name="POMASS">     26.98100000</v>
   <v name="DARWINR">      0.00000000</v>
   <v name="DARWINV">      1.00000000</v>
   <i type="logical" name="LCORR"> T  </i>
  </separator>
  <i type="logical" name="GGA_COMPAT"> T  </i>
  <i type="logical" name="LBERRY"> F  </i>
  <i type="int" name="ICORELEVEL">     0</i>
  <i type="logical" name="LDAU"> F  </i>
  <i type="int" name="I_CONSTRAINED_M">     0</i>
  <separator name="electronic exchange-correlation" >
   <i type="string" name="GGA">PE</i>
   <i type="int" name="VOSKOWN">     0</i>
   <i type="logical" name="LHFCALC"> F  </i>
   <i type="string" name="PRECFOCK"></i>
   <i type="logical" name="LSYMGRAD"> F  </i>
   <i type="logical" name="LHFONE"> F  </i>
   <i type="logical" name="LRHFCALC"> F  </i>
   <i type="logical" name="LTHOMAS"> F  </i>
   <i type="logical" name="LMODELHF"> F  </i>
   <i type="logical" name="LFOCKACE"> F  </i>
   <i name="ENCUT4O">     -1.00000000</i>
   <i type="int" name="EXXOEP">     0</i>
   <i type="int" name="FOURORBIT">     0</i>
   <i name="AEXX">      0.00000000</i>
   <i name="HFALPHA">      0.00000000</i>
   <i name="MCALPHA">      0.00000000</i>
   <i name="ALDAX">      1.00000000</i>
   <i name="AGGAX">      1.00000000</i>
   <i name="ALDAC">      1.00000000</i>
   <i name="AGGAC">      1.00000000</i>
   <i type="int" name="NKREDX">     1</i>
   <i type="int" name="NKREDY">     1</i>
   <i type="int" name="NKREDZ">     1</i>
   <i type="logical" name="SHIFTRED"> F  </i>
   <i type="logical" name="ODDONLY"> F  </i>
   <i type="logical" name="EVENONLY"> F  </i>
   <i type="int" name="LMAXFOCK">     0</i>
   <i type="int" name="NMAXFOCKAE">     0</i>
   <i type="logical" name="LFOCKAEDFT"> F  </i>
   <i name="HFSCREEN">      0.00000000</i>
   <i name="HFSCREENC">      0.00000000</i>
   <i type="int" name="NBANDSGWLOW">     0</i>
  </separator>
  <separator name="vdW DFT" >
   <i type="logical" name="LUSE_VDW"> F  </i>
   <i name="Zab_VDW">     -0.84910000</i>
   <i name="PARAM1">      0.12340000</i>
   <i name="PARAM2">      1.00000000</i>
   <i name="PARAM3">      0.00000000</i>
  </separator>
  <separator name="model GW" >
   <i type="int" name="MODEL_GW">     0</i>
   <i name="MODEL_EPS0">    953.80535962</i>
   <i name="MODEL_ALPHA">      1.00000000</i>
  </separator>
  <separator name="linear response parameters" >
   <i type="logical" name="LEPSILON"> F  </i>
   <i type="logical" name="LRPA"> F  </i>
   <i type="logical" name="LNABLA"> F  </i>
   <i type="logical" name="LVEL"> F  </i>
   <i type="int" name="KINTER">     0</i>
   <i name="CSHIFT">      0.10000000</i>
   <i name="OMEGAMAX">     -1.00000000</i>
   <i name="DEG_THRESHOLD">      0.00200000</i>
   <i name="RTIME">     -0.10000000</i>
   <i name="WPLASMAI">      0.00000000</i>
   <v name="DFIELD">      0.00000000      0.00000000      0.00000000</v>
   <v name="WPLASMA">      0.00000000      0.00000000      0.00000000      0.00000000      0.00000000      0.00000000      0.00000000      0.00000000      0.00000000</v>
  </separator>
  <separator name="orbital magnetization" >
   <i type="logical" name="NUCIND"> F  </i>
   <v name="MAGPOS">      0.00000000      0.00000000      0.00000000</v>
   <i type="logical" name="LNICSALL"> T  </i>
   <i type="logical" name="ORBITALMAG"> F  </i>
   <i type="logical" name="LMAGBLOCH"> F  </i>
   <i type="logical" name="LCHIMAG"> F  </i>
   <i type="logical" name="LGAUGE"> T  </i>
   <i type="int" name="MAGATOM">     0</i>
   <v name="MAGDIPOL">      0.00000000      0.00000000      0.00000000</v>
   <v name="AVECCONST">      0.00000000      0.00000000      0.00000000</v>
  </separator>
  <separator name="response functions" >
   <i type="logical" name="LFINITE_TEMPERATURE"> F  </i>
   <i type="logical" name="LADDER"> F  </i>
   <i type="logical" name="LRPAFORCE"> F  </i>
   <i type="logical" name="LFXC"> F  </i>
   <i type="logical" name="LHARTREE"> T  </i>
   <i type="int" name="IBSE">     0</i>
   <v type="int" name="KPOINT">    -1     0     0     0</v>
   <i type="logical" name="LTCTC"> F  </i>
   <i type="logical" name="LTCTE"> F  </i>
   <i type="logical" name="LTETE"> F  </i>
   <i type="logical" name="LTRIPLET"> F  </i>
   <i type="logical" name="LFXCEPS"> F  </i>
   <i type="logical" name="LFXHEG"> F  </i>
   <i type="int" name="NATURALO">     2</i>
   <i type="logical" name="LHOLEGF"> F  </i>
   <i type="logical" name="L2ORDER"> F  </i>
   <i type="logical" name="LDMP1"> F  </i>
   <i type="logical" name="LMP2LT"> F  </i>
   <i type="logical" name="LSMP2LT"> F  </i>
   <i type="logical" name="LGWLF"> F  </i>
   <i name="ENCUTGW">     -2.00000000</i>
   <i name="ENCUTGWSOFT">     -2.00000000</i>
   <i name="ENCUTLF">     -1.00000000</i>
   <i type="logical" name="LESF_SPLINES"> F  </i>
   <i type="int" name="LMAXMP2">    -1</i>
   <i name="SCISSOR">      0.00000000</i>
   <i type="int" name="NOMEGA">     0</i>
   <i type="int" name="NOMEGAR">     0</i>
   <i type="int" name="NBANDSGW">    -1</i>
   <i type="int" name="NBANDSO">    -1</i>
   <i type="int" name="NBANDSV">    -1</i>
   <i type="int" name="NELM">     1</i>
   <i type="int" name="NELMHF">     1</i>
   <i type="int" name="DIM">     3</i>
   <i type="int" name="IESPILON">     4</i>
   <i type="int" name="ANTIRES">     0</i>
   <i name="OMEGAMAX">    -30.00000000</i>
   <i name="OMEGAMIN">    -30.00000000</i>
   <i name="OMEGATL">   -200.00000000</i>
   <i type="int" name="OMEGAGRID">     0</i>
   <i name="CSHIFT">     -0.10000000</i>
   <i type="logical" name="LSELFENERGY"> F  </i>
   <i type="logical" name="LSPECTRAL"> F  </i>
   <i type="logical" name="LSPECTRALGW"> F  </i>
   <i type="logical" name="LSINGLES"> F  </i>
   <i type="logical" name="LFERMIGW"> F  </i>
   <i type="logical" name="ODDONLYGW"> F  </i>
   <i type="logical" name="EVENONLYGW"> F  </i>
   <i type="int" name="NKREDLFX">     1</i>
   <i type="int" name="NKREDLFY">     1</i>
   <i type="int" name="NKREDLFZ">     1</i>
   <i type="int" name="MAXMEM">  2800</i>
   <i type="int" name="TELESCOPE">     0</i>
   <i type="int" name="NTAUPAR">    -1</i>
   <i type="int" name="NOMEGAPAR">    -1</i>
   <i name="LAMBDA">      1.00000000</i>
  </separator>
  <separator name="External order field" >
   <i name="OFIELD_KAPPA">      0.00000000</i>
   <v name="OFIELD_K">      0.00000000      0.00000000      0.00000000</v>
   <i name="OFIELD_Q6_NEAR">      0.00000000</i>
   <i name="OFIELD_Q6_FAR">      0.00000000</i>
   <i name="OFIELD_A">      0.00000000</i>
  </separator>
 </parameters>
 <atominfo>
  <atoms>       7 </atoms>
  <types>       1 </types>
  <array name="atoms" >
   <dimension dim="1">ion</dimension>
   <field type="string">element</field>
   <field type="int">atomtype</field>
   <set>
    <rc><c>Al</c><c>   1</c></rc>
    <rc><c>Al</c><c>   1</c></rc>
    <rc><c>Al</c><c>   1</c></rc>
    <rc><c>Al</c><c>   1</c></rc>
    <rc><c>Al</c><c>   1</c></rc>
    <rc><c>Al</c><c>   1</c></rc>
    <rc><c>Al</c><c>   1</c></rc>
   </set>
  </array>
  <array name="atomtypes" >
   <dimension dim="1">type</dimension>
   <field type="int">atomspertype</field>
   <field type="string">element</field>
   <field>mass</field>
   <field>valence</field>
   <field type="string">pseudopotential</field>
   <set>
    <rc><c>   7</c><c>Al</c><c>     26.98100000</c><c>      3.00000000</c><c>  PAW_PBE Al 04Jan2001                  </c></rc>
   </set>
  </array>
 </atominfo>
 <structure name="initialpos" >
  <crystal>
   <varray name="basis" >
    <v>      22.54453563       0.00000000       0.00000000 </v>
    <v>       0.00000000      21.83981355       0.00000000 </v>
    <v>       0.00000000       0.00000000      22.60041050 </v>
   </varray>
   <i name="volume">  11127.72919559 </i>
   <varray name="rec_basis" >
    <v>       0.04435665       0.00000000       0.00000000 </v>
    <v>       0.00000000       0.04578794       0.00000000 </v>
    <v>       0.00000000       0.00000000       0.04424698 </v>
   </varray>
  </crystal>
  <varray name="positions" >
   <v>       0.44885182       0.51439106       0.60807662 </v>
   <v>       0.38482215       0.56479172       0.51782911 </v>
   <v>       0.46344251       0.46977865       0.49476758 </v>
   <v>       0.45014971       0.56557287       0.41724244 </v>
   <v>       0.56832379       0.41811520       0.49946243 </v>
   <v>       0.50591164       0.58885456       0.52022532 </v>
   <v>       0.56480058       0.50131945       0.58119335 </v>
  </varray>
 </structure>
 <calculation>
  <scstep>
   <time name="dav">    2.32    2.32</time>
   <time name="total">    6.41    6.42</time>
   <energy>
    <i name="alphaZ">     -0.01479023 </i>
    <i name="ewald">    463.12613773 </i>
    <i name="hartreedc">   -711.31011172 </i>
    <i name="XCdc">   -190.42907279 </i>
    <i name="pawpsdc">    462.65713654 </i>
    <i name="pawaedc">   -238.99141827 </i>
    <i name="eentropy">     -0.00484743 </i>
    <i name="bandstr">   -114.16021087 </i>
    <i name="atom">    374.76708025 </i>
    <i name="e_fr_energy">     45.63990321 </i>
    <i name="e_wo_entrp">     45.64475064 </i>
    <i name="e_0_energy">     45.64151902 </i>
   </energy>
  </scstep>
  <scstep>
   <time name="dav">    2.20    2.21</time>
   <time name="total">    2.20    2.21</time>
   <energy>
    <i name="e_fr_energy">     -5.56327831 </i>
    <i name="e_wo_entrp">     -5.58417017 </i>
    <i name="e_0_energy">     -5.57024226 </i>
   </energy>
  </scstep>
  <scstep>
   <time name="dav">    2.16    2.17</time>
   <time name="total">    2.17    2.17</time>
   <energy>
    <i name="e_fr_energy">    -16.73645637 </i>
    <i name="e_wo_entrp">    -16.74099656 </i>
    <i name="e_0_energy">    -16.73796977 </i>
   </energy>
  </scstep>
  <scstep>
   <time name="dav">    1.98    1.98</time>
   <time name="total">    1.98    1.99</time>
   <energy>
    <i name="e_fr_energy">    -17.28414585 </i>
    <i name="e_wo_entrp">    -17.31862699 </i>
    <i name="e_0_energy">    -17.29563956 </i>
   </energy>
  </scstep>
  <scstep>
   <time name="dav">    2.41    2.41</time>
   <time name="total">    2.93    2.94</time>
   <energy>
    <i name="e_fr_energy">    -17.30670714 </i>
    <i name="e_wo_entrp">    -17.34064358 </i>
    <i name="e_0_energy">    -17.31801928 </i>
   </energy>
  </scstep>
  <scstep>
   <time name="dav">    1.84    1.85</time>
   <time name="total">    6.42    6.44</time>
   <energy>
    <i name="e_fr_energy">    -12.70360926 </i>
    <i name="e_wo_entrp">    -12.73339549 </i>
    <i name="e_0_energy">    -12.71353800 </i>
   </energy>
  </scstep>
  <scstep>
   <time name="dav">    1.97    1.97</time>
   <time name="total">    6.52    6.53</time>
   <energy>
    <i name="e_fr_energy">     -8.97001239 </i>
    <i name="e_wo_entrp">     -9.00371705 </i>
    <i name="e_0_energy">     -8.98124728 </i>
   </energy>
  </scstep>
  <scstep>
   <time name="dav">    1.95    1.95</time>
   <time name="total">    6.50    6.52</time>
   <energy>
    <i name="e_fr_energy">     -9.96006552 </i>
    <i name="e_wo_entrp">    -10.00188407 </i>
    <i name="e_0_energy">     -9.97400504 </i>
   </energy>
  </scstep>
  <scstep>
   <time name="dav">    2.03    2.03</time>
   <time name="total">    6.54    6.55</time>
   <energy>
    <i name="e_fr_energy">    -11.12997143 </i>
    <i name="e_wo_entrp">    -11.17297120 </i>
    <i name="e_0_energy">    -11.14430469 </i>
   </energy>
  </scstep>
  <scstep>
   <time name="dav">    1.72    1.72</time>
   <time name="total">    6.27    6.29</time>
   <energy>
    <i name="e_fr_energy">    -12.63104091 </i>
    <i name="e_wo_entrp">    -12.66269334 </i>
    <i name="e_0_energy">    -12.64159172 </i>
   </energy>
  </scstep>
  <scstep>
   <time name="dav">    1.73    1.73</time>
   <time name="total">    6.24    6.26</time>
   <energy>
    <i name="e_fr_energy">    -13.81706116 </i>
    <i name="e_wo_entrp">    -13.83019430 </i>
    <i name="e_0_energy">    -13.82143887 </i>
   </energy>
  </scstep>
  <scstep>
   <time name="dav">    2.06    2.06</time>
   <time name="total">    6.62    6.64</time>
   <energy>
    <i name="e_fr_energy">    -14.34530009 </i>
    <i name="e_wo_entrp">    -14.34340499 </i>
    <i name="e_0_energy">    -14.34466839 </i>
   </energy>
  </scstep>
  <scstep>
   <time name="dav">    1.88    1.88</time>
   <time name="total">    6.40    6.40</time>
   <energy>
    <i name="e_fr_energy">    -14.81436859 </i>
    <i name="e_wo_entrp">    -14.79598407 </i>
    <i name="e_0_energy">    -14.80824042 </i>
   </energy>
  </scstep>
  <scstep>
   <time name="dav">    1.73    1.74</time>
   <time name="total">    6.28    6.30</time>
   <energy>
    <i name="e_fr_energy">    -15.33672300 </i>
    <i name="e_wo_entrp">    -15.30214870 </i>
    <i name="e_0_energy">    -15.32519823 </i>
   </energy>
  </scstep>
  <scstep>
   <time name="dav">    1.92    1.92</time>
   <time name="total">    6.49    6.51</time>
   <energy>
    <i name="e_fr_energy">    -15.45352820 </i>
    <i name="e_wo_entrp">    -15.42121062 </i>
    <i name="e_0_energy">    -15.44275567 </i>
   </energy>
  </scstep>
  <scstep>
   <time name="dav">    2.07    2.08</time>
   <time name="total">    6.65    6.67</time>
   <energy>
    <i name="e_fr_energy">    -15.52241127 </i>
    <i name="e_wo_entrp">    -15.49589352 </i>
    <i name="e_0_energy">    -15.51357202 </i>
   </energy>
  </scstep>
  <scstep>
   <time name="dav">    2.02    2.02</time>
   <time name="total">    6.54    6.55</time>
   <energy>
    <i name="e_fr_energy">    -15.53507711 </i>
    <i name="e_wo_entrp">    -15.50997497 </i>
    <i name="e_0_energy">    -15.52670973 </i>
   </energy>
  </scstep>
  <scstep>
   <time name="dav">    1.76    1.76</time>
   <time name="total">    6.38    6.39</time>
   <energy>
    <i name="e_fr_energy">    -15.56533629 </i>
    <i name="e_wo_entrp">    -15.54294070 </i>
    <i name="e_0_energy">    -15.55787109 </i>
   </energy>
  </scstep>
  <scstep>
   <time name="dav">    1.15    1.15</time>
   <time name="total">    5.71    5.72</time>
   <energy>
    <i name="e_fr_energy">    -15.56468472 </i>
    <i name="e_wo_entrp">    -15.54233551 </i>
    <i name="e_0_energy">    -15.55723498 </i>
   </energy>
  </scstep>
  <scstep>
   <time name="dav">    1.72    1.72</time>
   <time name="total">    6.36    6.38</time>
   <energy>
    <i name="e_fr_energy">    -15.62395162 </i>
    <i name="e_wo_entrp">    -15.61139897 </i>
    <i name="e_0_energy">    -15.61976740 </i>
   </energy>
  </scstep>
  <scstep>
   <time name="dav">    1.82    1.83</time>
   <time name="total">    6.49    6.50</time>
   <energy>
    <i name="e_fr_energy">    -15.92445593 </i>
    <i name="e_wo_entrp">    -15.97202313 </i>
    <i name="e_0_energy">    -15.94031166 </i>
   </energy>
  </scstep>
  <scstep>
   <time name="dav">    1.78    1.79</time>
   <time name="total">    6.41    6.42</time>
   <energy>
    <i name="e_fr_energy">    -15.85623939 </i>
    <i name="e_wo_entrp">    -15.89296710 </i>
    <i name="e_0_energy">    -15.86848196 </i>
   </energy>
  </scstep>
  <scstep>
   <time name="dav">    1.70    1.71</time>
   <time name="total">    6.39    6.41</time>
   <energy>
    <i name="e_fr_energy">    -15.92750182 </i>
    <i name="e_wo_entrp">    -15.97243437 </i>
    <i name="e_0_energy">    -15.94247933 </i>
   </energy>
  </scstep>
  <scstep>
   <time name="dav">    2.07    2.07</time>
   <time name="total">    6.74    6.76</time>
   <energy>
    <i name="e_fr_energy">    -15.95429149 </i>
    <i name="e_wo_entrp">    -15.99732322 </i>
    <i name="e_0_energy">    -15.96863540 </i>
   </energy>
  </scstep>
  <scstep>
   <time name="dav">    1.71    1.72</time>
   <time name="total">    6.44    6.45</time>
   <energy>
    <i name="e_fr_energy">    -15.94832898 </i>
    <i name="e_wo_entrp">    -15.99030995 </i>
    <i name="e_0_energy">    -15.96232264 </i>
   </energy>
  </scstep>
  <scstep>
   <time name="dav">    1.12    1.12</time>
   <time name="total">    5.85    5.86</time>
   <energy>
    <i name="e_fr_energy">    -15.94939121 </i>
    <i name="e_wo_entrp">    -15.99173971 </i>
    <i name="e_0_energy">    -15.96350738 </i>
   </energy>
  </scstep>
  <scstep>
   <time name="dav">    1.81    1.81</time>
   <time name="total">    6.51    6.52</time>
   <energy>
    <i name="e_fr_energy">    -15.96542677 </i>
    <i name="e_wo_entrp">    -16.01346856 </i>
    <i name="e_0_energy">    -15.98144070 </i>
   </energy>
  </scstep>
  <scstep>
   <time name="dav">    2.02    2.02</time>
   <time name="total">    6.77    6.78</time>
   <energy>
    <i name="e_fr_energy">    -15.96578345 </i>
    <i name="e_wo_entrp">    -16.01432233 </i>
    <i name="e_0_energy">    -15.98196308 </i>
   </energy>
  </scstep>
  <scstep>
   <time name="dav">    1.77    1.77</time>
   <time name="total">    6.48    6.50</time>
   <energy>
    <i name="e_fr_energy">    -15.95980030 </i>
    <i name="e_wo_entrp">    -16.00369713 </i>
    <i name="e_0_energy">    -15.97443257 </i>
   </energy>
  </scstep>
  <scstep>
   <time name="dav">    1.71    1.71</time>
   <time name="total">    6.47    6.49</time>
   <energy>
    <i name="e_fr_energy">    -15.99507881 </i>
    <i name="e_wo_entrp">    -16.03912009 </i>
    <i name="e_0_energy">    -16.00975923 </i>
   </energy>
  </scstep>
  <scstep>
   <time name="dav">    1.78    1.79</time>
   <time name="total">    6.57    6.59</time>
   <energy>
    <i name="e_fr_energy">    -15.99797558 </i>
    <i name="e_wo_entrp">    -16.02956487 </i>
    <i name="e_0_energy">    -16.00850534 </i>
   </energy>
  </scstep>
  <scstep>
   <time name="dav">    1.87    1.88</time>
   <time name="total">    6.67    6.68</time>
   <energy>
    <i name="e_fr_energy">    -16.00603716 </i>
    <i name="e_wo_entrp">    -16.04188711 </i>
    <i name="e_0_energy">    -16.01798714 </i>
   </energy>
  </scstep>
  <scstep>
   <time name="dav">    1.72    1.72</time>
   <time name="total">    6.53    6.54</time>
   <energy>
    <i name="e_fr_energy">    -16.02061269 </i>
    <i name="e_wo_entrp">    -16.06089994 </i>
    <i name="e_0_energy">    -16.03404177 </i>
   </energy>
  </scstep>
  <scstep>
   <time name="dav">    1.73    1.73</time>
   <time name="total">    6.59    6.61</time>
   <energy>
    <i name="e_fr_energy">    -16.04221751 </i>
    <i name="e_wo_entrp">    -16.07915738 </i>
    <i name="e_0_energy">    -16.05453080 </i>
   </energy>
  </scstep>
  <scstep>
   <time name="dav">    1.75    1.76</time>
   <time name="total">    6.55    6.56</time>
   <energy>
    <i name="e_fr_energy">    -16.06868558 </i>
    <i name="e_wo_entrp">    -16.11131770 </i>
    <i name="e_0_energy">    -16.08289629 </i>
   </energy>
  </scstep>
  <scstep>
   <time name="dav">    1.90    1.91</time>
   <time name="total">    6.75    6.77</time>
   <energy>
    <i name="e_fr_energy">    -16.07286621 </i>
    <i name="e_wo_entrp">    -16.11799366 </i>
    <i name="e_0_energy">    -16.08790869 </i>
   </energy>
  </scstep>
  <scstep>
   <time name="dav">    1.75    1.75</time>
   <time name="total">    6.64    6.66</time>
   <energy>
    <i name="e_fr_energy">    -16.08358129 </i>
    <i name="e_wo_entrp">    -16.13206892 </i>
    <i name="e_0_energy">    -16.09974383 </i>
   </energy>
  </scstep>
  <scstep>
   <time name="dav">    1.76    1.77</time>
   <time name="total">    6.68    6.70</time>
   <energy>
    <i name="e_fr_energy">    -16.08484952 </i>
    <i name="e_wo_entrp">    -16.13084874 </i>
    <i name="e_0_energy">    -16.10018260 </i>
   </energy>
  </scstep>
  <scstep>
   <time name="dav">    1.73    1.73</time>
   <time name="total">    6.69    6.71</time>
   <energy>
    <i name="e_fr_energy">    -16.09325858 </i>
    <i name="e_wo_entrp">    -16.13987315 </i>
    <i name="e_0_energy">    -16.10879677 </i>
   </energy>
  </scstep>
  <scstep>
   <time name="dav">    1.90    1.91</time>
   <time name="total">    6.90    6.92</time>
   <energy>
    <i name="e_fr_energy">    -16.09759669 </i>
    <i name="e_wo_entrp">    -16.14424719 </i>
    <i name="e_0_energy">    -16.11314686 </i>
   </energy>
  </scstep>
  <scstep>
   <time name="dav">    2.00    2.00</time>
   <time name="total">    7.03    7.04</time>
   <energy>
    <i name="e_fr_energy">    -16.10078596 </i>
    <i name="e_wo_entrp">    -16.14826985 </i>
    <i name="e_0_energy">    -16.11661393 </i>
   </energy>
  </scstep>
  <scstep>
   <time name="dav">    1.44    1.44</time>
   <time name="total">    6.48    6.50</time>
   <energy>
    <i name="e_fr_energy">    -16.10207869 </i>
    <i name="e_wo_entrp">    -16.14916911 </i>
    <i name="e_0_energy">    -16.11777550 </i>
   </energy>
  </scstep>
  <scstep>
   <time name="dav">    1.72    1.73</time>
   <time name="total">    6.74    6.76</time>
   <energy>
    <i name="e_fr_energy">    -16.10400924 </i>
    <i name="e_wo_entrp">    -16.15088561 </i>
    <i name="e_0_energy">    -16.11963469 </i>
   </energy>
  </scstep>
  <scstep>
   <time name="dav">    1.45    1.46</time>
   <time name="total">    6.54    6.56</time>
   <energy>
    <i name="e_fr_energy">    -16.10483546 </i>
    <i name="e_wo_entrp">    -16.15173832 </i>
    <i name="e_0_energy">    -16.12046975 </i>
   </energy>
  </scstep>
  <scstep>
   <time name="dav">    1.34    1.35</time>
   <time name="total">    6.47    6.49</time>
   <energy>
    <i name="e_fr_energy">    -16.10546677 </i>
    <i name="e_wo_entrp">    -16.15229382 </i>
    <i name="e_0_energy">    -16.12107578 </i>
   </energy>
  </scstep>
  <scstep>
   <time name="dav">    1.47    1.47</time>
   <time name="total">    6.61    6.62</time>
   <energy>
    <i name="e_fr_energy">    -16.10637628 </i>
    <i name="e_wo_entrp">    -16.15315308 </i>
    <i name="e_0_energy">    -16.12196855 </i>
   </energy>
  </scstep>
  <scstep>
   <time name="dav">    1.32    1.32</time>
   <time name="total">    6.48    6.50</time>
   <energy>
    <i name="e_fr_energy">    -16.10695809 </i>
    <i name="e_wo_entrp">    -16.15367839 </i>
    <i name="e_0_energy">    -16.12253152 </i>
   </energy>
  </scstep>
  <scstep>
   <time name="dav">    1.15    1.16</time>
   <time name="total">    6.31    6.34</time>
   <energy>
    <i name="e_fr_energy">    -16.10727834 </i>
    <i name="e_wo_entrp">    -16.15403642 </i>
    <i name="e_0_energy">    -16.12286437 </i>
   </energy>
  </scstep>
  <scstep>
   <time name="dav">    1.19    1.19</time>
   <time name="total">    6.41    6.43</time>
   <energy>
    <i name="e_fr_energy">    -16.10747540 </i>
    <i name="e_wo_entrp">    -16.15432803 </i>
    <i name="e_0_energy">    -16.12309294 </i>
   </energy>
  </scstep>
  <scstep>
   <time name="dav">    1.14    1.14</time>
   <time name="total">    6.40    6.42</time>
   <energy>
    <i name="e_fr_energy">    -16.10759637 </i>
    <i name="e_wo_entrp">    -16.15443584 </i>
    <i name="e_0_energy">    -16.12320953 </i>
   </energy>
  </scstep>
  <scstep>
   <time name="dav">    1.13    1.13</time>
   <time name="total">    5.07    5.08</time>
   <energy>
    <i name="alphaZ">     -0.01479023 </i>
    <i name="ewald">    463.12613773 </i>
    <i name="hartreedc">   -740.52527014 </i>
    <i name="XCdc">   -189.88133495 </i>
    <i name="pawpsdc">    720.74362413 </i>
    <i name="pawaedc">   -497.15076657 </i>
    <i name="eentropy">      0.04687634 </i>
    <i name="bandstr">   -147.21919482 </i>
    <i name="atom">    374.76708025 </i>
    <i name="e_fr_energy">    -16.10763827 </i>
    <i name="e_wo_entrp">    -16.15451461 </i>
    <i name="e_0_energy">    -16.12326371 </i>
   </energy>
  </scstep>
  <structure>
   <crystal>
    <varray name="basis" >
     <v>      22.54453563       0.00000000       0.00000000 </v>
     <v>       0.00000000      21.83981355       0.00000000 </v>
     <v>       0.00000000       0.00000000      22.60041050 </v>
    </varray>
    <i name="volume">  11127.72919559 </i>
    <varray name="rec_basis" >
     <v>       0.04435665       0.00000000       0.00000000 </v>
     <v>       0.00000000       0.04578794       0.00000000 </v>
     <v>       0.00000000       0.00000000       0.04424698 </v>
    </varray>
   </crystal>
   <varray name="positions" >
    <v>       0.44885182       0.51439106       0.60807662 </v>
    <v>       0.38482215       0.56479172       0.51782911 </v>
    <v>       0.46344251       0.46977865       0.49476758 </v>
    <v>       0.45014971       0.56557287       0.41724244 </v>
    <v>       0.56832379       0.41811520       0.49946243 </v>
    <v>       0.50591164       0.58885456       0.52022532 </v>
    <v>       0.56480058       0.50131945       0.58119335 </v>
   </varray>
  </structure>
  <varray name="forces" >
   <v>       0.06435885       0.09074581      -0.46265739 </v>
   <v>      -0.01129708      -0.17226102      -0.02903634 </v>
   <v>       0.22701426      -0.14961093      -0.02429159 </v>
   <v>       0.12083973      -0.03477744       0.87103500 </v>
   <v>      -0.27494490       0.13430875       0.12732665 </v>
   <v>       0.33508234      -0.18948216      -0.05200674 </v>
   <v>      -0.46105319       0.32107698      -0.43036959 </v>
  </varray>
  <energy>
   <i name="e_fr_energy">    -16.10763827 </i>
   <i name="e_wo_entrp">    -16.15451461 </i>
   <i name="e_0_energy">    -16.12326371 </i>
  </energy>
  <time name="totalsc">  323.55  324.38</time>
 </calculation>
 <calculation>
  <scstep>
   <time name="dav">    1.70    1.70</time>
   <time name="total">    6.19    6.20</time>
   <energy>
    <i name="alphaZ">     -0.01479023 </i>
    <i name="ewald">    469.32337360 </i>
    <i name="hartreedc">   -745.90129740 </i>
    <i name="XCdc">   -189.75654102 </i>
    <i name="pawpsdc">    720.74869642 </i>
    <i name="pawaedc">   -497.15583236 </i>
    <i name="eentropy">      0.05395919 </i>
    <i name="bandstr">   -148.25416461 </i>
    <i name="atom">    374.76708025 </i>
    <i name="e_fr_energy">    -16.18951617 </i>
    <i name="e_wo_entrp">    -16.24347536 </i>
    <i name="e_0_energy">    -16.20750256 </i>
   </energy>
  </scstep>
  <scstep>
   <time name="dav">    2.20    2.20</time>
   <time name="total">    6.60    6.62</time>
   <energy>
    <i name="e_fr_energy">    -16.19039111 </i>
    <i name="e_wo_entrp">    -16.24211645 </i>
    <i name="e_0_energy">    -16.20763289 </i>
   </energy>
  </scstep>
  <scstep>
   <time name="dav">    2.12    2.13</time>
   <time name="total">    6.57    6.59</time>
   <energy>
    <i name="e_fr_energy">    -16.18950170 </i>
    <i name="e_wo_entrp">    -16.24080378 </i>
    <i name="e_0_energy">    -16.20660239 </i>
   </energy>
  </scstep>
  <scstep>
   <time name="dav">    1.72    1.72</time>
   <time name="total">    6.16    6.17</time>
   <energy>
    <i name="e_fr_energy">    -16.18920614 </i>
    <i name="e_wo_entrp">    -16.24045076 </i>
    <i name="e_0_energy">    -16.20628768 </i>
   </energy>
  </scstep>
  <scstep>
   <time name="dav">    1.74    1.74</time>
   <time name="total">    6.21    6.23</time>
   <energy>
    <i name="e_fr_energy">    -16.18886208 </i>
    <i name="e_wo_entrp">    -16.24001749 </i>
    <i name="e_0_energy">    -16.20591388 </i>
   </energy>
  </scstep>
  <scstep>
   <time name="dav">    1.74    1.74</time>
   <time name="total">    6.20    6.21</time>
   <energy>
    <i name="e_fr_energy">    -16.18846624 </i>
    <i name="e_wo_entrp">    -16.23952616 </i>
    <i name="e_0_energy">    -16.20548621 </i>
   </energy>
  </scstep>
  <scstep>
   <time name="dav">    1.13    1.13</time>
   <time name="total">    5.05    5.06</time>
   <energy>
    <i name="alphaZ">     -0.01479023 </i>
    <i name="ewald">    469.32337360 </i>
    <i name="hartreedc">   -746.48840211 </i>
    <i name="XCdc">   -189.73845459 </i>
    <i name="pawpsdc">    736.45343044 </i>
    <i name="pawaedc">   -512.87425033 </i>
    <i name="eentropy">      0.05106180 </i>
    <i name="bandstr">   -147.66749059 </i>
    <i name="atom">    374.76708025 </i>
    <i name="e_fr_energy">    -16.18844176 </i>
    <i name="e_wo_entrp">    -16.23950356 </i>
    <i name="e_0_energy">    -16.20546236 </i>
   </energy>
  </scstep>
  <structure>
   <crystal>
    <varray name="basis" >
     <v>      22.54453563       0.00000000       0.00000000 </v>
     <v>       0.00000000      21.83981355       0.00000000 </v>
     <v>       0.00000000       0.00000000      22.60041050 </v>
    </varray>
    <i name="volume">  11127.72919559 </i>
    <varray name="rec_basis" >
     <v>       0.04435665       0.00000000       0.00000000 </v>
     <v>       0.00000000       0.04578794       0.00000000 </v>
     <v>       0.00000000       0.00000000       0.04424698 </v>
    </varray>
   </crystal>
   <varray name="positions" >
    <v>       0.44898954       0.51459151       0.60708904 </v>
    <v>       0.38479797       0.56441121       0.51776713 </v>
    <v>       0.46392829       0.46944817       0.49471573 </v>
    <v>       0.45040829       0.56549605       0.41910175 </v>
    <v>       0.56773544       0.41841188       0.49973422 </v>
    <v>       0.50662867       0.58843600       0.52011430 </v>
    <v>       0.56381398       0.50202869       0.58027468 </v>
   </varray>
  </structure>
  <varray name="forces" >
   <v>      -0.05237787       0.11739538      -0.40026417 </v>
   <v>      -0.05140331      -0.17635709       0.01370720 </v>
   <v>       0.12668850      -0.13186691      -0.05167361 </v>
   <v>       0.13184438      -0.03271006       0.78121817 </v>
   <v>      -0.16928146       0.04999473       0.09872592 </v>
   <v>       0.32192135      -0.10189196      -0.05688102 </v>
   <v>      -0.30739159       0.27543590      -0.38483248 </v>
  </varray>
  <energy>
   <i name="e_fr_energy">    -16.18844176 </i>
   <i name="e_wo_entrp">    -16.23950356 </i>
   <i name="e_0_energy">    -16.20546236 </i>
  </energy>
  <time name="totalsc">   52.64   52.79</time>
 </calculation>
 <calculation>
  <scstep>
   <time name="dav">    1.73    1.73</time>
   <time name="total">    6.20    6.22</time>
   <energy>
    <i name="alphaZ">     -0.01479023 </i>
    <i name="ewald">    488.53291615 </i>
    <i name="hartreedc">   -762.87022378 </i>
    <i name="XCdc">   -189.35642715 </i>
    <i name="pawpsdc">    736.33632236 </i>
    <i name="pawaedc">   -512.75715765 </i>
    <i name="eentropy">      0.05359498 </i>
    <i name="bandstr">   -151.00828898 </i>
    <i name="atom">    374.76708025 </i>
    <i name="e_fr_energy">    -16.31697404 </i>
    <i name="e_wo_entrp">    -16.37056903 </i>
    <i name="e_0_energy">    -16.33483904 </i>
   </energy>
  </scstep>
  <scstep>
   <time name="dav">    2.29    2.30</time>
   <time name="total">    6.72    6.74</time>
   <energy>
    <i name="e_fr_energy">    -16.32362094 </i>
    <i name="e_wo_entrp">    -16.37827491 </i>
    <i name="e_0_energy">    -16.34183893 </i>
   </energy>
  </scstep>
  <scstep>
   <time name="dav">    2.00    2.01</time>
   <time name="total">    6.43    6.45</time>
   <energy>
    <i name="e_fr_energy">    -16.31843355 </i>
    <i name="e_wo_entrp">    -16.37346650 </i>
    <i name="e_0_energy">    -16.33677787 </i>
   </energy>
  </scstep>
  <scstep>
   <time name="dav">    2.27    2.28</time>
   <time name="total">    6.70    6.72</time>
   <energy>
    <i name="e_fr_energy">    -16.31757540 </i>
    <i name="e_wo_entrp">    -16.37268001 </i>
    <i name="e_0_energy">    -16.33594360 </i>
   </energy>
  </scstep>
  <scstep>
   <time name="dav">    1.85    1.85</time>
   <time name="total">    6.30    6.32</time>
   <energy>
    <i name="e_fr_energy">    -16.31678890 </i>
    <i name="e_wo_entrp">    -16.37208598 </i>
    <i name="e_0_energy">    -16.33522126 </i>
   </energy>
  </scstep>
  <scstep>
   <time name="dav">    1.88    1.88</time>
   <time name="total">    6.35    6.37</time>
   <energy>
    <i name="e_fr_energy">    -16.31670449 </i>
    <i name="e_wo_entrp">    -16.37229660 </i>
    <i name="e_0_energy">    -16.33523520 </i>
   </energy>
  </scstep>
  <scstep>
   <time name="dav">    1.86    1.86</time>
   <time name="total">    6.33    6.34</time>
   <energy>
    <i name="e_fr_energy">    -16.31754078 </i>
    <i name="e_wo_entrp">    -16.37324286 </i>
    <i name="e_0_energy">    -16.33610814 </i>
   </energy>
  </scstep>
  <scstep>
   <time name="dav">    2.03    2.03</time>
   <time name="total">    6.50    6.52</time>
   <energy>
    <i name="e_fr_energy">    -16.31849506 </i>
    <i name="e_wo_entrp">    -16.37431952 </i>
    <i name="e_0_energy">    -16.33710321 </i>
   </energy>
  </scstep>
  <scstep>
   <time name="dav">    1.86    1.87</time>
   <time name="total">    6.40    6.42</time>
   <energy>
    <i name="e_fr_energy">    -16.31934528 </i>
    <i name="e_wo_entrp">    -16.37530062 </i>
    <i name="e_0_energy">    -16.33799706 </i>
   </energy>
  </scstep>
  <scstep>
   <time name="dav">    2.02    2.02</time>
   <time name="total">    6.51    6.53</time>
   <energy>
    <i name="e_fr_energy">    -16.32023823 </i>
    <i name="e_wo_entrp">    -16.37623335 </i>
    <i name="e_0_energy">    -16.33890327 </i>
   </energy>
  </scstep>
  <scstep>
   <time name="dav">    1.89    1.89</time>
   <time name="total">    6.39    6.40</time>
   <energy>
    <i name="e_fr_energy">    -16.32244110 </i>
    <i name="e_wo_entrp">    -16.37828277 </i>
    <i name="e_0_energy">    -16.34105499 </i>
   </energy>
  </scstep>
  <scstep>
   <time name="dav">    2.00    2.01</time>
   <time name="total">    6.54    6.55</time>
   <energy>
    <i name="e_fr_energy">    -16.32475755 </i>
    <i name="e_wo_entrp">    -16.38015269 </i>
    <i name="e_0_energy">    -16.34322259 </i>
   </energy>
  </scstep>
  <scstep>
   <time name="dav">    2.07    2.07</time>
   <time name="total">    6.61    6.64</time>
   <energy>
    <i name="e_fr_energy">    -16.32630619 </i>
    <i name="e_wo_entrp">    -16.38143122 </i>
    <i name="e_0_energy">    -16.34468120 </i>
   </energy>
  </scstep>
  <scstep>
   <time name="dav">    1.48    1.48</time>
   <time name="total">    6.01    6.02</time>
   <energy>
    <i name="e_fr_energy">    -16.32716859 </i>
    <i name="e_wo_entrp">    -16.38215474 </i>
    <i name="e_0_energy">    -16.34549731 </i>
   </energy>
  </scstep>
  <scstep>
   <time name="dav">    1.76    1.76</time>
   <time name="total">    6.32    6.34</time>
   <energy>
    <i name="e_fr_energy">    -16.32818121 </i>
    <i name="e_wo_entrp">    -16.38300352 </i>
    <i name="e_0_energy">    -16.34645531 </i>
   </energy>
  </scstep>
  <scstep>
   <time name="dav">    1.50    1.50</time>
   <time name="total">    6.05    6.06</time>
   <energy>
    <i name="e_fr_energy">    -16.32925938 </i>
    <i name="e_wo_entrp">    -16.38408983 </i>
    <i name="e_0_energy">    -16.34753619 </i>
   </energy>
  </scstep>
  <scstep>
   <time name="dav">    1.32    1.32</time>
   <time name="total">    5.91    5.92</time>
   <energy>
    <i name="e_fr_energy">    -16.32972127 </i>
    <i name="e_wo_entrp">    -16.38446661 </i>
    <i name="e_0_energy">    -16.34796972 </i>
   </energy>
  </scstep>
  <scstep>
   <time name="dav">    1.49    1.49</time>
   <time name="total">    6.08    6.09</time>
   <energy>
    <i name="e_fr_energy">    -16.33034998 </i>
    <i name="e_wo_entrp">    -16.38508680 </i>
    <i name="e_0_energy">    -16.34859559 </i>
   </energy>
  </scstep>
  <scstep>
   <time name="dav">    1.36    1.36</time>
   <time name="total">    5.91    5.93</time>
   <energy>
    <i name="e_fr_energy">    -16.33077507 </i>
    <i name="e_wo_entrp">    -16.38547670 </i>
    <i name="e_0_energy">    -16.34900895 </i>
   </energy>
  </scstep>
  <scstep>
   <time name="dav">    1.36    1.36</time>
   <time name="total">    5.95    5.96</time>
   <energy>
    <i name="e_fr_energy">    -16.33113071 </i>
    <i name="e_wo_entrp">    -16.38581762 </i>
    <i name="e_0_energy">    -16.34935968 </i>
   </energy>
  </scstep>
  <scstep>
   <time name="dav">    1.12    1.12</time>
   <time name="total">    5.78    5.80</time>
   <energy>
    <i name="e_fr_energy">    -16.33123477 </i>
    <i name="e_wo_entrp">    -16.38591208 </i>
    <i name="e_0_energy">    -16.34946054 </i>
   </energy>
  </scstep>
  <scstep>
   <time name="dav">    1.12    1.12</time>
   <time name="total">    5.09    5.10</time>
   <energy>
    <i name="alphaZ">     -0.01479023 </i>
    <i name="ewald">    488.53291615 </i>
    <i name="hartreedc">   -764.98516403 </i>
    <i name="XCdc">   -189.26493016 </i>
    <i name="pawpsdc">    796.61799262 </i>
    <i name="pawaedc">   -573.08975476 </i>
    <i name="eentropy">      0.05466991 </i>
    <i name="bandstr">   -148.94932266 </i>
    <i name="atom">    374.76708025 </i>
    <i name="e_fr_energy">    -16.33130291 </i>
    <i name="e_wo_entrp">    -16.38597282 </i>
    <i name="e_0_energy">    -16.34952622 </i>
   </energy>
  </scstep>
  <structure>
   <crystal>
    <varray name="basis" >
     <v>      22.54453563       0.00000000       0.00000000 </v>
     <v>       0.00000000      21.83981355       0.00000000 </v>
     <v>       0.00000000       0.00000000      22.60041050 </v>
    </varray>
    <i name="volume">  11127.72919559 </i>
    <varray name="rec_basis" >
     <v>       0.04435665       0.00000000       0.00000000 </v>
     <v>       0.00000000       0.04578794       0.00000000 </v>
     <v>       0.00000000       0.00000000       0.04424698 </v>
    </varray>
   </crystal>
   <varray name="positions" >
    <v>       0.44940270       0.51519286       0.60412628 </v>
    <v>       0.38472545       0.56326967       0.51758119 </v>
    <v>       0.46538564       0.46845673       0.49456017 </v>
    <v>       0.45118404       0.56526559       0.42467966 </v>
    <v>       0.56597039       0.41930192       0.50054959 </v>
    <v>       0.50877978       0.58718035       0.51978126 </v>
    <v>       0.56085418       0.50415640       0.57751869 </v>
   </varray>
  </structure>
  <varray name="forces" >
   <v>      -0.37230030       0.15332274      -0.12060780 </v>
   <v>      -0.17238166      -0.16593648       0.16740732 </v>
   <v>      -0.22178445      -0.07343990      -0.12831113 </v>
   <v>       0.11757848       0.00408166       0.24419865 </v>
   <v>       0.18553284      -0.21295599       0.00673475 </v>
   <v>       0.21944532       0.27609756      -0.08275455 </v>
   <v>       0.24390978       0.01883041      -0.08666725 </v>
  </varray>
  <energy>
   <i name="e_fr_energy">    -16.33130291 </i>
   <i name="e_wo_entrp">    -16.38597282 </i>
   <i name="e_0_energy">    -16.34952622 </i>
  </energy>
  <time name="totalsc">  146.96  147.33</time>
 </calculation>
 <calculation>
  <scstep>
   <time name="dav">    1.74    1.75</time>
   <time name="total">    6.15    6.17</time>
   <energy>
    <i name="alphaZ">     -0.01479023 </i>
    <i name="ewald">    490.46909125 </i>
    <i name="hartreedc">   -766.61928017 </i>
    <i name="XCdc">   -189.22690135 </i>
    <i name="pawpsdc">    796.62117444 </i>
    <i name="pawaedc">   -573.09294089 </i>
    <i name="eentropy">      0.05237932 </i>
    <i name="bandstr">   -149.28778385 </i>
    <i name="atom">    374.76708025 </i>
    <i name="e_fr_energy">    -16.33197124 </i>
    <i name="e_wo_entrp">    -16.38435056 </i>
    <i name="e_0_energy">    -16.34943101 </i>
   </energy>
  </scstep>
  <scstep>
   <time name="dav">    2.13    2.14</time>
   <time name="total">    6.48    6.49</time>
   <energy>
    <i name="e_fr_energy">    -16.33206975 </i>
    <i name="e_wo_entrp">    -16.38476367 </i>
    <i name="e_0_energy">    -16.34963439 </i>
   </energy>
  </scstep>
  <scstep>
   <time name="dav">    1.63    1.63</time>
   <time name="total">    5.97    5.99</time>
   <energy>
    <i name="e_fr_energy">    -16.33194005 </i>
    <i name="e_wo_entrp">    -16.38483929 </i>
    <i name="e_0_energy">    -16.34957313 </i>
   </energy>
  </scstep>
  <scstep>
   <time name="dav">    1.39    1.39</time>
   <time name="total">    5.76    5.78</time>
   <energy>
    <i name="e_fr_energy">    -16.33178939 </i>
    <i name="e_wo_entrp">    -16.38478671 </i>
    <i name="e_0_energy">    -16.34945517 </i>
   </energy>
  </scstep>
  <scstep>
   <time name="dav">    1.15    1.15</time>
   <time name="total">    5.55    5.56</time>
   <energy>
    <i name="e_fr_energy">    -16.33165490 </i>
    <i name="e_wo_entrp">    -16.38471741 </i>
    <i name="e_0_energy">    -16.34934240 </i>
   </energy>
  </scstep>
  <scstep>
   <time name="dav">    1.21    1.21</time>
   <time name="total">    5.64    5.66</time>
   <energy>
    <i name="e_fr_energy">    -16.33154868 </i>
    <i name="e_wo_entrp">    -16.38469176 </i>
    <i name="e_0_energy">    -16.34926304 </i>
   </energy>
  </scstep>
  <scstep>
   <time name="dav">    1.08    1.09</time>
   <time name="total">    5.03    5.05</time>
   <energy>
    <i name="alphaZ">     -0.01479023 </i>
    <i name="ewald">    490.46909125 </i>
    <i name="hartreedc">   -766.81720094 </i>
    <i name="XCdc">   -189.21913559 </i>
    <i name="pawpsdc">    803.06273757 </i>
    <i name="pawaedc">   -579.54048124 </i>
    <i name="eentropy">      0.05322030 </i>
    <i name="bandstr">   -149.09207156 </i>
    <i name="atom">    374.76708025 </i>
    <i name="e_fr_energy">    -16.33155019 </i>
    <i name="e_wo_entrp">    -16.38477048 </i>
    <i name="e_0_energy">    -16.34929029 </i>
   </energy>
  </scstep>
  <structure>
   <crystal>
    <varray name="basis" >
     <v>      22.54453563       0.00000000       0.00000000 </v>
     <v>       0.00000000      21.83981355       0.00000000 </v>
     <v>       0.00000000       0.00000000      22.60041050 </v>
    </varray>
    <i name="volume">  11127.72919559 </i>
    <varray name="rec_basis" >
     <v>       0.04435665       0.00000000       0.00000000 </v>
     <v>       0.00000000       0.04578794       0.00000000 </v>
     <v>       0.00000000       0.00000000       0.04424698 </v>
    </varray>
   </crystal>
   <varray name="positions" >
    <v>       0.44944325       0.51525188       0.60383550 </v>
    <v>       0.38471833       0.56315764       0.51756294 </v>
    <v>       0.46552867       0.46835943       0.49454490 </v>
    <v>       0.45126018       0.56524297       0.42522710 </v>
    <v>       0.56579716       0.41938927       0.50062962 </v>
    <v>       0.50899090       0.58705711       0.51974858 </v>
    <v>       0.56056369       0.50436523       0.57724821 </v>
   </varray>
  </structure>
  <varray name="forces" >
   <v>      -0.40842384       0.15290867      -0.08664267 </v>
   <v>      -0.19210374      -0.16598693       0.18952652 </v>
   <v>      -0.26625936      -0.06453105      -0.13679286 </v>
   <v>       0.12167883       0.00620583       0.17741574 </v>
   <v>       0.22840101      -0.24455953       0.00025914 </v>
   <v>       0.20939036       0.33242448      -0.08838258 </v>
   <v>       0.30731674      -0.01646147      -0.05538329 </v>
  </varray>
  <energy>
   <i name="e_fr_energy">    -16.33155019 </i>
   <i name="e_wo_entrp">    -16.38477048 </i>
   <i name="e_0_energy">    -16.34929029 </i>
  </energy>
  <time name="totalsc">   50.22   50.38</time>
 </calculation>
 <calculation>
  <scstep>
   <time name="dav">    1.73    1.74</time>
   <time name="total">    6.22    6.23</time>
   <energy>
    <i name="alphaZ">     -0.01479023 </i>
    <i name="ewald">    490.13675279 </i>
    <i name="hartreedc">   -766.57166069 </i>
    <i name="XCdc">   -189.22721963 </i>
    <i name="pawpsdc">    803.10773446 </i>
    <i name="pawaedc">   -579.58544845 </i>
    <i name="eentropy">      0.03785121 </i>
    <i name="bandstr">   -149.02661169 </i>
    <i name="atom">    374.76708025 </i>
    <i name="e_fr_energy">    -16.37631196 </i>
    <i name="e_wo_entrp">    -16.41416317 </i>
    <i name="e_0_energy">    -16.38892903 </i>
   </energy>
  </scstep>
  <scstep>
   <time name="dav">    2.17    2.17</time>
   <time name="total">    6.64    6.66</time>
   <energy>
    <i name="e_fr_energy">    -16.37929270 </i>
    <i name="e_wo_entrp">    -16.41885523 </i>
    <i name="e_0_energy">    -16.39248021 </i>
   </energy>
  </scstep>
  <scstep>
   <time name="dav">    2.14    2.15</time>
   <time name="total">    6.55    6.57</time>
   <energy>
    <i name="e_fr_energy">    -16.37610132 </i>
    <i name="e_wo_entrp">    -16.41631637 </i>
    <i name="e_0_energy">    -16.38950634 </i>
   </energy>
  </scstep>
  <scstep>
   <time name="dav">    1.74    1.74</time>
   <time name="total">    6.22    6.24</time>
   <energy>
    <i name="e_fr_energy">    -16.37291832 </i>
    <i name="e_wo_entrp">    -16.41371992 </i>
    <i name="e_0_energy">    -16.38651886 </i>
   </energy>
  </scstep>
  <scstep>
   <time name="dav">    1.82    1.82</time>
   <time name="total">    6.21    6.23</time>
   <energy>
    <i name="e_fr_energy">    -16.37040144 </i>
    <i name="e_wo_entrp">    -16.41191168 </i>
    <i name="e_0_energy">    -16.38423818 </i>
   </energy>
  </scstep>
  <scstep>
   <time name="dav">    2.01    2.02</time>
   <time name="total">    6.35    6.37</time>
   <energy>
    <i name="e_fr_energy">    -16.36969434 </i>
    <i name="e_wo_entrp">    -16.41185299 </i>
    <i name="e_0_energy">    -16.38374723 </i>
   </energy>
  </scstep>
  <scstep>
   <time name="dav">    1.73    1.74</time>
   <time name="total">    6.16    6.18</time>
   <energy>
    <i name="e_fr_energy">    -16.37101474 </i>
    <i name="e_wo_entrp">    -16.41361335 </i>
    <i name="e_0_energy">    -16.38521428 </i>
   </energy>
  </scstep>
  <scstep>
   <time name="dav">    1.97    1.97</time>
   <time name="total">    6.36    6.36</time>
   <energy>
    <i name="e_fr_energy">    -16.37325328 </i>
    <i name="e_wo_entrp">    -16.41640256 </i>
    <i name="e_0_energy">    -16.38763637 </i>
   </energy>
  </scstep>
  <scstep>
   <time name="dav">    2.00    2.01</time>
   <time name="total">    6.47    6.49</time>
   <energy>
    <i name="e_fr_energy">    -16.37520205 </i>
    <i name="e_wo_entrp">    -16.41843718 </i>
    <i name="e_0_energy">    -16.38961376 </i>
   </energy>
  </scstep>
  <scstep>
   <time name="dav">    1.56    1.56</time>
   <time name="total">    5.98    6.00</time>
   <energy>
    <i name="e_fr_energy">    -16.37697279 </i>
    <i name="e_wo_entrp">    -16.42027041 </i>
    <i name="e_0_energy">    -16.39140533 </i>
   </energy>
  </scstep>
  <scstep>
   <time name="dav">    1.85    1.86</time>
   <time name="total">    6.26    6.28</time>
   <energy>
    <i name="e_fr_energy">    -16.37973187 </i>
    <i name="e_wo_entrp">    -16.42303100 </i>
    <i name="e_0_energy">    -16.39416491 </i>
   </energy>
  </scstep>
  <scstep>
   <time name="dav">    1.72    1.73</time>
   <time name="total">    6.26    6.27</time>
   <energy>
    <i name="e_fr_energy">    -16.38116127 </i>
    <i name="e_wo_entrp">    -16.42444589 </i>
    <i name="e_0_energy">    -16.39558948 </i>
   </energy>
  </scstep>
  <scstep>
   <time name="dav">    1.67    1.68</time>
   <time name="total">    6.13    6.14</time>
   <energy>
    <i name="e_fr_energy">    -16.38294912 </i>
    <i name="e_wo_entrp">    -16.42621905 </i>
    <i name="e_0_energy">    -16.39737243 </i>
   </energy>
  </scstep>
  <scstep>
   <time name="dav">    1.73    1.73</time>
   <time name="total">    6.21    6.22</time>
   <energy>
    <i name="e_fr_energy">    -16.38440594 </i>
    <i name="e_wo_entrp">    -16.42766619 </i>
    <i name="e_0_energy">    -16.39882603 </i>
   </energy>
  </scstep>
  <scstep>
   <time name="dav">    1.47    1.48</time>
   <time name="total">    5.97    5.98</time>
   <energy>
    <i name="e_fr_energy">    -16.38541577 </i>
    <i name="e_wo_entrp">    -16.42866941 </i>
    <i name="e_0_energy">    -16.39983365 </i>
   </energy>
  </scstep>
  <scstep>
   <time name="dav">    1.28    1.29</time>
   <time name="total">    5.75    5.76</time>
   <energy>
    <i name="e_fr_energy">    -16.38602104 </i>
    <i name="e_wo_entrp">    -16.42927229 </i>
    <i name="e_0_energy">    -16.40043812 </i>
   </energy>
  </scstep>
  <scstep>
   <time name="dav">    1.45    1.45</time>
   <time name="total">    5.96    5.97</time>
   <energy>
    <i name="e_fr_energy">    -16.38653385 </i>
    <i name="e_wo_entrp">    -16.42978463 </i>
    <i name="e_0_energy">    -16.40095077 </i>
   </energy>
  </scstep>
  <scstep>
   <time name="dav">    1.19    1.20</time>
   <time name="total">    5.69    5.70</time>
   <energy>
    <i name="e_fr_energy">    -16.38676550 </i>
    <i name="e_wo_entrp">    -16.43001744 </i>
    <i name="e_0_energy">    -16.40118282 </i>
   </energy>
  </scstep>
  <scstep>
   <time name="dav">    1.11    1.11</time>
   <time name="total">    5.66    5.68</time>
   <energy>
    <i name="e_fr_energy">    -16.38689465 </i>
    <i name="e_wo_entrp">    -16.43014564 </i>
    <i name="e_0_energy">    -16.40131165 </i>
   </energy>
  </scstep>
  <scstep>
   <time name="dav">    1.09    1.09</time>
   <time name="total">    4.99    5.00</time>
   <energy>
    <i name="alphaZ">     -0.01479023 </i>
    <i name="ewald">    490.13675279 </i>
    <i name="hartreedc">   -766.71096933 </i>
    <i name="XCdc">   -189.24448870 </i>
    <i name="pawpsdc">    802.84903679 </i>
    <i name="pawaedc">   -579.32861075 </i>
    <i name="eentropy">      0.04324996 </i>
    <i name="bandstr">   -148.88420736 </i>
    <i name="atom">    374.76708025 </i>
    <i name="e_fr_energy">    -16.38694657 </i>
    <i name="e_wo_entrp">    -16.43019654 </i>
    <i name="e_0_energy">    -16.40136323 </i>
   </energy>
  </scstep>
  <structure>
   <crystal>
    <varray name="basis" >
     <v>      22.54453563       0.00000000       0.00000000 </v>
     <v>       0.00000000      21.83981355       0.00000000 </v>
     <v>       0.00000000       0.00000000      22.60041050 </v>
    </varray>
    <i name="volume">  11127.72919559 </i>
    <varray name="rec_basis" >
     <v>       0.04435665       0.00000000       0.00000000 </v>
     <v>       0.00000000       0.04578794       0.00000000 </v>
     <v>       0.00000000       0.00000000       0.04424698 </v>
    </varray>
   </crystal>
   <varray name="positions" >
    <v>       0.44809648       0.51596221       0.60278962 </v>
    <v>       0.38401831       0.56226464       0.51818768 </v>
    <v>       0.46494705       0.46787564       0.49402171 </v>
    <v>       0.45188563       0.56520822       0.42724678 </v>
    <v>       0.56616764       0.41871514       0.50083393 </v>
    <v>       0.51027081       0.58796200       0.51935253 </v>
    <v>       0.56091627       0.50483567       0.57636459 </v>
   </varray>
  </structure>
  <varray name="forces" >
   <v>      -0.18103409       0.05070959      -0.04679555 </v>
   <v>      -0.23662779      -0.14389257       0.14709213 </v>
   <v>      -0.18713314      -0.14824997       0.00167064 </v>
   <v>       0.14587020       0.03378047      -0.01861032 </v>
   <v>       0.12715854      -0.24916161      -0.04816899 </v>
   <v>       0.22193415       0.42527788       0.01150215 </v>
   <v>       0.10983212       0.03153622      -0.04669006 </v>
  </varray>
  <energy>
   <i name="e_fr_energy">    -16.38694657 </i>
   <i name="e_wo_entrp">    -16.43019654 </i>
   <i name="e_0_energy">    -16.40136323 </i>
  </energy>
  <time name="totalsc">  131.69  132.01</time>
 </calculation>
 <calculation>
  <scstep>
   <time name="dav">    1.72    1.72</time>
   <time name="total">    6.11    6.12</time>
   <energy>
    <i name="alphaZ">     -0.01479023 </i>
    <i name="ewald">    489.87202058 </i>
    <i name="hartreedc">   -766.47353874 </i>
    <i name="XCdc">   -189.25020682 </i>
    <i name="pawpsdc">    802.84704007 </i>
    <i name="pawaedc">   -579.32661466 </i>
    <i name="eentropy">      0.03574659 </i>
    <i name="bandstr">   -148.86566181 </i>
    <i name="atom">    374.76708025 </i>
    <i name="e_fr_energy">    -16.40892477 </i>
    <i name="e_wo_entrp">    -16.44467136 </i>
    <i name="e_0_energy">    -16.42084030 </i>
   </energy>
  </scstep>
  <scstep>
   <time name="dav">    2.27    2.28</time>
   <time name="total">    6.60    6.61</time>
   <energy>
    <i name="e_fr_energy">    -16.41126108 </i>
    <i name="e_wo_entrp">    -16.44803703 </i>
    <i name="e_0_energy">    -16.42351973 </i>
   </energy>
  </scstep>
  <scstep>
   <time name="dav">    1.93    1.93</time>
   <time name="total">    6.22    6.23</time>
   <energy>
    <i name="e_fr_energy">    -16.40913205 </i>
    <i name="e_wo_entrp">    -16.44603084 </i>
    <i name="e_0_energy">    -16.42143165 </i>
   </energy>
  </scstep>
  <scstep>
   <time name="dav">    1.96    1.96</time>
   <time name="total">    6.34    6.35</time>
   <energy>
    <i name="e_fr_energy">    -16.40719565 </i>
    <i name="e_wo_entrp">    -16.44414709 </i>
    <i name="e_0_energy">    -16.41951280 </i>
   </energy>
  </scstep>
  <scstep>
   <time name="dav">    1.73    1.73</time>
   <time name="total">    6.10    6.10</time>
   <energy>
    <i name="e_fr_energy">    -16.40662893 </i>
    <i name="e_wo_entrp">    -16.44351956 </i>
    <i name="e_0_energy">    -16.41892581 </i>
   </energy>
  </scstep>
  <scstep>
   <time name="dav">    1.73    1.73</time>
   <time name="total">    6.05    6.06</time>
   <energy>
    <i name="e_fr_energy">    -16.40730206 </i>
    <i name="e_wo_entrp">    -16.44412364 </i>
    <i name="e_0_energy">    -16.41957592 </i>
   </energy>
  </scstep>
  <scstep>
   <time name="dav">    1.42    1.43</time>
   <time name="total">    5.85    5.86</time>
   <energy>
    <i name="e_fr_energy">    -16.40875393 </i>
    <i name="e_wo_entrp">    -16.44551497 </i>
    <i name="e_0_energy">    -16.42100761 </i>
   </energy>
  </scstep>
  <scstep>
   <time name="dav">    1.72    1.73</time>
   <time name="total">    6.07    6.07</time>
   <energy>
    <i name="e_fr_energy">    -16.40990454 </i>
    <i name="e_wo_entrp">    -16.44659111 </i>
    <i name="e_0_energy">    -16.42213340 </i>
   </energy>
  </scstep>
  <scstep>
   <time name="dav">    1.66    1.66</time>
   <time name="total">    6.05    6.07</time>
   <energy>
    <i name="e_fr_energy">    -16.41061147 </i>
    <i name="e_wo_entrp">    -16.44726842 </i>
    <i name="e_0_energy">    -16.42283046 </i>
   </energy>
  </scstep>
  <scstep>
   <time name="dav">    1.45    1.45</time>
   <time name="total">    5.84    5.85</time>
   <energy>
    <i name="e_fr_energy">    -16.41120666 </i>
    <i name="e_wo_entrp">    -16.44785108 </i>
    <i name="e_0_energy">    -16.42342146 </i>
   </energy>
  </scstep>
  <scstep>
   <time name="dav">    1.56    1.56</time>
   <time name="total">    5.99    6.00</time>
   <energy>
    <i name="e_fr_energy">    -16.41174324 </i>
    <i name="e_wo_entrp">    -16.44837636 </i>
    <i name="e_0_energy">    -16.42395428 </i>
   </energy>
  </scstep>
  <scstep>
   <time name="dav">    1.47    1.47</time>
   <time name="total">    5.97    5.98</time>
   <energy>
    <i name="e_fr_energy">    -16.41216244 </i>
    <i name="e_wo_entrp">    -16.44878823 </i>
    <i name="e_0_energy">    -16.42437104 </i>
   </energy>
  </scstep>
  <scstep>
   <time name="dav">    1.46    1.46</time>
   <time name="total">    5.92    5.94</time>
   <energy>
    <i name="e_fr_energy">    -16.41248138 </i>
    <i name="e_wo_entrp">    -16.44910309 </i>
    <i name="e_0_energy">    -16.42468862 </i>
   </energy>
  </scstep>
  <scstep>
   <time name="dav">    1.12    1.12</time>
   <time name="total">    5.55    5.56</time>
   <energy>
    <i name="e_fr_energy">    -16.41268962 </i>
    <i name="e_wo_entrp">    -16.44931070 </i>
    <i name="e_0_energy">    -16.42489665 </i>
   </energy>
  </scstep>
  <scstep>
   <time name="dav">    1.11    1.11</time>
   <time name="total">    5.59    5.60</time>
   <energy>
    <i name="e_fr_energy">    -16.41279356 </i>
    <i name="e_wo_entrp">    -16.44941415 </i>
    <i name="e_0_energy">    -16.42500042 </i>
   </energy>
  </scstep>
  <scstep>
   <time name="dav">    1.13    1.13</time>
   <time name="total">    4.97    4.99</time>
   <energy>
    <i name="alphaZ">     -0.01479023 </i>
    <i name="ewald">    489.87202058 </i>
    <i name="hartreedc">   -766.60648866 </i>
    <i name="XCdc">   -189.24779065 </i>
    <i name="pawpsdc">    804.35396959 </i>
    <i name="pawaedc">   -580.83689734 </i>
    <i name="eentropy">      0.03661883 </i>
    <i name="bandstr">   -148.73657852 </i>
    <i name="atom">    374.76708025 </i>
    <i name="e_fr_energy">    -16.41285616 </i>
    <i name="e_wo_entrp">    -16.44947498 </i>
    <i name="e_0_energy">    -16.42506243 </i>
   </energy>
  </scstep>
  <structure>
   <crystal>
    <varray name="basis" >
     <v>      22.54453563       0.00000000       0.00000000 </v>
     <v>       0.00000000      21.83981355       0.00000000 </v>
     <v>       0.00000000       0.00000000      22.60041050 </v>
    </varray>
    <i name="volume">  11127.72919559 </i>
    <varray name="rec_basis" >
     <v>       0.04435665       0.00000000       0.00000000 </v>
     <v>       0.00000000       0.04578794       0.00000000 </v>
     <v>       0.00000000       0.00000000       0.04424698 </v>
    </varray>
   </crystal>
   <varray name="positions" >
    <v>       0.44688652       0.51660037       0.60184998 </v>
    <v>       0.38338939       0.56146235       0.51874895 </v>
    <v>       0.46442450       0.46744100       0.49355166 </v>
    <v>       0.45244755       0.56517700       0.42906130 </v>
    <v>       0.56650049       0.41810949       0.50101750 </v>
    <v>       0.51142070       0.58877497       0.51899672 </v>
    <v>       0.56123304       0.50525833       0.57557074 </v>
   </varray>
  </structure>
  <varray name="forces" >
   <v>       0.06610943      -0.04637570       0.03963857 </v>
   <v>      -0.26185353      -0.10924760       0.07171030 </v>
   <v>      -0.10911735      -0.23807979       0.11403356 </v>
   <v>       0.12293612       0.07096707      -0.25596800 </v>
   <v>       0.02156062      -0.23665545      -0.10465187 </v>
   <v>       0.22397226       0.50017276       0.11507168 </v>
   <v>      -0.06360753       0.05921871       0.02016575 </v>
  </varray>
  <energy>
   <i name="e_fr_energy">    -16.41285616 </i>
   <i name="e_wo_entrp">    -16.44947498 </i>
   <i name="e_0_energy">    -16.42506243 </i>
  </energy>
  <time name="totalsc">  104.87  105.09</time>
 </calculation>
 <calculation>
  <scstep>
   <time name="dav">    1.75    1.75</time>
   <time name="total">    6.10    6.11</time>
   <energy>
    <i name="alphaZ">     -0.01479023 </i>
    <i name="ewald">    489.43323055 </i>
    <i name="hartreedc">   -766.06565885 </i>
    <i name="XCdc">   -189.25747880 </i>
    <i name="pawpsdc">    804.35194279 </i>
    <i name="pawaedc">   -580.83486997 </i>
    <i name="eentropy">      0.03025134 </i>
    <i name="bandstr">   -148.77931821 </i>
    <i name="atom">    374.76708025 </i>
    <i name="e_fr_energy">    -16.36961113 </i>
    <i name="e_wo_entrp">    -16.39986247 </i>
    <i name="e_0_energy">    -16.37969491 </i>
   </energy>
  </scstep>
  <scstep>
   <time name="dav">    2.19    2.20</time>
   <time name="total">    6.55    6.56</time>
   <energy>
    <i name="e_fr_energy">    -16.37790040 </i>
    <i name="e_wo_entrp">    -16.40795580 </i>
    <i name="e_0_energy">    -16.38791887 </i>
   </energy>
  </scstep>
  <scstep>
   <time name="dav">    2.14    2.15</time>
   <time name="total">    6.44    6.45</time>
   <energy>
    <i name="e_fr_energy">    -16.37137142 </i>
    <i name="e_wo_entrp">    -16.40085384 </i>
    <i name="e_0_energy">    -16.38119889 </i>
   </energy>
  </scstep>
  <scstep>
   <time name="dav">    2.21    2.22</time>
   <time name="total">    6.58    6.60</time>
   <energy>
    <i name="e_fr_energy">    -16.36842085 </i>
    <i name="e_wo_entrp">    -16.39755116 </i>
    <i name="e_0_energy">    -16.37813096 </i>
   </energy>
  </scstep>
  <scstep>
   <time name="dav">    1.67    1.68</time>
   <time name="total">    6.02    6.03</time>
   <energy>
    <i name="e_fr_energy">    -16.37002601 </i>
    <i name="e_wo_entrp">    -16.39875008 </i>
    <i name="e_0_energy">    -16.37960070 </i>
   </energy>
  </scstep>
  <scstep>
   <time name="dav">    2.06    2.06</time>
   <time name="total">    6.38    6.39</time>
   <energy>
    <i name="e_fr_energy">    -16.37251955 </i>
    <i name="e_wo_entrp">    -16.40103080 </i>
    <i name="e_0_energy">    -16.38202330 </i>
   </energy>
  </scstep>
  <scstep>
   <time name="dav">    1.51    1.52</time>
   <time name="total">    5.92    5.93</time>
   <energy>
    <i name="e_fr_energy">    -16.37495423 </i>
    <i name="e_wo_entrp">    -16.40341692 </i>
    <i name="e_0_energy">    -16.38444180 </i>
   </energy>
  </scstep>
  <scstep>
   <time name="dav">    1.76    1.77</time>
   <time name="total">    6.16    6.18</time>
   <energy>
    <i name="e_fr_energy">    -16.37749038 </i>
    <i name="e_wo_entrp">    -16.40589697 </i>
    <i name="e_0_energy">    -16.38695925 </i>
   </energy>
  </scstep>
  <scstep>
   <time name="dav">    1.47    1.47</time>
   <time name="total">    5.83    5.84</time>
   <energy>
    <i name="e_fr_energy">    -16.37854611 </i>
    <i name="e_wo_entrp">    -16.40691293 </i>
    <i name="e_0_energy">    -16.38800172 </i>
   </energy>
  </scstep>
  <scstep>
   <time name="dav">    1.27    1.28</time>
   <time name="total">    5.65    5.66</time>
   <energy>
    <i name="e_fr_energy">    -16.37942060 </i>
    <i name="e_wo_entrp">    -16.40777490 </i>
    <i name="e_0_energy">    -16.38887204 </i>
   </energy>
  </scstep>
  <scstep>
   <time name="dav">    1.57    1.57</time>
   <time name="total">    6.03    6.04</time>
   <energy>
    <i name="e_fr_energy">    -16.38038651 </i>
    <i name="e_wo_entrp">    -16.40872989 </i>
    <i name="e_0_energy">    -16.38983430 </i>
   </energy>
  </scstep>
  <scstep>
   <time name="dav">    1.40    1.41</time>
   <time name="total">    5.82    5.83</time>
   <energy>
    <i name="e_fr_energy">    -16.38095288 </i>
    <i name="e_wo_entrp">    -16.40928823 </i>
    <i name="e_0_energy">    -16.39039800 </i>
   </energy>
  </scstep>
  <scstep>
   <time name="dav">    1.32    1.32</time>
   <time name="total">    5.71    5.73</time>
   <energy>
    <i name="e_fr_energy">    -16.38132866 </i>
    <i name="e_wo_entrp">    -16.40966554 </i>
    <i name="e_0_energy">    -16.39077428 </i>
   </energy>
  </scstep>
  <scstep>
   <time name="dav">    1.27    1.27</time>
   <time name="total">    5.72    5.73</time>
   <energy>
    <i name="e_fr_energy">    -16.38156843 </i>
    <i name="e_wo_entrp">    -16.40990538 </i>
    <i name="e_0_energy">    -16.39101408 </i>
   </energy>
  </scstep>
  <scstep>
   <time name="dav">    1.14    1.14</time>
   <time name="total">    5.64    5.65</time>
   <energy>
    <i name="e_fr_energy">    -16.38172779 </i>
    <i name="e_wo_entrp">    -16.41006417 </i>
    <i name="e_0_energy">    -16.39117325 </i>
   </energy>
  </scstep>
  <scstep>
   <time name="dav">    1.11    1.11</time>
   <time name="total">    4.99    5.00</time>
   <energy>
    <i name="alphaZ">     -0.01479023 </i>
    <i name="ewald">    489.43323055 </i>
    <i name="hartreedc">   -766.35298998 </i>
    <i name="XCdc">   -189.24352465 </i>
    <i name="pawpsdc">    810.92639299 </i>
    <i name="pawaedc">   -587.41985427 </i>
    <i name="eentropy">      0.02833637 </i>
    <i name="bandstr">   -148.50569739 </i>
    <i name="atom">    374.76708025 </i>
    <i name="e_fr_energy">    -16.38181636 </i>
    <i name="e_wo_entrp">    -16.41015273 </i>
    <i name="e_0_energy">    -16.39126181 </i>
   </energy>
  </scstep>
  <structure>
   <crystal>
    <varray name="basis" >
     <v>      22.54453563       0.00000000       0.00000000 </v>
     <v>       0.00000000      21.83981355       0.00000000 </v>
     <v>       0.00000000       0.00000000      22.60041050 </v>
    </varray>
    <i name="volume">  11127.72919559 </i>
    <varray name="rec_basis" >
     <v>       0.04435665       0.00000000       0.00000000 </v>
     <v>       0.00000000       0.04578794       0.00000000 </v>
     <v>       0.00000000       0.00000000       0.04424698 </v>
    </varray>
   </crystal>
   <varray name="positions" >
    <v>       0.44446661       0.51787671       0.59997071 </v>
    <v>       0.38213156       0.55985777       0.51987150 </v>
    <v>       0.46337941       0.46657171       0.49261157 </v>
    <v>       0.45357138       0.56511456       0.43269033 </v>
    <v>       0.56716618       0.41689819       0.50138462 </v>
    <v>       0.51372048       0.59040092       0.51828509 </v>
    <v>       0.56186657       0.50610365       0.57398303 </v>
   </varray>
  </structure>
  <varray name="forces" >
   <v>       0.60619363      -0.27199869       0.34536144 </v>
   <v>      -0.37255400      -0.01239724      -0.17681878 </v>
   <v>       0.03953119      -0.42327505       0.31075133 </v>
   <v>       0.02308325       0.15203155      -0.78876394 </v>
   <v>      -0.19864061      -0.17538715      -0.19922632 </v>
   <v>       0.27149710       0.66149130       0.33631228 </v>
   <v>      -0.36911056       0.06953528       0.17238400 </v>
  </varray>
  <energy>
   <i name="e_fr_energy">    -16.38181636 </i>
   <i name="e_wo_entrp">    -16.41015273 </i>
   <i name="e_0_energy">    -16.39126181 </i>
  </energy>
  <time name="totalsc">  105.07  105.32</time>
 </calculation>
 <calculation>
  <scstep>
   <time name="dav">    1.71    1.71</time>
   <time name="total">    6.00    6.01</time>
   <energy>
    <i name="alphaZ">     -0.01479023 </i>
    <i name="ewald">    489.76433247 </i>
    <i name="hartreedc">   -766.76882659 </i>
    <i name="XCdc">   -189.23689965 </i>
    <i name="pawpsdc">    810.91807260 </i>
    <i name="pawaedc">   -587.41153178 </i>
    <i name="eentropy">      0.03030173 </i>
    <i name="bandstr">   -148.45687506 </i>
    <i name="atom">    374.76708025 </i>
    <i name="e_fr_energy">    -16.40913626 </i>
    <i name="e_wo_entrp">    -16.43943800 </i>
    <i name="e_0_energy">    -16.41923684 </i>
   </energy>
  </scstep>
  <scstep>
   <time name="dav">    2.26    2.26</time>
   <time name="total">    6.59    6.60</time>
   <energy>
    <i name="e_fr_energy">    -16.41263502 </i>
    <i name="e_wo_entrp">    -16.44590080 </i>
    <i name="e_0_energy">    -16.42372362 </i>
   </energy>
  </scstep>
  <scstep>
   <time name="dav">    2.26    2.27</time>
   <time name="total">    6.55    6.56</time>
   <energy>
    <i name="e_fr_energy">    -16.40827192 </i>
    <i name="e_wo_entrp">    -16.44200966 </i>
    <i name="e_0_energy">    -16.41951783 </i>
   </energy>
  </scstep>
  <scstep>
   <time name="dav">    1.92    1.92</time>
   <time name="total">    6.35    6.36</time>
   <energy>
    <i name="e_fr_energy">    -16.40696009 </i>
    <i name="e_wo_entrp">    -16.44099666 </i>
    <i name="e_0_energy">    -16.41830561 </i>
   </energy>
  </scstep>
  <scstep>
   <time name="dav">    1.82    1.83</time>
   <time name="total">    6.16    6.17</time>
   <energy>
    <i name="e_fr_energy">    -16.40834328 </i>
    <i name="e_wo_entrp">    -16.44258053 </i>
    <i name="e_0_energy">    -16.41975569 </i>
   </energy>
  </scstep>
  <scstep>
   <time name="dav">    1.77    1.77</time>
   <time name="total">    6.11    6.12</time>
   <energy>
    <i name="e_fr_energy">    -16.40993356 </i>
    <i name="e_wo_entrp">    -16.44425176 </i>
    <i name="e_0_energy">    -16.42137296 </i>
   </energy>
  </scstep>
  <scstep>
   <time name="dav">    1.53    1.53</time>
   <time name="total">    5.93    5.93</time>
   <energy>
    <i name="e_fr_energy">    -16.41179616 </i>
    <i name="e_wo_entrp">    -16.44615450 </i>
    <i name="e_0_energy">    -16.42324894 </i>
   </energy>
  </scstep>
  <scstep>
   <time name="dav">    1.58    1.58</time>
   <time name="total">    5.96    5.97</time>
   <energy>
    <i name="e_fr_energy">    -16.41317391 </i>
    <i name="e_wo_entrp">    -16.44759744 </i>
    <i name="e_0_energy">    -16.42464842 </i>
   </energy>
  </scstep>
  <scstep>
   <time name="dav">    1.41    1.41</time>
   <time name="total">    5.84    5.85</time>
   <energy>
    <i name="e_fr_energy">    -16.41384721 </i>
    <i name="e_wo_entrp">    -16.44829205 </i>
    <i name="e_0_energy">    -16.42532882 </i>
   </energy>
  </scstep>
  <scstep>
   <time name="dav">    1.42    1.43</time>
   <time name="total">    5.81    5.82</time>
   <energy>
    <i name="e_fr_energy">    -16.41458756 </i>
    <i name="e_wo_entrp">    -16.44903329 </i>
    <i name="e_0_energy">    -16.42606947 </i>
   </energy>
  </scstep>
  <scstep>
   <time name="dav">    1.55    1.56</time>
   <time name="total">    5.96    5.98</time>
   <energy>
    <i name="e_fr_energy">    -16.41506137 </i>
    <i name="e_wo_entrp">    -16.44952059 </i>
    <i name="e_0_energy">    -16.42654778 </i>
   </energy>
  </scstep>
  <scstep>
   <time name="dav">    1.34    1.35</time>
   <time name="total">    5.79    5.80</time>
   <energy>
    <i name="e_fr_energy">    -16.41534537 </i>
    <i name="e_wo_entrp">    -16.44980985 </i>
    <i name="e_0_energy">    -16.42683353 </i>
   </energy>
  </scstep>
  <scstep>
   <time name="dav">    1.49    1.49</time>
   <time name="total">    5.89    5.91</time>
   <energy>
    <i name="e_fr_energy">    -16.41561776 </i>
    <i name="e_wo_entrp">    -16.45008098 </i>
    <i name="e_0_energy">    -16.42710550 </i>
   </energy>
  </scstep>
  <scstep>
   <time name="dav">    1.19    1.19</time>
   <time name="total">    5.61    5.62</time>
   <energy>
    <i name="e_fr_energy">    -16.41579646 </i>
    <i name="e_wo_entrp">    -16.45026006 </i>
    <i name="e_0_energy">    -16.42728433 </i>
   </energy>
  </scstep>
  <scstep>
   <time name="dav">    1.07    1.07</time>
   <time name="total">    4.88    4.89</time>
   <energy>
    <i name="alphaZ">     -0.01479023 </i>
    <i name="ewald">    489.76433247 </i>
    <i name="hartreedc">   -766.55789886 </i>
    <i name="XCdc">   -189.24772190 </i>
    <i name="pawpsdc">    805.28827095 </i>
    <i name="pawaedc">   -581.77310560 </i>
    <i name="eentropy">      0.03446278 </i>
    <i name="bandstr">   -148.67651678 </i>
    <i name="atom">    374.76708025 </i>
    <i name="e_fr_energy">    -16.41588690 </i>
    <i name="e_wo_entrp">    -16.45034968 </i>
[...]
       <r>    -3.0109     4.1602    13.5036 </r>
       <r>    -2.9593     3.9198    13.7061 </r>
       <r>    -2.9076     3.1681    13.8697 </r>
       <r>    -2.8559     2.0233    13.9742 </r>
       <r>    -2.8043     0.8585    14.0186 </r>
       <r>    -2.7526    -0.0084    14.0182 </r>
       <r>    -2.7010    -0.4676    13.9940 </r>
       <r>    -2.6493    -0.5261    13.9668 </r>
       <r>    -2.5976    -0.1423    13.9595 </r>
       <r>    -2.5460     0.8054    14.0011 </r>
       <r>    -2.4943     2.3680    14.1234 </r>
       <r>    -2.4427     4.3282    14.3470 </r>
       <r>    -2.3910     6.1575    14.6651 </r>
       <r>    -2.3393     7.2173    15.0379 </r>
       <r>    -2.2877     7.0938    15.4044 </r>
       <r>    -2.2360     5.8376    15.7060 </r>
       <r>    -2.1844     3.9349    15.9093 </r>
       <r>    -2.1327     2.0302    16.0141 </r>
       <r>    -2.0810     0.5981    16.0450 </r>
       <r>    -2.0294    -0.2189    16.0337 </r>
       <r>    -1.9777    -0.5288    16.0064 </r>
       <r>    -1.9261    -0.4770    15.9818 </r>
       <r>    -1.8744    -0.0887    15.9772 </r>
       <r>    -1.8227     0.7043    16.0136 </r>
       <r>    -1.7711     1.8792    16.1106 </r>
       <r>    -1.7194     3.1536    16.2736 </r>
       <r>    -1.6678     4.0355    16.4820 </r>
       <r>    -1.6161     4.1121    16.6945 </r>
       <r>    -1.5645     3.3496    16.8675 </r>
       <r>    -1.5128     2.1232    16.9772 </r>
       <r>    -1.4611     0.9493    17.0262 </r>
       <r>    -1.4095     0.1659    17.0348 </r>
       <r>    -1.3578    -0.1870    17.0251 </r>
       <r>    -1.3062    -0.2663    17.0114 </r>
       <r>    -1.2545    -0.2568    16.9981 </r>
       <r>    -1.2028    -0.2605    16.9847 </r>
       <r>    -1.1512    -0.2598    16.9712 </r>
       <r>    -1.0995    -0.1223    16.9649 </r>
       <r>    -1.0479     0.3438    16.9827 </r>
       <r>    -0.9962     1.2563    17.0476 </r>
       <r>    -0.9445     2.4923    17.1763 </r>
       <r>    -0.8929     3.6390    17.3643 </r>
       <r>    -0.8412     4.1847    17.5805 </r>
       <r>    -0.7896     3.8564    17.7797 </r>
       <r>    -0.7379     2.8203    17.9254 </r>
       <r>    -0.6862     1.5589    18.0060 </r>
       <r>    -0.6346     0.5400    18.0338 </r>
       <r>    -0.5829    -0.0312    18.0322 </r>
       <r>    -0.5313    -0.2178    18.0210 </r>
       <r>    -0.4796    -0.1976    18.0108 </r>
       <r>    -0.4279    -0.1200    18.0046 </r>
       <r>    -0.3763    -0.0568    18.0016 </r>
       <r>    -0.3246    -0.0220    18.0005 </r>
       <r>    -0.2730    -0.0072    18.0001 </r>
       <r>    -0.2213    -0.0020    18.0000 </r>
       <r>    -0.1696    -0.0005    18.0000 </r>
       <r>    -0.1180    -0.0001    18.0000 </r>
       <r>    -0.0663    -0.0000    18.0000 </r>
       <r>    -0.0147    -0.0000    18.0000 </r>
       <r>     0.0370    -0.0000    18.0000 </r>
       <r>     0.0887    -0.0000    18.0000 </r>
       <r>     0.1403    -0.0000    18.0000 </r>
       <r>     0.1920    -0.0000    18.0000 </r>
       <r>     0.2436    -0.0000    18.0000 </r>
       <r>     0.2953    -0.0000    18.0000 </r>
       <r>     0.3470    -0.0000    18.0000 </r>
       <r>     0.3986    -0.0000    18.0000 </r>
       <r>     0.4503     0.0000    18.0000 </r>
       <r>     0.5019     0.0000    18.0000 </r>
       <r>     0.5536     0.0000    18.0000 </r>
       <r>     0.6053     0.0000    18.0000 </r>
       <r>     0.6569     0.0000    18.0000 </r>
       <r>     0.7086     0.0000    18.0000 </r>
       <r>     0.7602     0.0000    18.0000 </r>
       <r>     0.8119     0.0000    18.0000 </r>
       <r>     0.8636     0.0000    18.0000 </r>
       <r>     0.9152     0.0000    18.0000 </r>
       <r>     0.9669     0.0000    18.0000 </r>
       <r>     1.0185     0.0000    18.0000 </r>
       <r>     1.0702     0.0000    18.0000 </r>
       <r>     1.1219     0.0000    18.0000 </r>
       <r>     1.1735     0.0000    18.0000 </r>
      </set>
      <set comment="spin 2">
       <r>   -14.3244     0.0000     0.0000 </r>
       <r>   -14.2728     0.0000     0.0000 </r>
       <r>   -14.2211     0.0000     0.0000 </r>
       <r>   -14.1694     0.0000     0.0000 </r>
       <r>   -14.1178     0.0000     0.0000 </r>
       <r>   -14.0661     0.0000     0.0000 </r>
       <r>   -14.0145     0.0000     0.0000 </r>
       <r>   -13.9628     0.0000     0.0000 </r>
       <r>   -13.9111     0.0000     0.0000 </r>
       <r>   -13.8595    -0.0000    -0.0000 </r>
       <r>   -13.8078    -0.0000    -0.0000 </r>
       <r>   -13.7562    -0.0000    -0.0000 </r>
       <r>   -13.7045    -0.0000    -0.0000 </r>
       <r>   -13.6528    -0.0000    -0.0000 </r>
       <r>   -13.6012    -0.0000    -0.0000 </r>
       <r>   -13.5495    -0.0000    -0.0000 </r>
       <r>   -13.4979    -0.0000    -0.0000 </r>
       <r>   -13.4462    -0.0000    -0.0000 </r>
       <r>   -13.3945    -0.0000    -0.0000 </r>
       <r>   -13.3429    -0.0000    -0.0000 </r>
       <r>   -13.2912    -0.0000    -0.0000 </r>
       <r>   -13.2396    -0.0000    -0.0000 </r>
       <r>   -13.1879    -0.0000    -0.0000 </r>
       <r>   -13.1362    -0.0000    -0.0000 </r>
       <r>   -13.0846    -0.0000    -0.0000 </r>
       <r>   -13.0329    -0.0000    -0.0000 </r>
       <r>   -12.9813    -0.0000    -0.0000 </r>
       <r>   -12.9296    -0.0000    -0.0000 </r>
       <r>   -12.8779    -0.0002    -0.0000 </r>
       <r>   -12.8263    -0.0010    -0.0001 </r>
       <r>   -12.7746    -0.0040    -0.0003 </r>
       <r>   -12.7230    -0.0132    -0.0010 </r>
       <r>   -12.6713    -0.0370    -0.0029 </r>
       <r>   -12.6196    -0.0863    -0.0073 </r>
       <r>   -12.5680    -0.1616    -0.0157 </r>
       <r>   -12.5163    -0.2231    -0.0272 </r>
       <r>   -12.4647    -0.1579    -0.0353 </r>
       <r>   -12.4130     0.2109    -0.0245 </r>
       <r>   -12.3614     1.0230     0.0284 </r>
       <r>   -12.3097     2.2141     0.1428 </r>
       <r>   -12.2580     3.4250     0.3197 </r>
       <r>   -12.2064     4.1375     0.5335 </r>
       <r>   -12.1547     4.0002     0.7401 </r>
       <r>   -12.1031     3.0830     0.8994 </r>
       <r>   -12.0514     1.8251     0.9937 </r>
       <r>   -11.9997     0.7253     1.0311 </r>
       <r>   -11.9481     0.0549     1.0340 </r>
       <r>   -11.8964    -0.2013     1.0236 </r>
       <r>   -11.8448    -0.2108     1.0127 </r>
       <r>   -11.7931    -0.1369     1.0056 </r>
       <r>   -11.7414    -0.0680     1.0021 </r>
       <r>   -11.6898    -0.0275     1.0007 </r>
       <r>   -11.6381    -0.0093     1.0002 </r>
       <r>   -11.5865    -0.0027     1.0000 </r>
       <r>   -11.5348    -0.0006     1.0000 </r>
       <r>   -11.4831    -0.0001     1.0000 </r>
       <r>   -11.4315    -0.0000     1.0000 </r>
       <r>   -11.3798    -0.0000     1.0000 </r>
       <r>   -11.3282    -0.0000     1.0000 </r>
       <r>   -11.2765    -0.0000     1.0000 </r>
       <r>   -11.2248    -0.0000     1.0000 </r>
       <r>   -11.1732    -0.0000     1.0000 </r>
       <r>   -11.1215    -0.0000     1.0000 </r>
       <r>   -11.0699    -0.0000     1.0000 </r>
       <r>   -11.0182    -0.0000     1.0000 </r>
       <r>   -10.9665    -0.0000     1.0000 </r>
       <r>   -10.9149    -0.0000     1.0000 </r>
       <r>   -10.8632    -0.0000     1.0000 </r>
       <r>   -10.8116    -0.0000     1.0000 </r>
       <r>   -10.7599    -0.0000     1.0000 </r>
       <r>   -10.7082    -0.0000     1.0000 </r>
       <r>   -10.6566    -0.0000     1.0000 </r>
       <r>   -10.6049    -0.0000     1.0000 </r>
       <r>   -10.5533    -0.0000     1.0000 </r>
       <r>   -10.5016    -0.0000     1.0000 </r>
       <r>   -10.4499    -0.0000     1.0000 </r>
       <r>   -10.3983    -0.0000     1.0000 </r>
       <r>   -10.3466    -0.0000     1.0000 </r>
       <r>   -10.2950    -0.0000     1.0000 </r>
       <r>   -10.2433    -0.0000     1.0000 </r>
       <r>   -10.1916    -0.0000     1.0000 </r>
       <r>   -10.1400    -0.0001     1.0000 </r>
       <r>   -10.0883    -0.0006     1.0000 </r>
       <r>   -10.0367    -0.0025     0.9998 </r>
       <r>    -9.9850    -0.0088     0.9994 </r>
       <r>    -9.9333    -0.0262     0.9980 </r>
       <r>    -9.8817    -0.0654     0.9946 </r>
       <r>    -9.8300    -0.1331     0.9878 </r>
       <r>    -9.7784    -0.2081     0.9770 </r>
       <r>    -9.7267    -0.2059     0.9664 </r>
       <r>    -9.6750     0.0339     0.9681 </r>
       <r>    -9.6234     0.6820     1.0034 </r>
       <r>    -9.5717     1.7647     1.0945 </r>
       <r>    -9.5201     3.0253     1.2508 </r>
       <r>    -9.4684     3.9697     1.4559 </r>
       <r>    -9.4167     4.1456     1.6701 </r>
       <r>    -9.3651     3.4544     1.8485 </r>
       <r>    -9.3134     2.2173     1.9631 </r>
       <r>    -9.2618     0.9330     2.0113 </r>
       <r>    -9.2101    -0.0332     2.0095 </r>
       <r>    -9.1584    -0.5498     1.9811 </r>
       <r>    -9.1068    -0.5740     1.9515 </r>
       <r>    -9.0551     0.0238     1.9527 </r>
       <r>    -9.0035     1.4264     2.0264 </r>
       <r>    -8.9518     3.5970     2.2122 </r>
       <r>    -8.9001     6.0181     2.5231 </r>
       <r>    -8.8485     7.7790     2.9250 </r>
       <r>    -8.7968     8.0783     3.3423 </r>
       <r>    -8.7452     6.7745     3.6923 </r>
       <r>    -8.6935     4.4930     3.9244 </r>
       <r>    -8.6418     2.1885     4.0374 </r>
       <r>    -8.5902     0.5581     4.0663 </r>
       <r>    -8.5385    -0.2333     4.0542 </r>
       <r>    -8.4869    -0.4173     4.0327 </r>
       <r>    -8.4352    -0.3244     4.0159 </r>
       <r>    -8.3835    -0.1824     4.0065 </r>
       <r>    -8.3319    -0.0819     4.0022 </r>
       <r>    -8.2802    -0.0305     4.0007 </r>
       <r>    -8.2286    -0.0096     4.0002 </r>
       <r>    -8.1769    -0.0026     4.0000 </r>
       <r>    -8.1252    -0.0006     4.0000 </r>
       <r>    -8.0736    -0.0001     4.0000 </r>
       <r>    -8.0219    -0.0000     4.0000 </r>
       <r>    -7.9703    -0.0000     4.0000 </r>
       <r>    -7.9186    -0.0000     4.0000 </r>
       <r>    -7.8669    -0.0000     4.0000 </r>
       <r>    -7.8153    -0.0000     4.0000 </r>
       <r>    -7.7636    -0.0000     4.0000 </r>
       <r>    -7.7120    -0.0000     4.0000 </r>
       <r>    -7.6603    -0.0000     4.0000 </r>
       <r>    -7.6086    -0.0000     4.0000 </r>
       <r>    -7.5570    -0.0000     4.0000 </r>
       <r>    -7.5053    -0.0000     4.0000 </r>
       <r>    -7.4537    -0.0000     4.0000 </r>
       <r>    -7.4020    -0.0000     4.0000 </r>
       <r>    -7.3503    -0.0000     4.0000 </r>
       <r>    -7.2987    -0.0000     4.0000 </r>
       <r>    -7.2470    -0.0000     4.0000 </r>
       <r>    -7.1954    -0.0000     4.0000 </r>
       <r>    -7.1437    -0.0000     4.0000 </r>
       <r>    -7.0921    -0.0000     4.0000 </r>
       <r>    -7.0404    -0.0000     4.0000 </r>
       <r>    -6.9887    -0.0000     4.0000 </r>
       <r>    -6.9371    -0.0002     4.0000 </r>
       <r>    -6.8854    -0.0009     3.9999 </r>
       <r>    -6.8338    -0.0037     3.9997 </r>
       <r>    -6.7821    -0.0124     3.9991 </r>
       <r>    -6.7304    -0.0351     3.9973 </r>
       <r>    -6.6788    -0.0828     3.9930 </r>
       <r>    -6.6271    -0.1571     3.9849 </r>
       <r>    -6.5755    -0.2219     3.9734 </r>
       <r>    -6.5238    -0.1697     3.9647 </r>
       <r>    -6.4721     0.1719     3.9736 </r>
       <r>    -6.4205     0.9418     4.0222 </r>
       <r>    -6.3688     2.0765     4.1295 </r>
       <r>    -6.3172     3.2125     4.2954 </r>
       <r>    -6.2655     3.8298     4.4933 </r>
       <r>    -6.2138     3.6224     4.6804 </r>
       <r>    -6.1622     2.8271     4.8265 </r>
       <r>    -6.1105     2.1858     4.9394 </r>
       <r>    -6.0589     2.4867     5.0678 </r>
       <r>    -6.0072     3.9747     5.2732 </r>
       <r>    -5.9555     6.0742     5.5870 </r>
       <r>    -5.9039     7.6818     5.9838 </r>
       <r>    -5.8522     7.8701     6.3904 </r>
       <r>    -5.8006     6.4893     6.7256 </r>
       <r>    -5.7489     4.2009     6.9426 </r>
       <r>    -5.6972     1.9628     7.0440 </r>
       <r>    -5.6456     0.4305     7.0663 </r>
       <r>    -5.5939    -0.2796     7.0518 </r>
       <r>    -5.5423    -0.4247     7.0299 </r>
       <r>    -5.4906    -0.3382     7.0124 </r>
       <r>    -5.4389    -0.2502     6.9995 </r>
       <r>    -5.3873    -0.2635     6.9859 </r>
       <r>    -5.3356    -0.3879     6.9658 </r>
       <r>    -5.2840    -0.5362     6.9381 </r>
       <r>    -5.2323    -0.4724     6.9137 </r>
       <r>    -5.1806     0.2024     6.9242 </r>
       <r>    -5.1290     1.9010     7.0224 </r>
       <r>    -5.0773     4.7134     7.2659 </r>
       <r>    -5.0257     8.0851     7.6836 </r>
       <r>    -4.9740    10.8609     8.2446 </r>
       <r>    -4.9223    11.8468     8.8566 </r>
       <r>    -4.8707    10.5666     9.4025 </r>
       <r>    -4.8190     7.5997     9.7951 </r>
       <r>    -4.7674     4.1952    10.0118 </r>
       <r>    -4.7157     1.4894    10.0888 </r>
       <r>    -4.6640    -0.0390    10.0867 </r>
       <r>    -4.6124    -0.5612    10.0578 </r>
       <r>    -4.5607    -0.5296    10.0304 </r>
       <r>    -4.5091    -0.3317    10.0133 </r>
       <r>    -4.4574    -0.1619    10.0049 </r>
       <r>    -4.4057    -0.0649    10.0015 </r>
       <r>    -4.3541    -0.0218    10.0004 </r>
       <r>    -4.3024    -0.0062    10.0001 </r>
       <r>    -4.2508    -0.0015    10.0000 </r>
       <r>    -4.1991    -0.0003    10.0000 </r>
       <r>    -4.1474    -0.0001    10.0000 </r>
       <r>    -4.0958    -0.0000    10.0000 </r>
       <r>    -4.0441    -0.0002    10.0000 </r>
       <r>    -3.9925    -0.0008     9.9999 </r>
       <r>    -3.9408    -0.0032     9.9998 </r>
       <r>    -3.8891    -0.0110     9.9992 </r>
       <r>    -3.8375    -0.0321     9.9976 </r>
       <r>    -3.7858    -0.0788     9.9935 </r>
       <r>    -3.7342    -0.1596     9.9852 </r>
       <r>    -3.6825    -0.2552     9.9721 </r>
       <r>    -3.6308    -0.2855     9.9573 </r>
       <r>    -3.5792    -0.0989     9.9522 </r>
       <r>    -3.5275     0.4800     9.9770 </r>
       <r>    -3.4759     1.5511    10.0571 </r>
       <r>    -3.4242     3.0667    10.2156 </r>
       <r>    -3.3725     4.8536    10.4663 </r>
       <r>    -3.3209     6.6762    10.8112 </r>
       <r>    -3.2692     8.2390    11.2368 </r>
       <r>    -3.2176     9.1717    11.7106 </r>
       <r>    -3.1659     9.1669    12.1842 </r>
       <r>    -3.1142     8.2543    12.6106 </r>
       <r>    -3.0626     6.8915    12.9666 </r>
       <r>    -3.0109     5.6500    13.2585 </r>
       <r>    -2.9593     4.7636    13.5046 </r>
       <r>    -2.9076     4.0258    13.7125 </r>
       <r>    -2.8559     3.1253    13.8740 </r>
       <r>    -2.8043     2.0115    13.9779 </r>
       <r>    -2.7526     0.9155    14.0252 </r>
       <r>    -2.7010     0.0936    14.0300 </r>
       <r>    -2.6493    -0.3786    14.0105 </r>
       <r>    -2.5976    -0.5735    13.9808 </r>
       <r>    -2.5460    -0.5308    13.9534 </r>
       <r>    -2.4943    -0.1247    13.9470 </r>
       <r>    -2.4427     0.8849    13.9927 </r>
       <r>    -2.3910     2.6196    14.1280 </r>
       <r>    -2.3393     4.8221    14.3771 </r>
       <r>    -2.2877     6.8115    14.7290 </r>
       <r>    -2.2360     7.7839    15.1311 </r>
       <r>    -2.1844     7.2982    15.5082 </r>
       <r>    -2.1327     5.5682    15.7958 </r>
       <r>    -2.0810     3.3154    15.9671 </r>
       <r>    -2.0294     1.3151    16.0350 </r>
       <r>    -1.9777     0.0179    16.0359 </r>
       <r>    -1.9261    -0.4992    16.0101 </r>
       <r>    -1.8744    -0.3328    15.9930 </r>
       <r>    -1.8227     0.4170    16.0145 </r>
       <r>    -1.7711     1.6157    16.0980 </r>
       <r>    -1.7194     2.9545    16.2506 </r>
       <r>    -1.6678     3.9437    16.4543 </r>
       <r>    -1.6161     4.1477    16.6686 </r>
       <r>    -1.5645     3.4833    16.8485 </r>
       <r>    -1.5128     2.2884    16.9668 </r>
       <r>    -1.4611     1.0835    17.0227 </r>
       <r>    -1.4095     0.2431    17.0353 </r>
       <r>    -1.3578    -0.1545    17.0273 </r>
       <r>    -1.3062    -0.2483    17.0145 </r>
       <r>    -1.2545    -0.2273    17.0027 </r>
       <r>    -1.2028    -0.2167    16.9915 </r>
       <r>    -1.1512    -0.2422    16.9790 </r>
       <r>    -1.0995    -0.2266    16.9673 </r>
       <r>    -1.0479    -0.0041    16.9671 </r>
       <r>    -0.9962     0.6088    16.9986 </r>
       <r>    -0.9445     1.6616    17.0844 </r>
       <r>    -0.8929     2.9247    17.2355 </r>
       <r>    -0.8412     3.9170    17.4378 </r>
       <r>    -0.7896     4.1713    17.6533 </r>
       <r>    -0.7379     3.5584    17.8372 </r>
       <r>    -0.6862     2.3836    17.9603 </r>
       <r>    -0.6346     1.1633    18.0204 </r>
       <r>    -0.5829     0.2913    18.0355 </r>
       <r>    -0.5313    -0.1306    18.0287 </r>
       <r>    -0.4796    -0.2251    18.0171 </r>
       <r>    -0.4279    -0.1721    18.0082 </r>
       <r>    -0.3763    -0.0951    18.0033 </r>
       <r>    -0.3246    -0.0419    18.0011 </r>
       <r>    -0.2730    -0.0153    18.0003 </r>
       <r>    -0.2213    -0.0047    18.0001 </r>
       <r>    -0.1696    -0.0012    18.0000 </r>
       <r>    -0.1180    -0.0003    18.0000 </r>
       <r>    -0.0663    -0.0001    18.0000 </r>
       <r>    -0.0147    -0.0000    18.0000 </r>
       <r>     0.0370    -0.0000    18.0000 </r>
       <r>     0.0887    -0.0000    18.0000 </r>
       <r>     0.1403    -0.0000    18.0000 </r>
       <r>     0.1920    -0.0000    18.0000 </r>
       <r>     0.2436    -0.0000    18.0000 </r>
       <r>     0.2953    -0.0000    18.0000 </r>
       <r>     0.3470    -0.0000    18.0000 </r>
       <r>     0.3986    -0.0000    18.0000 </r>
       <r>     0.4503     0.0000    18.0000 </r>
       <r>     0.5019     0.0000    18.0000 </r>
       <r>     0.5536     0.0000    18.0000 </r>
       <r>     0.6053     0.0000    18.0000 </r>
       <r>     0.6569     0.0000    18.0000 </r>
       <r>     0.7086     0.0000    18.0000 </r>
       <r>     0.7602     0.0000    18.0000 </r>
       <r>     0.8119     0.0000    18.0000 </r>
       <r>     0.8636     0.0000    18.0000 </r>
       <r>     0.9152     0.0000    18.0000 </r>
       <r>     0.9669     0.0000    18.0000 </r>
       <r>     1.0185     0.0000    18.0000 </r>
       <r>     1.0702     0.0000    18.0000 </r>
       <r>     1.1219     0.0000    18.0000 </r>
       <r>     1.1735     0.0000    18.0000 </r>
      </set>
     </set>
    </array>
   </total>
  </dos>
 </calculation>
 <structure name="finalpos" >
  <crystal>
   <varray name="basis" >
    <v>      22.54453563       0.00000000       0.00000000 </v>
    <v>       0.00000000      21.83981355       0.00000000 </v>
    <v>       0.00000000       0.00000000      22.60041050 </v>
   </varray>
   <i name="volume">  11127.72919559 </i>
   <varray name="rec_basis" >
    <v>       0.04435665       0.00000000       0.00000000 </v>
    <v>       0.00000000       0.04578794       0.00000000 </v>
    <v>       0.00000000       0.00000000       0.04424698 </v>
   </varray>
  </crystal>
  <varray name="positions" >
   <v>       0.44926358       0.52149013       0.60670905 </v>
   <v>       0.39670779       0.55682838       0.50644372 </v>
   <v>       0.44374050       0.44796314       0.51773057 </v>
   <v>       0.49276692       0.53743082       0.44429342 </v>
   <v>       0.55070850       0.43513788       0.47037234 </v>
   <v>       0.49986349       0.61187969       0.53247887 </v>
   <v>       0.55325142       0.51209349       0.56076889 </v>
  </varray>
 </structure>
</modeling>
