unknown system                          
            1
    22.544536    0.000000    0.000000
     0.000000   21.839814    0.000000
     0.000000    0.000000   22.600411
   Al
     7
Direct configuration=     1
   0.44885182  0.51439106  0.60807662
   0.38482215  0.56479172  0.51782911
   0.46344251  0.46977865  0.49476758
   0.45014971  0.56557287  0.41724244
   0.56832379  0.41811520  0.49946243
   0.50591164  0.58885456  0.52022532
   0.56480058  0.50131945  0.58119335
Direct configuration=     2
   0.44898954  0.51459151  0.60708904
   0.38479797  0.56441121  0.51776713
   0.46392829  0.46944817  0.49471573
   0.45040829  0.56549605  0.41910175
   0.56773544  0.41841188  0.49973422
   0.50662867  0.58843600  0.52011430
   0.56381398  0.50202869  0.58027468
Direct configuration=     3
   0.44940270  0.51519286  0.60412628
   0.38472545  0.56326967  0.51758119
   0.46538564  0.46845673  0.49456017
   0.45118404  0.56526559  0.42467966
   0.56597039  0.41930192  0.50054959
   0.50877978  0.58718035  0.51978126
   0.56085418  0.50415640  0.57751869
Direct configuration=     4
   0.44944325  0.51525188  0.60383550
   0.38471833  0.56315764  0.51756294
   0.46552867  0.46835943  0.49454490
   0.45126018  0.56524297  0.42522710
   0.56579716  0.41938927  0.50062962
   0.50899090  0.58705711  0.51974858
   0.56056369  0.50436523  0.57724821
Direct configuration=     5
   0.44809648  0.51596221  0.60278962
   0.38401831  0.56226464  0.51818768
   0.46494705  0.46787564  0.49402171
   0.45188563  0.56520822  0.42724678
   0.56616764  0.41871514  0.50083393
   0.51027081  0.58796200  0.51935253
   0.56091627  0.50483567  0.57636459
Direct configuration=     6
   0.44688652  0.51660037  0.60184998
   0.38338939  0.56146235  0.51874895
   0.46442450  0.46744100  0.49355166
   0.45244755  0.56517700  0.42906130
   0.56650049  0.41810949  0.50101750
   0.51142070  0.58877497  0.51899672
   0.56123304  0.50525833  0.57557074
Direct configuration=     7
   0.44446661  0.51787671  0.59997071
   0.38213156  0.55985777  0.51987150
   0.46337941  0.46657171  0.49261157
   0.45357138  0.56511456  0.43269033
   0.56716618  0.41689819  0.50138462
   0.51372048  0.59040092  0.51828509
   0.56186657  0.50610365  0.57398303
Direct configuration=     8
   0.44634897  0.51688390  0.60143252
   0.38310998  0.56110591  0.51899831
   0.46419235  0.46724790  0.49334283
   0.45269720  0.56516313  0.42986745
   0.56664837  0.41784041  0.50109905
   0.51193157  0.58913616  0.51883864
   0.56137377  0.50544611  0.57521805
Direct configuration=     9
   0.44591090  0.51711570  0.60094716
   0.38178067  0.56018219  0.51953201
   0.46354966  0.46604495  0.49343859
   0.45346414  0.56540872  0.43024268
   0.56683724  0.41665994  0.50086941
   0.51353437  0.59142327  0.51903205
   0.56122520  0.50598875  0.57473495
Direct configuration=    10
   0.44459670  0.51781109  0.59949106
   0.37779275  0.55741103  0.52113309
   0.46162161  0.46243612  0.49372586
   0.45576499  0.56614549  0.43136839
   0.56740385  0.41311854  0.50018048
   0.51834279  0.59828460  0.51961231
   0.56077950  0.50761666  0.57328566
Direct configuration=    11
   0.44517055  0.51758893  0.59950218
   0.37720632  0.55635145  0.52089514
   0.46102297  0.46135475  0.49419816
   0.45674787  0.56617565  0.43191323
   0.56685518  0.41261404  0.49986782
   0.51945544  0.60079498  0.51966560
   0.55984386  0.50794372  0.57275473
Direct configuration=    12
   0.44638914  0.51711715  0.59952577
   0.37596100  0.55410137  0.52038983
   0.45975173  0.45905841  0.49520112
   0.45883507  0.56623971  0.43307024
   0.56569005  0.41154271  0.49920386
   0.52181822  0.60612591  0.51977876
   0.55785698  0.50863826  0.57162726
Direct configuration=    13
   0.44680089  0.51695774  0.59953374
   0.37554022  0.55334109  0.52021909
   0.45932219  0.45828249  0.49554001
   0.45954032  0.56626135  0.43346118
   0.56529636  0.41118072  0.49897952
   0.52261658  0.60792719  0.51981700
   0.55718563  0.50887294  0.57124630
Direct configuration=    14
   0.44730818  0.51687221  0.59992980
   0.37692186  0.55236064  0.51937107
   0.45881884  0.45850393  0.49605087
   0.46029915  0.56555364  0.43449945
   0.56431509  0.41209277  0.49878142
   0.52250320  0.60859482  0.51991117
   0.55613587  0.50884551  0.57025308
Direct configuration=    15
   0.44817459  0.51672613  0.60060624
   0.37928161  0.55068610  0.51792269
   0.45795915  0.45888214  0.49692338
   0.46159517  0.56434491  0.43627276
   0.56263915  0.41365049  0.49844308
   0.52230957  0.60973509  0.52007200
   0.55434295  0.50879867  0.56855671
Direct configuration=    16
   0.44990740  0.51643396  0.60195912
   0.38400113  0.54733701  0.51502594
   0.45623977  0.45963854  0.49866840
   0.46418723  0.56192746  0.43981937
   0.55928725  0.41676593  0.49776639
   0.52192229  0.61201562  0.52039366
   0.55075711  0.50870500  0.56516398
Direct configuration=    17
   0.44865504  0.51664512  0.60098135
   0.38059018  0.54975750  0.51711952
   0.45748242  0.45909186  0.49740722
   0.46231387  0.56367463  0.43725612
   0.56170977  0.41451430  0.49825545
   0.52220219  0.61036740  0.52016118
   0.55334871  0.50877270  0.56761601
Direct configuration=    18
   0.44734813  0.51717582  0.60275520
   0.38240708  0.54893731  0.51700766
   0.45657300  0.45866713  0.49788635
   0.46427540  0.56238996  0.43702196
   0.56065526  0.41594828  0.49719718
   0.52151008  0.61067282  0.52084931
   0.55353324  0.50903221  0.56607919
Direct configuration=    19
   0.44547006  0.51793846  0.60530430
   0.38501803  0.54775865  0.51684692
   0.45526612  0.45805678  0.49857488
   0.46709420  0.56054384  0.43668547
   0.55913988  0.41800895  0.49567641
   0.52051549  0.61111170  0.52183817
   0.55379841  0.50940514  0.56387071
Direct configuration=    20
   0.44529356  0.51826599  0.60669117
   0.38570258  0.54823202  0.51691199
   0.45438553  0.45716106  0.49946514
   0.46951394  0.55908506  0.43595950
   0.55885994  0.41867854  0.49373510
   0.51930803  0.61130327  0.52255238
   0.55323861  0.51009758  0.56348158
Direct configuration=    21
   0.44476408  0.51924859  0.61085179
   0.38775623  0.54965212  0.51710720
   0.45174373  0.45447390  0.50213594
   0.47677318  0.55470872  0.43378159
   0.55802010  0.42068730  0.48791114
   0.51568566  0.61187797  0.52469499
   0.55155922  0.51217492  0.56231420
Direct configuration=    22
   0.44370510  0.52121380  0.61917303
   0.39186353  0.55249234  0.51749762
   0.44646014  0.44909957  0.50747754
   0.49129166  0.54595605  0.42942578
   0.55634043  0.42470481  0.47626323
   0.50844091  0.61302737  0.52898022
   0.54820043  0.51632958  0.55997944
Direct configuration=    23
   0.44455212  0.51964193  0.61251729
   0.38857831  0.55022059  0.51718534
   0.45068622  0.45339822  0.50320506
   0.47967906  0.55295687  0.43290978
   0.55768392  0.42149141  0.48557980
   0.51423561  0.61210802  0.52555268
   0.55088695  0.51300647  0.56184690
Direct configuration=    24
   0.44468828  0.51981313  0.61284927
   0.38929599  0.55094235  0.51712186
   0.45007328  0.45281122  0.50415995
   0.48139184  0.55158507  0.43302579
   0.55752081  0.42228917  0.48403433
   0.51289816  0.61242289  0.52581941
   0.55043383  0.51295969  0.56178623
Direct configuration=    25
   0.44509677  0.52032673  0.61384522
   0.39144903  0.55310764  0.51693144
   0.44823448  0.45105022  0.50702461
   0.48653017  0.54746965  0.43337383
   0.55703149  0.42468247  0.47939793
   0.50888580  0.61336747  0.52661960
   0.54907445  0.51281936  0.56160422
Direct configuration=    26
   0.44591374  0.52135393  0.61583712
   0.39575512  0.55743820  0.51655058
   0.44455688  0.44752822  0.51275392
   0.49680684  0.53923881  0.43406992
   0.55605286  0.42946906  0.47012512
   0.50086107  0.61525663  0.52821999
   0.54635569  0.51253868  0.56124020
Direct configuration=    27
   0.44555868  0.52090750  0.61497144
   0.39388368  0.55555612  0.51671610
   0.44615518  0.44905889  0.51026395
   0.49234057  0.54281596  0.43376740
   0.55647818  0.42738879  0.47415511
   0.50434864  0.61443560  0.52752446
   0.54753727  0.51266066  0.56139840
Direct configuration=    28
   0.44623004  0.52082468  0.61362491
   0.39514888  0.55620967  0.51582083
   0.44573916  0.44916099  0.51153433
   0.49324180  0.54100179  0.43602944
   0.55559284  0.42938313  0.47292821
   0.50277362  0.61413049  0.52739092
   0.54757584  0.51211277  0.56146821
Direct configuration=    29
   0.44824411  0.52057621  0.60958533
   0.39894450  0.55817033  0.51313501
   0.44449111  0.44946729  0.51534549
   0.49594551  0.53555931  0.44281556
   0.55293684  0.43536613  0.46924751
   0.49804857  0.61321515  0.52699031
   0.54769155  0.51046910  0.56167763
Direct configuration=    30
   0.44769573  0.52064386  0.61068520
   0.39791105  0.55763649  0.51386629
   0.44483093  0.44938389  0.51430781
   0.49520936  0.53704115  0.44096788
   0.55366000  0.43373712  0.47024967
   0.49933508  0.61346438  0.52709938
   0.54766005  0.51091663  0.56162061
Direct configuration=    31
   0.44780981  0.52062979  0.61045639
   0.39812605  0.55774755  0.51371416
   0.44476023  0.44940124  0.51452368
   0.49536250  0.53673288  0.44135226
   0.55350956  0.43407601  0.47004119
   0.49906744  0.61341253  0.52707669
   0.54766660  0.51082353  0.56163248
Direct configuration=    32
   0.44822177  0.52040599  0.60975960
   0.39755377  0.55740277  0.51170944
   0.44423691  0.44932672  0.51483027
   0.49440407  0.53631333  0.44285165
   0.55282360  0.43492967  0.47015469
   0.49985162  0.61322354  0.52783390
   0.54921046  0.51122151  0.56165731
Direct configuration=    33
   0.44890034  0.52003734  0.60861186
   0.39661112  0.55683484  0.50840727
   0.44337490  0.44920398  0.51533527
   0.49282536  0.53562226  0.44532143
   0.55169369  0.43633581  0.47034164
   0.50114331  0.61291224  0.52908116
   0.55175348  0.51187706  0.56169822
Direct configuration=    34
   0.44899459  0.52010812  0.60773446
   0.39642280  0.55733321  0.50790633
   0.44331591  0.44839808  0.51598301
   0.49225856  0.53627059  0.44478670
   0.55170797  0.43588815  0.47061727
   0.50109883  0.61266546  0.52998853
   0.55250352  0.51215991  0.56178055
Direct configuration=    35
   0.44908163  0.52017347  0.60692424
   0.39624891  0.55779342  0.50744375
   0.44326143  0.44765391  0.51658114
   0.49173517  0.53686928  0.44429292
   0.55172116  0.43547477  0.47087180
   0.50105776  0.61243758  0.53082641
   0.55319612  0.51242110  0.56185657
Direct configuration=    36
   0.44899933  0.52040196  0.60665253
   0.39644796  0.55777137  0.50744988
   0.44346152  0.44780102  0.51671051
   0.49179380  0.53673144  0.44404505
   0.55144122  0.43562440  0.47102715
   0.50076479  0.61210668  0.53129529
   0.55339357  0.51238664  0.56161642
Direct configuration=    37
   0.44895401  0.52052780  0.60650290
   0.39655757  0.55775923  0.50745326
   0.44357171  0.44788204  0.51678176
   0.49182609  0.53665553  0.44390855
   0.55128706  0.43570681  0.47111271
   0.50060344  0.61192446  0.53155350
   0.55350231  0.51236767  0.56148417
Direct configuration=    38
   0.44903264  0.52064931  0.60661436
   0.39661543  0.55764255  0.50722651
   0.44360491  0.44797676  0.51690698
   0.49189755  0.53680402  0.44391653
   0.55119604  0.43564886  0.47104515
   0.50045945  0.61174857  0.53168507
   0.55349617  0.51235344  0.56140226
Direct configuration=    39
   0.44914336  0.52082044  0.60677131
   0.39669692  0.55747824  0.50690719
   0.44365167  0.44811017  0.51708332
   0.49199819  0.53701313  0.44392777
   0.55106787  0.43556724  0.47095001
   0.50025667  0.61150089  0.53187034
   0.55348752  0.51233341  0.56128691
Direct configuration=    40
   0.44917568  0.52094348  0.60685523
   0.39664694  0.55737213  0.50676148
   0.44366603  0.44808545  0.51720773
   0.49215782  0.53710665  0.44392741
   0.55099434  0.43549704  0.47085019
   0.50016788  0.61155821  0.53199504
   0.55349351  0.51226056  0.56119978
Direct configuration=    41
   0.44927265  0.52131259  0.60710698
   0.39649701  0.55705379  0.50632434
   0.44370910  0.44801130  0.51758097
   0.49263672  0.53738724  0.44392633
   0.55077374  0.43528642  0.47055072
   0.49990148  0.61173019  0.53236913
   0.55351148  0.51204198  0.56093839
Direct configuration=    42
   0.44926801  0.52140336  0.60690352
   0.39660478  0.55693854  0.50638538
   0.44372516  0.44798668  0.51765746
   0.49270329  0.53740952  0.44411402
   0.55074038  0.43521047  0.47045951
   0.49988206  0.61180663  0.53242524
   0.55337852  0.51206832  0.56085173
Direct configuration=    43
   0.44926358  0.52149013  0.60670905
   0.39670779  0.55682838  0.50644372
   0.44374050  0.44796314  0.51773057
   0.49276692  0.53743082  0.44429342
   0.55070850  0.43513788  0.47037234
   0.49986349  0.61187969  0.53247887
   0.55325142  0.51209349  0.56076889
