   8   8   0   0
  0.1429823E+04  0.2196965E-08  0.2255172E-08  0.2308711E-08  0.5000000E-15
   1.0000000000000000E-004
  CAR 
 unknown system                          
      2.05614376    -12.79326398  301     -4.97433525      1.00000000
    -12.793  0.0000E+00  0.0000E+00  0.0000E+00  0.0000E+00
    -12.744  0.0000E+00  0.0000E+00  0.0000E+00  0.0000E+00
    -12.694  0.0000E+00  0.0000E+00  0.0000E+00  0.0000E+00
    -12.645  0.0000E+00  0.0000E+00  0.0000E+00  0.0000E+00
    -12.595  0.0000E+00  0.0000E+00  0.0000E+00  0.0000E+00
    -12.546  0.0000E+00  0.0000E+00  0.0000E+00  0.0000E+00
    -12.496  0.0000E+00  0.0000E+00  0.0000E+00  0.0000E+00
    -12.447  0.0000E+00  0.0000E+00  0.0000E+00  0.0000E+00
    -12.397 -0.5314E-29 -0.5314E-29 -0.2630E-30 -0.2630E-30
    -12.348 -0.2513E-27 -0.2513E-27 -0.1270E-28 -0.1270E-28
    -12.298 -0.1069E-25 -0.1069E-25 -0.5421E-27 -0.5421E-27
    -12.249 -0.4021E-24 -0.4021E-24 -0.2044E-25 -0.2045E-25
    -12.199 -0.1335E-22 -0.1335E-22 -0.6814E-24 -0.6814E-24
    -12.150 -0.3916E-21 -0.3917E-21 -0.2007E-22 -0.2007E-22
    -12.100 -0.1014E-19 -0.1014E-19 -0.5221E-21 -0.5221E-21
    -12.051 -0.2319E-18 -0.2319E-18 -0.1200E-19 -0.1200E-19
    -12.001 -0.4681E-17 -0.4681E-17 -0.2437E-18 -0.2437E-18
    -11.952 -0.8113E-16 -0.8113E-16 -0.4259E-17 -0.4259E-17
    -11.902 -0.1267E-14 -0.1267E-14 -0.6699E-16 -0.6699E-16
    -11.853 -0.1751E-13 -0.1751E-13 -0.9339E-15 -0.9339E-15
    -11.803 -0.2132E-12 -0.2132E-12 -0.1149E-13 -0.1149E-13
    -11.754 -0.2286E-11 -0.2286E-11 -0.1246E-12 -0.1246E-12
    -11.704 -0.2157E-10 -0.2157E-10 -0.1192E-11 -0.1192E-11
    -11.655 -0.1790E-09 -0.1790E-09 -0.1005E-10 -0.1005E-10
    -11.605 -0.1305E-08 -0.1305E-08 -0.7464E-10 -0.7464E-10
    -11.556 -0.8349E-08 -0.8349E-08 -0.4879E-09 -0.4879E-09
    -11.506 -0.4680E-07 -0.4680E-07 -0.2805E-08 -0.2805E-08
    -11.457 -0.2294E-06 -0.2294E-06 -0.1416E-07 -0.1416E-07
    -11.407 -0.9808E-06 -0.9808E-06 -0.6271E-07 -0.6271E-07
    -11.358 -0.3643E-05 -0.3643E-05 -0.2430E-06 -0.2430E-06
    -11.308 -0.1169E-04 -0.1169E-04 -0.8217E-06 -0.8218E-06
    -11.259 -0.3216E-04 -0.3216E-04 -0.2414E-05 -0.2414E-05
    -11.209 -0.7477E-04 -0.7477E-04 -0.6115E-05 -0.6115E-05
    -11.160 -0.1432E-03 -0.1432E-03 -0.1320E-04 -0.1320E-04
    -11.110 -0.2130E-03 -0.2130E-03 -0.2374E-04 -0.2374E-04
    -11.061 -0.2027E-03 -0.2027E-03 -0.3378E-04 -0.3378E-04
    -11.011  0.3301E-04  0.3302E-04 -0.3214E-04 -0.3214E-04
    -10.962  0.6450E-03  0.6450E-03 -0.2162E-06 -0.2156E-06
    -10.912  0.1662E-02  0.1662E-02  0.8207E-04  0.8207E-04
    -10.863  0.2876E-02  0.2876E-02  0.2244E-03  0.2244E-03
    -10.813  0.3861E-02  0.3861E-02  0.4155E-03  0.4155E-03
    -10.764  0.4192E-02  0.4192E-02  0.6230E-03  0.6230E-03
    -10.714  0.3713E-02  0.3713E-02  0.8068E-03  0.8068E-03
    -10.665  0.2645E-02  0.2645E-02  0.9377E-03  0.9377E-03
    -10.615  0.1431E-02  0.1431E-02  0.1009E-02  0.1009E-02
    -10.566  0.4582E-03  0.4582E-03  0.1031E-02  0.1031E-02
    -10.516 -0.1226E-03 -0.1226E-03  0.1025E-02  0.1025E-02
    -10.467 -0.3755E-03 -0.3755E-03  0.1007E-02  0.1007E-02
    -10.417 -0.4263E-03 -0.4263E-03  0.9855E-03  0.9855E-03
    -10.368 -0.3186E-03 -0.3186E-03  0.9697E-03  0.9697E-03
    -10.318  0.2550E-04  0.2550E-04  0.9709E-03  0.9709E-03
    -10.269  0.7186E-03  0.7186E-03  0.1007E-02  0.1007E-02
    -10.219  0.1751E-02  0.1751E-02  0.1093E-02  0.1093E-02
    -10.170  0.2890E-02  0.2890E-02  0.1236E-02  0.1236E-02
    -10.120  0.3765E-02  0.3765E-02  0.1423E-02  0.1423E-02
    -10.071  0.4118E-02  0.4118E-02  0.1626E-02  0.1626E-02
    -10.021  0.4022E-02  0.4022E-02  0.1825E-02  0.1825E-02
     -9.972  0.3812E-02  0.3812E-02  0.2014E-02  0.2014E-02
     -9.922  0.3778E-02  0.3778E-02  0.2201E-02  0.2201E-02
     -9.873  0.3891E-02  0.3891E-02  0.2394E-02  0.2394E-02
     -9.823  0.3864E-02  0.3864E-02  0.2585E-02  0.2585E-02
     -9.774  0.3496E-02  0.3496E-02  0.2758E-02  0.2758E-02
     -9.724  0.2932E-02  0.2932E-02  0.2903E-02  0.2903E-02
     -9.675  0.2571E-02  0.2571E-02  0.3030E-02  0.3030E-02
     -9.625  0.2703E-02  0.2703E-02  0.3164E-02  0.3164E-02
     -9.576  0.3250E-02  0.3250E-02  0.3325E-02  0.3325E-02
     -9.526  0.3856E-02  0.3856E-02  0.3516E-02  0.3516E-02
     -9.477  0.4219E-02  0.4219E-02  0.3725E-02  0.3725E-02
     -9.427  0.4309E-02  0.4309E-02  0.3938E-02  0.3938E-02
     -9.378  0.4259E-02  0.4259E-02  0.4149E-02  0.4149E-02
     -9.328  0.4117E-02  0.4117E-02  0.4353E-02  0.4353E-02
     -9.279  0.3794E-02  0.3794E-02  0.4541E-02  0.4541E-02
     -9.229  0.3298E-02  0.3298E-02  0.4704E-02  0.4704E-02
     -9.180  0.2983E-02  0.2983E-02  0.4851E-02  0.4851E-02
     -9.130  0.3452E-02  0.3452E-02  0.5022E-02  0.5022E-02
     -9.081  0.5091E-02  0.5091E-02  0.5274E-02  0.5274E-02
     -9.031  0.7608E-02  0.7608E-02  0.5651E-02  0.5651E-02
     -8.982  0.1002E-01  0.1002E-01  0.6147E-02  0.6147E-02
     -8.932  0.1118E-01  0.1118E-01  0.6700E-02  0.6700E-02
     -8.883  0.1054E-01  0.1054E-01  0.7222E-02  0.7222E-02
     -8.833  0.8486E-02  0.8486E-02  0.7642E-02  0.7642E-02
     -8.784  0.6114E-02  0.6114E-02  0.7944E-02  0.7944E-02
     -8.734  0.4507E-02  0.4507E-02  0.8167E-02  0.8167E-02
     -8.685  0.4174E-02  0.4174E-02  0.8374E-02  0.8374E-02
     -8.635  0.4970E-02  0.4970E-02  0.8620E-02  0.8620E-02
     -8.586  0.6391E-02  0.6391E-02  0.8936E-02  0.8936E-02
     -8.536  0.7911E-02  0.7911E-02  0.9328E-02  0.9328E-02
     -8.487  0.9110E-02  0.9110E-02  0.9779E-02  0.9779E-02
     -8.437  0.9684E-02  0.9684E-02  0.1026E-01  0.1026E-01
     -8.388  0.9471E-02  0.9471E-02  0.1073E-01  0.1073E-01
     -8.338  0.8551E-02  0.8551E-02  0.1115E-01  0.1115E-01
     -8.289  0.7287E-02  0.7287E-02  0.1151E-01  0.1151E-01
     -8.239  0.6212E-02  0.6212E-02  0.1182E-01  0.1182E-01
     -8.190  0.5769E-02  0.5769E-02  0.1210E-01  0.1210E-01
     -8.140  0.6058E-02  0.6058E-02  0.1240E-01  0.1240E-01
     -8.091  0.6791E-02  0.6791E-02  0.1274E-01  0.1274E-01
     -8.041  0.7540E-02  0.7540E-02  0.1311E-01  0.1311E-01
     -7.992  0.8079E-02  0.8079E-02  0.1351E-01  0.1351E-01
     -7.942  0.8527E-02  0.8527E-02  0.1394E-01  0.1394E-01
     -7.893  0.9179E-02  0.9179E-02  0.1439E-01  0.1439E-01
     -7.843  0.1025E-01  0.1025E-01  0.1490E-01  0.1490E-01
     -7.794  0.1171E-01  0.1171E-01  0.1548E-01  0.1548E-01
     -7.744  0.1336E-01  0.1336E-01  0.1614E-01  0.1614E-01
     -7.695  0.1478E-01  0.1478E-01  0.1687E-01  0.1687E-01
     -7.645  0.1549E-01  0.1549E-01  0.1764E-01  0.1764E-01
     -7.596  0.1520E-01  0.1520E-01  0.1839E-01  0.1839E-01
     -7.546  0.1412E-01  0.1412E-01  0.1909E-01  0.1909E-01
     -7.497  0.1300E-01  0.1300E-01  0.1973E-01  0.1973E-01
     -7.447  0.1262E-01  0.1262E-01  0.2036E-01  0.2036E-01
     -7.398  0.1321E-01  0.1321E-01  0.2101E-01  0.2101E-01
     -7.348  0.1414E-01  0.1414E-01  0.2171E-01  0.2171E-01
     -7.299  0.1447E-01  0.1447E-01  0.2243E-01  0.2243E-01
     -7.249  0.1365E-01  0.1365E-01  0.2310E-01  0.2310E-01
     -7.200  0.1192E-01  0.1192E-01  0.2369E-01  0.2369E-01
     -7.150  0.1004E-01  0.1004E-01  0.2419E-01  0.2419E-01
     -7.101  0.8790E-02  0.8790E-02  0.2462E-01  0.2462E-01
     -7.051  0.8519E-02  0.8519E-02  0.2505E-01  0.2505E-01
     -7.002  0.9198E-02  0.9198E-02  0.2550E-01  0.2550E-01
     -6.952  0.1061E-01  0.1061E-01  0.2603E-01  0.2603E-01
     -6.903  0.1251E-01  0.1251E-01  0.2665E-01  0.2665E-01
     -6.854  0.1469E-01  0.1469E-01  0.2737E-01  0.2737E-01
     -6.804  0.1694E-01  0.1694E-01  0.2821E-01  0.2821E-01
     -6.755  0.1900E-01  0.1900E-01  0.2915E-01  0.2915E-01
     -6.705  0.2049E-01  0.2049E-01  0.3017E-01  0.3017E-01
     -6.656  0.2100E-01  0.2100E-01  0.3121E-01  0.3121E-01
     -6.606  0.2033E-01  0.2033E-01  0.3221E-01  0.3221E-01
     -6.557  0.1872E-01  0.1872E-01  0.3314E-01  0.3314E-01
     -6.507  0.1681E-01  0.1681E-01  0.3397E-01  0.3397E-01
     -6.458  0.1517E-01  0.1517E-01  0.3472E-01  0.3472E-01
     -6.408  0.1399E-01  0.1399E-01  0.3541E-01  0.3541E-01
     -6.359  0.1314E-01  0.1314E-01  0.3606E-01  0.3606E-01
     -6.309  0.1246E-01  0.1246E-01  0.3668E-01  0.3668E-01
     -6.260  0.1200E-01  0.1200E-01  0.3727E-01  0.3727E-01
     -6.210  0.1180E-01  0.1180E-01  0.3786E-01  0.3786E-01
     -6.161  0.1174E-01  0.1174E-01  0.3844E-01  0.3844E-01
     -6.111  0.1171E-01  0.1171E-01  0.3902E-01  0.3902E-01
     -6.062  0.1176E-01  0.1176E-01  0.3960E-01  0.3960E-01
     -6.012  0.1209E-01  0.1209E-01  0.4020E-01  0.4020E-01
     -5.963  0.1264E-01  0.1264E-01  0.4083E-01  0.4083E-01
     -5.913  0.1289E-01  0.1289E-01  0.4146E-01  0.4146E-01
     -5.864  0.1206E-01  0.1206E-01  0.4206E-01  0.4206E-01
     -5.814  0.9842E-02  0.9842E-02  0.4255E-01  0.4255E-01
     -5.765  0.6663E-02  0.6662E-02  0.4288E-01  0.4288E-01
     -5.715  0.3460E-02  0.3460E-02  0.4305E-01  0.4305E-01
     -5.666  0.1060E-02  0.1060E-02  0.4310E-01  0.4310E-01
     -5.616 -0.2530E-03 -0.2530E-03  0.4309E-01  0.4309E-01
     -5.567 -0.6976E-03 -0.6976E-03  0.4305E-01  0.4305E-01
     -5.517 -0.6919E-03 -0.6919E-03  0.4302E-01  0.4302E-01
     -5.468 -0.5572E-03 -0.5572E-03  0.4299E-01  0.4299E-01
     -5.418 -0.3925E-03 -0.3925E-03  0.4297E-01  0.4297E-01
     -5.369 -0.1004E-03 -0.1003E-03  0.4297E-01  0.4297E-01
     -5.319  0.4936E-03  0.4936E-03  0.4299E-01  0.4299E-01
     -5.270  0.1473E-02  0.1473E-02  0.4307E-01  0.4307E-01
     -5.220  0.2686E-02  0.2686E-02  0.4320E-01  0.4320E-01
     -5.171  0.3740E-02  0.3740E-02  0.4338E-01  0.4338E-01
     -5.121  0.4194E-02  0.4194E-02  0.4359E-01  0.4359E-01
     -5.072  0.3838E-02  0.3838E-02  0.4378E-01  0.4378E-01
     -5.022  0.2838E-02  0.2838E-02  0.4392E-01  0.4392E-01
     -4.973  0.1626E-02  0.1626E-02  0.4400E-01  0.4400E-01
     -4.923  0.6191E-03  0.6191E-03  0.4403E-01  0.4403E-01
     -4.874  0.2047E-04  0.2045E-04  0.4403E-01  0.4403E-01
     -4.824 -0.2055E-03 -0.2056E-03  0.4402E-01  0.4402E-01
     -4.775 -0.2114E-03 -0.2114E-03  0.4401E-01  0.4401E-01
     -4.725 -0.1408E-03 -0.1408E-03  0.4401E-01  0.4401E-01
     -4.676 -0.7301E-04 -0.7301E-04  0.4400E-01  0.4400E-01
     -4.626 -0.3126E-04 -0.3126E-04  0.4400E-01  0.4400E-01
     -4.577 -0.1148E-04 -0.1148E-04  0.4400E-01  0.4400E-01
     -4.527 -0.4310E-05 -0.4310E-05  0.4400E-01  0.4400E-01
     -4.478 -0.3999E-05 -0.3998E-05  0.4400E-01  0.4400E-01
     -4.428 -0.1025E-04 -0.1025E-04  0.4400E-01  0.4400E-01
     -4.379 -0.2830E-04 -0.2830E-04  0.4400E-01  0.4400E-01
     -4.329 -0.6752E-04 -0.6752E-04  0.4399E-01  0.4399E-01
     -4.280 -0.1339E-03 -0.1339E-03  0.4399E-01  0.4399E-01
     -4.230 -0.2106E-03 -0.2106E-03  0.4398E-01  0.4398E-01
     -4.181 -0.2301E-03 -0.2301E-03  0.4397E-01  0.4397E-01
     -4.131 -0.6334E-04 -0.6338E-04  0.4396E-01  0.4396E-01
     -4.082  0.4343E-03  0.4342E-03  0.4398E-01  0.4398E-01
     -4.032  0.1313E-02  0.1312E-02  0.4405E-01  0.4405E-01
     -3.983  0.2424E-02  0.2424E-02  0.4417E-01  0.4417E-01
     -3.933  0.3450E-02  0.3450E-02  0.4434E-01  0.4434E-01
     -3.884  0.4103E-02  0.4103E-02  0.4454E-01  0.4454E-01
     -3.834  0.4352E-02  0.4352E-02  0.4476E-01  0.4476E-01
     -3.785  0.4481E-02  0.4481E-02  0.4498E-01  0.4498E-01
     -3.735  0.4877E-02  0.4877E-02  0.4522E-01  0.4522E-01
     -3.686  0.5757E-02  0.5757E-02  0.4551E-01  0.4551E-01
     -3.636  0.7014E-02  0.7014E-02  0.4585E-01  0.4585E-01
     -3.587  0.8268E-02  0.8268E-02  0.4626E-01  0.4626E-01
     -3.537  0.9023E-02  0.9023E-02  0.4671E-01  0.4671E-01
     -3.488  0.8864E-02  0.8864E-02  0.4715E-01  0.4715E-01
     -3.438  0.7656E-02  0.7656E-02  0.4753E-01  0.4753E-01
     -3.389  0.5654E-02  0.5654E-02  0.4781E-01  0.4781E-01
     -3.339  0.3413E-02  0.3413E-02  0.4798E-01  0.4798E-01
     -3.290  0.1510E-02  0.1510E-02  0.4805E-01  0.4805E-01
     -3.240  0.2755E-03  0.2755E-03  0.4806E-01  0.4806E-01
     -3.191 -0.2894E-03 -0.2894E-03  0.4805E-01  0.4805E-01
     -3.141 -0.4002E-03 -0.4002E-03  0.4803E-01  0.4803E-01
     -3.092 -0.3068E-03 -0.3068E-03  0.4802E-01  0.4802E-01
     -3.042 -0.1783E-03 -0.1783E-03  0.4801E-01  0.4801E-01
     -2.993 -0.8485E-04 -0.8484E-04  0.4800E-01  0.4800E-01
     -2.943 -0.3408E-04 -0.3407E-04  0.4800E-01  0.4800E-01
     -2.894 -0.1173E-04 -0.1173E-04  0.4800E-01  0.4800E-01
     -2.844 -0.3494E-05 -0.3494E-05  0.4800E-01  0.4800E-01
     -2.795 -0.9052E-06 -0.9051E-06  0.4800E-01  0.4800E-01
     -2.745 -0.2047E-06 -0.2047E-06  0.4800E-01  0.4800E-01
     -2.696 -0.4052E-07 -0.4052E-07  0.4800E-01  0.4800E-01
     -2.646 -0.7035E-08 -0.7034E-08  0.4800E-01  0.4800E-01
     -2.597 -0.1073E-08 -0.1073E-08  0.4800E-01  0.4800E-01
     -2.547 -0.1463E-09 -0.1462E-09  0.4800E-01  0.4800E-01
     -2.498 -0.4125E-10 -0.4120E-10  0.4800E-01  0.4800E-01
     -2.448 -0.2069E-09 -0.2066E-09  0.4800E-01  0.4800E-01
     -2.399 -0.1524E-08 -0.1522E-08  0.4800E-01  0.4800E-01
     -2.349 -0.9956E-08 -0.9942E-08  0.4800E-01  0.4800E-01
     -2.300 -0.5709E-07 -0.5702E-07  0.4800E-01  0.4800E-01
     -2.250 -0.2869E-06 -0.2866E-06  0.4800E-01  0.4800E-01
     -2.201 -0.1261E-05 -0.1260E-05  0.4800E-01  0.4800E-01
     -2.151 -0.4830E-05 -0.4826E-05  0.4800E-01  0.4800E-01
     -2.102 -0.1606E-04 -0.1605E-04  0.4800E-01  0.4800E-01
     -2.052 -0.4603E-04 -0.4600E-04  0.4800E-01  0.4800E-01
     -2.003 -0.1125E-03 -0.1125E-03  0.4799E-01  0.4799E-01
     -1.953 -0.2302E-03 -0.2301E-03  0.4798E-01  0.4798E-01
     -1.904 -0.3791E-03 -0.3790E-03  0.4796E-01  0.4796E-01
     -1.854 -0.4532E-03 -0.4532E-03  0.4794E-01  0.4794E-01
     -1.805 -0.2253E-03 -0.2255E-03  0.4793E-01  0.4793E-01
     -1.755  0.6000E-03  0.5994E-03  0.4796E-01  0.4796E-01
     -1.706  0.2206E-02  0.2205E-02  0.4807E-01  0.4807E-01
     -1.656  0.4442E-02  0.4441E-02  0.4829E-01  0.4829E-01
     -1.607  0.6764E-02  0.6762E-02  0.4862E-01  0.4862E-01
     -1.557  0.8481E-02  0.8478E-02  0.4904E-01  0.4904E-01
     -1.508  0.9172E-02  0.9170E-02  0.4949E-01  0.4949E-01
     -1.458  0.8940E-02  0.8937E-02  0.4994E-01  0.4994E-01
     -1.409  0.8259E-02  0.8257E-02  0.5035E-01  0.5035E-01
     -1.359  0.7573E-02  0.7573E-02  0.5072E-01  0.5072E-01
     -1.310  0.6993E-02  0.6994E-02  0.5107E-01  0.5107E-01
     -1.260  0.6311E-02  0.6314E-02  0.5138E-01  0.5138E-01
     -1.211  0.5272E-02  0.5275E-02  0.5164E-01  0.5164E-01
     -1.161  0.3842E-02  0.3845E-02  0.5183E-01  0.5183E-01
     -1.112  0.2291E-02  0.2294E-02  0.5194E-01  0.5194E-01
     -1.062  0.1072E-02  0.1073E-02  0.5200E-01  0.5200E-01
     -1.013  0.5782E-03  0.5776E-03  0.5203E-01  0.5203E-01
     -0.963  0.9365E-03  0.9347E-03  0.5207E-01  0.5207E-01
     -0.914  0.1926E-02  0.1924E-02  0.5217E-01  0.5217E-01
     -0.864  0.3075E-02  0.3073E-02  0.5232E-01  0.5232E-01
     -0.815  0.3916E-02  0.3915E-02  0.5251E-01  0.5251E-01
     -0.765  0.4257E-02  0.4257E-02  0.5272E-01  0.5272E-01
     -0.716  0.4246E-02  0.4247E-02  0.5293E-01  0.5293E-01
     -0.666  0.4171E-02  0.4171E-02  0.5314E-01  0.5314E-01
     -0.617  0.4175E-02  0.4175E-02  0.5335E-01  0.5335E-01
     -0.567  0.4189E-02  0.4189E-02  0.5355E-01  0.5355E-01
     -0.518  0.4119E-02  0.4118E-02  0.5376E-01  0.5376E-01
     -0.468  0.4021E-02  0.4020E-02  0.5396E-01  0.5396E-01
     -0.419  0.4033E-02  0.4031E-02  0.5416E-01  0.5416E-01
     -0.369  0.4137E-02  0.4136E-02  0.5436E-01  0.5436E-01
     -0.320  0.4081E-02  0.4083E-02  0.5456E-01  0.5456E-01
     -0.270  0.3592E-02  0.3596E-02  0.5474E-01  0.5474E-01
     -0.221  0.2683E-02  0.2686E-02  0.5487E-01  0.5487E-01
     -0.171  0.1735E-02  0.1730E-02  0.5496E-01  0.5496E-01
     -0.122  0.1265E-02  0.1248E-02  0.5502E-01  0.5502E-01
     -0.072  0.1568E-02  0.1539E-02  0.5510E-01  0.5510E-01
     -0.023  0.2492E-02  0.2460E-02  0.5522E-01  0.5522E-01
      0.027  0.3511E-02  0.3488E-02  0.5540E-01  0.5539E-01
      0.076  0.4033E-02  0.4031E-02  0.5560E-01  0.5559E-01
      0.126  0.3753E-02  0.3773E-02  0.5578E-01  0.5578E-01
      0.175  0.2805E-02  0.2836E-02  0.5592E-01  0.5592E-01
      0.225  0.1616E-02  0.1648E-02  0.5600E-01  0.5600E-01
      0.274  0.6181E-03  0.6402E-03  0.5603E-01  0.5603E-01
      0.324  0.2095E-04  0.3170E-04  0.5603E-01  0.5603E-01
      0.373 -0.2055E-03 -0.2030E-03  0.5602E-01  0.5602E-01
      0.423 -0.2117E-03 -0.2131E-03  0.5601E-01  0.5601E-01
      0.472 -0.1411E-03 -0.1432E-03  0.5601E-01  0.5601E-01
      0.522 -0.7326E-04 -0.7477E-04  0.5600E-01  0.5600E-01
      0.571 -0.3136E-04 -0.3216E-04  0.5600E-01  0.5600E-01
      0.621 -0.1135E-04 -0.1169E-04  0.5600E-01  0.5600E-01
      0.670 -0.3523E-05 -0.3643E-05  0.5600E-01  0.5600E-01
      0.720 -0.9448E-06 -0.9808E-06  0.5600E-01  0.5600E-01
      0.769 -0.2202E-06 -0.2294E-06  0.5600E-01  0.5600E-01
      0.819 -0.4476E-07 -0.4680E-07  0.5600E-01  0.5600E-01
      0.868 -0.7955E-08 -0.8349E-08  0.5600E-01  0.5600E-01
      0.918 -0.1239E-08 -0.1305E-08  0.5600E-01  0.5600E-01
      0.967 -0.1693E-09 -0.1790E-09  0.5600E-01  0.5600E-01
      1.017 -0.2033E-10 -0.2157E-10  0.5600E-01  0.5600E-01
      1.066 -0.2148E-11 -0.2286E-11  0.5600E-01  0.5600E-01
      1.116 -0.1996E-12 -0.2132E-12  0.5600E-01  0.5600E-01
      1.165 -0.1634E-13 -0.1751E-13  0.5600E-01  0.5600E-01
      1.215 -0.1180E-14 -0.1270E-14  0.5600E-01  0.5600E-01
      1.264 -0.7626E-16 -0.8075E-16  0.5600E-01  0.5600E-01
      1.314 -0.4486E-17 -0.4486E-17  0.5600E-01  0.5600E-01
      1.363  0.0000E+00  0.0000E+00  0.5600E-01  0.5600E-01
      1.413  0.0000E+00  0.0000E+00  0.5600E-01  0.5600E-01
      1.462  0.0000E+00  0.0000E+00  0.5600E-01  0.5600E-01
      1.512  0.0000E+00  0.0000E+00  0.5600E-01  0.5600E-01
      1.561  0.0000E+00  0.0000E+00  0.5600E-01  0.5600E-01
      1.611  0.0000E+00  0.0000E+00  0.5600E-01  0.5600E-01
      1.660  0.0000E+00  0.0000E+00  0.5600E-01  0.5600E-01
      1.710  0.0000E+00  0.0000E+00  0.5600E-01  0.5600E-01
      1.759  0.0000E+00  0.0000E+00  0.5600E-01  0.5600E-01
      1.809  0.0000E+00  0.0000E+00  0.5600E-01  0.5600E-01
      1.858  0.0000E+00  0.0000E+00  0.5600E-01  0.5600E-01
      1.908  0.0000E+00  0.0000E+00  0.5600E-01  0.5600E-01
      1.957  0.0000E+00  0.0000E+00  0.5600E-01  0.5600E-01
      2.007  0.0000E+00  0.0000E+00  0.5600E-01  0.5600E-01
      2.056  0.0000E+00  0.0000E+00  0.5600E-01  0.5600E-01
