    8    8 1000    2
  0.1429823E+04  0.2196965E-08  0.2255172E-08  0.2308711E-08  0.5000000E-15
   1.0000000000000000E-004
  CAR 
 unknown system                          
     88      1     56
 
  0.1262379E-14  0.1262379E-14  0.1262379E-14  0.1000000E+01
    1      -10.793263    -10.793264   1.000000   1.000000
    2      -10.109721    -10.109721   1.000000   1.000000
    3       -9.843536     -9.843537   1.000000   1.000000
    4       -9.532928     -9.532928   1.000000   1.000000
    5       -9.295466     -9.295466   1.000000   1.000000
    6       -9.005198     -9.005198   1.000000   1.000000
    7       -8.946911     -8.946911   1.000000   1.000000
    8       -8.902515     -8.902515   1.000000   1.000000
    9       -8.647943     -8.647943   1.000000   1.000000
   10       -8.499157     -8.499157   1.000000   1.000000
   11       -8.425036     -8.425037   1.000000   1.000000
   12       -8.305536     -8.305536   1.000000   1.000000
   13       -8.102785     -8.102785   1.000000   1.000000
   14       -8.018225     -8.018226   1.000000   1.000000
   15       -7.851721     -7.851722   1.000000   1.000000
   16       -7.817919     -7.817919   1.000000   1.000000
   17       -7.687141     -7.687141   1.000000   1.000000
   18       -7.646174     -7.646174   1.000000   1.000000
   19       -7.618413     -7.618413   1.000000   1.000000
   20       -7.541254     -7.541254   1.000000   1.000000
   21       -7.401040     -7.401041   1.000000   1.000000
   22       -7.331064     -7.331065   1.000000   1.000000
   23       -7.323314     -7.323314   1.000000   1.000000
   24       -7.247797     -7.247797   1.000000   1.000000
   25       -7.104564     -7.104564   1.000000   1.000000
   26       -7.007760     -7.007760   1.000000   1.000000
   27       -6.892583     -6.892583   1.000000   1.000000
   28       -6.839725     -6.839725   1.000000   1.000000
   29       -6.810286     -6.810286   1.000000   1.000000
   30       -6.704708     -6.704709   1.000000   1.000000
   31       -6.674119     -6.674119   1.000000   1.000000
   32       -6.649084     -6.649084   1.000000   1.000000
   33       -6.627902     -6.627903   1.000000   1.000000
   34       -6.547969     -6.547969   1.000000   1.000000
   35       -6.450446     -6.450446   1.000000   1.000000
   36       -6.395085     -6.395086   1.000000   1.000000
   37       -6.351606     -6.351607   1.000000   1.000000
   38       -6.218490     -6.218490   1.000000   1.000000
   39       -6.145918     -6.145918   1.000000   1.000000
   40       -6.102490     -6.102490   1.000000   1.000000
   41       -5.936680     -5.936680   1.000000   1.000000
   42       -5.902716     -5.902716   1.000000   1.000000
   43       -5.869760     -5.869761   1.000000   1.000000
   44       -5.142711     -5.142713   0.999999   1.000001
   45       -3.906104     -3.906098  -0.000000  -0.000000
   46       -3.679297     -3.679295  -0.000000  -0.000000
   47       -3.541942     -3.541942  -0.000000  -0.000000
   48       -3.464277     -3.464279  -0.000000  -0.000000
   49       -1.585890     -1.585848  -0.000000  -0.000000
   50       -1.545840     -1.545829  -0.000000  -0.000000
   51       -1.381086     -1.380938  -0.000000  -0.000000
   52       -1.238645     -1.238591  -0.000000  -0.000000
   53       -0.825219     -0.825121  -0.000000  -0.000000
   54       -0.580297     -0.580202  -0.000000  -0.000000
   55       -0.329242     -0.329060  -0.000000  -0.000000
   56        0.054808      0.056144  -0.000000  -0.000000
