       N       E                     dE             d eps       ncg     rms          rms(c)
DAV:   1     0.740127518032E+03    0.74013E+03   -0.13251E+04   224   0.709E+02
DAV:   2     0.449953195919E+03   -0.29017E+03   -0.27168E+03   432   0.709E+01
DAV:   3     0.127678128524E+03   -0.32228E+03   -0.30232E+03   400   0.678E+01
DAV:   4     0.527795465896E+01   -0.12240E+03   -0.11812E+03   320   0.529E+01
DAV:   5    -0.149569408879E+02   -0.20235E+02   -0.18599E+02   296   0.198E+01    0.175E+01
DAV:   6    -0.608087294013E+01    0.88761E+01   -0.55878E+01   248   0.185E+01    0.124E+01
DAV:   7    -0.225515584451E+01    0.38257E+01   -0.26365E+00   256   0.575E+00    0.628E+00
DAV:   8    -0.674659686190E+01   -0.44914E+01   -0.16790E+00   256   0.382E+00    0.249E+00
DAV:   9    -0.967663207356E+01   -0.29300E+01   -0.81172E-01   248   0.254E+00    0.155E+00
DAV:  10    -0.125500994159E+02   -0.28735E+01   -0.10382E+00   240   0.272E+00    0.104E+00
DAV:  11    -0.142075768759E+02   -0.16575E+01   -0.52545E-01   240   0.174E+00    0.766E-01
DAV:  12    -0.153851289305E+02   -0.11776E+01   -0.39916E-01   224   0.151E+00    0.482E-01
DAV:  13    -0.160472322902E+02   -0.66210E+00   -0.18841E-01   224   0.101E+00    0.301E-01
DAV:  14    -0.163046672189E+02   -0.25743E+00   -0.20476E-02   264   0.399E-01    0.232E-01
DAV:  15    -0.166631437287E+02   -0.35848E+00   -0.19458E-02   240   0.362E-01    0.124E-01
DAV:  16    -0.168221242349E+02   -0.15898E+00   -0.39149E-03   248   0.216E-01    0.723E-02
DAV:  17    -0.168779057010E+02   -0.55781E-01   -0.23793E-03   200   0.113E-01    0.397E-02
DAV:  18    -0.169022941285E+02   -0.24388E-01   -0.50305E-04   192   0.475E-02    0.233E-02
DAV:  19    -0.169185645858E+02   -0.16270E-01   -0.25253E-04   168   0.342E-02    0.122E-02
DAV:  20    -0.169227856987E+02   -0.42211E-02   -0.66250E-05   152   0.185E-02    0.739E-03
DAV:  21    -0.169255951227E+02   -0.28094E-02   -0.31135E-05   160   0.129E-02    0.527E-03
DAV:  22    -0.169274919000E+02   -0.18968E-02   -0.17976E-05   168   0.103E-02    0.374E-03
DAV:  23    -0.169290889376E+02   -0.15970E-02   -0.17829E-05   160   0.923E-03    0.225E-03
DAV:  24    -0.169299639335E+02   -0.87500E-03   -0.69143E-06   176   0.588E-03    0.141E-03
DAV:  25    -0.169303125420E+02   -0.34861E-03   -0.21929E-06   160   0.398E-03    0.680E-04
DAV:  26    -0.169304002619E+02   -0.87720E-04   -0.12695E-06   160   0.257E-03
   1 F= -.16930400E+02 E0= -.16934266E+02  d E =-.169304E+02  mag=     0.0003
       N       E                     dE             d eps       ncg     rms          rms(c)
DAV:   1    -0.169306367745E+02   -0.32423E-03   -0.11882E-01   256   0.120E+00    0.346E-02
DAV:   2    -0.169307685984E+02   -0.13182E-03   -0.13623E-03   256   0.178E-01    0.265E-02
DAV:   3    -0.169307670978E+02    0.15007E-05   -0.38286E-05   160   0.302E-02
   2 F= -.16930767E+02 E0= -.16934632E+02  d E =-.366836E-03  mag=     0.0002
       N       E                     dE             d eps       ncg     rms          rms(c)
DAV:   1    -0.169308776682E+02   -0.10907E-03   -0.19863E-01   256   0.155E+00    0.488E-02
DAV:   2    -0.169310805707E+02   -0.20290E-03   -0.22538E-03   256   0.229E-01    0.363E-02
DAV:   3    -0.169310730214E+02    0.75493E-05   -0.64441E-05   160   0.388E-02
   3 F= -.16931073E+02 E0= -.16934938E+02  d E =-.672760E-03  mag=     0.0001
