 vasp.6.1.2 22Jul20 (build Aug  2 2021 21:04:21) gamma-only                      
 executed on             LinuxPGI date 2021.12.28  20:42:43
 running on    8 total cores
 distrk:  each k-point on    8 cores,    1 groups
 distr:  one band on NCORE=   8 cores,    1 groups


--------------------------------------------------------------------------------------------------------


 INCAR:
 POTCAR:    PAW_PBE Au 04Oct2007                  
 -----------------------------------------------------------------------------
|                                                                             |
|           W    W    AA    RRRRR   N    N  II  N    N   GGGG   !!!           |
|           W    W   A  A   R    R  NN   N  II  NN   N  G    G  !!!           |
|           W    W  A    A  R    R  N N  N  II  N N  N  G       !!!           |
|           W WW W  AAAAAA  RRRRR   N  N N  II  N  N N  G  GGG   !            |
|           WW  WW  A    A  R   R   N   NN  II  N   NN  G    G                |
|           W    W  A    A  R    R  N    N  II  N    N   GGGG   !!!           |
|                                                                             |
|     You use a magnetic or noncollinear calculation, but did not specify     |
|     the initial magnetic moment with the MAGMOM tag. Note that a            |
|     default of 1 will be used for all atoms. This ferromagnetic setup       |
|     may break the symmetry of the crystal, in particular it may rule        |
|     out finding an antiferromagnetic solution. Thence, we recommend         |
|     setting the initial magnetic moment manually or verifying carefully     |
|     that this magnetic setup is desired.                                    |
|                                                                             |
 -----------------------------------------------------------------------------

 -----------------------------------------------------------------------------
|                                                                             |
|           W    W    AA    RRRRR   N    N  II  N    N   GGGG   !!!           |
|           W    W   A  A   R    R  NN   N  II  NN   N  G    G  !!!           |
|           W    W  A    A  R    R  N N  N  II  N N  N  G       !!!           |
|           W WW W  AAAAAA  RRRRR   N  N N  II  N  N N  G  GGG   !            |
|           WW  WW  A    A  R   R   N   NN  II  N   NN  G    G                |
|           W    W  A    A  R    R  N    N  II  N    N   GGGG   !!!           |
|                                                                             |
|     For optimal performance we recommend to set                             |
|       NCORE = 4 - approx SQRT(number of cores).                             |
|     NCORE specifies how many cores store one orbital (NPAR=cpu/NCORE).      |
|     This setting can greatly improve the performance of VASP for DFT.       |
|     The default, NCORE=1 might be grossly inefficient on modern             |
|     multi-core architectures or massively parallel machines. Do your        |
|     own testing!!!!                                                         |
|     Unfortunately you need to use the default for GW and RPA                |
|     calculations (for HF NCORE is supported but not extensively tested      |
|     yet).                                                                   |
|                                                                             |
 -----------------------------------------------------------------------------

 POTCAR:    PAW_PBE Au 04Oct2007                  
   SHA256 =  d0044ae04e2bdce24051b198fc5c053d722a5bc6fe3c3b100514a13fc5d2db88 Au/POTCAR             
   COPYR  = (c) Copyright 04Oct2007 Georg Kresse                                                    
   COPYR  = This file is part of the software VASP. Any use, copying, and all other rights are regul
   COPYR  = If you do not have a valid VASP license, you may not use, copy or distribute this file. 
   VRHFIN =Au: s1d10                                                                                
   LEXCH  = PE                                                                                      
   EATOM  =   926.0867 eV,   68.0654 Ry                                                             
                                                                                                    
   TITEL  = PAW_PBE Au 04Oct2007                                                                    
   LULTRA =        F    use ultrasoft PP ?                                                          
   IUNSCR =        1    unscreen: 0-lin 1-nonlin 2-no                                               
   RPACOR =    2.330    partial core radius                                                         
   POMASS =  196.966; ZVAL   =   11.000    mass and valenz                                          
   RCORE  =    2.500    outmost cutoff radius                                                       
   RWIGS  =    2.840; RWIGS  =    1.503    wigner-seitz radius (au A)                               
   ENMAX  =  229.943; ENMIN  =  172.457 eV                                                          
   ICORE  =        3    local potential                                                             
   LCOR   =        T    correct aug charges                                                         
   LPAW   =        T    paw PP                                                                      
   EAUG   =  356.670                                                                                
   DEXC   =    0.000                                                                                
   RMAX   =    2.562    core radius for proj-oper                                                   
   RAUG   =    1.300    factor for augmentation sphere                                              
   RDEP   =    2.598    radius for radial grids                                                     
   RDEPT  =    2.193    core radius for aug-charge                                                  
                                                                                                    
   Atomic configuration                                                                             
   16 entries                                                                                       
     n  l   j            E        occ.                                                              
     1  0  0.50    -80748.5001   2.0000                                                             
     2  0  0.50    -14244.7466   2.0000                                                             
     2  1  1.50    -12310.9591   6.0000                                                             
     3  0  0.50     -3362.1768   2.0000                                                             
     3  1  1.50     -2801.5463   6.0000                                                             
     3  2  2.50     -2203.8206  10.0000                                                             
     4  0  0.50      -729.8168   2.0000                                                             
     4  1  1.50      -546.0527   6.0000                                                             
     4  2  2.50      -325.7302  10.0000                                                             
     4  3  3.50       -81.1472  14.0000                                                             
     5  0  0.50      -108.3201   2.0000                                                             
     5  1  1.50       -59.7479   6.0000                                                             
     5  2  2.50        -6.8783  10.0000                                                             
     6  0  0.50        -5.7602   1.0000                                                             
     6  1  1.50        -6.8029   0.0000                                                             
     5  3  2.50        -1.3606   0.0000                                                             
   Description                                                                                      
     l       E           TYP  RCUT    TYP  RCUT                                                     
     2     -6.8782861     23  2.500                                                                 
     2     -8.2388687     23  2.500                                                                 
     0     -5.7601759     23  2.500                                                                 
     0     -0.8493231     23  2.500                                                                 
     1     -2.7211652     23  2.500                                                                 
     1     27.2116520     23  2.500                                                                 
     3     -1.3605826     23  2.500                                                                 
  local pseudopotential read in
  partial core-charges read in
  partial kinetic energy density read in
  atomic valenz-charges read in
  non local Contribution for L=            2  read in
    real space projection operators read in
  non local Contribution for L=            2  read in
    real space projection operators read in
  non local Contribution for L=            0  read in
    real space projection operators read in
  non local Contribution for L=            0  read in
    real space projection operators read in
  non local Contribution for L=            1  read in
    real space projection operators read in
  non local Contribution for L=            1  read in
    real space projection operators read in
    PAW grid and wavefunctions read in
 
   number of l-projection  operators is LMAX  =            6
   number of lm-projection operators is LMMAX =           18
 
  PAW_PBE Au 04Oct2007                  :
 energy of atom  1       EATOM= -926.0867
 kinetic energy error for atom=    0.0062 (will be added to EATOM!!)
 
 
 POSCAR: Au
  positions in cartesian coordinates
  No initial velocities read in
 exchange correlation table for  LEXCH =        8
   RHO(1)=    0.500       N(1)  =     2000
   RHO(2)=  100.500       N(2)  =     4000
 


--------------------------------------------------------------------------------------------------------


 ion  position               nearest neighbor table
   1  0.398  0.527  0.481-   7 2.63   3 2.67   4 2.92   8 3.59
   2  0.576  0.619  0.600-   5 2.61   3 2.64
   3  0.497  0.580  0.523-   2 2.64   1 2.67   4 2.77   5 2.78   7 2.94   8 2.96
   4  0.498  0.559  0.405-   8 2.60   3 2.77   1 2.92
   5  0.577  0.505  0.581-   2 2.61   6 2.66   3 2.78   8 2.84   7 2.86
   6  0.565  0.393  0.547-   5 2.66   8 2.69   7 2.75
   7  0.460  0.459  0.554-   1 2.63   6 2.75   5 2.86   8 2.92   3 2.94
   8  0.552  0.476  0.464-   4 2.60   6 2.69   5 2.84   7 2.92   3 2.96   1 3.59
 

IMPORTANT INFORMATION: All symmetrisations will be switched off!
NOSYMM: (Re-)initialisation of all symmetry stuff for point group C_1.


----------------------------------------------------------------------------------------

                                     Primitive cell                                     

  volume of cell :   11438.5855

  direct lattice vectors                    reciprocal lattice vectors
    21.969645825  0.000000000  0.000000000     0.045517347  0.000000000  0.000000000
     0.000000000 22.551716949  0.000000000     0.000000000  0.044342522  0.000000000
     0.000000000  0.000000000 23.087114478     0.000000000  0.000000000  0.043314205

  length of vectors
    21.969645825 22.551716949 23.087114478     0.045517347  0.044342522  0.043314205

  position of ions in fractional coordinates (direct lattice)
     0.397734705  0.526608005  0.481450987
     0.575758687  0.619294070  0.600229775
     0.497250800  0.579947893  0.522738975
     0.497870208  0.558538548  0.404595344
     0.577271894  0.505100061  0.581051789
     0.564697952  0.392975766  0.547087910
     0.459563459  0.459077388  0.553533027
     0.551757307  0.475809640  0.464122865

  ion indices of the primitive-cell ions
   primitive index   ion index
                 1           1
                 2           2
                 3           3
                 4           4
                 5           5
                 6           6
                 7           7
                 8           8

----------------------------------------------------------------------------------------

 
 
 KPOINTS: KPOINTS created by Atomic Simulation Env

Automatic generation of k-mesh.
Space group operators:
 irot       det(A)        alpha          n_x          n_y          n_z        tau_x        tau_y        tau_z
    1     1.000000     0.000000     1.000000     0.000000     0.000000     0.000000     0.000000     0.000000
 
 Subroutine IBZKPT returns following result:
 ===========================================
 
 Found      1 irreducible k-points:
 
 Following reciprocal coordinates:
            Coordinates               Weight
  0.000000  0.000000  0.000000      1.000000
 
 Following cartesian coordinates:
            Coordinates               Weight
  0.000000  0.000000  0.000000      1.000000
 


--------------------------------------------------------------------------------------------------------




 Dimension of arrays:
   k-points           NKPTS =      1   k-points in BZ     NKDIM =      1   number of bands    NBANDS=     56
   number of dos      NEDOS =    301   number of ions     NIONS =      8
   non local maximal  LDIM  =      6   non local SUM 2l+1 LMDIM =     18
   total plane-waves  NPLWV = ******
   max r-space proj   IRMAX =      1   max aug-charges    IRDMAX=   7959
   dimension x,y,z NGX =   108 NGY =  112 NGZ =  120
   dimension x,y,z NGXF=   216 NGYF=  224 NGZF=  240
   support grid    NGXF=   216 NGYF=  224 NGZF=  240
   ions per type =               8
   NGX,Y,Z   is equivalent  to a cutoff of   8.17,  8.26,  8.64 a.u.
   NGXF,Y,Z  is equivalent  to a cutoff of  16.34, 16.51, 17.28 a.u.

 SYSTEM =  unknown system                          
 POSCAR =  Au                                      

 Startparameter for this run:
   NWRITE =      2    write-flag & timer
   PREC   = normal    normal or accurate (medium, high low for compatibility)
   ISTART =      0    job   : 0-new  1-cont  2-samecut
   ICHARG =      2    charge: 1-file 2-atom 10-const
   ISPIN  =      2    spin polarized calculation?
   LNONCOLLINEAR =      F non collinear calculations
   LSORBIT =      F    spin-orbit coupling
   INIWAV =      1    electr: 0-lowe 1-rand  2-diag
   LASPH  =      F    aspherical Exc in radial PAW
   METAGGA=      F    non-selfconsistent MetaGGA calc.

 Electronic Relaxation 1
   ENCUT  =  400.0 eV  29.40 Ry    5.42 a.u.  35.83 36.78 37.65*2*pi/ulx,y,z
   ENINI  =  400.0     initial cutoff
   ENAUG  =  356.7 eV  augmentation charge cutoff
   NELM   =     60;   NELMIN=  2; NELMDL=  0     # of ELM steps 
   EDIFF  = 0.1E-03   stopping-criterion for ELM
   LREAL  =      F    real-space projection
   NLSPLINE    = F    spline interpolate recip. space projectors
   LCOMPAT=      F    compatible to vasp.4.4
   GGA_COMPAT  = T    GGA compatible to vasp.4.4-vasp.4.6
   LMAXPAW     = -100 max onsite density
   LMAXMIX     =    2 max onsite mixed and CHGCAR
   VOSKOWN=      0    Vosko Wilk Nusair interpolation
   ROPT   =    0.00000
 Ionic relaxation
   EDIFFG = 0.1E-02   stopping-criterion for IOM
   NSW    =   1000    number of steps for IOM
   NBLOCK =      1;   KBLOCK =   1000    inner block; outer block 
   IBRION =      2    ionic relax: 0-MD 1-quasi-New 2-CG
   NFREE  =      1    steps in history (QN), initial steepest desc. (CG)
   ISIF   =      0    stress and relaxation
   IWAVPR =     11    prediction:  0-non 1-charg 2-wave 3-comb
   ISYM   =      0    0-nonsym 1-usesym 2-fastsym
   LCORR  =      T    Harris-Foulkes like correction to forces

   POTIM  = 0.5000    time-step for ionic-motion
   TEIN   =    0.0    initial temperature
   TEBEG  =    0.0;   TEEND  =   0.0 temperature during run
   SMASS  =  -3.00    Nose mass-parameter (am)
   estimated Nose-frequenzy (Omega)   =  0.10E-29 period in steps = 0.13E+47 mass=  -0.110E-25a.u.
   SCALEE = 1.0000    scale energy and forces
   NPACO  =    256;   APACO  = 16.0  distance and # of slots for P.C.
   PSTRESS=    0.0 pullay stress

  Mass of Ions in am
   POMASS = 196.97
  Ionic Valenz
   ZVAL   =  11.00
  Atomic Wigner-Seitz radii
   RWIGS  =  -1.00
  virtual crystal weights 
   VCA    =   1.00
   NELECT =      88.0000    total number of electrons
   NUPDOWN=      -1.0000    fix difference up-down

 DOS related values:
   EMIN   =  10.00;   EMAX   =-10.00  energy-range for DOS
   EFERMI =   0.00
   ISMEAR =     1;   SIGMA  =   0.20  broadening in eV -4-tet -1-fermi 0-gaus

 Electronic relaxation 2 (details)
   IALGO  =     38    algorithm
   LDIAG  =      T    sub-space diagonalisation (order eigenvalues)
   LSUBROT=      F    optimize rotation matrix (better conditioning)
   TURBO    =      0    0=normal 1=particle mesh
   IRESTART =      0    0=no restart 2=restart with 2 vectors
   NREBOOT  =      0    no. of reboots
   NMIN     =      0    reboot dimension
   EREF     =   0.00    reference energy to select bands
   IMIX   =      4    mixing-type and parameters
     AMIX     =   0.40;   BMIX     =  1.00
     AMIX_MAG =   1.60;   BMIX_MAG =  1.00
     AMIN     =   0.10
     WC   =   100.;   INIMIX=   1;  MIXPRE=   1;  MAXMIX= -45

 Intra band minimization:
   WEIMIN = 0.0010     energy-eigenvalue tresh-hold
   EBREAK =  0.45E-06  absolut break condition
   DEPER  =   0.30     relativ break condition  

   TIME   =   0.40     timestep for ELM

  volume/ion in A,a.u.               =    1429.82      9648.92
  Fermi-wavevector in a.u.,A,eV,Ry     =   0.323180  0.610722  1.421068  0.104446
  Thomas-Fermi vector in A             =   1.212206
 
 Write flags
   LWAVE        =      F    write WAVECAR
   LDOWNSAMPLE  =      F    k-point downsampling of WAVECAR
   LCHARG       =      F    write CHGCAR
   LVTOT        =      F    write LOCPOT, total local potential
   LVHAR        =      F    write LOCPOT, Hartree potential only
   LELF         =      F    write electronic localiz. function (ELF)
   LORBIT       =      0    0 simple, 1 ext, 2 COOP (PROOUT), +10 PAW based schemes


 Dipole corrections
   LMONO  =      F    monopole corrections only (constant potential shift)
   LDIPOL =      F    correct potential (dipole corrections)
   IDIPOL =      0    1-x, 2-y, 3-z, 4-all directions 
   EPSILON=  1.0000000 bulk dielectric constant

 Exchange correlation treatment:
   GGA     =    PE    GGA type
   LEXCH   =     8    internal setting for exchange type
   VOSKOWN=      0    Vosko Wilk Nusair interpolation
   LHFCALC =     F    Hartree Fock is set to
   LHFONE  =     F    Hartree Fock one center treatment
   AEXX    =    0.0000 exact exchange contribution

 Linear response parameters
   LEPSILON=     F    determine dielectric tensor
   LRPA    =     F    only Hartree local field effects (RPA)
   LNABLA  =     F    use nabla operator in PAW spheres
   LVEL    =     F    velocity operator in full k-point grid
   LINTERFAST=   F  fast interpolation
   KINTER  =     0    interpolate to denser k-point grid
   CSHIFT  =0.1000    complex shift for real part using Kramers Kronig
   OMEGAMAX=  -1.0    maximum frequency
   DEG_THRESHOLD= 0.2000000E-02 threshold for treating states as degnerate
   RTIME   =   -0.100 relaxation time in fs
  (WPLASMAI=    0.000 imaginary part of plasma frequency in eV, 0.658/RTIME)
   DFIELD  = 0.0000000 0.0000000 0.0000000 field for delta impulse in time
 
 Orbital magnetization related:
   ORBITALMAG=     F  switch on orbital magnetization
   LCHIMAG   =     F  perturbation theory with respect to B field
   DQ        =  0.001000  dq finite difference perturbation B field
   LLRAUG    =     F  two centre corrections for induced B field



--------------------------------------------------------------------------------------------------------


 conjugate gradient relaxation of ions
 charge density and potential will be updated during run
 spin polarized calculation
 Variant of blocked Davidson
 Davidson routine will perform the subspace rotation
 perform sub-space diagonalisation
    after iterative eigenvector-optimisation
 modified Broyden-mixing scheme, WC =      100.0
 initial mixing is a Kerker type mixing with AMIX =  0.4000 and BMIX =      1.0000
 Hartree-type preconditioning will be used
 using additional bands            12
 reciprocal scheme for non local part
 use partial core corrections
 calculate Harris-corrections to forces 
   (improved forces if not selfconsistent)
 use gradient corrections 
 use of overlap-Matrix (Vanderbilt PP)
 Methfessel and Paxton  Order N= 1 SIGMA  =   0.20


--------------------------------------------------------------------------------------------------------


  energy-cutoff  :      400.00
  volume of cell :    11438.59
      direct lattice vectors                 reciprocal lattice vectors
    21.969645825  0.000000000  0.000000000     0.045517347  0.000000000  0.000000000
     0.000000000 22.551716949  0.000000000     0.000000000  0.044342522  0.000000000
     0.000000000  0.000000000 23.087114478     0.000000000  0.000000000  0.043314205

  length of vectors
    21.969645825 22.551716949 23.087114478     0.045517347  0.044342522  0.043314205


 
 k-points in units of 2pi/SCALE and weight: KPOINTS created by Atomic Simulation Env
   0.00000000  0.00000000  0.00000000       1.000
 
 k-points in reciprocal lattice and weights: KPOINTS created by Atomic Simulation Env
   0.00000000  0.00000000  0.00000000       1.000
 
 position of ions in fractional coordinates (direct lattice) 
   0.39773471  0.52660801  0.48145099
   0.57575869  0.61929407  0.60022978
   0.49725080  0.57994789  0.52273898
   0.49787021  0.55853855  0.40459534
   0.57727189  0.50510006  0.58105179
   0.56469795  0.39297577  0.54708791
   0.45956346  0.45907739  0.55353303
   0.55175731  0.47580964  0.46412287
 
 position of ions in cartesian coordinates  (Angst):
   8.73809060 11.87591468 11.11531404
  12.64921444 13.96614457 13.85757354
  10.92442396 13.07882072 12.06853457
  10.93803213 12.59600324  9.34093903
  12.68245905 11.39087362 13.41480916
  12.40621401  8.86227824 12.63068122
  10.09644643 10.35298330 12.77948036
  12.12191263 10.73032432 10.71525772
 


--------------------------------------------------------------------------------------------------------


 use parallel FFT for orbitals z direction half grid
 k-point   1 :   0.0000 0.0000 0.0000  plane waves:  103907

 maximum and minimum number of plane-waves per node :     12998    12981

 maximum number of plane-waves:    103907
 maximum index in each direction: 
   IXMAX=   35   IYMAX=   36   IZMAX=   37
   IXMIN=  -35   IYMIN=  -36   IZMIN=    0


 parallel 3D FFT for wavefunctions:
    minimum data exchange during FFTs selected (reduces bandwidth)
 parallel 3D FFT for charge:
    minimum data exchange during FFTs selected (reduces bandwidth)


 total amount of memory used by VASP MPI-rank0   230258. kBytes
=======================================================================

   base      :      30000. kBytes
   nonl-proj :       3532. kBytes
   fftplans  :      53134. kBytes
   grid      :     120289. kBytes
   one-center:         15. kBytes
   wavefun   :      23288. kBytes
 
     INWAV:  cpu time    0.0000: real time    0.0000
 Broyden mixing: mesh for mixing (old mesh)
   NGX = 71   NGY = 73   NGZ = 75
  (NGX  =216   NGY  =224   NGZ  =240)
  gives a total of 388725 points

 initial charge density was supplied:
 charge density of overlapping atoms calculated
 number of electron      88.0000000 magnetization       8.0000000
 keeping initial charge density in first step


--------------------------------------------------------------------------------------------------------


 Maximum index for augmentation-charges           987 (set IRDMAX)


--------------------------------------------------------------------------------------------------------


 First call to EWALD:  gamma=   0.079
 Maximum number of real-space cells 3x 3x 3
 Maximum number of reciprocal cells 3x 3x 3

    FEWALD:  cpu time    0.0010: real time    0.0010


--------------------------------------- Iteration      1(   1)  ---------------------------------------


    POTLOK:  cpu time    3.8575: real time    3.8718
    SETDIJ:  cpu time    0.0229: real time    0.0257
     EDDAV:  cpu time    6.1036: real time    6.1208
       DOS:  cpu time    0.0019: real time    0.0019
    --------------------------------------------
      LOOP:  cpu time    9.9859: real time   10.0202

 eigenvalue-minimisations  :   224
 total energy-change (2. order) : 0.7401275E+03  (-0.1325111E+04)
 number of electron      88.0000000 magnetization       8.0000000
 augmentation part       88.0000000 magnetization       8.0000000

 Free energy of the ion-electron system (eV)
  ---------------------------------------------------
  alpha Z        PSCENC =         6.51714733
  Ewald energy   TEWEN  =      7718.07322611
  -Hartree energ DENC   =    -14808.76359206
  -exchange      EXHF   =         0.00000000
  -V(xc)+E(xc)   XCENC  =       117.06777359
  PAW double counting   =      6992.17180065    -6807.49900724
  entropy T*S    EENTRO =        -0.01772002
  eigenvalues    EBANDS =       113.93373953
  atomic energy  EATOM  =      7408.64415014
  Solvation  Ediel_sol  =         0.00000000
  ---------------------------------------------------
  free energy    TOTEN  =       740.12751803 eV

  energy without entropy =      740.14523805  energy(sigma->0) =      740.13342471


--------------------------------------------------------------------------------------------------------




--------------------------------------- Iteration      1(   2)  ---------------------------------------


     EDDAV:  cpu time    9.9446: real time    9.9713
       DOS:  cpu time    0.0082: real time    0.0082
    --------------------------------------------
      LOOP:  cpu time    9.9528: real time    9.9795

 eigenvalue-minimisations  :   432
 total energy-change (2. order) :-0.2901743E+03  (-0.2716763E+03)
 number of electron      88.0000000 magnetization       8.0000000
 augmentation part       88.0000000 magnetization       8.0000000

 Free energy of the ion-electron system (eV)
  ---------------------------------------------------
  alpha Z        PSCENC =         6.51714733
  Ewald energy   TEWEN  =      7718.07322611
  -Hartree energ DENC   =    -14808.76359206
  -exchange      EXHF   =         0.00000000
  -V(xc)+E(xc)   XCENC  =       117.06777359
  PAW double counting   =      6992.17180065    -6807.49900724
  entropy T*S    EENTRO =        -0.04350707
  eigenvalues    EBANDS =      -176.21479553
  atomic energy  EATOM  =      7408.64415014
  Solvation  Ediel_sol  =         0.00000000
  ---------------------------------------------------
  free energy    TOTEN  =       449.95319592 eV

  energy without entropy =      449.99670299  energy(sigma->0) =      449.96769828


--------------------------------------------------------------------------------------------------------




--------------------------------------- Iteration      1(   3)  ---------------------------------------


     EDDAV:  cpu time    9.2950: real time    9.3163
       DOS:  cpu time    0.0009: real time    0.0009
    --------------------------------------------
      LOOP:  cpu time    9.2960: real time    9.3172

 eigenvalue-minimisations  :   400
 total energy-change (2. order) :-0.3222751E+03  (-0.3023171E+03)
 number of electron      88.0000000 magnetization       8.0000000
 augmentation part       88.0000000 magnetization       8.0000000

 Free energy of the ion-electron system (eV)
  ---------------------------------------------------
  alpha Z        PSCENC =         6.51714733
  Ewald energy   TEWEN  =      7718.07322611
  -Hartree energ DENC   =    -14808.76359206
  -exchange      EXHF   =         0.00000000
  -V(xc)+E(xc)   XCENC  =       117.06777359
  PAW double counting   =      6992.17180065    -6807.49900724
  entropy T*S    EENTRO =        -0.00190057
  eigenvalues    EBANDS =      -498.53146943
  atomic energy  EATOM  =      7408.64415014
  Solvation  Ediel_sol  =         0.00000000
  ---------------------------------------------------
  free energy    TOTEN  =       127.67812852 eV

  energy without entropy =      127.68002909  energy(sigma->0) =      127.67876205


--------------------------------------------------------------------------------------------------------




--------------------------------------- Iteration      1(   4)  ---------------------------------------


     EDDAV:  cpu time    7.7237: real time    7.7409
       DOS:  cpu time    0.0014: real time    0.0014
    --------------------------------------------
      LOOP:  cpu time    7.7251: real time    7.7423

 eigenvalue-minimisations  :   320
 total energy-change (2. order) :-0.1224002E+03  (-0.1181197E+03)
 number of electron      88.0000000 magnetization       8.0000000
 augmentation part       88.0000000 magnetization       8.0000000

 Free energy of the ion-electron system (eV)
  ---------------------------------------------------
  alpha Z        PSCENC =         6.51714733
  Ewald energy   TEWEN  =      7718.07322611
  -Hartree energ DENC   =    -14808.76359206
  -exchange      EXHF   =         0.00000000
  -V(xc)+E(xc)   XCENC  =       117.06777359
  PAW double counting   =      6992.17180065    -6807.49900724
  entropy T*S    EENTRO =         0.01294273
  eigenvalues    EBANDS =      -620.94648659
  atomic energy  EATOM  =      7408.64415014
  Solvation  Ediel_sol  =         0.00000000
  ---------------------------------------------------
  free energy    TOTEN  =         5.27795466 eV

  energy without entropy =        5.26501193  energy(sigma->0) =        5.27364042


--------------------------------------------------------------------------------------------------------




--------------------------------------- Iteration      1(   5)  ---------------------------------------


     EDDAV:  cpu time    7.2679: real time    7.2878
       DOS:  cpu time    0.0017: real time    0.0017
    CHARGE:  cpu time    0.7688: real time    0.7704
    MIXING:  cpu time    0.0602: real time    0.0602
    --------------------------------------------
      LOOP:  cpu time    8.0986: real time    8.1201

 eigenvalue-minimisations  :   296
 total energy-change (2. order) :-0.2023490E+02  (-0.1859931E+02)
 number of electron      88.0000008 magnetization       7.2126060
 augmentation part       31.1463253 magnetization       6.7877442

 Broyden mixing:
  rms(total) = 0.17451E+01    rms(broyden)= 0.17451E+01
  rms(prec ) = 0.17733E+01
  weight for this iteration     100.00

 Free energy of the ion-electron system (eV)
  ---------------------------------------------------
  alpha Z        PSCENC =         6.51714733
  Ewald energy   TEWEN  =      7718.07322611
  -Hartree energ DENC   =    -14808.76359206
  -exchange      EXHF   =         0.00000000
  -V(xc)+E(xc)   XCENC  =       117.06777359
  PAW double counting   =      6992.17180065    -6807.49900724
  entropy T*S    EENTRO =        -0.02360032
  eigenvalues    EBANDS =      -641.14483908
  atomic energy  EATOM  =      7408.64415014
  Solvation  Ediel_sol  =         0.00000000
  ---------------------------------------------------
  free energy    TOTEN  =       -14.95694089 eV

  energy without entropy =      -14.93334057  energy(sigma->0) =      -14.94907411


--------------------------------------------------------------------------------------------------------




--------------------------------------- Iteration      1(   6)  ---------------------------------------


    POTLOK:  cpu time    3.8676: real time    3.8823
    SETDIJ:  cpu time    0.0263: real time    0.0264
     EDDAV:  cpu time    6.3591: real time    6.3736
       DOS:  cpu time    0.0073: real time    0.0073
    CHARGE:  cpu time    0.8038: real time    0.8056
    MIXING:  cpu time    0.0674: real time    0.0675
    --------------------------------------------
      LOOP:  cpu time   11.1316: real time   11.1628

 eigenvalue-minimisations  :   248
 total energy-change (2. order) : 0.8876068E+01  (-0.5587842E+01)
 number of electron      88.0000008 magnetization       6.4148425
 augmentation part       32.5239011 magnetization       6.0630056

 Broyden mixing:
  rms(total) = 0.12372E+01    rms(broyden)= 0.12372E+01
  rms(prec ) = 0.12435E+01
  weight for this iteration     100.00

 eigenvalues of (default mixing * dielectric matrix)
  average eigenvalue GAMMA=   0.9020
  0.9020

 Free energy of the ion-electron system (eV)
  ---------------------------------------------------
  alpha Z        PSCENC =         6.51714733
  Ewald energy   TEWEN  =      7718.07322611
  -Hartree energ DENC   =    -14754.49319282
  -exchange      EXHF   =         0.00000000
  -V(xc)+E(xc)   XCENC  =       122.20857994
  PAW double counting   =      7268.62589358    -7091.28027852
  entropy T*S    EENTRO =         0.02793465
  eigenvalues    EBANDS =      -684.40433335
  atomic energy  EATOM  =      7408.64415014
  Solvation  Ediel_sol  =         0.00000000
  ---------------------------------------------------
  free energy    TOTEN  =        -6.08087294 eV

  energy without entropy =       -6.10880759  energy(sigma->0) =       -6.09018449


--------------------------------------------------------------------------------------------------------




--------------------------------------- Iteration      1(   7)  ---------------------------------------


    POTLOK:  cpu time    3.8362: real time    3.8535
    SETDIJ:  cpu time    0.0256: real time    0.0257
     EDDAV:  cpu time    6.5247: real time    6.5459
       DOS:  cpu time    0.0027: real time    0.0027
    CHARGE:  cpu time    0.7528: real time    0.7546
    MIXING:  cpu time    0.0722: real time    0.0723
    --------------------------------------------
      LOOP:  cpu time   11.2143: real time   11.2547

 eigenvalue-minimisations  :   256
 total energy-change (2. order) : 0.3825717E+01  (-0.2636520E+00)
 number of electron      88.0000008 magnetization       5.2769770
 augmentation part       32.4125785 magnetization       4.8725016

 Broyden mixing:
  rms(total) = 0.62757E+00    rms(broyden)= 0.62757E+00
  rms(prec ) = 0.63158E+00
  weight for this iteration     100.00

 eigenvalues of (default mixing * dielectric matrix)
  average eigenvalue GAMMA=   1.0906
  1.4747  0.7066

 Free energy of the ion-electron system (eV)
  ---------------------------------------------------
  alpha Z        PSCENC =         6.51714733
  Ewald energy   TEWEN  =      7718.07322611
  -Hartree energ DENC   =    -14776.60026365
  -exchange      EXHF   =         0.00000000
  -V(xc)+E(xc)   XCENC  =       125.93031069
  PAW double counting   =      7516.10474077    -7341.34324786
  entropy T*S    EENTRO =         0.02440289
  eigenvalues    EBANDS =      -659.60562226
  atomic energy  EATOM  =      7408.64415014
  Solvation  Ediel_sol  =         0.00000000
  ---------------------------------------------------
  free energy    TOTEN  =        -2.25515584 eV

  energy without entropy =       -2.27955873  energy(sigma->0) =       -2.26329014


--------------------------------------------------------------------------------------------------------




--------------------------------------- Iteration      1(   8)  ---------------------------------------


    POTLOK:  cpu time    3.8759: real time    3.8901
    SETDIJ:  cpu time    0.0259: real time    0.0259
     EDDAV:  cpu time    6.5390: real time    6.5512
       DOS:  cpu time    0.0010: real time    0.0010
    CHARGE:  cpu time    0.7548: real time    0.7568
    MIXING:  cpu time    0.0753: real time    0.0755
    --------------------------------------------
      LOOP:  cpu time   11.2719: real time   11.3006

 eigenvalue-minimisations  :   256
 total energy-change (2. order) :-0.4491441E+01  (-0.1678996E+00)
 number of electron      88.0000008 magnetization       4.6457161
 augmentation part       32.2636419 magnetization       4.2990870

 Broyden mixing:
  rms(total) = 0.24896E+00    rms(broyden)= 0.24896E+00
  rms(prec ) = 0.25154E+00
  weight for this iteration     100.00

 eigenvalues of (default mixing * dielectric matrix)
  average eigenvalue GAMMA=   1.1698
  1.8085  1.0577  0.6432

 Free energy of the ion-electron system (eV)
  ---------------------------------------------------
  alpha Z        PSCENC =         6.51714733
  Ewald energy   TEWEN  =      7718.07322611
  -Hartree energ DENC   =    -14797.84449096
  -exchange      EXHF   =         0.00000000
  -V(xc)+E(xc)   XCENC  =       122.83285541
  PAW double counting   =      7776.21558862    -7604.03947984
  entropy T*S    EENTRO =         0.00893175
  eigenvalues    EBANDS =      -637.15452543
  atomic energy  EATOM  =      7408.64415014
  Solvation  Ediel_sol  =         0.00000000
  ---------------------------------------------------
  free energy    TOTEN  =        -6.74659686 eV

  energy without entropy =       -6.75552861  energy(sigma->0) =       -6.74957411


--------------------------------------------------------------------------------------------------------




--------------------------------------- Iteration      1(   9)  ---------------------------------------


    POTLOK:  cpu time    3.8153: real time    3.8228
    SETDIJ:  cpu time    0.0275: real time    0.0275
     EDDAV:  cpu time    6.3672: real time    6.3821
       DOS:  cpu time    0.0026: real time    0.0026
    CHARGE:  cpu time    0.7981: real time    0.8012
    MIXING:  cpu time    0.0804: real time    0.0804
    --------------------------------------------
      LOOP:  cpu time   11.0909: real time   11.1165

 eigenvalue-minimisations  :   248
 total energy-change (2. order) :-0.2930035E+01  (-0.8117215E-01)
 number of electron      88.0000008 magnetization       3.7781142
 augmentation part       32.2718999 magnetization       3.5130661

 Broyden mixing:
  rms(total) = 0.15458E+00    rms(broyden)= 0.15458E+00
  rms(prec ) = 0.15690E+00
  weight for this iteration     100.00

 eigenvalues of (default mixing * dielectric matrix)
  average eigenvalue GAMMA=   1.2385
  2.1064  1.3707  0.8529  0.6241

 Free energy of the ion-electron system (eV)
  ---------------------------------------------------
  alpha Z        PSCENC =         6.51714733
  Ewald energy   TEWEN  =      7718.07322611
  -Hartree energ DENC   =    -14797.62269763
  -exchange      EXHF   =         0.00000000
  -V(xc)+E(xc)   XCENC  =       120.58590501
  PAW double counting   =      7822.43835520    -7650.95120777
  entropy T*S    EENTRO =         0.00593534
  eigenvalues    EBANDS =      -637.36744581
  atomic energy  EATOM  =      7408.64415014
  Solvation  Ediel_sol  =         0.00000000
  ---------------------------------------------------
  free energy    TOTEN  =        -9.67663207 eV

  energy without entropy =       -9.68256741  energy(sigma->0) =       -9.67861052


--------------------------------------------------------------------------------------------------------




--------------------------------------- Iteration      1(  10)  ---------------------------------------


    POTLOK:  cpu time    3.8315: real time    3.8451
    SETDIJ:  cpu time    0.0246: real time    0.0246
     EDDAV:  cpu time    6.2021: real time    6.2156
       DOS:  cpu time    0.0029: real time    0.0029
    CHARGE:  cpu time    0.8039: real time    0.8061
    MIXING:  cpu time    0.0869: real time    0.0870
    --------------------------------------------
      LOOP:  cpu time   10.9518: real time   10.9813

 eigenvalue-minimisations  :   240
 total energy-change (2. order) :-0.2873467E+01  (-0.1038215E+00)
 number of electron      88.0000008 magnetization       3.0074922
 augmentation part       32.3179021 magnetization       2.8419343

 Broyden mixing:
  rms(total) = 0.10387E+00    rms(broyden)= 0.10387E+00
  rms(prec ) = 0.10506E+00
  weight for this iteration     100.00

 eigenvalues of (default mixing * dielectric matrix)
  average eigenvalue GAMMA=   1.2845
  2.5839  1.4884  0.8539  0.8539  0.6424

 Free energy of the ion-electron system (eV)
  ---------------------------------------------------
  alpha Z        PSCENC =         6.51714733
  Ewald energy   TEWEN  =      7718.07322611
  -Hartree energ DENC   =    -14793.79809557
  -exchange      EXHF   =         0.00000000
  -V(xc)+E(xc)   XCENC  =       118.27459278
  PAW double counting   =      7827.58643563    -7656.56889147
  entropy T*S    EENTRO =         0.00698903
  eigenvalues    EBANDS =      -641.28565339
  atomic energy  EATOM  =      7408.64415014
  Solvation  Ediel_sol  =         0.00000000
  ---------------------------------------------------
  free energy    TOTEN  =       -12.55009942 eV

  energy without entropy =      -12.55708844  energy(sigma->0) =      -12.55242909


--------------------------------------------------------------------------------------------------------




--------------------------------------- Iteration      1(  11)  ---------------------------------------


    POTLOK:  cpu time    3.8154: real time    3.8282
    SETDIJ:  cpu time    0.0257: real time    0.0257
     EDDAV:  cpu time    6.1744: real time    6.1868
       DOS:  cpu time    0.0079: real time    0.0100
    CHARGE:  cpu time    0.7753: real time    0.7769
    MIXING:  cpu time    0.0937: real time    0.0938
    --------------------------------------------
      LOOP:  cpu time   10.8922: real time   10.9214

 eigenvalue-minimisations  :   240
 total energy-change (2. order) :-0.1657477E+01  (-0.5254525E-01)
 number of electron      88.0000008 magnetization       2.0967043
 augmentation part       32.3331685 magnetization       1.9568151

 Broyden mixing:
  rms(total) = 0.76629E-01    rms(broyden)= 0.76628E-01
  rms(prec ) = 0.77852E-01
  weight for this iteration     100.00

 eigenvalues of (default mixing * dielectric matrix)
  average eigenvalue GAMMA=   1.3763
  2.8318  1.8711  1.1141  1.1141  0.6633  0.6633

 Free energy of the ion-electron system (eV)
  ---------------------------------------------------
  alpha Z        PSCENC =         6.51714733
  Ewald energy   TEWEN  =      7718.07322611
  -Hartree energ DENC   =    -14791.51978584
  -exchange      EXHF   =         0.00000000
  -V(xc)+E(xc)   XCENC  =       116.91723709
  PAW double counting   =      7814.45785803    -7643.51239908
  entropy T*S    EENTRO =         0.01095837
  eigenvalues    EBANDS =      -643.79596904
  atomic energy  EATOM  =      7408.64415014
  Solvation  Ediel_sol  =         0.00000000
  ---------------------------------------------------
  free energy    TOTEN  =       -14.20757688 eV

  energy without entropy =      -14.21853525  energy(sigma->0) =      -14.21122967


--------------------------------------------------------------------------------------------------------




--------------------------------------- Iteration      1(  12)  ---------------------------------------


    POTLOK:  cpu time    3.8532: real time    3.8637
    SETDIJ:  cpu time    0.0261: real time    0.0261
     EDDAV:  cpu time    5.9192: real time    5.9390
       DOS:  cpu time    0.0082: real time    0.0082
    CHARGE:  cpu time    0.7473: real time    0.7492
    MIXING:  cpu time    0.0967: real time    0.0970
    --------------------------------------------
      LOOP:  cpu time   10.6506: real time   10.6832

 eigenvalue-minimisations  :   224
 total energy-change (2. order) :-0.1177552E+01  (-0.3991601E-01)
 number of electron      88.0000008 magnetization       1.2694760
 augmentation part       32.3452696 magnetization       1.1494171

 Broyden mixing:
  rms(total) = 0.48241E-01    rms(broyden)= 0.48240E-01
  rms(prec ) = 0.49238E-01
  weight for this iteration     100.00

 eigenvalues of (default mixing * dielectric matrix)
  average eigenvalue GAMMA=   1.5626
  3.9858  2.4154  1.2054  1.2054  0.8128  0.6390  0.6745

 Free energy of the ion-electron system (eV)
  ---------------------------------------------------
  alpha Z        PSCENC =         6.51714733
  Ewald energy   TEWEN  =      7718.07322611
  -Hartree energ DENC   =    -14787.51949112
  -exchange      EXHF   =         0.00000000
  -V(xc)+E(xc)   XCENC  =       115.86555873
  PAW double counting   =      7779.94100748    -7608.71565675
  entropy T*S    EENTRO =         0.01290303
  eigenvalues    EBANDS =      -648.20397390
  atomic energy  EATOM  =      7408.64415014
  Solvation  Ediel_sol  =         0.00000000
  ---------------------------------------------------
  free energy    TOTEN  =       -15.38512893 eV

  energy without entropy =      -15.39803196  energy(sigma->0) =      -15.38942994


--------------------------------------------------------------------------------------------------------




--------------------------------------- Iteration      1(  13)  ---------------------------------------


    POTLOK:  cpu time    3.8685: real time    3.8831
    SETDIJ:  cpu time    0.0244: real time    0.0244
     EDDAV:  cpu time    5.8296: real time    5.8413
       DOS:  cpu time    0.0080: real time    0.0080
    CHARGE:  cpu time    0.7879: real time    0.7897
    MIXING:  cpu time    0.1034: real time    0.1035
    --------------------------------------------
      LOOP:  cpu time   10.6217: real time   10.6501

 eigenvalue-minimisations  :   224
 total energy-change (2. order) :-0.6621034E+00  (-0.1884076E-01)
 number of electron      88.0000008 magnetization       0.8895066
 augmentation part       32.3578128 magnetization       0.8190313

 Broyden mixing:
  rms(total) = 0.30101E-01    rms(broyden)= 0.30101E-01
  rms(prec ) = 0.30967E-01
  weight for this iteration     100.00

 eigenvalues of (default mixing * dielectric matrix)
  average eigenvalue GAMMA=   1.6023
  4.7922  2.3869  1.5719  1.0142  1.0142  0.7387  0.6475  0.6529

 Free energy of the ion-electron system (eV)
  ---------------------------------------------------
  alpha Z        PSCENC =         6.51714733
  Ewald energy   TEWEN  =      7718.07322611
  -Hartree energ DENC   =    -14783.51586996
  -exchange      EXHF   =         0.00000000
  -V(xc)+E(xc)   XCENC  =       115.19966127
  PAW double counting   =      7760.38184688    -7588.95255803
  entropy T*S    EENTRO =         0.01218948
  eigenvalues    EBANDS =      -652.40702552
  atomic energy  EATOM  =      7408.64415014
  Solvation  Ediel_sol  =         0.00000000
  ---------------------------------------------------
  free energy    TOTEN  =       -16.04723229 eV

  energy without entropy =      -16.05942177  energy(sigma->0) =      -16.05129545


--------------------------------------------------------------------------------------------------------




--------------------------------------- Iteration      1(  14)  ---------------------------------------


    POTLOK:  cpu time    3.8280: real time    3.8505
    SETDIJ:  cpu time    0.0255: real time    0.0261
     EDDAV:  cpu time    6.6514: real time    6.6678
       DOS:  cpu time    0.0083: real time    0.0083
    CHARGE:  cpu time    0.7844: real time    0.7864
    MIXING:  cpu time    0.1172: real time    0.1173
    --------------------------------------------
      LOOP:  cpu time   11.4148: real time   11.4565

 eigenvalue-minimisations  :   264
 total energy-change (2. order) :-0.2574349E+00  (-0.2047606E-02)
 number of electron      88.0000008 magnetization       0.4396645
 augmentation part       32.3524032 magnetization       0.3952808

 Broyden mixing:
  rms(total) = 0.23210E-01    rms(broyden)= 0.23210E-01
  rms(prec ) = 0.23960E-01
  weight for this iteration     100.00

 eigenvalues of (default mixing * dielectric matrix)
  average eigenvalue GAMMA=   1.6898
  5.7502  2.4197  1.5478  1.5478  0.9834  0.9834  0.7118  0.6319  0.6319

 Free energy of the ion-electron system (eV)
  ---------------------------------------------------
  alpha Z        PSCENC =         6.51714733
  Ewald energy   TEWEN  =      7718.07322611
  -Hartree energ DENC   =    -14782.07770612
  -exchange      EXHF   =         0.00000000
  -V(xc)+E(xc)   XCENC  =       114.93434944
  PAW double counting   =      7766.55508801    -7595.11258098
  entropy T*S    EENTRO =         0.01185812
  eigenvalues    EBANDS =      -653.85019928
  atomic energy  EATOM  =      7408.64415014
  Solvation  Ediel_sol  =         0.00000000
  ---------------------------------------------------
  free energy    TOTEN  =       -16.30466722 eV

  energy without entropy =      -16.31652534  energy(sigma->0) =      -16.30861992


--------------------------------------------------------------------------------------------------------




--------------------------------------- Iteration      1(  15)  ---------------------------------------


    POTLOK:  cpu time    3.8521: real time    3.8608
    SETDIJ:  cpu time    0.0256: real time    0.0257
     EDDAV:  cpu time    6.2097: real time    6.2249
       DOS:  cpu time    0.0064: real time    0.0085
    CHARGE:  cpu time    0.7569: real time    0.7604
    MIXING:  cpu time    0.1229: real time    0.1232
    --------------------------------------------
      LOOP:  cpu time   10.9735: real time   11.0034

 eigenvalue-minimisations  :   240
 total energy-change (2. order) :-0.3584765E+00  (-0.1945817E-02)
 number of electron      88.0000008 magnetization       0.2283922
 augmentation part       32.3614164 magnetization       0.2172661

 Broyden mixing:
  rms(total) = 0.12417E-01    rms(broyden)= 0.12416E-01
  rms(prec ) = 0.13050E-01
  weight for this iteration     100.00

 eigenvalues of (default mixing * dielectric matrix)
  average eigenvalue GAMMA=   1.8211
  6.8856  2.7580  2.4194  1.4054  1.1031  0.8447  0.8447  0.7109  0.6193  0.6193

 Free energy of the ion-electron system (eV)
  ---------------------------------------------------
  alpha Z        PSCENC =         6.51714733
  Ewald energy   TEWEN  =      7718.07322611
  -Hartree energ DENC   =    -14779.12014688
  -exchange      EXHF   =         0.00000000
  -V(xc)+E(xc)   XCENC  =       114.53556718
  PAW double counting   =      7774.02013645    -7602.56341156
  entropy T*S    EENTRO =         0.01161392
  eigenvalues    EBANDS =      -656.78142642
  atomic energy  EATOM  =      7408.64415014
  Solvation  Ediel_sol  =         0.00000000
  ---------------------------------------------------
  free energy    TOTEN  =       -16.66314373 eV

  energy without entropy =      -16.67475765  energy(sigma->0) =      -16.66701503


--------------------------------------------------------------------------------------------------------




--------------------------------------- Iteration      1(  16)  ---------------------------------------


    POTLOK:  cpu time    3.8295: real time    3.8486
    SETDIJ:  cpu time    0.0256: real time    0.0256
     EDDAV:  cpu time    6.2874: real time    6.3076
       DOS:  cpu time    0.0078: real time    0.0078
    CHARGE:  cpu time    0.7947: real time    0.7963
    MIXING:  cpu time    0.1279: real time    0.1281
    --------------------------------------------
      LOOP:  cpu time   11.0730: real time   11.1140

 eigenvalue-minimisations  :   248
 total energy-change (2. order) :-0.1589805E+00  (-0.3914924E-03)
 number of electron      88.0000008 magnetization       0.1280141
 augmentation part       32.3570756 magnetization       0.1235282

 Broyden mixing:
  rms(total) = 0.72291E-02    rms(broyden)= 0.72280E-02
  rms(prec ) = 0.77408E-02
  weight for this iteration     100.00

 eigenvalues of (default mixing * dielectric matrix)
  average eigenvalue GAMMA=   1.8714
  7.7651  3.1128  2.3094  1.6508  1.0655  1.0655  1.0223  0.7030  0.6677  0.6116
  0.6116

 Free energy of the ion-electron system (eV)
  ---------------------------------------------------
  alpha Z        PSCENC =         6.51714733
  Ewald energy   TEWEN  =      7718.07322611
  -Hartree energ DENC   =    -14778.06782326
  -exchange      EXHF   =         0.00000000
  -V(xc)+E(xc)   XCENC  =       114.36988484
  PAW double counting   =      7780.51391031    -7609.05740982
  entropy T*S    EENTRO =         0.01159853
  eigenvalues    EBANDS =      -657.82680843
  atomic energy  EATOM  =      7408.64415014
  Solvation  Ediel_sol  =         0.00000000
  ---------------------------------------------------
  free energy    TOTEN  =       -16.82212423 eV

  energy without entropy =      -16.83372277  energy(sigma->0) =      -16.82599041


--------------------------------------------------------------------------------------------------------




--------------------------------------- Iteration      1(  17)  ---------------------------------------


    POTLOK:  cpu time    3.8181: real time    3.8291
    SETDIJ:  cpu time    0.0258: real time    0.0258
     EDDAV:  cpu time    5.4339: real time    5.4511
       DOS:  cpu time    0.0084: real time    0.0084
    CHARGE:  cpu time    0.7493: real time    0.7527
    MIXING:  cpu time    0.1355: real time    0.1357
    --------------------------------------------
      LOOP:  cpu time   10.1711: real time   10.2028

 eigenvalue-minimisations  :   200
 total energy-change (2. order) :-0.5578147E-01  (-0.2379344E-03)
 number of electron      88.0000008 magnetization       0.0767586
 augmentation part       32.3586488 magnetization       0.0749461

 Broyden mixing:
  rms(total) = 0.39664E-02    rms(broyden)= 0.39659E-02
  rms(prec ) = 0.44804E-02
  weight for this iteration     100.00

 eigenvalues of (default mixing * dielectric matrix)
  average eigenvalue GAMMA=   1.8732
  8.2750  3.3862  2.3787  1.7193  1.2538  1.0339  1.0339  0.8587  0.7104  0.6250
  0.6250  0.5786

 Free energy of the ion-electron system (eV)
  ---------------------------------------------------
  alpha Z        PSCENC =         6.51714733
  Ewald energy   TEWEN  =      7718.07322611
  -Hartree energ DENC   =    -14777.30080630
  -exchange      EXHF   =         0.00000000
  -V(xc)+E(xc)   XCENC  =       114.30913133
  PAW double counting   =      7780.70017717    -7609.24474574
  entropy T*S    EENTRO =         0.01159627
  eigenvalues    EBANDS =      -658.58778201
  atomic energy  EATOM  =      7408.64415014
  Solvation  Ediel_sol  =         0.00000000
  ---------------------------------------------------
  free energy    TOTEN  =       -16.87790570 eV

  energy without entropy =      -16.88950197  energy(sigma->0) =      -16.88177112


--------------------------------------------------------------------------------------------------------




--------------------------------------- Iteration      1(  18)  ---------------------------------------


    POTLOK:  cpu time    3.8222: real time    3.8328
    SETDIJ:  cpu time    0.0261: real time    0.0261
     EDDAV:  cpu time    5.2814: real time    5.2945
       DOS:  cpu time    0.0082: real time    0.0082
    CHARGE:  cpu time    0.7350: real time    0.7370
    MIXING:  cpu time    0.1542: real time    0.1567
    --------------------------------------------
      LOOP:  cpu time   10.0272: real time   10.0554

 eigenvalue-minimisations  :   192
 total energy-change (2. order) :-0.2438843E-01  (-0.5030496E-04)
 number of electron      88.0000008 magnetization       0.0359043
 augmentation part       32.3586500 magnetization       0.0357159

 Broyden mixing:
  rms(total) = 0.23344E-02    rms(broyden)= 0.23343E-02
  rms(prec ) = 0.28335E-02
  weight for this iteration     100.00

 eigenvalues of (default mixing * dielectric matrix)
  average eigenvalue GAMMA=   1.9171
  8.6485  3.8221  2.2471  2.2471  1.4962  1.1035  1.0206  1.0206  0.8014  0.6807
  0.6409  0.6151  0.5786

 Free energy of the ion-electron system (eV)
  ---------------------------------------------------
  alpha Z        PSCENC =         6.51714733
  Ewald energy   TEWEN  =      7718.07322611
  -Hartree energ DENC   =    -14776.86484592
  -exchange      EXHF   =         0.00000000
  -V(xc)+E(xc)   XCENC  =       114.28349184
  PAW double counting   =      7780.71118135    -7609.26140636
  entropy T*S    EENTRO =         0.01159583
  eigenvalues    EBANDS =      -659.01683447
  atomic energy  EATOM  =      7408.64415014
  Solvation  Ediel_sol  =         0.00000000
  ---------------------------------------------------
  free energy    TOTEN  =       -16.90229413 eV

  energy without entropy =      -16.91388996  energy(sigma->0) =      -16.90615941


--------------------------------------------------------------------------------------------------------




--------------------------------------- Iteration      1(  19)  ---------------------------------------


    POTLOK:  cpu time    3.7892: real time    3.7971
    SETDIJ:  cpu time    0.0250: real time    0.0251
     EDDAV:  cpu time    4.8983: real time    4.9087
       DOS:  cpu time    0.0086: real time    0.0086
    CHARGE:  cpu time    0.8067: real time    0.8084
    MIXING:  cpu time    0.1599: real time    0.1622
    --------------------------------------------
      LOOP:  cpu time    9.6876: real time    9.7101

 eigenvalue-minimisations  :   168
 total energy-change (2. order) :-0.1627046E-01  (-0.2525258E-04)
 number of electron      88.0000008 magnetization       0.0235199
 augmentation part       32.3587577 magnetization       0.0234747

 Broyden mixing:
  rms(total) = 0.12165E-02    rms(broyden)= 0.12165E-02
  rms(prec ) = 0.16122E-02
  weight for this iteration     100.00

 eigenvalues of (default mixing * dielectric matrix)
  average eigenvalue GAMMA=   1.9212
  8.8125  4.1370  2.6026  2.3542  1.6474  1.1248  1.0474  1.0474  0.8641  0.7590
  0.6554  0.6554  0.6160  0.5736

 Free energy of the ion-electron system (eV)
  ---------------------------------------------------
  alpha Z        PSCENC =         6.51714733
  Ewald energy   TEWEN  =      7718.07322611
  -Hartree energ DENC   =    -14776.36753033
  -exchange      EXHF   =         0.00000000
  -V(xc)+E(xc)   XCENC  =       114.26601601
  PAW double counting   =      7779.87175392    -7608.42159956
  entropy T*S    EENTRO =         0.01159582
  eigenvalues    EBANDS =      -659.51332402
  atomic energy  EATOM  =      7408.64415014
  Solvation  Ediel_sol  =         0.00000000
  ---------------------------------------------------
  free energy    TOTEN  =       -16.91856459 eV

  energy without entropy =      -16.93016040  energy(sigma->0) =      -16.92242986


--------------------------------------------------------------------------------------------------------




--------------------------------------- Iteration      1(  20)  ---------------------------------------


    POTLOK:  cpu time    3.7828: real time    3.7991
    SETDIJ:  cpu time    0.0258: real time    0.0259
     EDDAV:  cpu time    4.6238: real time    4.6337
       DOS:  cpu time    0.0083: real time    0.0083
    CHARGE:  cpu time    0.7646: real time    0.7657
    MIXING:  cpu time    0.1672: real time    0.1702
    --------------------------------------------
      LOOP:  cpu time    9.3725: real time    9.4028

 eigenvalue-minimisations  :   152
 total energy-change (2. order) :-0.4221113E-02  (-0.6625001E-05)
 number of electron      88.0000008 magnetization       0.0156590
 augmentation part       32.3588666 magnetization       0.0153528

 Broyden mixing:
  rms(total) = 0.73903E-03    rms(broyden)= 0.73902E-03
  rms(prec ) = 0.10723E-02
  weight for this iteration     100.00

 eigenvalues of (default mixing * dielectric matrix)
  average eigenvalue GAMMA=   1.9095
  8.8914  4.3487  2.8580  2.3084  1.8029  1.2827  1.0816  1.0816  0.8927  0.8927
  0.7028  0.6535  0.6535  0.6171  0.5743

 Free energy of the ion-electron system (eV)
  ---------------------------------------------------
  alpha Z        PSCENC =         6.51714733
  Ewald energy   TEWEN  =      7718.07322611
  -Hartree energ DENC   =    -14776.10944249
  -exchange      EXHF   =         0.00000000
  -V(xc)+E(xc)   XCENC  =       114.26093667
  PAW double counting   =      7779.41457027    -7607.96415978
  entropy T*S    EENTRO =         0.01159583
  eigenvalues    EBANDS =      -659.77080978
  atomic energy  EATOM  =      7408.64415014
  Solvation  Ediel_sol  =         0.00000000
  ---------------------------------------------------
  free energy    TOTEN  =       -16.92278570 eV

  energy without entropy =      -16.93438152  energy(sigma->0) =      -16.92665097


--------------------------------------------------------------------------------------------------------




--------------------------------------- Iteration      1(  21)  ---------------------------------------


    POTLOK:  cpu time    3.7748: real time    3.7852
    SETDIJ:  cpu time    0.0256: real time    0.0256
     EDDAV:  cpu time    4.7144: real time    4.7268
       DOS:  cpu time    0.0084: real time    0.0084
    CHARGE:  cpu time    0.7809: real time    0.7840
    MIXING:  cpu time    0.1757: real time    0.1759
    --------------------------------------------
      LOOP:  cpu time    9.4797: real time    9.5058

 eigenvalue-minimisations  :   160
 total energy-change (2. order) :-0.2809424E-02  (-0.3113518E-05)
 number of electron      88.0000008 magnetization       0.0098947
 augmentation part       32.3589785 magnetization       0.0095790

 Broyden mixing:
  rms(total) = 0.52703E-03    rms(broyden)= 0.52702E-03
  rms(prec ) = 0.75954E-03
  weight for this iteration     100.00

 eigenvalues of (default mixing * dielectric matrix)
  average eigenvalue GAMMA=   1.8925
  8.9266  4.5620  2.8931  2.3789  1.9901  1.4127  1.1184  1.1184  0.9689  0.9689
  0.7748  0.7021  0.6423  0.6423  0.5784  0.6017

 Free energy of the ion-electron system (eV)
  ---------------------------------------------------
  alpha Z        PSCENC =         6.51714733
  Ewald energy   TEWEN  =      7718.07322611
  -Hartree energ DENC   =    -14775.87278022
  -exchange      EXHF   =         0.00000000
  -V(xc)+E(xc)   XCENC  =       114.25625861
  PAW double counting   =      7779.24557007    -7607.79388258
  entropy T*S    EENTRO =         0.01159583
  eigenvalues    EBANDS =      -660.00688042
  atomic energy  EATOM  =      7408.64415014
  Solvation  Ediel_sol  =         0.00000000
  ---------------------------------------------------
  free energy    TOTEN  =       -16.92559512 eV

  energy without entropy =      -16.93719095  energy(sigma->0) =      -16.92946040


--------------------------------------------------------------------------------------------------------




--------------------------------------- Iteration      1(  22)  ---------------------------------------


    POTLOK:  cpu time    3.7691: real time    3.7962
    SETDIJ:  cpu time    0.0273: real time    0.0273
     EDDAV:  cpu time    4.8834: real time    4.8939
       DOS:  cpu time    0.0077: real time    0.0077
    CHARGE:  cpu time    0.8156: real time    0.8184
    MIXING:  cpu time    0.2017: real time    0.2021
    --------------------------------------------
      LOOP:  cpu time    9.7047: real time    9.7455

 eigenvalue-minimisations  :   168
 total energy-change (2. order) :-0.1896777E-02  (-0.1797567E-05)
 number of electron      88.0000008 magnetization       0.0049813
 augmentation part       32.3590829 magnetization       0.0045883

 Broyden mixing:
  rms(total) = 0.37354E-03    rms(broyden)= 0.37353E-03
  rms(prec ) = 0.51076E-03
  weight for this iteration     100.00

 eigenvalues of (default mixing * dielectric matrix)
  average eigenvalue GAMMA=   1.9156
  8.9348  4.8686  2.8316  2.8316  2.2486  1.7041  1.2804  1.0216  1.0216  0.9519
  0.9519  0.7767  0.6845  0.5763  0.6368  0.6368  0.6068

 Free energy of the ion-electron system (eV)
  ---------------------------------------------------
  alpha Z        PSCENC =         6.51714733
  Ewald energy   TEWEN  =      7718.07322611
  -Hartree energ DENC   =    -14775.65700103
  -exchange      EXHF   =         0.00000000
  -V(xc)+E(xc)   XCENC  =       114.25228563
  PAW double counting   =      7779.29262940    -7607.83967782
  entropy T*S    EENTRO =         0.01159583
  eigenvalues    EBANDS =      -660.22184750
  atomic energy  EATOM  =      7408.64415014
  Solvation  Ediel_sol  =         0.00000000
  ---------------------------------------------------
  free energy    TOTEN  =       -16.92749190 eV

  energy without entropy =      -16.93908773  energy(sigma->0) =      -16.93135718


--------------------------------------------------------------------------------------------------------




--------------------------------------- Iteration      1(  23)  ---------------------------------------


    POTLOK:  cpu time    3.7852: real time    3.7966
    SETDIJ:  cpu time    0.0259: real time    0.0259
     EDDAV:  cpu time    4.7151: real time    4.7292
       DOS:  cpu time    0.0084: real time    0.0084
    CHARGE:  cpu time    0.7345: real time    0.7361
    MIXING:  cpu time    0.1971: real time    0.1975
    --------------------------------------------
      LOOP:  cpu time    9.4663: real time    9.4937

 eigenvalue-minimisations  :   160
 total energy-change (2. order) :-0.1597038E-02  (-0.1782857E-05)
 number of electron      88.0000008 magnetization       0.0024987
 augmentation part       32.3592940 magnetization       0.0022322

 Broyden mixing:
  rms(total) = 0.22532E-03    rms(broyden)= 0.22529E-03
  rms(prec ) = 0.28602E-03
  weight for this iteration     100.00

 eigenvalues of (default mixing * dielectric matrix)
  average eigenvalue GAMMA=   1.9622
  8.9427  5.4624  3.7018  2.5666  2.5666  1.8383  1.3564  1.1868  1.0296  1.0296
  0.8836  0.8836  0.7377  0.5733  0.6623  0.6623  0.6183  0.6183

 Free energy of the ion-electron system (eV)
  ---------------------------------------------------
  alpha Z        PSCENC =         6.51714733
  Ewald energy   TEWEN  =      7718.07322611
  -Hartree energ DENC   =    -14775.45373738
  -exchange      EXHF   =         0.00000000
  -V(xc)+E(xc)   XCENC  =       114.24867030
  PAW double counting   =      7779.43026706    -7607.97725666
  entropy T*S    EENTRO =         0.01159583
  eigenvalues    EBANDS =      -660.42315167
  atomic energy  EATOM  =      7408.64415014
  Solvation  Ediel_sol  =         0.00000000
  ---------------------------------------------------
  free energy    TOTEN  =       -16.92908894 eV

  energy without entropy =      -16.94068476  energy(sigma->0) =      -16.93295421


--------------------------------------------------------------------------------------------------------




--------------------------------------- Iteration      1(  24)  ---------------------------------------


    POTLOK:  cpu time    3.7514: real time    3.7653
    SETDIJ:  cpu time    0.0256: real time    0.0257
     EDDAV:  cpu time    5.0656: real time    5.0782
       DOS:  cpu time    0.0084: real time    0.0084
    CHARGE:  cpu time    0.7979: real time    0.8016
    MIXING:  cpu time    0.2187: real time    0.2190
    --------------------------------------------
      LOOP:  cpu time    9.8676: real time    9.8982

 eigenvalue-minimisations  :   176
 total energy-change (2. order) :-0.8749959E-03  (-0.6914283E-06)
 number of electron      88.0000008 magnetization       0.0013323
 augmentation part       32.3593077 magnetization       0.0012025

 Broyden mixing:
  rms(total) = 0.14141E-03    rms(broyden)= 0.14140E-03
  rms(prec ) = 0.17365E-03
  weight for this iteration     100.00

 eigenvalues of (default mixing * dielectric matrix)
  average eigenvalue GAMMA=   2.0082
  8.9451  6.3614  4.0618  2.6667  2.6667  2.0147  1.5443  1.2845  1.0543  1.0543
  0.9834  0.8429  0.8429  0.6909  0.6909  0.5755  0.6346  0.6346  0.6064

 Free energy of the ion-electron system (eV)
  ---------------------------------------------------
  alpha Z        PSCENC =         6.51714733
  Ewald energy   TEWEN  =      7718.07322611
  -Hartree energ DENC   =    -14775.36229402
  -exchange      EXHF   =         0.00000000
  -V(xc)+E(xc)   XCENC  =       114.24716320
  PAW double counting   =      7779.56447565    -7608.11188618
  entropy T*S    EENTRO =         0.01159582
  eigenvalues    EBANDS =      -660.51354200
  atomic energy  EATOM  =      7408.64415014
  Solvation  Ediel_sol  =         0.00000000
  ---------------------------------------------------
  free energy    TOTEN  =       -16.92996393 eV

  energy without entropy =      -16.94155975  energy(sigma->0) =      -16.93382921


--------------------------------------------------------------------------------------------------------




--------------------------------------- Iteration      1(  25)  ---------------------------------------


    POTLOK:  cpu time    3.7399: real time    3.7510
    SETDIJ:  cpu time    0.0250: real time    0.0250
     EDDAV:  cpu time    4.7184: real time    4.7359
       DOS:  cpu time    0.0076: real time    0.0076
    CHARGE:  cpu time    0.7843: real time    0.7906
    MIXING:  cpu time    0.2311: real time    0.2314
    --------------------------------------------
      LOOP:  cpu time    9.5063: real time    9.5416

 eigenvalue-minimisations  :   160
 total energy-change (2. order) :-0.3486085E-03  (-0.2192905E-06)
 number of electron      88.0000008 magnetization       0.0005927
 augmentation part       32.3592548 magnetization       0.0005098

 Broyden mixing:
  rms(total) = 0.67981E-04    rms(broyden)= 0.67966E-04
  rms(prec ) = 0.91713E-04
  weight for this iteration     100.00

 eigenvalues of (default mixing * dielectric matrix)
  average eigenvalue GAMMA=   2.0635
  9.0076  7.5176  4.3837  2.9230  2.5243  2.3670  1.5700  1.4686  1.0760  1.0760
  0.9918  0.8982  0.8982  0.7684  0.6763  0.6763  0.5752  0.6338  0.6338  0.6042

 Free energy of the ion-electron system (eV)
  ---------------------------------------------------
  alpha Z        PSCENC =         6.51714733
  Ewald energy   TEWEN  =      7718.07322611
  -Hartree energ DENC   =    -14775.32957248
  -exchange      EXHF   =         0.00000000
  -V(xc)+E(xc)   XCENC  =       114.24679274
  PAW double counting   =      7779.63705497    -7608.18449383
  entropy T*S    EENTRO =         0.01159582
  eigenvalues    EBANDS =      -660.54621334
  atomic energy  EATOM  =      7408.64415014
  Solvation  Ediel_sol  =         0.00000000
  ---------------------------------------------------
  free energy    TOTEN  =       -16.93031254 eV

  energy without entropy =      -16.94190836  energy(sigma->0) =      -16.93417781


--------------------------------------------------------------------------------------------------------




--------------------------------------- Iteration      1(  26)  ---------------------------------------


    POTLOK:  cpu time    3.7480: real time    3.7583
    SETDIJ:  cpu time    0.0254: real time    0.0255
     EDDAV:  cpu time    4.7464: real time    4.7561
       DOS:  cpu time    0.0056: real time    0.0056
    --------------------------------------------
      LOOP:  cpu time    8.5254: real time    8.5454

 eigenvalue-minimisations  :   160
 total energy-change (2. order) :-0.8771991E-04  (-0.1269480E-06)
 number of electron      88.0000008 magnetization       0.0005927
 augmentation part       32.3592548 magnetization       0.0005098

 Free energy of the ion-electron system (eV)
  ---------------------------------------------------
  alpha Z        PSCENC =         6.51714733
  Ewald energy   TEWEN  =      7718.07322611
  -Hartree energ DENC   =    -14775.31341518
  -exchange      EXHF   =         0.00000000
  -V(xc)+E(xc)   XCENC  =       114.24667746
  PAW double counting   =      7779.62851498    -7608.17586649
  entropy T*S    EENTRO =         0.01159582
  eigenvalues    EBANDS =      -660.56243043
  atomic energy  EATOM  =      7408.64415014
  Solvation  Ediel_sol  =         0.00000000
  ---------------------------------------------------
  free energy    TOTEN  =       -16.93040026 eV

  energy without entropy =      -16.94199608  energy(sigma->0) =      -16.93426553


--------------------------------------------------------------------------------------------------------




 average (electrostatic) potential at core
  the test charge radii are     1.2098
  (the norm of the test charge is              1.0000)
       1 -76.8323       2 -76.9143       3 -77.1610       4 -76.8274       5 -77.2576
       6 -77.3445       7 -76.8711       8 -76.9354
 
 
 
 E-fermi :  -4.9739     XC(G=0):  -0.3535     alpha+bet : -0.1661


 spin component 1

 k-point     1 :       0.0000    0.0000    0.0000
  band No.  band energies     occupation 
      1     -10.7929      1.00000
      2     -10.1136      1.00000
      3      -9.8488      1.00000
      4      -9.5308      1.00000
      5      -9.2926      1.00000
      6      -9.0073      1.00000
      7      -8.9471      1.00000
      8      -8.9054      1.00000
      9      -8.6498      1.00000
     10      -8.4986      1.00000
     11      -8.4209      1.00000
     12      -8.3065      1.00000
     13      -8.1011      1.00000
     14      -8.0191      1.00000
     15      -7.8519      1.00000
     16      -7.8196      1.00000
     17      -7.6886      1.00000
     18      -7.6486      1.00000
     19      -7.6199      1.00000
     20      -7.5427      1.00000
     21      -7.4003      1.00000
     22      -7.3305      1.00000
     23      -7.3262      1.00000
     24      -7.2524      1.00000
     25      -7.1039      1.00000
     26      -7.0066      1.00000
     27      -6.8925      1.00000
     28      -6.8394      1.00000
     29      -6.8093      1.00000
     30      -6.7031      1.00000
     31      -6.6744      1.00000
     32      -6.6482      1.00000
     33      -6.6275      1.00000
     34      -6.5481      1.00000
     35      -6.4524      1.00000
     36      -6.3955      1.00000
     37      -6.3514      1.00000
     38      -6.2173      1.00000
     39      -6.1477      1.00000
     40      -6.1031      1.00000
     41      -5.9360      1.00000
     42      -5.8995      1.00000
     43      -5.8680      1.00000
     44      -5.1423      1.00000
     45      -3.9055     -0.00000
     46      -3.6769     -0.00000
     47      -3.5418     -0.00000
     48      -3.4635     -0.00000
     49      -1.5863     -0.00000
     50      -1.5459     -0.00000
     51      -1.3813     -0.00000
     52      -1.2389     -0.00000
     53      -0.8235     -0.00000
     54      -0.5805     -0.00000
     55      -0.3301     -0.00000
     56       0.0640     -0.00000

 spin component 2

 k-point     1 :       0.0000    0.0000    0.0000
  band No.  band energies     occupation 
      1     -10.7929      1.00000
      2     -10.1136      1.00000
      3      -9.8488      1.00000
      4      -9.5308      1.00000
      5      -9.2926      1.00000
      6      -9.0073      1.00000
      7      -8.9471      1.00000
      8      -8.9053      1.00000
      9      -8.6498      1.00000
     10      -8.4986      1.00000
     11      -8.4209      1.00000
     12      -8.3065      1.00000
     13      -8.1011      1.00000
     14      -8.0191      1.00000
     15      -7.8519      1.00000
     16      -7.8196      1.00000
     17      -7.6886      1.00000
     18      -7.6486      1.00000
     19      -7.6199      1.00000
     20      -7.5427      1.00000
     21      -7.4003      1.00000
     22      -7.3305      1.00000
     23      -7.3262      1.00000
     24      -7.2524      1.00000
     25      -7.1039      1.00000
     26      -7.0066      1.00000
     27      -6.8924      1.00000
     28      -6.8394      1.00000
     29      -6.8093      1.00000
     30      -6.7031      1.00000
     31      -6.6744      1.00000
     32      -6.6482      1.00000
     33      -6.6275      1.00000
     34      -6.5481      1.00000
     35      -6.4524      1.00000
     36      -6.3955      1.00000
     37      -6.3514      1.00000
     38      -6.2173      1.00000
     39      -6.1477      1.00000
     40      -6.1031      1.00000
     41      -5.9360      1.00000
     42      -5.8995      1.00000
     43      -5.8680      1.00000
     44      -5.1423      1.00000
     45      -3.9054     -0.00000
     46      -3.6769     -0.00000
     47      -3.5418     -0.00000
     48      -3.4635     -0.00000
     49      -1.5862     -0.00000
     50      -1.5460     -0.00000
     51      -1.3810     -0.00000
     52      -1.2388     -0.00000
     53      -0.8234     -0.00000
     54      -0.5806     -0.00000
     55      -0.3300     -0.00000
     56       0.0630     -0.00000


--------------------------------------------------------------------------------------------------------


 soft charge-density along one line, spin component            1
         0         1         2         3         4         5         6         7         8         9
 total charge-density along one line
 
 soft charge-density along one line, spin component            2
         0         1         2         3         4         5         6         7         8         9
 total charge-density along one line
 
 pseudopotential strength for first ion, spin component:            1
 -9.276  -0.041   0.021   0.013  -0.006  -9.396  -0.040   0.020
 -0.041  -9.257   0.014  -0.012  -0.018  -0.040  -9.378   0.014
  0.021   0.014  -9.250  -0.012   0.008   0.020   0.014  -9.371
  0.013  -0.012  -0.012  -9.265  -0.032   0.012  -0.012  -0.012
 -0.006  -0.018   0.008  -0.032  -9.263  -0.006  -0.017   0.007
 -9.396  -0.040   0.020   0.012  -0.006  -9.501  -0.039   0.020
 -0.040  -9.378   0.014  -0.012  -0.017  -0.039  -9.483   0.014
  0.020   0.014  -9.371  -0.012   0.007   0.020   0.014  -9.476
  0.012  -0.012  -0.012  -9.385  -0.031   0.012  -0.012  -0.012
 -0.006  -0.017   0.007  -0.031  -9.383  -0.005  -0.017   0.007
  0.009  -0.013  -0.003   0.019   0.004   0.008  -0.014  -0.003
  0.012  -0.020  -0.004   0.027   0.006   0.012  -0.020  -0.004
 -0.023  -0.019  -0.003  -0.000  -0.005  -0.022  -0.018  -0.003
 -0.000   0.005  -0.022  -0.022   0.001  -0.000   0.005  -0.021
  0.005  -0.000   0.013  -0.017  -0.022   0.005  -0.000   0.012
 -0.026  -0.022  -0.003  -0.000  -0.006  -0.026  -0.022  -0.003
 -0.000   0.006  -0.025  -0.026   0.001  -0.000   0.006  -0.024
  0.006  -0.000   0.014  -0.021  -0.024   0.006  -0.000   0.014
 pseudopotential strength for first ion, spin component:            2
 -9.276  -0.041   0.021   0.013  -0.006  -9.396  -0.040   0.020
 -0.041  -9.257   0.014  -0.012  -0.018  -0.040  -9.378   0.014
  0.021   0.014  -9.250  -0.012   0.008   0.020   0.014  -9.371
  0.013  -0.012  -0.012  -9.265  -0.032   0.012  -0.012  -0.012
 -0.006  -0.018   0.008  -0.032  -9.263  -0.006  -0.017   0.007
 -9.396  -0.040   0.020   0.012  -0.006  -9.501  -0.039   0.020
 -0.040  -9.378   0.014  -0.012  -0.017  -0.039  -9.483   0.014
  0.020   0.014  -9.371  -0.012   0.007   0.020   0.014  -9.476
  0.012  -0.012  -0.012  -9.385  -0.031   0.012  -0.012  -0.012
 -0.006  -0.017   0.007  -0.031  -9.383  -0.005  -0.017   0.007
  0.009  -0.013  -0.003   0.019   0.004   0.008  -0.014  -0.003
  0.012  -0.020  -0.004   0.027   0.006   0.012  -0.020  -0.004
 -0.023  -0.019  -0.003  -0.000  -0.005  -0.022  -0.018  -0.003
 -0.000   0.005  -0.022  -0.022   0.001  -0.000   0.005  -0.021
  0.005  -0.000   0.013  -0.017  -0.022   0.005  -0.000   0.012
 -0.026  -0.022  -0.003  -0.000  -0.006  -0.026  -0.022  -0.003
 -0.000   0.006  -0.025  -0.026   0.001  -0.000   0.006  -0.024
  0.006  -0.000   0.014  -0.021  -0.024   0.006  -0.000   0.014
 total augmentation occupancy for first ion, spin component:            1
  3.165   0.095   0.044  -0.369   0.109  -1.229  -0.275   0.052   0.345  -0.182  -0.266   0.065  -0.154   0.073  -0.045  -0.016
  0.095   2.812   0.054  -0.114   0.033  -0.276  -0.831   0.041   0.103  -0.098   0.581  -0.076  -0.063   0.034   0.023  -0.015
[...]
  -Hartree energ DENC   =    -14773.42295142
  -exchange      EXHF   =         0.00000000
  -V(xc)+E(xc)   XCENC  =       114.24168067
  PAW double counting   =      7778.97249906    -7607.50960536
  entropy T*S    EENTRO =         0.01159582
  eigenvalues    EBANDS =      -660.54380620
  atomic energy  EATOM  =      7408.64415014
  Solvation  Ediel_sol  =         0.00000000
  ---------------------------------------------------
  free energy    TOTEN  =       -16.93108057 eV

  energy without entropy =      -16.94267639  energy(sigma->0) =      -16.93494584


--------------------------------------------------------------------------------------------------------




--------------------------------------- Iteration      3(   3)  ---------------------------------------


    POTLOK:  cpu time    3.7399: real time    3.7564
    SETDIJ:  cpu time    0.0277: real time    0.0278
     EDDAV:  cpu time    4.6801: real time    4.6922
       DOS:  cpu time    0.0171: real time    0.0171
    --------------------------------------------
      LOOP:  cpu time    8.4648: real time    8.4935

 eigenvalue-minimisations  :   160
 total energy-change (2. order) : 0.7549272E-05  (-0.6444141E-05)
 number of electron      88.0000017 magnetization       0.0001625
 augmentation part       32.3604507 magnetization       0.0001662

 Free energy of the ion-electron system (eV)
  ---------------------------------------------------
  alpha Z        PSCENC =         6.51714733
  Ewald energy   TEWEN  =      7716.15820940
  -Hartree energ DENC   =    -14773.43113324
  -exchange      EXHF   =         0.00000000
  -V(xc)+E(xc)   XCENC  =       114.24177311
  PAW double counting   =      7778.85243817    -7607.38792038
  entropy T*S    EENTRO =         0.01159582
  eigenvalues    EBANDS =      -660.53733337
  atomic energy  EATOM  =      7408.64415014
  Solvation  Ediel_sol  =         0.00000000
  ---------------------------------------------------
  free energy    TOTEN  =       -16.93107302 eV

  energy without entropy =      -16.94266884  energy(sigma->0) =      -16.93493829


--------------------------------------------------------------------------------------------------------




 average (electrostatic) potential at core
  the test charge radii are     1.2098
  (the norm of the test charge is              1.0000)
       1 -76.8253       2 -76.9092       3 -77.1614       4 -76.8305       5 -77.2585
       6 -77.3469       7 -76.8749       8 -76.9356
 
 
 
 E-fermi :  -4.9743     XC(G=0):  -0.3472     alpha+bet : -0.1661


 spin component 1

 k-point     1 :       0.0000    0.0000    0.0000
  band No.  band energies     occupation 
      1     -10.7933      1.00000
      2     -10.1097      1.00000
      3      -9.8435      1.00000
      4      -9.5329      1.00000
      5      -9.2955      1.00000
      6      -9.0052      1.00000
      7      -8.9469      1.00000
      8      -8.9025      1.00000
      9      -8.6479      1.00000
     10      -8.4992      1.00000
     11      -8.4250      1.00000
     12      -8.3055      1.00000
     13      -8.1028      1.00000
     14      -8.0182      1.00000
     15      -7.8517      1.00000
     16      -7.8179      1.00000
     17      -7.6871      1.00000
     18      -7.6462      1.00000
     19      -7.6184      1.00000
     20      -7.5413      1.00000
     21      -7.4010      1.00000
     22      -7.3311      1.00000
     23      -7.3233      1.00000
     24      -7.2478      1.00000
     25      -7.1046      1.00000
     26      -7.0078      1.00000
     27      -6.8926      1.00000
     28      -6.8397      1.00000
     29      -6.8103      1.00000
     30      -6.7047      1.00000
     31      -6.6741      1.00000
     32      -6.6491      1.00000
     33      -6.6279      1.00000
     34      -6.5480      1.00000
     35      -6.4504      1.00000
     36      -6.3951      1.00000
     37      -6.3516      1.00000
     38      -6.2185      1.00000
     39      -6.1459      1.00000
     40      -6.1025      1.00000
     41      -5.9367      1.00000
     42      -5.9027      1.00000
     43      -5.8698      1.00000
     44      -5.1427      1.00000
     45      -3.9061     -0.00000
     46      -3.6793     -0.00000
     47      -3.5419     -0.00000
     48      -3.4643     -0.00000
     49      -1.5859     -0.00000
     50      -1.5458     -0.00000
     51      -1.3811     -0.00000
     52      -1.2386     -0.00000
     53      -0.8252     -0.00000
     54      -0.5803     -0.00000
     55      -0.3292     -0.00000
     56       0.0548     -0.00000

 spin component 2

 k-point     1 :       0.0000    0.0000    0.0000
  band No.  band energies     occupation 
      1     -10.7933      1.00000
      2     -10.1097      1.00000
      3      -9.8435      1.00000
      4      -9.5329      1.00000
      5      -9.2955      1.00000
      6      -9.0052      1.00000
      7      -8.9469      1.00000
      8      -8.9025      1.00000
      9      -8.6479      1.00000
     10      -8.4992      1.00000
     11      -8.4250      1.00000
     12      -8.3055      1.00000
     13      -8.1028      1.00000
     14      -8.0182      1.00000
     15      -7.8517      1.00000
     16      -7.8179      1.00000
     17      -7.6871      1.00000
     18      -7.6462      1.00000
     19      -7.6184      1.00000
     20      -7.5413      1.00000
     21      -7.4010      1.00000
     22      -7.3311      1.00000
     23      -7.3233      1.00000
     24      -7.2478      1.00000
     25      -7.1046      1.00000
     26      -7.0078      1.00000
     27      -6.8926      1.00000
     28      -6.8397      1.00000
     29      -6.8103      1.00000
     30      -6.7047      1.00000
     31      -6.6741      1.00000
     32      -6.6491      1.00000
     33      -6.6279      1.00000
     34      -6.5480      1.00000
     35      -6.4504      1.00000
     36      -6.3951      1.00000
     37      -6.3516      1.00000
     38      -6.2185      1.00000
     39      -6.1459      1.00000
     40      -6.1025      1.00000
     41      -5.9367      1.00000
     42      -5.9027      1.00000
     43      -5.8698      1.00000
     44      -5.1427      1.00000
     45      -3.9061     -0.00000
     46      -3.6793     -0.00000
     47      -3.5419     -0.00000
     48      -3.4643     -0.00000
     49      -1.5858     -0.00000
     50      -1.5458     -0.00000
     51      -1.3809     -0.00000
     52      -1.2386     -0.00000
     53      -0.8251     -0.00000
     54      -0.5802     -0.00000
     55      -0.3291     -0.00000
     56       0.0561     -0.00000


--------------------------------------------------------------------------------------------------------


 soft charge-density along one line, spin component            1
         0         1         2         3         4         5         6         7         8         9
 total charge-density along one line
 
 soft charge-density along one line, spin component            2
         0         1         2         3         4         5         6         7         8         9
 total charge-density along one line
 
 pseudopotential strength for first ion, spin component:            1
 -9.273  -0.041   0.021   0.013  -0.006  -9.393  -0.040   0.020
 -0.041  -9.254   0.014  -0.012  -0.018  -0.040  -9.375   0.014
  0.021   0.014  -9.247  -0.012   0.008   0.020   0.014  -9.368
  0.013  -0.012  -0.012  -9.262  -0.032   0.012  -0.012  -0.012
 -0.006  -0.018   0.008  -0.032  -9.260  -0.005  -0.018   0.008
 -9.393  -0.040   0.020   0.012  -0.005  -9.498  -0.039   0.020
 -0.040  -9.375   0.014  -0.012  -0.018  -0.039  -9.480   0.014
  0.020   0.014  -9.368  -0.012   0.008   0.020   0.014  -9.473
  0.012  -0.012  -0.012  -9.383  -0.031   0.012  -0.011  -0.012
 -0.005  -0.018   0.008  -0.031  -9.381  -0.005  -0.017   0.007
  0.008  -0.014  -0.003   0.019   0.004   0.008  -0.014  -0.003
  0.012  -0.020  -0.004   0.027   0.006   0.012  -0.020  -0.004
 -0.022  -0.019  -0.003  -0.000  -0.005  -0.022  -0.019  -0.003
 -0.000   0.005  -0.022  -0.022   0.001  -0.000   0.005  -0.021
  0.005  -0.000   0.012  -0.018  -0.021   0.005  -0.000   0.012
 -0.026  -0.022  -0.004  -0.000  -0.007  -0.025  -0.022  -0.003
 -0.000   0.007  -0.025  -0.025   0.001  -0.000   0.007  -0.025
  0.006  -0.000   0.014  -0.021  -0.024   0.006  -0.000   0.014
 pseudopotential strength for first ion, spin component:            2
 -9.273  -0.041   0.021   0.013  -0.006  -9.393  -0.040   0.020
 -0.041  -9.254   0.014  -0.012  -0.018  -0.040  -9.375   0.014
  0.021   0.014  -9.247  -0.012   0.008   0.020   0.014  -9.368
  0.013  -0.012  -0.012  -9.262  -0.032   0.012  -0.012  -0.012
 -0.006  -0.018   0.008  -0.032  -9.260  -0.005  -0.018   0.008
 -9.393  -0.040   0.020   0.012  -0.005  -9.498  -0.039   0.020
 -0.040  -9.375   0.014  -0.012  -0.018  -0.039  -9.480   0.014
  0.020   0.014  -9.368  -0.012   0.008   0.020   0.014  -9.473
  0.012  -0.012  -0.012  -9.383  -0.031   0.012  -0.011  -0.012
 -0.005  -0.018   0.008  -0.031  -9.381  -0.005  -0.017   0.007
  0.008  -0.014  -0.003   0.019   0.004   0.008  -0.014  -0.003
  0.012  -0.020  -0.004   0.027   0.006   0.012  -0.020  -0.004
 -0.022  -0.019  -0.003  -0.000  -0.005  -0.022  -0.019  -0.003
 -0.000   0.005  -0.022  -0.022   0.001  -0.000   0.005  -0.021
  0.005  -0.000   0.012  -0.018  -0.021   0.005  -0.000   0.012
 -0.026  -0.022  -0.004  -0.000  -0.007  -0.025  -0.022  -0.003
 -0.000   0.007  -0.025  -0.025   0.001  -0.000   0.007  -0.025
  0.006  -0.000   0.014  -0.021  -0.024   0.006  -0.000   0.014
 total augmentation occupancy for first ion, spin component:            1
  3.153   0.093   0.044  -0.365   0.109  -1.218  -0.271   0.051   0.343  -0.181  -0.261   0.065  -0.152   0.073  -0.045  -0.016
  0.093   2.803   0.054  -0.112   0.032  -0.272  -0.820   0.041   0.103  -0.096   0.581  -0.076  -0.061   0.033   0.023  -0.015
  0.044   0.054   2.876   0.136  -0.161   0.052   0.040  -0.781  -0.088   0.194   0.127  -0.072   0.003  -0.026   0.070  -0.005
 -0.365  -0.112   0.136   3.683  -0.026   0.344   0.106  -0.088  -1.659  -0.026  -0.694   0.127   0.081  -0.253  -0.032  -0.002
  0.109   0.032  -0.161  -0.026   3.186  -0.182  -0.096   0.195  -0.028  -1.076  -0.368   0.167  -0.048   0.042  -0.165  -0.003
 -1.218  -0.272   0.052   0.344  -0.182   1.222   0.413  -0.124  -0.328   0.238   0.207  -0.049   0.203  -0.068   0.055  -0.007
 -0.271  -0.820   0.040   0.106  -0.096   0.413   0.791  -0.112  -0.102   0.147  -0.494   0.078   0.108  -0.047  -0.030  -0.004
  0.051   0.041  -0.781  -0.088   0.195  -0.124  -0.112   0.663   0.055  -0.222  -0.112   0.060  -0.015   0.039  -0.084   0.002
  0.343   0.103  -0.088  -1.659  -0.028  -0.328  -0.102   0.055   1.596   0.071   0.591  -0.102  -0.073   0.282   0.072   0.002
 -0.181  -0.096   0.194  -0.026  -1.076   0.238   0.147  -0.222   0.071   0.948   0.345  -0.164   0.059  -0.035   0.184  -0.002
 -0.261   0.581   0.127  -0.694  -0.368   0.207  -0.494  -0.112   0.591   0.345   2.020  -0.324  -0.015   0.121   0.244   0.001
  0.065  -0.076  -0.072   0.127   0.167  -0.049   0.078   0.060  -0.102  -0.164  -0.324   0.093  -0.004  -0.011  -0.073  -0.000
 -0.152  -0.061   0.003   0.081  -0.048   0.203   0.108  -0.015  -0.073   0.059  -0.015  -0.004   0.044  -0.020   0.009  -0.002
  0.073   0.033  -0.026  -0.253   0.042  -0.068  -0.047   0.039   0.282  -0.035   0.121  -0.011  -0.020   0.062   0.003   0.001
 -0.045   0.023   0.070  -0.032  -0.165   0.055  -0.030  -0.084   0.072   0.184   0.244  -0.073   0.009   0.003   0.067  -0.000
 -0.016  -0.015  -0.005  -0.002  -0.003  -0.007  -0.004   0.002   0.002  -0.002   0.001  -0.000  -0.002   0.001  -0.000   0.001
 -0.002   0.001  -0.022  -0.014   0.001   0.002   0.003   0.001  -0.009  -0.000  -0.008   0.001   0.001  -0.003  -0.001  -0.000
  0.007  -0.002   0.009  -0.013  -0.014  -0.004   0.002   0.003  -0.004  -0.006  -0.015   0.003  -0.000  -0.001  -0.004  -0.000
 total augmentation occupancy for first ion, spin component:            2
 -0.000  -0.000   0.000  -0.000  -0.000   0.000   0.000  -0.000   0.000   0.000   0.000  -0.000  -0.000   0.000  -0.000  -0.000
 -0.000  -0.000  -0.000   0.000   0.000   0.000   0.000   0.000  -0.000  -0.000   0.000  -0.000   0.000  -0.000   0.000   0.000
  0.000  -0.000   0.000   0.000  -0.000  -0.000   0.000   0.000  -0.000  -0.000  -0.000   0.000  -0.000  -0.000  -0.000   0.000
 -0.000   0.000   0.000  -0.000   0.000   0.000  -0.000  -0.000   0.000  -0.000  -0.000   0.000  -0.000   0.000   0.000   0.000
 -0.000   0.000  -0.000   0.000   0.000   0.000   0.000   0.000  -0.000   0.000   0.000  -0.000   0.000  -0.000  -0.000   0.000
  0.000   0.000  -0.000   0.000   0.000  -0.000  -0.000   0.000  -0.000  -0.000  -0.000   0.000   0.000   0.000  -0.000   0.000
  0.000   0.000   0.000  -0.000   0.000  -0.000  -0.000  -0.000  -0.000  -0.000   0.000   0.000  -0.000   0.000  -0.000  -0.000
 -0.000   0.000   0.000  -0.000   0.000   0.000  -0.000  -0.000   0.000   0.000   0.000  -0.000  -0.000  -0.000   0.000  -0.000
  0.000  -0.000  -0.000   0.000  -0.000  -0.000  -0.000   0.000  -0.000  -0.000  -0.000  -0.000  -0.000  -0.000  -0.000   0.000
  0.000  -0.000  -0.000  -0.000   0.000  -0.000  -0.000   0.000  -0.000  -0.000  -0.000   0.000  -0.000   0.000   0.000   0.000
  0.000   0.000  -0.000  -0.000   0.000  -0.000   0.000   0.000  -0.000  -0.000   0.000  -0.000   0.000  -0.000  -0.000   0.000
 -0.000  -0.000   0.000   0.000  -0.000   0.000   0.000  -0.000  -0.000   0.000  -0.000  -0.000   0.000  -0.000  -0.000  -0.000
 -0.000   0.000  -0.000  -0.000   0.000   0.000  -0.000  -0.000  -0.000  -0.000   0.000   0.000   0.000   0.000   0.000  -0.000
  0.000  -0.000  -0.000   0.000  -0.000   0.000   0.000  -0.000  -0.000   0.000  -0.000  -0.000   0.000  -0.000  -0.000   0.000
 -0.000   0.000  -0.000   0.000  -0.000  -0.000  -0.000   0.000  -0.000   0.000  -0.000  -0.000   0.000  -0.000   0.000   0.000
 -0.000   0.000   0.000   0.000   0.000   0.000  -0.000  -0.000   0.000   0.000   0.000  -0.000  -0.000   0.000   0.000  -0.000
  0.000   0.000  -0.000  -0.000   0.000  -0.000  -0.000   0.000  -0.000  -0.000   0.000   0.000  -0.000   0.000  -0.000  -0.000
 -0.000  -0.000   0.000  -0.000   0.000   0.000   0.000  -0.000   0.000  -0.000   0.000   0.000  -0.000   0.000  -0.000  -0.000


------------------------ aborting loop because EDIFF is reached ----------------------------------------


    CHARGE:  cpu time    0.7363: real time    0.7375
    FORLOC:  cpu time    0.1101: real time    0.1102
    FORNL :  cpu time    3.4885: real time    3.4931
    FORCOR:  cpu time    3.6154: real time    3.6382
    FORHAR:  cpu time    0.4622: real time    0.4627
    MIXING:  cpu time    0.0742: real time    0.0743
    OFIELD:  cpu time    0.0000: real time    0.0000

 VOLUME and BASIS-vectors are now :
 -----------------------------------------------------------------------------
  energy-cutoff  :      400.00
  volume of cell :    11438.59
      direct lattice vectors                 reciprocal lattice vectors
    21.969645825  0.000000000  0.000000000     0.045517347  0.000000000  0.000000000
     0.000000000 22.551716949  0.000000000     0.000000000  0.044342522  0.000000000
     0.000000000  0.000000000 23.087114478     0.000000000  0.000000000  0.043314205

  length of vectors
    21.969645825 22.551716949 23.087114478     0.045517347  0.044342522  0.043314205


 FORCES acting on ions
    electron-ion (+dipol)            ewald-force                    non-local-force                 convergence-correction
 -----------------------------------------------------------------------------------------------
   0.770E+03 -.524E+02 0.202E+03   -.766E+03 0.517E+02 -.198E+03   -.416E+01 0.635E+00 -.377E+01   -.388E-01 -.137E-01 0.126E-01
   -.286E+03 -.561E+03 -.397E+03   0.284E+03 0.555E+03 0.393E+03   0.250E+01 0.583E+01 0.342E+01   0.583E-03 0.328E-01 0.260E-01
   0.156E+03 -.620E+03 -.616E+02   -.155E+03 0.619E+03 0.620E+02   -.488E+00 0.472E+00 -.410E+00   0.534E-01 -.854E-02 -.479E-01
   0.160E+02 -.296E+03 0.734E+03   -.141E+02 0.293E+03 -.730E+03   -.188E+01 0.319E+01 -.432E+01   -.672E-02 -.491E-02 0.349E-02
   -.502E+03 0.561E+02 -.502E+03   0.501E+03 -.551E+02 0.501E+03   0.129E+01 -.102E+01 0.105E+01   -.262E-01 -.157E-01 0.230E-01
   -.284E+03 0.748E+03 -.142E+03   0.282E+03 -.742E+03 0.142E+03   0.143E+01 -.641E+01 0.771E+00   -.440E-01 -.492E-02 -.126E-01
   0.516E+03 0.426E+03 -.377E+03   -.516E+03 -.425E+03 0.375E+03   0.320E+00 -.141E+01 0.152E+01   0.427E-01 -.487E-02 -.957E-03
   -.385E+03 0.298E+03 0.545E+03   0.385E+03 -.297E+03 -.545E+03   0.186E+00 -.115E+01 0.234E+00   0.299E-01 0.125E-01 -.196E-01
 -----------------------------------------------------------------------------------------------
   0.792E+00 -.124E+00 0.152E+01   0.227E-12 -.114E-12 0.000E+00   -.802E+00 0.131E+00 -.150E+01   0.109E-01 -.740E-02 -.160E-01
 
 
 POSITION                                       TOTAL-FORCE (eV/Angst)
 -----------------------------------------------------------------------------------
      8.73488     11.87427     11.11647         0.002777     -0.009623      0.026570
     12.64947     13.96913     13.85972        -0.009656     -0.012209     -0.000793
     10.92818     13.07820     12.06526         0.018213     -0.002486     -0.012993
     10.93737     12.59575      9.34159        -0.011423      0.002603     -0.006654
     12.68047     11.39019     13.41655        -0.005817      0.020046      0.016221
     12.40273      8.86178     12.62984        -0.007999     -0.008804     -0.008388
     10.09993     10.35249     12.77961        -0.007288      0.013217     -0.012471
     12.12376     10.73153     10.71356         0.021193     -0.002744     -0.001492
 -----------------------------------------------------------------------------------
    total drift:                                0.000355     -0.000500      0.001061


--------------------------------------------------------------------------------------------------------



  FREE ENERGIE OF THE ION-ELECTRON SYSTEM (eV)
  ---------------------------------------------------
  free  energy   TOTEN  =       -16.93107302 eV

  energy  without entropy=      -16.94266884  energy(sigma->0) =      -16.93493829
 
 d Force = 0.1874278E-03[ 0.103E-03, 0.272E-03]  d Energy = 0.3059237E-03-0.118E-03
 d Force = 0.1078531E+01[ 0.108E+01, 0.108E+01]  d Ewald  = 0.1078533E+01-0.177E-05


--------------------------------------------------------------------------------------------------------


    POTLOK:  cpu time    3.7210: real time    3.7347


--------------------------------------------------------------------------------------------------------




--------------------------------------------------------------------------------------------------------


  
 reached required accuracy - stopping structural energy minimisation
     LOOP+:  cpu time   42.6891: real time   42.8780
    4ORBIT:  cpu time    0.0000: real time    0.0000

 total amount of memory used by VASP MPI-rank0   230258. kBytes
=======================================================================

   base      :      30000. kBytes
   nonl-proj :       3532. kBytes
   fftplans  :      53134. kBytes
   grid      :     120289. kBytes
   one-center:         15. kBytes
   wavefun   :      23288. kBytes
 
  
  
 General timing and accounting informations for this job:
 ========================================================
  
                  Total CPU time used (sec):      368.210
                            User time (sec):      359.003
                          System time (sec):        9.208
                         Elapsed time (sec):      370.441
  
                   Maximum memory used (kb):      450768.
                   Average memory used (kb):           0.
  
                          Minor page faults:      1835344
                          Major page faults:         9772
                 Voluntary context switches:         1653
