<?xml version="1.0" encoding="ISO-8859-1"?>
<modeling>
 <generator>
  <i name="program" type="string">vasp </i>
  <i name="version" type="string">6.1.2  </i>
  <i name="subversion" type="string">22Jul20 (build Aug  2 2021 21:04:21) gamma-only                       parallel </i>
  <i name="platform" type="string">LinuxPGI </i>
  <i name="date" type="string">2021 12 28 </i>
  <i name="time" type="string">20:42:43 </i>
 </generator>
 <incar>
  <i type="int" name="ISPIN">     2</i>
  <i type="int" name="IBRION">     2</i>
  <i type="int" name="NSW">  1000</i>
  <i type="int" name="ISIF">     0</i>
  <i type="int" name="ISYM">     0</i>
  <i name="ENCUT">    400.00000000</i>
  <i type="logical" name="LREAL"> F  </i>
  <i type="int" name="ISMEAR">     1</i>
  <i name="SIGMA">      0.20000000</i>
  <i type="logical" name="LWAVE"> F  </i>
  <i type="logical" name="LCHARG"> F  </i>
  <i type="int" name="KPAR">     1</i>
  <i type="int" name="NCORE">     8</i>
  <i type="string" name="GGA"> PE</i>
  <i type="int" name="ISPIN">     2</i>
 </incar>
 <structure name="primitive_cell" >
  <crystal>
   <varray name="basis" >
    <v>      21.96964583       0.00000000       0.00000000 </v>
    <v>       0.00000000      22.55171695       0.00000000 </v>
    <v>       0.00000000       0.00000000      23.08711448 </v>
   </varray>
   <i name="volume">  11438.58553475 </i>
   <varray name="rec_basis" >
    <v>       0.04551735       0.00000000       0.00000000 </v>
    <v>       0.00000000       0.04434252       0.00000000 </v>
    <v>       0.00000000       0.00000000       0.04331420 </v>
   </varray>
  </crystal>
  <varray name="positions" >
   <v>       0.39773471       0.52660801       0.48145099 </v>
   <v>       0.57575869       0.61929407       0.60022978 </v>
   <v>       0.49725080       0.57994789       0.52273898 </v>
   <v>       0.49787021       0.55853855       0.40459534 </v>
   <v>       0.57727189       0.50510006       0.58105179 </v>
   <v>       0.56469795       0.39297577       0.54708791 </v>
   <v>       0.45956346       0.45907739       0.55353303 </v>
   <v>       0.55175731       0.47580964       0.46412287 </v>
  </varray>
 </structure>
 <varray name="primitive_index" >
  <v type="int" >        1 </v>
  <v type="int" >        2 </v>
  <v type="int" >        3 </v>
  <v type="int" >        4 </v>
  <v type="int" >        5 </v>
  <v type="int" >        6 </v>
  <v type="int" >        7 </v>
  <v type="int" >        8 </v>
 </varray>
 <kpoints>
  <generation param="Gamma">
   <v type="int" name="divisions">       1        1        1 </v>
   <v name="usershift">      0.00000000       0.00000000       0.00000000 </v>
   <v name="genvec1">      1.00000000       0.00000000       0.00000000 </v>
   <v name="genvec2">      0.00000000       1.00000000       0.00000000 </v>
   <v name="genvec3">      0.00000000       0.00000000       1.00000000 </v>
   <v name="shift">      0.00000000       0.00000000       0.00000000 </v>
  </generation>
  <varray name="kpointlist" >
   <v>       0.00000000       0.00000000       0.00000000 </v>
  </varray>
  <varray name="weights" >
   <v>       1.00000000 </v>
  </varray>
 </kpoints>
 <parameters>
  <separator name="general" >
   <i type="string" name="SYSTEM">unknown system</i>
   <i type="logical" name="LCOMPAT"> F  </i>
  </separator>
  <separator name="electronic" >
   <i type="string" name="PREC">normal</i>
   <i name="ENMAX">    400.00000000</i>
   <i name="ENAUG">    356.67000000</i>
   <i name="EDIFF">      0.00010000</i>
   <i type="int" name="IALGO">    38</i>
   <i type="int" name="IWAVPR">    11</i>
   <i type="int" name="NBANDS">    56</i>
   <i type="int" name="NBANDSLOW">    -1</i>
   <i type="int" name="NBANDSHIGH">    -1</i>
   <i name="NELECT">     88.00000000</i>
   <i type="int" name="TURBO">     0</i>
   <i type="int" name="IRESTART">     0</i>
   <i type="int" name="NREBOOT">     0</i>
   <i type="int" name="NMIN">     0</i>
   <i name="EREF">      0.00000000</i>
   <separator name="electronic smearing" >
    <i type="int" name="ISMEAR">     1</i>
    <i name="SIGMA">      0.20000000</i>
    <i name="KSPACING">      0.50000000</i>
    <i type="logical" name="KGAMMA"> T  </i>
    <i type="logical" name="KBLOWUP"> T  </i>
   </separator>
   <separator name="electronic projectors" >
    <i type="logical" name="LREAL"> F  </i>
    <v name="ROPT">      0.00000000</v>
    <i type="int" name="LMAXPAW">  -100</i>
    <i type="int" name="LMAXMIX">     2</i>
    <i type="logical" name="NLSPLINE"> F  </i>
   </separator>
   <separator name="electronic startup" >
    <i type="int" name="ISTART">     0</i>
    <i type="int" name="ICHARG">     2</i>
    <i type="int" name="INIWAV">     1</i>
   </separator>
   <separator name="electronic spin" >
    <i type="int" name="ISPIN">     2</i>
    <i type="logical" name="LNONCOLLINEAR"> F  </i>
    <v name="MAGMOM">      1.00000000      1.00000000      1.00000000      1.00000000      1.00000000      1.00000000      1.00000000      1.00000000</v>
    <i name="NUPDOWN">     -1.00000000</i>
    <i type="logical" name="LSORBIT"> F  </i>
    <v name="SAXIS">      0.00000000      0.00000000      1.00000000</v>
    <i type="logical" name="LSPIRAL"> F  </i>
    <v name="QSPIRAL">      0.00000000      0.00000000      0.00000000</v>
    <i type="logical" name="LZEROZ"> F  </i>
   </separator>
   <separator name="electronic exchange-correlation" >
    <i type="logical" name="LASPH"> F  </i>
    <i type="logical" name="LMETAGGA"> F  </i>
   </separator>
   <separator name="electronic convergence" >
    <i type="int" name="NELM">    60</i>
    <i type="int" name="NELMDL">     0</i>
    <i type="int" name="NELMIN">     2</i>
    <i name="ENINI">    400.00000000</i>
    <separator name="electronic convergence detail" >
     <i type="logical" name="LDIAG"> T  </i>
     <i type="logical" name="LSUBROT"> F  </i>
     <i name="WEIMIN">      0.00100000</i>
     <i name="EBREAK">      0.00000045</i>
     <i name="DEPER">      0.30000000</i>
     <i type="int" name="NRMM">     4</i>
     <i name="TIME">      0.40000000</i>
    </separator>
   </separator>
   <separator name="electronic mixer" >
    <i name="AMIX">      0.40000000</i>
    <i name="BMIX">      1.00000000</i>
    <i name="AMIN">      0.10000000</i>
    <i name="AMIX_MAG">      1.60000000</i>
    <i name="BMIX_MAG">      1.00000000</i>
    <separator name="electronic mixer details" >
     <i type="int" name="IMIX">     4</i>
     <i type="logical" name="MIXFIRST"> F  </i>
     <i type="int" name="MAXMIX">   -45</i>
     <i name="WC">    100.00000000</i>
     <i type="int" name="INIMIX">     1</i>
     <i type="int" name="MIXPRE">     1</i>
     <i type="int" name="MREMOVE">     5</i>
    </separator>
   </separator>
   <separator name="electronic dipolcorrection" >
    <i type="logical" name="LDIPOL"> F  </i>
    <i type="logical" name="LMONO"> F  </i>
    <i type="int" name="IDIPOL">     0</i>
    <i name="EPSILON">      1.00000000</i>
    <v name="DIPOL">   -100.00000000   -100.00000000   -100.00000000</v>
    <i name="EFIELD">      0.00000000</i>
   </separator>
  </separator>
  <separator name="grids" >
   <i type="int" name="NGX">   108</i>
   <i type="int" name="NGY">   112</i>
   <i type="int" name="NGZ">   120</i>
   <i type="int" name="NGXF">   216</i>
   <i type="int" name="NGYF">   224</i>
   <i type="int" name="NGZF">   240</i>
   <i type="logical" name="ADDGRID"> F  </i>
  </separator>
  <separator name="ionic" >
   <i type="int" name="NSW">  1000</i>
   <i type="int" name="IBRION">     2</i>
   <i type="int" name="MDALGO">     0</i>
   <i type="int" name="ISIF">     0</i>
   <i name="PSTRESS">      0.00000000</i>
   <i name="EDIFFG">      0.00100000</i>
   <i type="int" name="NFREE">     1</i>
   <i name="POTIM">      0.50000000</i>
   <i name="SMASS">     -3.00000000</i>
   <i name="SCALEE">      1.00000000</i>
  </separator>
  <separator name="ionic md" >
   <i name="TEBEG">      0.00010000</i>
   <i name="TEEND">      0.00010000</i>
   <i type="int" name="NBLOCK">     1</i>
   <i type="int" name="KBLOCK">  1000</i>
   <i type="int" name="NPACO">   256</i>
   <i name="APACO">     16.00000000</i>
  </separator>
  <separator name="symmetry" >
   <i type="int" name="ISYM">     0</i>
   <i name="SYMPREC">      0.00001000</i>
  </separator>
  <separator name="dos" >
   <i type="int" name="LORBIT">     0</i>
   <v name="RWIGS">     -1.00000000</v>
   <i type="int" name="NEDOS">   301</i>
   <i name="EMIN">     10.00000000</i>
   <i name="EMAX">    -10.00000000</i>
   <i name="EFERMI">      0.00000000</i>
  </separator>
  <separator name="writing" >
   <i type="int" name="NWRITE">     2</i>
   <i type="logical" name="LWAVE"> F  </i>
   <i type="logical" name="LDOWNSAMPLE"> F  </i>
   <i type="logical" name="LCHARG"> F  </i>
   <i type="logical" name="LPARD"> F  </i>
   <i type="logical" name="LVTOT"> F  </i>
   <i type="logical" name="LVHAR"> F  </i>
   <i type="logical" name="LELF"> F  </i>
   <i type="logical" name="LOPTICS"> F  </i>
   <v name="STM">      0.00000000      0.00000000      0.00000000      0.00000000      0.00000000      0.00000000      0.00000000</v>
  </separator>
  <separator name="performance" >
   <i type="int" name="NPAR">     1</i>
   <i type="int" name="NSIM">     4</i>
   <i type="int" name="NBLK">    -1</i>
   <i type="logical" name="LPLANE"> T  </i>
   <i type="logical" name="LSCALAPACK"> T  </i>
   <i type="logical" name="LSCAAWARE"> F  </i>
   <i type="logical" name="LSCALU"> F  </i>
   <i type="logical" name="LASYNC"> F  </i>
   <i type="logical" name="LORBITALREAL"> F  </i>
  </separator>
  <separator name="miscellaneous" >
   <i type="int" name="IDIOT">     3</i>
   <i type="int" name="PHON_NSTRUCT">    -1</i>
   <i type="logical" name="LMUSIC"> F  </i>
   <v name="POMASS">    196.96600000</v>
   <v name="DARWINR">      0.00000000</v>
   <v name="DARWINV">      1.00000000</v>
   <i type="logical" name="LCORR"> T  </i>
  </separator>
  <i type="logical" name="GGA_COMPAT"> T  </i>
  <i type="logical" name="LBERRY"> F  </i>
  <i type="int" name="ICORELEVEL">     0</i>
  <i type="logical" name="LDAU"> F  </i>
  <i type="int" name="I_CONSTRAINED_M">     0</i>
  <separator name="electronic exchange-correlation" >
   <i type="string" name="GGA">PE</i>
   <i type="int" name="VOSKOWN">     0</i>
   <i type="logical" name="LHFCALC"> F  </i>
   <i type="string" name="PRECFOCK"></i>
   <i type="logical" name="LSYMGRAD"> F  </i>
   <i type="logical" name="LHFONE"> F  </i>
   <i type="logical" name="LRHFCALC"> F  </i>
   <i type="logical" name="LTHOMAS"> F  </i>
   <i type="logical" name="LMODELHF"> F  </i>
   <i type="logical" name="LFOCKACE"> F  </i>
   <i name="ENCUT4O">     -1.00000000</i>
   <i type="int" name="EXXOEP">     0</i>
   <i type="int" name="FOURORBIT">     0</i>
   <i name="AEXX">      0.00000000</i>
   <i name="HFALPHA">      0.00000000</i>
   <i name="MCALPHA">      0.00000000</i>
   <i name="ALDAX">      1.00000000</i>
   <i name="AGGAX">      1.00000000</i>
   <i name="ALDAC">      1.00000000</i>
   <i name="AGGAC">      1.00000000</i>
   <i type="int" name="NKREDX">     1</i>
   <i type="int" name="NKREDY">     1</i>
   <i type="int" name="NKREDZ">     1</i>
   <i type="logical" name="SHIFTRED"> F  </i>
   <i type="logical" name="ODDONLY"> F  </i>
   <i type="logical" name="EVENONLY"> F  </i>
   <i type="int" name="LMAXFOCK">     0</i>
   <i type="int" name="NMAXFOCKAE">     0</i>
   <i type="logical" name="LFOCKAEDFT"> F  </i>
   <i name="HFSCREEN">      0.00000000</i>
   <i name="HFSCREENC">      0.00000000</i>
   <i type="int" name="NBANDSGWLOW">     0</i>
  </separator>
  <separator name="vdW DFT" >
   <i type="logical" name="LUSE_VDW"> F  </i>
   <i name="Zab_VDW">     -0.84910000</i>
   <i name="PARAM1">      0.12340000</i>
   <i name="PARAM2">      1.00000000</i>
   <i name="PARAM3">      0.00000000</i>
  </separator>
  <separator name="model GW" >
   <i type="int" name="MODEL_GW">     0</i>
   <i name="MODEL_EPS0">    857.89391511</i>
   <i name="MODEL_ALPHA">      1.00000000</i>
  </separator>
  <separator name="linear response parameters" >
   <i type="logical" name="LEPSILON"> F  </i>
   <i type="logical" name="LRPA"> F  </i>
   <i type="logical" name="LNABLA"> F  </i>
   <i type="logical" name="LVEL"> F  </i>
   <i type="int" name="KINTER">     0</i>
   <i name="CSHIFT">      0.10000000</i>
   <i name="OMEGAMAX">     -1.00000000</i>
   <i name="DEG_THRESHOLD">      0.00200000</i>
   <i name="RTIME">     -0.10000000</i>
   <i name="WPLASMAI">      0.00000000</i>
   <v name="DFIELD">      0.00000000      0.00000000      0.00000000</v>
   <v name="WPLASMA">      0.00000000      0.00000000      0.00000000      0.00000000      0.00000000      0.00000000      0.00000000      0.00000000      0.00000000</v>
  </separator>
  <separator name="orbital magnetization" >
   <i type="logical" name="NUCIND"> F  </i>
   <v name="MAGPOS">      0.00000000      0.00000000      0.00000000</v>
   <i type="logical" name="LNICSALL"> T  </i>
   <i type="logical" name="ORBITALMAG"> F  </i>
   <i type="logical" name="LMAGBLOCH"> F  </i>
   <i type="logical" name="LCHIMAG"> F  </i>
   <i type="logical" name="LGAUGE"> T  </i>
   <i type="int" name="MAGATOM">     0</i>
   <v name="MAGDIPOL">      0.00000000      0.00000000      0.00000000</v>
   <v name="AVECCONST">      0.00000000      0.00000000      0.00000000</v>
  </separator>
  <separator name="response functions" >
   <i type="logical" name="LFINITE_TEMPERATURE"> F  </i>
   <i type="logical" name="LADDER"> F  </i>
   <i type="logical" name="LRPAFORCE"> F  </i>
   <i type="logical" name="LFXC"> F  </i>
   <i type="logical" name="LHARTREE"> T  </i>
   <i type="int" name="IBSE">     0</i>
   <v type="int" name="KPOINT">    -1     0     0     0</v>
   <i type="logical" name="LTCTC"> F  </i>
   <i type="logical" name="LTCTE"> F  </i>
   <i type="logical" name="LTETE"> F  </i>
   <i type="logical" name="LTRIPLET"> F  </i>
   <i type="logical" name="LFXCEPS"> F  </i>
   <i type="logical" name="LFXHEG"> F  </i>
   <i type="int" name="NATURALO">     2</i>
   <i type="logical" name="LHOLEGF"> F  </i>
   <i type="logical" name="L2ORDER"> F  </i>
   <i type="logical" name="LDMP1"> F  </i>
   <i type="logical" name="LMP2LT"> F  </i>
   <i type="logical" name="LSMP2LT"> F  </i>
   <i type="logical" name="LGWLF"> F  </i>
   <i name="ENCUTGW">     -2.00000000</i>
   <i name="ENCUTGWSOFT">     -2.00000000</i>
   <i name="ENCUTLF">     -1.00000000</i>
   <i type="logical" name="LESF_SPLINES"> F  </i>
   <i type="int" name="LMAXMP2">    -1</i>
   <i name="SCISSOR">      0.00000000</i>
   <i type="int" name="NOMEGA">     0</i>
   <i type="int" name="NOMEGAR">     0</i>
   <i type="int" name="NBANDSGW">    -1</i>
   <i type="int" name="NBANDSO">    -1</i>
   <i type="int" name="NBANDSV">    -1</i>
   <i type="int" name="NELM">     1</i>
   <i type="int" name="NELMHF">     1</i>
   <i type="int" name="DIM">     3</i>
   <i type="int" name="IESPILON">     4</i>
   <i type="int" name="ANTIRES">     0</i>
   <i name="OMEGAMAX">    -30.00000000</i>
   <i name="OMEGAMIN">    -30.00000000</i>
   <i name="OMEGATL">   -200.00000000</i>
   <i type="int" name="OMEGAGRID">     0</i>
   <i name="CSHIFT">     -0.10000000</i>
   <i type="logical" name="LSELFENERGY"> F  </i>
   <i type="logical" name="LSPECTRAL"> F  </i>
   <i type="logical" name="LSPECTRALGW"> F  </i>
   <i type="logical" name="LSINGLES"> F  </i>
   <i type="logical" name="LFERMIGW"> F  </i>
   <i type="logical" name="ODDONLYGW"> F  </i>
   <i type="logical" name="EVENONLYGW"> F  </i>
   <i type="int" name="NKREDLFX">     1</i>
   <i type="int" name="NKREDLFY">     1</i>
   <i type="int" name="NKREDLFZ">     1</i>
   <i type="int" name="MAXMEM">  2800</i>
   <i type="int" name="TELESCOPE">     0</i>
   <i type="int" name="NTAUPAR">    -1</i>
   <i type="int" name="NOMEGAPAR">    -1</i>
   <i name="LAMBDA">      1.00000000</i>
  </separator>
  <separator name="External order field" >
   <i name="OFIELD_KAPPA">      0.00000000</i>
   <v name="OFIELD_K">      0.00000000      0.00000000      0.00000000</v>
   <i name="OFIELD_Q6_NEAR">      0.00000000</i>
   <i name="OFIELD_Q6_FAR">      0.00000000</i>
   <i name="OFIELD_A">      0.00000000</i>
  </separator>
 </parameters>
 <atominfo>
  <atoms>       8 </atoms>
  <types>       1 </types>
  <array name="atoms" >
   <dimension dim="1">ion</dimension>
   <field type="string">element</field>
   <field type="int">atomtype</field>
   <set>
    <rc><c>Au</c><c>   1</c></rc>
    <rc><c>Au</c><c>   1</c></rc>
    <rc><c>Au</c><c>   1</c></rc>
    <rc><c>Au</c><c>   1</c></rc>
    <rc><c>Au</c><c>   1</c></rc>
    <rc><c>Au</c><c>   1</c></rc>
    <rc><c>Au</c><c>   1</c></rc>
    <rc><c>Au</c><c>   1</c></rc>
   </set>
  </array>
  <array name="atomtypes" >
   <dimension dim="1">type</dimension>
   <field type="int">atomspertype</field>
   <field type="string">element</field>
   <field>mass</field>
   <field>valence</field>
   <field type="string">pseudopotential</field>
   <set>
    <rc><c>   8</c><c>Au</c><c>    196.96600000</c><c>     11.00000000</c><c>  PAW_PBE Au 04Oct2007                  </c></rc>
   </set>
  </array>
 </atominfo>
 <structure name="initialpos" >
  <crystal>
   <varray name="basis" >
    <v>      21.96964583       0.00000000       0.00000000 </v>
    <v>       0.00000000      22.55171695       0.00000000 </v>
    <v>       0.00000000       0.00000000      23.08711448 </v>
   </varray>
   <i name="volume">  11438.58553475 </i>
   <varray name="rec_basis" >
    <v>       0.04551735       0.00000000       0.00000000 </v>
    <v>       0.00000000       0.04434252       0.00000000 </v>
    <v>       0.00000000       0.00000000       0.04331420 </v>
   </varray>
  </crystal>
  <varray name="positions" >
   <v>       0.39773471       0.52660801       0.48145099 </v>
   <v>       0.57575869       0.61929407       0.60022978 </v>
   <v>       0.49725080       0.57994789       0.52273898 </v>
   <v>       0.49787021       0.55853855       0.40459534 </v>
   <v>       0.57727189       0.50510006       0.58105179 </v>
   <v>       0.56469795       0.39297577       0.54708791 </v>
   <v>       0.45956346       0.45907739       0.55353303 </v>
   <v>       0.55175731       0.47580964       0.46412287 </v>
  </varray>
 </structure>
 <calculation>
  <scstep>
   <time name="dav">    6.10    6.12</time>
   <time name="total">    9.99   10.02</time>
   <energy>
    <i name="alphaZ">      6.51714733 </i>
    <i name="ewald">   7718.07322611 </i>
    <i name="hartreedc"> -14808.76359206 </i>
    <i name="XCdc">    117.06777359 </i>
    <i name="pawpsdc">   6992.17180065 </i>
    <i name="pawaedc">  -6807.49900724 </i>
    <i name="eentropy">     -0.01772002 </i>
    <i name="bandstr">    113.93373953 </i>
    <i name="atom">   7408.64415014 </i>
    <i name="e_fr_energy">    740.12751803 </i>
    <i name="e_wo_entrp">    740.14523805 </i>
    <i name="e_0_energy">    740.13342471 </i>
   </energy>
  </scstep>
  <scstep>
   <time name="dav">    9.94    9.97</time>
   <time name="total">    9.95    9.98</time>
   <energy>
    <i name="e_fr_energy">    449.95319592 </i>
    <i name="e_wo_entrp">    449.99670299 </i>
    <i name="e_0_energy">    449.96769828 </i>
   </energy>
  </scstep>
  <scstep>
   <time name="dav">    9.30    9.32</time>
   <time name="total">    9.30    9.32</time>
   <energy>
    <i name="e_fr_energy">    127.67812852 </i>
    <i name="e_wo_entrp">    127.68002909 </i>
    <i name="e_0_energy">    127.67876205 </i>
   </energy>
  </scstep>
  <scstep>
   <time name="dav">    7.72    7.74</time>
   <time name="total">    7.73    7.74</time>
   <energy>
    <i name="e_fr_energy">      5.27795466 </i>
    <i name="e_wo_entrp">      5.26501193 </i>
    <i name="e_0_energy">      5.27364042 </i>
   </energy>
  </scstep>
  <scstep>
   <time name="dav">    7.27    7.29</time>
   <time name="total">    8.10    8.12</time>
   <energy>
    <i name="e_fr_energy">    -14.95694089 </i>
    <i name="e_wo_entrp">    -14.93334057 </i>
    <i name="e_0_energy">    -14.94907411 </i>
   </energy>
  </scstep>
  <scstep>
   <time name="dav">    6.36    6.37</time>
   <time name="total">   11.13   11.16</time>
   <energy>
    <i name="e_fr_energy">     -6.08087294 </i>
    <i name="e_wo_entrp">     -6.10880759 </i>
    <i name="e_0_energy">     -6.09018449 </i>
   </energy>
  </scstep>
  <scstep>
   <time name="dav">    6.52    6.55</time>
   <time name="total">   11.21   11.25</time>
   <energy>
    <i name="e_fr_energy">     -2.25515584 </i>
    <i name="e_wo_entrp">     -2.27955873 </i>
    <i name="e_0_energy">     -2.26329014 </i>
   </energy>
  </scstep>
  <scstep>
   <time name="dav">    6.54    6.55</time>
   <time name="total">   11.27   11.30</time>
   <energy>
    <i name="e_fr_energy">     -6.74659686 </i>
    <i name="e_wo_entrp">     -6.75552861 </i>
    <i name="e_0_energy">     -6.74957411 </i>
   </energy>
  </scstep>
  <scstep>
   <time name="dav">    6.37    6.38</time>
   <time name="total">   11.09   11.12</time>
   <energy>
    <i name="e_fr_energy">     -9.67663207 </i>
    <i name="e_wo_entrp">     -9.68256741 </i>
    <i name="e_0_energy">     -9.67861052 </i>
   </energy>
  </scstep>
  <scstep>
   <time name="dav">    6.20    6.22</time>
   <time name="total">   10.95   10.98</time>
   <energy>
    <i name="e_fr_energy">    -12.55009942 </i>
    <i name="e_wo_entrp">    -12.55708844 </i>
    <i name="e_0_energy">    -12.55242909 </i>
   </energy>
  </scstep>
  <scstep>
   <time name="dav">    6.17    6.19</time>
   <time name="total">   10.89   10.92</time>
   <energy>
    <i name="e_fr_energy">    -14.20757688 </i>
    <i name="e_wo_entrp">    -14.21853525 </i>
    <i name="e_0_energy">    -14.21122967 </i>
   </energy>
  </scstep>
  <scstep>
   <time name="dav">    5.92    5.94</time>
   <time name="total">   10.65   10.68</time>
   <energy>
    <i name="e_fr_energy">    -15.38512893 </i>
    <i name="e_wo_entrp">    -15.39803196 </i>
    <i name="e_0_energy">    -15.38942994 </i>
   </energy>
  </scstep>
  <scstep>
   <time name="dav">    5.83    5.84</time>
   <time name="total">   10.62   10.65</time>
   <energy>
    <i name="e_fr_energy">    -16.04723229 </i>
    <i name="e_wo_entrp">    -16.05942177 </i>
    <i name="e_0_energy">    -16.05129545 </i>
   </energy>
  </scstep>
  <scstep>
   <time name="dav">    6.65    6.67</time>
   <time name="total">   11.41   11.46</time>
   <energy>
    <i name="e_fr_energy">    -16.30466722 </i>
    <i name="e_wo_entrp">    -16.31652534 </i>
    <i name="e_0_energy">    -16.30861992 </i>
   </energy>
  </scstep>
  <scstep>
   <time name="dav">    6.21    6.22</time>
   <time name="total">   10.97   11.00</time>
   <energy>
    <i name="e_fr_energy">    -16.66314373 </i>
    <i name="e_wo_entrp">    -16.67475765 </i>
    <i name="e_0_energy">    -16.66701503 </i>
   </energy>
  </scstep>
  <scstep>
   <time name="dav">    6.29    6.31</time>
   <time name="total">   11.07   11.11</time>
   <energy>
    <i name="e_fr_energy">    -16.82212423 </i>
    <i name="e_wo_entrp">    -16.83372277 </i>
    <i name="e_0_energy">    -16.82599041 </i>
   </energy>
  </scstep>
  <scstep>
   <time name="dav">    5.43    5.45</time>
   <time name="total">   10.17   10.20</time>
   <energy>
    <i name="e_fr_energy">    -16.87790570 </i>
    <i name="e_wo_entrp">    -16.88950197 </i>
    <i name="e_0_energy">    -16.88177112 </i>
   </energy>
  </scstep>
  <scstep>
   <time name="dav">    5.28    5.29</time>
   <time name="total">   10.03   10.06</time>
   <energy>
    <i name="e_fr_energy">    -16.90229413 </i>
    <i name="e_wo_entrp">    -16.91388996 </i>
    <i name="e_0_energy">    -16.90615941 </i>
   </energy>
  </scstep>
  <scstep>
   <time name="dav">    4.90    4.91</time>
   <time name="total">    9.69    9.71</time>
   <energy>
    <i name="e_fr_energy">    -16.91856459 </i>
    <i name="e_wo_entrp">    -16.93016040 </i>
    <i name="e_0_energy">    -16.92242986 </i>
   </energy>
  </scstep>
  <scstep>
   <time name="dav">    4.62    4.63</time>
   <time name="total">    9.37    9.40</time>
   <energy>
    <i name="e_fr_energy">    -16.92278570 </i>
    <i name="e_wo_entrp">    -16.93438152 </i>
    <i name="e_0_energy">    -16.92665097 </i>
   </energy>
  </scstep>
  <scstep>
   <time name="dav">    4.71    4.73</time>
   <time name="total">    9.48    9.51</time>
   <energy>
    <i name="e_fr_energy">    -16.92559512 </i>
    <i name="e_wo_entrp">    -16.93719095 </i>
    <i name="e_0_energy">    -16.92946040 </i>
   </energy>
  </scstep>
  <scstep>
   <time name="dav">    4.88    4.89</time>
   <time name="total">    9.70    9.75</time>
   <energy>
    <i name="e_fr_energy">    -16.92749190 </i>
    <i name="e_wo_entrp">    -16.93908773 </i>
    <i name="e_0_energy">    -16.93135718 </i>
   </energy>
  </scstep>
  <scstep>
   <time name="dav">    4.72    4.73</time>
   <time name="total">    9.47    9.49</time>
   <energy>
    <i name="e_fr_energy">    -16.92908894 </i>
    <i name="e_wo_entrp">    -16.94068476 </i>
    <i name="e_0_energy">    -16.93295421 </i>
   </energy>
  </scstep>
  <scstep>
   <time name="dav">    5.07    5.08</time>
   <time name="total">    9.87    9.90</time>
   <energy>
    <i name="e_fr_energy">    -16.92996393 </i>
    <i name="e_wo_entrp">    -16.94155975 </i>
    <i name="e_0_energy">    -16.93382921 </i>
   </energy>
  </scstep>
  <scstep>
   <time name="dav">    4.72    4.74</time>
   <time name="total">    9.51    9.54</time>
   <energy>
    <i name="e_fr_energy">    -16.93031254 </i>
    <i name="e_wo_entrp">    -16.94190836 </i>
    <i name="e_0_energy">    -16.93417781 </i>
   </energy>
  </scstep>
  <scstep>
   <time name="dav">    4.75    4.76</time>
   <time name="total">    8.53    8.55</time>
   <energy>
    <i name="alphaZ">      6.51714733 </i>
    <i name="ewald">   7718.07322611 </i>
    <i name="hartreedc"> -14775.31341518 </i>
    <i name="XCdc">    114.24667746 </i>
    <i name="pawpsdc">   7779.62851498 </i>
    <i name="pawaedc">  -7608.17586649 </i>
    <i name="eentropy">      0.01159582 </i>
    <i name="bandstr">   -660.56243043 </i>
    <i name="atom">   7408.64415014 </i>
    <i name="e_fr_energy">    -16.93040026 </i>
    <i name="e_wo_entrp">    -16.94199608 </i>
    <i name="e_0_energy">    -16.93426553 </i>
   </energy>
  </scstep>
  <structure>
   <crystal>
    <varray name="basis" >
     <v>      21.96964583       0.00000000       0.00000000 </v>
     <v>       0.00000000      22.55171695       0.00000000 </v>
     <v>       0.00000000       0.00000000      23.08711448 </v>
    </varray>
    <i name="volume">  11438.58553475 </i>
    <varray name="rec_basis" >
     <v>       0.04551735       0.00000000       0.00000000 </v>
     <v>       0.00000000       0.04434252       0.00000000 </v>
     <v>       0.00000000       0.00000000       0.04331420 </v>
    </varray>
   </crystal>
   <varray name="positions" >
    <v>       0.39773471       0.52660801       0.48145099 </v>
    <v>       0.57575869       0.61929407       0.60022978 </v>
    <v>       0.49725080       0.57994789       0.52273898 </v>
    <v>       0.49787021       0.55853855       0.40459534 </v>
    <v>       0.57727189       0.50510006       0.58105179 </v>
    <v>       0.56469795       0.39297577       0.54708791 </v>
    <v>       0.45956346       0.45907739       0.55353303 </v>
    <v>       0.55175731       0.47580964       0.46412287 </v>
   </varray>
  </structure>
  <varray name="forces" >
   <v>      -0.02906176      -0.01487600       0.01043784 </v>
   <v>       0.00231530       0.02707448       0.01943907 </v>
   <v>       0.03402318      -0.00566761      -0.02971928 </v>
   <v>      -0.00600368      -0.00230641       0.00590593 </v>
   <v>      -0.01804819      -0.00623890       0.01581282 </v>
   <v>      -0.03158594      -0.00449221      -0.00766247 </v>
   <v>       0.03159503      -0.00443091       0.00115827 </v>
   <v>       0.01676608       0.01093757      -0.01537218 </v>
  </varray>
  <energy>
   <i name="e_fr_energy">    -16.93040026 </i>
   <i name="e_wo_entrp">    -16.94199608 </i>
   <i name="e_0_energy">    -16.93426553 </i>
  </energy>
  <time name="totalsc">  275.18  276.01</time>
 </calculation>
 <calculation>
  <scstep>
   <time name="dav">    6.46    6.48</time>
   <time name="total">   11.05   11.08</time>
   <energy>
    <i name="alphaZ">      6.51714733 </i>
    <i name="ewald">   7717.23674209 </i>
    <i name="hartreedc"> -14774.47897120 </i>
    <i name="XCdc">    114.24388374 </i>
    <i name="pawpsdc">   7779.60333354 </i>
    <i name="pawaedc">  -7608.15071213 </i>
    <i name="eentropy">      0.01159582 </i>
    <i name="bandstr">   -660.55780610 </i>
    <i name="atom">   7408.64415014 </i>
    <i name="e_fr_energy">    -16.93063677 </i>
    <i name="e_wo_entrp">    -16.94223259 </i>
    <i name="e_0_energy">    -16.93450205 </i>
   </energy>
  </scstep>
  <scstep>
   <time name="dav">    6.49    6.50</time>
   <time name="total">   11.03   11.06</time>
   <energy>
    <i name="e_fr_energy">    -16.93076860 </i>
    <i name="e_wo_entrp">    -16.94236441 </i>
    <i name="e_0_energy">    -16.93463387 </i>
   </energy>
  </scstep>
  <scstep>
   <time name="dav">    4.69    4.71</time>
   <time name="total">    8.45    8.47</time>
   <energy>
    <i name="alphaZ">      6.51714733 </i>
    <i name="ewald">   7717.23674209 </i>
    <i name="hartreedc"> -14774.48596622 </i>
    <i name="XCdc">    114.24446343 </i>
    <i name="pawpsdc">   7779.35677303 </i>
    <i name="pawaedc">  -7607.90012796 </i>
    <i name="eentropy">      0.01159582 </i>
    <i name="bandstr">   -660.55554475 </i>
    <i name="atom">   7408.64415014 </i>
    <i name="e_fr_energy">    -16.93076710 </i>
    <i name="e_wo_entrp">    -16.94236291 </i>
    <i name="e_0_energy">    -16.93463237 </i>
   </energy>
  </scstep>
  <structure>
   <crystal>
    <varray name="basis" >
     <v>      21.96964583       0.00000000       0.00000000 </v>
     <v>       0.00000000      22.55171695       0.00000000 </v>
     <v>       0.00000000       0.00000000      23.08711448 </v>
    </varray>
    <i name="volume">  11438.58553475 </i>
    <varray name="rec_basis" >
     <v>       0.04551735       0.00000000       0.00000000 </v>
     <v>       0.00000000       0.04434252       0.00000000 </v>
     <v>       0.00000000       0.00000000       0.04331420 </v>
    </varray>
   </crystal>
   <varray name="positions" >
    <v>       0.39767089       0.52657618       0.48147280 </v>
    <v>       0.57576377       0.61935199       0.60027040 </v>
    <v>       0.49732551       0.57993577       0.52267687 </v>
    <v>       0.49785702       0.55853361       0.40460769 </v>
    <v>       0.57723226       0.50508672       0.58108483 </v>
    <v>       0.56462859       0.39296616       0.54707190 </v>
    <v>       0.45963284       0.45906791       0.55353545 </v>
    <v>       0.55179412       0.47583304       0.46409074 </v>
   </varray>
  </structure>
  <varray name="forces" >
   <v>      -0.01236251      -0.01103422       0.01700802 </v>
   <v>      -0.00348971       0.00703070       0.00875813 </v>
   <v>       0.02414248      -0.00387995      -0.01980824 </v>
   <v>      -0.00823036      -0.00005281      -0.00027851 </v>
   <v>      -0.01095790       0.00601278       0.01464574 </v>
   <v>      -0.01826244      -0.00595429      -0.00741018 </v>
   <v>       0.01157984       0.00406952      -0.00516021 </v>
   <v>       0.01758060       0.00380827      -0.00775475 </v>
  </varray>
  <energy>
   <i name="e_fr_energy">    -16.93076710 </i>
   <i name="e_wo_entrp">    -16.94236291 </i>
   <i name="e_0_energy">    -16.93463237 </i>
  </energy>
  <time name="totalsc">   43.40   43.54</time>
 </calculation>
 <calculation>
  <scstep>
   <time name="dav">    6.47    6.49</time>
   <time name="total">   11.01   11.05</time>
   <energy>
    <i name="alphaZ">      6.51714733 </i>
    <i name="ewald">   7716.15820940 </i>
    <i name="hartreedc"> -14773.42226062 </i>
    <i name="XCdc">    114.24103776 </i>
    <i name="pawpsdc">   7779.20196291 </i>
    <i name="pawaedc">  -7607.74317385 </i>
    <i name="eentropy">      0.01159582 </i>
    <i name="bandstr">   -660.53954657 </i>
    <i name="atom">   7408.64415014 </i>
    <i name="e_fr_energy">    -16.93087767 </i>
    <i name="e_wo_entrp">    -16.94247348 </i>
    <i name="e_0_energy">    -16.93474294 </i>
   </energy>
  </scstep>
  <scstep>
   <time name="dav">    6.43    6.46</time>
   <time name="total">   11.00   11.06</time>
   <energy>
    <i name="e_fr_energy">    -16.93108057 </i>
    <i name="e_wo_entrp">    -16.94267639 </i>
    <i name="e_0_energy">    -16.93494584 </i>
   </energy>
  </scstep>
  <scstep>
   <time name="dav">    4.68    4.69</time>
   <time name="total">    8.46    8.49</time>
   <energy>
    <i name="alphaZ">      6.51714733 </i>
    <i name="ewald">   7716.15820940 </i>
    <i name="hartreedc"> -14773.43113324 </i>
    <i name="XCdc">    114.24177311 </i>
    <i name="pawpsdc">   7778.85243817 </i>
    <i name="pawaedc">  -7607.38792038 </i>
    <i name="eentropy">      0.01159582 </i>
    <i name="bandstr">   -660.53733337 </i>
    <i name="atom">   7408.64415014 </i>
    <i name="e_fr_energy">    -16.93107302 </i>
    <i name="e_wo_entrp">    -16.94266884 </i>
    <i name="e_0_energy">    -16.93493829 </i>
   </energy>
  </scstep>
  <structure>
   <crystal>
    <varray name="basis" >
     <v>      21.96964583       0.00000000       0.00000000 </v>
     <v>       0.00000000      22.55171695       0.00000000 </v>
     <v>       0.00000000       0.00000000      23.08711448 </v>
    </varray>
    <i name="volume">  11438.58553475 </i>
    <varray name="rec_basis" >
     <v>       0.04551735       0.00000000       0.00000000 </v>
     <v>       0.00000000       0.04434252       0.00000000 </v>
     <v>       0.00000000       0.00000000       0.04331420 </v>
    </varray>
   </crystal>
   <varray name="positions" >
    <v>       0.39758873       0.52653521       0.48150088 </v>
    <v>       0.57577032       0.61942655       0.60032269 </v>
    <v>       0.49742169       0.57992016       0.52259693 </v>
    <v>       0.49784005       0.55852726       0.40462357 </v>
    <v>       0.57718124       0.50506953       0.58112737 </v>
    <v>       0.56453930       0.39295378       0.54705129 </v>
    <v>       0.45972216       0.45905571       0.55353856 </v>
    <v>       0.55184152       0.47586316       0.46404939 </v>
   </varray>
  </structure>
  <varray name="forces" >
   <v>       0.00277687      -0.00962341       0.02656960 </v>
   <v>      -0.00965618      -0.01220915      -0.00079251 </v>
   <v>       0.01821270      -0.00248620      -0.01299292 </v>
   <v>      -0.01142330       0.00260278      -0.00665431 </v>
   <v>      -0.00581667       0.02004614       0.01622150 </v>
   <v>      -0.00799888      -0.00880362      -0.00838832 </v>
   <v>      -0.00728751       0.01321731      -0.01247088 </v>
   <v>       0.02119297      -0.00274386      -0.00149215 </v>
  </varray>
  <energy>
   <i name="e_fr_energy">    -16.93107302 </i>
   <i name="e_wo_entrp">    -16.94266884 </i>
   <i name="e_0_energy">    -16.93493829 </i>
  </energy>
  <time name="totalsc">   42.69   42.88</time>
  <eigenvalues>
   <array>
    <dimension dim="1">band</dimension>
    <dimension dim="2">kpoint</dimension>
    <dimension dim="3">spin</dimension>
    <field>eigene</field>
    <field>occ</field>
    <set>
     <set comment="spin 1">
      <set comment="kpoint 1">
       <r>  -10.7933    1.0000 </r>
       <r>  -10.1097    1.0000 </r>
       <r>   -9.8435    1.0000 </r>
       <r>   -9.5329    1.0000 </r>
       <r>   -9.2955    1.0000 </r>
       <r>   -9.0052    1.0000 </r>
       <r>   -8.9469    1.0000 </r>
       <r>   -8.9025    1.0000 </r>
       <r>   -8.6479    1.0000 </r>
       <r>   -8.4992    1.0000 </r>
       <r>   -8.4250    1.0000 </r>
       <r>   -8.3055    1.0000 </r>
       <r>   -8.1028    1.0000 </r>
       <r>   -8.0182    1.0000 </r>
       <r>   -7.8517    1.0000 </r>
       <r>   -7.8179    1.0000 </r>
       <r>   -7.6871    1.0000 </r>
       <r>   -7.6462    1.0000 </r>
       <r>   -7.6184    1.0000 </r>
       <r>   -7.5413    1.0000 </r>
       <r>   -7.4010    1.0000 </r>
       <r>   -7.3311    1.0000 </r>
       <r>   -7.3233    1.0000 </r>
       <r>   -7.2478    1.0000 </r>
       <r>   -7.1046    1.0000 </r>
       <r>   -7.0078    1.0000 </r>
       <r>   -6.8926    1.0000 </r>
       <r>   -6.8397    1.0000 </r>
       <r>   -6.8103    1.0000 </r>
       <r>   -6.7047    1.0000 </r>
       <r>   -6.6741    1.0000 </r>
       <r>   -6.6491    1.0000 </r>
       <r>   -6.6279    1.0000 </r>
       <r>   -6.5480    1.0000 </r>
       <r>   -6.4504    1.0000 </r>
       <r>   -6.3951    1.0000 </r>
       <r>   -6.3516    1.0000 </r>
       <r>   -6.2185    1.0000 </r>
       <r>   -6.1459    1.0000 </r>
       <r>   -6.1025    1.0000 </r>
       <r>   -5.9367    1.0000 </r>
       <r>   -5.9027    1.0000 </r>
       <r>   -5.8698    1.0000 </r>
       <r>   -5.1427    1.0000 </r>
       <r>   -3.9061   -0.0000 </r>
       <r>   -3.6793   -0.0000 </r>
       <r>   -3.5419   -0.0000 </r>
       <r>   -3.4643   -0.0000 </r>
       <r>   -1.5859   -0.0000 </r>
       <r>   -1.5458   -0.0000 </r>
       <r>   -1.3811   -0.0000 </r>
       <r>   -1.2386   -0.0000 </r>
       <r>   -0.8252   -0.0000 </r>
       <r>   -0.5803   -0.0000 </r>
       <r>   -0.3292   -0.0000 </r>
       <r>    0.0548   -0.0000 </r>
      </set>
     </set>
     <set comment="spin 2">
      <set comment="kpoint 1">
       <r>  -10.7933    1.0000 </r>
       <r>  -10.1097    1.0000 </r>
       <r>   -9.8435    1.0000 </r>
       <r>   -9.5329    1.0000 </r>
       <r>   -9.2955    1.0000 </r>
       <r>   -9.0052    1.0000 </r>
       <r>   -8.9469    1.0000 </r>
       <r>   -8.9025    1.0000 </r>
       <r>   -8.6479    1.0000 </r>
       <r>   -8.4992    1.0000 </r>
       <r>   -8.4250    1.0000 </r>
       <r>   -8.3055    1.0000 </r>
       <r>   -8.1028    1.0000 </r>
       <r>   -8.0182    1.0000 </r>
       <r>   -7.8517    1.0000 </r>
       <r>   -7.8179    1.0000 </r>
       <r>   -7.6871    1.0000 </r>
       <r>   -7.6462    1.0000 </r>
       <r>   -7.6184    1.0000 </r>
       <r>   -7.5413    1.0000 </r>
       <r>   -7.4010    1.0000 </r>
       <r>   -7.3311    1.0000 </r>
       <r>   -7.3233    1.0000 </r>
       <r>   -7.2478    1.0000 </r>
       <r>   -7.1046    1.0000 </r>
       <r>   -7.0078    1.0000 </r>
       <r>   -6.8926    1.0000 </r>
       <r>   -6.8397    1.0000 </r>
       <r>   -6.8103    1.0000 </r>
       <r>   -6.7047    1.0000 </r>
       <r>   -6.6741    1.0000 </r>
       <r>   -6.6491    1.0000 </r>
       <r>   -6.6279    1.0000 </r>
       <r>   -6.5480    1.0000 </r>
       <r>   -6.4504    1.0000 </r>
       <r>   -6.3951    1.0000 </r>
       <r>   -6.3516    1.0000 </r>
       <r>   -6.2185    1.0000 </r>
       <r>   -6.1459    1.0000 </r>
       <r>   -6.1025    1.0000 </r>
       <r>   -5.9367    1.0000 </r>
       <r>   -5.9027    1.0000 </r>
       <r>   -5.8698    1.0000 </r>
       <r>   -5.1427    1.0000 </r>
       <r>   -3.9061   -0.0000 </r>
       <r>   -3.6793   -0.0000 </r>
       <r>   -3.5419   -0.0000 </r>
       <r>   -3.4643   -0.0000 </r>
       <r>   -1.5858   -0.0000 </r>
       <r>   -1.5458   -0.0000 </r>
       <r>   -1.3809   -0.0000 </r>
       <r>   -1.2386   -0.0000 </r>
       <r>   -0.8251   -0.0000 </r>
       <r>   -0.5802   -0.0000 </r>
       <r>   -0.3291   -0.0000 </r>
       <r>    0.0561   -0.0000 </r>
      </set>
     </set>
    </set>
   </array>
  </eigenvalues>
  <separator name="orbital magnetization" >
   <v name="MAGDIPOLOUT">      0.00000000      0.00000000      0.00000000</v>
  </separator>
  <dos>
   <i name="efermi">     -4.97433525 </i>
   <total>
    <array>
     <dimension dim="1">gridpoints</dimension>
     <dimension dim="2">spin</dimension>
     <field>energy</field>
     <field>total</field>
     <field>integrated</field>
     <set>
      <set comment="spin 1">
       <r>   -12.7933     0.0000     0.0000 </r>
       <r>   -12.7438     0.0000     0.0000 </r>
       <r>   -12.6943     0.0000     0.0000 </r>
       <r>   -12.6448     0.0000     0.0000 </r>
       <r>   -12.5953     0.0000     0.0000 </r>
       <r>   -12.5458     0.0000     0.0000 </r>
       <r>   -12.4963     0.0000     0.0000 </r>
       <r>   -12.4468     0.0000     0.0000 </r>
       <r>   -12.3973    -0.0000    -0.0000 </r>
       <r>   -12.3478    -0.0000    -0.0000 </r>
       <r>   -12.2983    -0.0000    -0.0000 </r>
       <r>   -12.2488    -0.0000    -0.0000 </r>
       <r>   -12.1993    -0.0000    -0.0000 </r>
       <r>   -12.1498    -0.0000    -0.0000 </r>
       <r>   -12.1003    -0.0000    -0.0000 </r>
       <r>   -12.0508    -0.0000    -0.0000 </r>
       <r>   -12.0013    -0.0000    -0.0000 </r>
       <r>   -11.9518    -0.0000    -0.0000 </r>
       <r>   -11.9023    -0.0000    -0.0000 </r>
       <r>   -11.8528    -0.0000    -0.0000 </r>
       <r>   -11.8033    -0.0000    -0.0000 </r>
       <r>   -11.7538    -0.0000    -0.0000 </r>
       <r>   -11.7043    -0.0000    -0.0000 </r>
       <r>   -11.6548    -0.0000    -0.0000 </r>
       <r>   -11.6053    -0.0000    -0.0000 </r>
       <r>   -11.5558    -0.0000    -0.0000 </r>
       <r>   -11.5063    -0.0000    -0.0000 </r>
       <r>   -11.4568    -0.0002    -0.0000 </r>
       <r>   -11.4073    -0.0010    -0.0001 </r>
       <r>   -11.3578    -0.0036    -0.0002 </r>
       <r>   -11.3083    -0.0117    -0.0008 </r>
       <r>   -11.2588    -0.0322    -0.0024 </r>
       <r>   -11.2093    -0.0748    -0.0061 </r>
       <r>   -11.1598    -0.1432    -0.0132 </r>
       <r>   -11.1103    -0.2130    -0.0237 </r>
       <r>   -11.0608    -0.2027    -0.0338 </r>
       <r>   -11.0113     0.0330    -0.0321 </r>
       <r>   -10.9618     0.6450    -0.0002 </r>
       <r>   -10.9123     1.6624     0.0821 </r>
       <r>   -10.8628     2.8757     0.2244 </r>
       <r>   -10.8133     3.8606     0.4155 </r>
       <r>   -10.7638     4.1916     0.6230 </r>
       <r>   -10.7143     3.7130     0.8068 </r>
       <r>   -10.6648     2.6451     0.9377 </r>
       <r>   -10.6154     1.4311     1.0085 </r>
       <r>   -10.5659     0.4582     1.0312 </r>
       <r>   -10.5164    -0.1226     1.0251 </r>
       <r>   -10.4669    -0.3755     1.0066 </r>
       <r>   -10.4174    -0.4263     0.9855 </r>
       <r>   -10.3679    -0.3186     0.9697 </r>
       <r>   -10.3184     0.0255     0.9709 </r>
       <r>   -10.2689     0.7186     1.0065 </r>
       <r>   -10.2194     1.7508     1.0932 </r>
       <r>   -10.1699     2.8898     1.2362 </r>
       <r>   -10.1204     3.7646     1.4225 </r>
       <r>   -10.0709     4.1184     1.6264 </r>
       <r>   -10.0214     4.0216     1.8255 </r>
       <r>    -9.9719     3.8118     2.0141 </r>
       <r>    -9.9224     3.7783     2.2012 </r>
       <r>    -9.8729     3.8912     2.3938 </r>
       <r>    -9.8234     3.8642     2.5850 </r>
       <r>    -9.7739     3.4956     2.7581 </r>
       <r>    -9.7244     2.9316     2.9032 </r>
       <r>    -9.6749     2.5709     3.0304 </r>
       <r>    -9.6254     2.7034     3.1642 </r>
       <r>    -9.5759     3.2501     3.3251 </r>
       <r>    -9.5264     3.8556     3.5160 </r>
       <r>    -9.4769     4.2193     3.7248 </r>
       <r>    -9.4274     4.3093     3.9381 </r>
       <r>    -9.3779     4.2590     4.1489 </r>
       <r>    -9.3284     4.1172     4.3527 </r>
       <r>    -9.2789     3.7941     4.5405 </r>
       <r>    -9.2294     3.2980     4.7038 </r>
       <r>    -9.1799     2.9832     4.8514 </r>
       <r>    -9.1304     3.4522     5.0223 </r>
       <r>    -9.0809     5.0912     5.2743 </r>
       <r>    -9.0314     7.6082     5.6509 </r>
       <r>    -8.9819    10.0180     6.1468 </r>
       <r>    -8.9324    11.1806     6.7002 </r>
       <r>    -8.8829    10.5367     7.2217 </r>
       <r>    -8.8334     8.4856     7.6417 </r>
       <r>    -8.7839     6.1142     7.9444 </r>
       <r>    -8.7344     4.5065     8.1675 </r>
       <r>    -8.6849     4.1740     8.3741 </r>
       <r>    -8.6354     4.9696     8.6200 </r>
       <r>    -8.5859     6.3910     8.9364 </r>
       <r>    -8.5364     7.9107     9.3280 </r>
       <r>    -8.4869     9.1103     9.7789 </r>
       <r>    -8.4374     9.6838    10.2582 </r>
       <r>    -8.3879     9.4710    10.7270 </r>
       <r>    -8.3384     8.5512    11.1503 </r>
       <r>    -8.2889     7.2872    11.5110 </r>
       <r>    -8.2394     6.2118    11.8185 </r>
       <r>    -8.1899     5.7689    12.1040 </r>
       <r>    -8.1404     6.0578    12.4039 </r>
       <r>    -8.0910     6.7912    12.7400 </r>
       <r>    -8.0415     7.5402    13.1132 </r>
       <r>    -7.9920     8.0793    13.5131 </r>
       <r>    -7.9425     8.5266    13.9352 </r>
       <r>    -7.8930     9.1790    14.3895 </r>
       <r>    -7.8435    10.2455    14.8967 </r>
       <r>    -7.7940    11.7147    15.4765 </r>
       <r>    -7.7445    13.3612    16.1379 </r>
       <r>    -7.6950    14.7824    16.8696 </r>
       <r>    -7.6455    15.4947    17.6365 </r>
       <r>    -7.5960    15.2022    18.3890 </r>
       <r>    -7.5465    14.1217    19.0880 </r>
       <r>    -7.4970    12.9978    19.7314 </r>
       <r>    -7.4475    12.6249    20.3563 </r>
       <r>    -7.3980    13.2054    21.0099 </r>
       <r>    -7.3485    14.1370    21.7097 </r>
       <r>    -7.2990    14.4702    22.4259 </r>
       <r>    -7.2495    13.6522    23.1017 </r>
       <r>    -7.2000    11.9165    23.6915 </r>
       <r>    -7.1505    10.0423    24.1886 </r>
       <r>    -7.1010     8.7898    24.6237 </r>
       <r>    -7.0515     8.5192    25.0454 </r>
       <r>    -7.0020     9.1978    25.5006 </r>
       <r>    -6.9525    10.6090    26.0257 </r>
       <r>    -6.9030    12.5123    26.6451 </r>
       <r>    -6.8535    14.6914    27.3723 </r>
       <r>    -6.8040    16.9389    28.2107 </r>
       <r>    -6.7545    18.9971    29.1510 </r>
       <r>    -6.7050    20.4928    30.1654 </r>
       <r>    -6.6555    21.0038    31.2050 </r>
       <r>    -6.6060    20.3254    32.2111 </r>
       <r>    -6.5565    18.7164    33.1375 </r>
       <r>    -6.5070    16.8058    33.9694 </r>
       <r>    -6.4575    15.1704    34.7203 </r>
       <r>    -6.4080    13.9933    35.4129 </r>
       <r>    -6.3585    13.1358    36.0631 </r>
       <r>    -6.3090    12.4638    36.6801 </r>
       <r>    -6.2595    12.0045    37.2743 </r>
       <r>    -6.2100    11.7986    37.8583 </r>
       <r>    -6.1605    11.7447    38.4396 </r>
       <r>    -6.1110    11.7121    39.0193 </r>
       <r>    -6.0615    11.7618    39.6015 </r>
       <r>    -6.0120    12.0889    40.1999 </r>
       <r>    -5.9625    12.6439    40.8257 </r>
       <r>    -5.9130    12.8851    41.4635 </r>
       <r>    -5.8635    12.0622    42.0606 </r>
       <r>    -5.8140     9.8424    42.5478 </r>
       <r>    -5.7645     6.6625    42.8776 </r>
       <r>    -5.7150     3.4605    43.0488 </r>
       <r>    -5.6655     1.0595    43.1013 </r>
       <r>    -5.6161    -0.2530    43.0888 </r>
       <r>    -5.5666    -0.6976    43.0542 </r>
       <r>    -5.5171    -0.6919    43.0200 </r>
       <r>    -5.4676    -0.5572    42.9924 </r>
       <r>    -5.4181    -0.3925    42.9730 </r>
       <r>    -5.3686    -0.1004    42.9680 </r>
       <r>    -5.3191     0.4936    42.9924 </r>
       <r>    -5.2696     1.4728    43.0653 </r>
       <r>    -5.2201     2.6857    43.1983 </r>
       <r>    -5.1706     3.7398    43.3834 </r>
       <r>    -5.1211     4.1939    43.5910 </r>
       <r>    -5.0716     3.8378    43.7809 </r>
       <r>    -5.0221     2.8384    43.9214 </r>
       <r>    -4.9726     1.6256    44.0019 </r>
       <r>    -4.9231     0.6191    44.0325 </r>
       <r>    -4.8736     0.0205    44.0336 </r>
       <r>    -4.8241    -0.2055    44.0234 </r>
       <r>    -4.7746    -0.2114    44.0129 </r>
       <r>    -4.7251    -0.1408    44.0060 </r>
       <r>    -4.6756    -0.0730    44.0023 </r>
       <r>    -4.6261    -0.0313    44.0008 </r>
       <r>    -4.5766    -0.0115    44.0002 </r>
       <r>    -4.5271    -0.0043    44.0000 </r>
       <r>    -4.4776    -0.0040    43.9998 </r>
       <r>    -4.4281    -0.0103    43.9993 </r>
       <r>    -4.3786    -0.0283    43.9979 </r>
       <r>    -4.3291    -0.0675    43.9946 </r>
       <r>    -4.2796    -0.1339    43.9879 </r>
       <r>    -4.2301    -0.2106    43.9775 </r>
       <r>    -4.1806    -0.2301    43.9661 </r>
       <r>    -4.1311    -0.0633    43.9630 </r>
       <r>    -4.0816     0.4343    43.9845 </r>
       <r>    -4.0321     1.3126    44.0494 </r>
       <r>    -3.9826     2.4240    44.1694 </r>
       <r>    -3.9331     3.4504    44.3402 </r>
       <r>    -3.8836     4.1026    44.5433 </r>
       <r>    -3.8341     4.3523    44.7587 </r>
       <r>    -3.7846     4.4808    44.9805 </r>
       <r>    -3.7351     4.8773    45.2219 </r>
       <r>    -3.6856     5.7568    45.5069 </r>
       <r>    -3.6361     7.0137    45.8540 </r>
       <r>    -3.5866     8.2680    46.2633 </r>
       <r>    -3.5371     9.0232    46.7099 </r>
       <r>    -3.4876     8.8641    47.1487 </r>
       <r>    -3.4381     7.6559    47.5276 </r>
       <r>    -3.3886     5.6544    47.8075 </r>
       <r>    -3.3391     3.4133    47.9765 </r>
       <r>    -3.2896     1.5099    48.0512 </r>
       <r>    -3.2401     0.2755    48.0648 </r>
       <r>    -3.1906    -0.2894    48.0505 </r>
       <r>    -3.1411    -0.4002    48.0307 </r>
       <r>    -3.0917    -0.3068    48.0155 </r>
       <r>    -3.0422    -0.1783    48.0067 </r>
       <r>    -2.9927    -0.0848    48.0025 </r>
       <r>    -2.9432    -0.0341    48.0008 </r>
       <r>    -2.8937    -0.0117    48.0002 </r>
       <r>    -2.8442    -0.0035    48.0001 </r>
       <r>    -2.7947    -0.0009    48.0000 </r>
       <r>    -2.7452    -0.0002    48.0000 </r>
       <r>    -2.6957    -0.0000    48.0000 </r>
       <r>    -2.6462    -0.0000    48.0000 </r>
       <r>    -2.5967    -0.0000    48.0000 </r>
       <r>    -2.5472    -0.0000    48.0000 </r>
       <r>    -2.4977    -0.0000    48.0000 </r>
       <r>    -2.4482    -0.0000    48.0000 </r>
       <r>    -2.3987    -0.0000    48.0000 </r>
       <r>    -2.3492    -0.0000    48.0000 </r>
       <r>    -2.2997    -0.0001    48.0000 </r>
       <r>    -2.2502    -0.0003    48.0000 </r>
       <r>    -2.2007    -0.0013    47.9999 </r>
       <r>    -2.1512    -0.0048    47.9997 </r>
       <r>    -2.1017    -0.0161    47.9989 </r>
       <r>    -2.0522    -0.0460    47.9966 </r>
       <r>    -2.0027    -0.1125    47.9910 </r>
       <r>    -1.9532    -0.2302    47.9796 </r>
       <r>    -1.9037    -0.3791    47.9609 </r>
       <r>    -1.8542    -0.4532    47.9384 </r>
       <r>    -1.8047    -0.2253    47.9273 </r>
       <r>    -1.7552     0.6000    47.9570 </r>
       <r>    -1.7057     2.2060    48.0662 </r>
       <r>    -1.6562     4.4420    48.2860 </r>
       <r>    -1.6067     6.7641    48.6209 </r>
       <r>    -1.5572     8.4808    49.0406 </r>
       <r>    -1.5077     9.1723    49.4947 </r>
       <r>    -1.4582     8.9398    49.9372 </r>
       <r>    -1.4087     8.2588    50.3459 </r>
       <r>    -1.3592     7.5734    50.7208 </r>
       <r>    -1.3097     6.9928    51.0669 </r>
       <r>    -1.2602     6.3107    51.3793 </r>
       <r>    -1.2107     5.2718    51.6403 </r>
       <r>    -1.1612     3.8416    51.8304 </r>
       <r>    -1.1117     2.2915    51.9438 </r>
       <r>    -1.0622     1.0723    51.9969 </r>
       <r>    -1.0127     0.5782    52.0255 </r>
       <r>    -0.9632     0.9365    52.0719 </r>
       <r>    -0.9137     1.9260    52.1672 </r>
       <r>    -0.8642     3.0747    52.3194 </r>
       <r>    -0.8147     3.9161    52.5132 </r>
       <r>    -0.7652     4.2569    52.7239 </r>
       <r>    -0.7157     4.2464    52.9341 </r>
       <r>    -0.6662     4.1712    53.1406 </r>
       <r>    -0.6167     4.1751    53.3473 </r>
       <r>    -0.5673     4.1895    53.5546 </r>
       <r>    -0.5178     4.1191    53.7585 </r>
       <r>    -0.4683     4.0212    53.9576 </r>
       <r>    -0.4188     4.0328    54.1572 </r>
       <r>    -0.3693     4.1366    54.3619 </r>
       <r>    -0.3198     4.0807    54.5639 </r>
       <r>    -0.2703     3.5921    54.7417 </r>
       <r>    -0.2208     2.6833    54.8745 </r>
       <r>    -0.1713     1.7351    54.9604 </r>
       <r>    -0.1218     1.2653    55.0230 </r>
       <r>    -0.0723     1.5677    55.1006 </r>
       <r>    -0.0228     2.4918    55.2240 </r>
       <r>     0.0267     3.5106    55.3978 </r>
       <r>     0.0762     4.0328    55.5974 </r>
       <r>     0.1257     3.7534    55.7832 </r>
       <r>     0.1752     2.8047    55.9220 </r>
       <r>     0.2247     1.6162    56.0020 </r>
       <r>     0.2742     0.6181    56.0326 </r>
       <r>     0.3237     0.0209    56.0336 </r>
       <r>     0.3732    -0.2055    56.0234 </r>
       <r>     0.4227    -0.2117    56.0130 </r>
       <r>     0.4722    -0.1411    56.0060 </r>
       <r>     0.5217    -0.0733    56.0023 </r>
       <r>     0.5712    -0.0314    56.0008 </r>
       <r>     0.6207    -0.0114    56.0002 </r>
       <r>     0.6702    -0.0035    56.0001 </r>
       <r>     0.7197    -0.0009    56.0000 </r>
       <r>     0.7692    -0.0002    56.0000 </r>
       <r>     0.8187    -0.0000    56.0000 </r>
       <r>     0.8682    -0.0000    56.0000 </r>
       <r>     0.9177    -0.0000    56.0000 </r>
       <r>     0.9672    -0.0000    56.0000 </r>
       <r>     1.0167    -0.0000    56.0000 </r>
       <r>     1.0662    -0.0000    56.0000 </r>
       <r>     1.1157    -0.0000    56.0000 </r>
       <r>     1.1652    -0.0000    56.0000 </r>
       <r>     1.2147    -0.0000    56.0000 </r>
       <r>     1.2642    -0.0000    56.0000 </r>
       <r>     1.3137    -0.0000    56.0000 </r>
       <r>     1.3632     0.0000    56.0000 </r>
       <r>     1.4127     0.0000    56.0000 </r>
       <r>     1.4622     0.0000    56.0000 </r>
       <r>     1.5117     0.0000    56.0000 </r>
       <r>     1.5612     0.0000    56.0000 </r>
       <r>     1.6107     0.0000    56.0000 </r>
       <r>     1.6602     0.0000    56.0000 </r>
       <r>     1.7097     0.0000    56.0000 </r>
       <r>     1.7592     0.0000    56.0000 </r>
       <r>     1.8087     0.0000    56.0000 </r>
       <r>     1.8582     0.0000    56.0000 </r>
       <r>     1.9076     0.0000    56.0000 </r>
       <r>     1.9571     0.0000    56.0000 </r>
       <r>     2.0066     0.0000    56.0000 </r>
       <r>     2.0561     0.0000    56.0000 </r>
      </set>
      <set comment="spin 2">
       <r>   -12.7933     0.0000     0.0000 </r>
       <r>   -12.7438     0.0000     0.0000 </r>
       <r>   -12.6943     0.0000     0.0000 </r>
       <r>   -12.6448     0.0000     0.0000 </r>
       <r>   -12.5953     0.0000     0.0000 </r>
       <r>   -12.5458     0.0000     0.0000 </r>
       <r>   -12.4963     0.0000     0.0000 </r>
       <r>   -12.4468     0.0000     0.0000 </r>
       <r>   -12.3973    -0.0000    -0.0000 </r>
       <r>   -12.3478    -0.0000    -0.0000 </r>
       <r>   -12.2983    -0.0000    -0.0000 </r>
       <r>   -12.2488    -0.0000    -0.0000 </r>
       <r>   -12.1993    -0.0000    -0.0000 </r>
       <r>   -12.1498    -0.0000    -0.0000 </r>
       <r>   -12.1003    -0.0000    -0.0000 </r>
       <r>   -12.0508    -0.0000    -0.0000 </r>
       <r>   -12.0013    -0.0000    -0.0000 </r>
       <r>   -11.9518    -0.0000    -0.0000 </r>
       <r>   -11.9023    -0.0000    -0.0000 </r>
       <r>   -11.8528    -0.0000    -0.0000 </r>
       <r>   -11.8033    -0.0000    -0.0000 </r>
       <r>   -11.7538    -0.0000    -0.0000 </r>
       <r>   -11.7043    -0.0000    -0.0000 </r>
       <r>   -11.6548    -0.0000    -0.0000 </r>
       <r>   -11.6053    -0.0000    -0.0000 </r>
       <r>   -11.5558    -0.0000    -0.0000 </r>
       <r>   -11.5063    -0.0000    -0.0000 </r>
       <r>   -11.4568    -0.0002    -0.0000 </r>
       <r>   -11.4073    -0.0010    -0.0001 </r>
       <r>   -11.3578    -0.0036    -0.0002 </r>
       <r>   -11.3083    -0.0117    -0.0008 </r>
       <r>   -11.2588    -0.0322    -0.0024 </r>
       <r>   -11.2093    -0.0748    -0.0061 </r>
       <r>   -11.1598    -0.1432    -0.0132 </r>
       <r>   -11.1103    -0.2130    -0.0237 </r>
       <r>   -11.0608    -0.2027    -0.0338 </r>
       <r>   -11.0113     0.0330    -0.0321 </r>
       <r>   -10.9618     0.6450    -0.0002 </r>
       <r>   -10.9123     1.6624     0.0821 </r>
       <r>   -10.8628     2.8757     0.2244 </r>
       <r>   -10.8133     3.8606     0.4155 </r>
       <r>   -10.7638     4.1916     0.6230 </r>
       <r>   -10.7143     3.7130     0.8068 </r>
       <r>   -10.6648     2.6451     0.9377 </r>
       <r>   -10.6154     1.4311     1.0085 </r>
       <r>   -10.5659     0.4582     1.0312 </r>
       <r>   -10.5164    -0.1226     1.0251 </r>
       <r>   -10.4669    -0.3755     1.0066 </r>
       <r>   -10.4174    -0.4263     0.9855 </r>
       <r>   -10.3679    -0.3186     0.9697 </r>
       <r>   -10.3184     0.0255     0.9709 </r>
       <r>   -10.2689     0.7186     1.0065 </r>
       <r>   -10.2194     1.7508     1.0932 </r>
       <r>   -10.1699     2.8898     1.2362 </r>
       <r>   -10.1204     3.7646     1.4226 </r>
       <r>   -10.0709     4.1184     1.6264 </r>
       <r>   -10.0214     4.0216     1.8255 </r>
       <r>    -9.9719     3.8118     2.0141 </r>
       <r>    -9.9224     3.7783     2.2012 </r>
       <r>    -9.8729     3.8912     2.3938 </r>
       <r>    -9.8234     3.8642     2.5850 </r>
       <r>    -9.7739     3.4956     2.7581 </r>
       <r>    -9.7244     2.9316     2.9032 </r>
       <r>    -9.6749     2.5708     3.0304 </r>
       <r>    -9.6254     2.7034     3.1642 </r>
       <r>    -9.5759     3.2501     3.3251 </r>
       <r>    -9.5264     3.8556     3.5160 </r>
       <r>    -9.4769     4.2193     3.7248 </r>
       <r>    -9.4274     4.3093     3.9381 </r>
       <r>    -9.3779     4.2590     4.1489 </r>
       <r>    -9.3284     4.1172     4.3527 </r>
       <r>    -9.2789     3.7941     4.5405 </r>
       <r>    -9.2294     3.2980     4.7038 </r>
       <r>    -9.1799     2.9832     4.8514 </r>
       <r>    -9.1304     3.4522     5.0223 </r>
       <r>    -9.0809     5.0912     5.2743 </r>
       <r>    -9.0314     7.6082     5.6509 </r>
       <r>    -8.9819    10.0180     6.1468 </r>
       <r>    -8.9324    11.1806     6.7002 </r>
       <r>    -8.8829    10.5367     7.2217 </r>
       <r>    -8.8334     8.4856     7.6418 </r>
       <r>    -8.7839     6.1142     7.9444 </r>
       <r>    -8.7344     4.5065     8.1675 </r>
       <r>    -8.6849     4.1740     8.3741 </r>
       <r>    -8.6354     4.9696     8.6200 </r>
       <r>    -8.5859     6.3910     8.9364 </r>
       <r>    -8.5364     7.9107     9.3280 </r>
       <r>    -8.4869     9.1103     9.7789 </r>
       <r>    -8.4374     9.6838    10.2582 </r>
       <r>    -8.3879     9.4710    10.7270 </r>
       <r>    -8.3384     8.5512    11.1503 </r>
       <r>    -8.2889     7.2872    11.5110 </r>
       <r>    -8.2394     6.2118    11.8185 </r>
       <r>    -8.1899     5.7689    12.1040 </r>
       <r>    -8.1404     6.0578    12.4039 </r>
       <r>    -8.0910     6.7912    12.7400 </r>
       <r>    -8.0415     7.5402    13.1132 </r>
       <r>    -7.9920     8.0793    13.5132 </r>
       <r>    -7.9425     8.5266    13.9352 </r>
       <r>    -7.8930     9.1790    14.3895 </r>
       <r>    -7.8435    10.2455    14.8967 </r>
       <r>    -7.7940    11.7147    15.4765 </r>
       <r>    -7.7445    13.3612    16.1379 </r>
       <r>    -7.6950    14.7824    16.8696 </r>
       <r>    -7.6455    15.4947    17.6365 </r>
       <r>    -7.5960    15.2022    18.3890 </r>
       <r>    -7.5465    14.1216    19.0880 </r>
       <r>    -7.4970    12.9978    19.7314 </r>
       <r>    -7.4475    12.6249    20.3563 </r>
       <r>    -7.3980    13.2054    21.0099 </r>
       <r>    -7.3485    14.1370    21.7097 </r>
       <r>    -7.2990    14.4702    22.4259 </r>
       <r>    -7.2495    13.6522    23.1017 </r>
       <r>    -7.2000    11.9165    23.6915 </r>
       <r>    -7.1505    10.0423    24.1886 </r>
       <r>    -7.1010     8.7898    24.6237 </r>
       <r>    -7.0515     8.5192    25.0454 </r>
       <r>    -7.0020     9.1979    25.5006 </r>
       <r>    -6.9525    10.6090    26.0258 </r>
       <r>    -6.9030    12.5123    26.6451 </r>
       <r>    -6.8535    14.6914    27.3723 </r>
       <r>    -6.8040    16.9389    28.2107 </r>
       <r>    -6.7545    18.9972    29.1511 </r>
       <r>    -6.7050    20.4928    30.1654 </r>
       <r>    -6.6555    21.0038    31.2051 </r>
       <r>    -6.6060    20.3254    32.2111 </r>
       <r>    -6.5565    18.7163    33.1375 </r>
       <r>    -6.5070    16.8058    33.9694 </r>
       <r>    -6.4575    15.1703    34.7203 </r>
       <r>    -6.4080    13.9933    35.4129 </r>
       <r>    -6.3585    13.1358    36.0631 </r>
       <r>    -6.3090    12.4638    36.6801 </r>
       <r>    -6.2595    12.0045    37.2743 </r>
       <r>    -6.2100    11.7986    37.8583 </r>
       <r>    -6.1605    11.7447    38.4396 </r>
       <r>    -6.1110    11.7121    39.0193 </r>
       <r>    -6.0615    11.7618    39.6015 </r>
       <r>    -6.0120    12.0889    40.1999 </r>
       <r>    -5.9625    12.6439    40.8258 </r>
       <r>    -5.9130    12.8851    41.4635 </r>
       <r>    -5.8635    12.0622    42.0606 </r>
       <r>    -5.8140     9.8424    42.5478 </r>
       <r>    -5.7645     6.6625    42.8776 </r>
       <r>    -5.7150     3.4605    43.0488 </r>
       <r>    -5.6655     1.0595    43.1013 </r>
       <r>    -5.6161    -0.2530    43.0888 </r>
       <r>    -5.5666    -0.6976    43.0542 </r>
       <r>    -5.5171    -0.6919    43.0200 </r>
       <r>    -5.4676    -0.5572    42.9924 </r>
       <r>    -5.4181    -0.3925    42.9730 </r>
       <r>    -5.3686    -0.1003    42.9680 </r>
       <r>    -5.3191     0.4936    42.9924 </r>
       <r>    -5.2696     1.4729    43.0653 </r>
       <r>    -5.2201     2.6857    43.1983 </r>
       <r>    -5.1706     3.7398    43.3834 </r>
       <r>    -5.1211     4.1939    43.5910 </r>
       <r>    -5.0716     3.8378    43.7809 </r>
       <r>    -5.0221     2.8384    43.9214 </r>
       <r>    -4.9726     1.6255    44.0019 </r>
       <r>    -4.9231     0.6191    44.0325 </r>
       <r>    -4.8736     0.0205    44.0336 </r>
       <r>    -4.8241    -0.2056    44.0234 </r>
       <r>    -4.7746    -0.2114    44.0129 </r>
       <r>    -4.7251    -0.1408    44.0060 </r>
       <r>    -4.6756    -0.0730    44.0023 </r>
       <r>    -4.6261    -0.0313    44.0008 </r>
       <r>    -4.5766    -0.0115    44.0002 </r>
       <r>    -4.5271    -0.0043    44.0000 </r>
       <r>    -4.4776    -0.0040    43.9998 </r>
       <r>    -4.4281    -0.0103    43.9993 </r>
       <r>    -4.3786    -0.0283    43.9979 </r>
       <r>    -4.3291    -0.0675    43.9946 </r>
       <r>    -4.2796    -0.1339    43.9879 </r>
       <r>    -4.2301    -0.2106    43.9775 </r>
       <r>    -4.1806    -0.2301    43.9661 </r>
       <r>    -4.1311    -0.0634    43.9630 </r>
       <r>    -4.0816     0.4342    43.9845 </r>
       <r>    -4.0321     1.3125    44.0494 </r>
       <r>    -3.9826     2.4239    44.1694 </r>
       <r>    -3.9331     3.4503    44.3402 </r>
       <r>    -3.8836     4.1026    44.5433 </r>
       <r>    -3.8341     4.3524    44.7587 </r>
       <r>    -3.7846     4.4809    44.9805 </r>
       <r>    -3.7351     4.8774    45.2219 </r>
       <r>    -3.6856     5.7569    45.5069 </r>
       <r>    -3.6361     7.0138    45.8540 </r>
       <r>    -3.5866     8.2681    46.2633 </r>
       <r>    -3.5371     9.0233    46.7099 </r>
       <r>    -3.4876     8.8641    47.1487 </r>
       <r>    -3.4381     7.6559    47.5276 </r>
       <r>    -3.3886     5.6544    47.8075 </r>
       <r>    -3.3391     3.4132    47.9765 </r>
       <r>    -3.2896     1.5099    48.0512 </r>
       <r>    -3.2401     0.2755    48.0648 </r>
       <r>    -3.1906    -0.2894    48.0505 </r>
       <r>    -3.1411    -0.4002    48.0307 </r>
       <r>    -3.0917    -0.3068    48.0155 </r>
       <r>    -3.0422    -0.1783    48.0067 </r>
       <r>    -2.9927    -0.0848    48.0025 </r>
       <r>    -2.9432    -0.0341    48.0008 </r>
       <r>    -2.8937    -0.0117    48.0002 </r>
       <r>    -2.8442    -0.0035    48.0001 </r>
       <r>    -2.7947    -0.0009    48.0000 </r>
       <r>    -2.7452    -0.0002    48.0000 </r>
       <r>    -2.6957    -0.0000    48.0000 </r>
       <r>    -2.6462    -0.0000    48.0000 </r>
       <r>    -2.5967    -0.0000    48.0000 </r>
       <r>    -2.5472    -0.0000    48.0000 </r>
       <r>    -2.4977    -0.0000    48.0000 </r>
       <r>    -2.4482    -0.0000    48.0000 </r>
       <r>    -2.3987    -0.0000    48.0000 </r>
       <r>    -2.3492    -0.0000    48.0000 </r>
       <r>    -2.2997    -0.0001    48.0000 </r>
       <r>    -2.2502    -0.0003    48.0000 </r>
       <r>    -2.2007    -0.0013    47.9999 </r>
       <r>    -2.1512    -0.0048    47.9997 </r>
       <r>    -2.1017    -0.0160    47.9989 </r>
       <r>    -2.0522    -0.0460    47.9966 </r>
       <r>    -2.0027    -0.1125    47.9910 </r>
       <r>    -1.9532    -0.2301    47.9797 </r>
       <r>    -1.9037    -0.3790    47.9609 </r>
       <r>    -1.8542    -0.4532    47.9385 </r>
       <r>    -1.8047    -0.2255    47.9273 </r>
       <r>    -1.7552     0.5994    47.9570 </r>
       <r>    -1.7057     2.2050    48.0661 </r>
       <r>    -1.6562     4.4406    48.2859 </r>
       <r>    -1.6067     6.7623    48.6206 </r>
       <r>    -1.5572     8.4785    49.0403 </r>
       <r>    -1.5077     9.1695    49.4942 </r>
       <r>    -1.4582     8.9370    49.9365 </r>
       <r>    -1.4087     8.2567    50.3452 </r>
       <r>    -1.3592     7.5728    50.7201 </r>
       <r>    -1.3097     6.9942    51.0663 </r>
       <r>    -1.2602     6.3137    51.3788 </r>
       <r>    -1.2107     5.2754    51.6399 </r>
       <r>    -1.1612     3.8449    51.8302 </r>
       <r>    -1.1117     2.2939    51.9438 </r>
       <r>    -1.0622     1.0733    51.9969 </r>
       <r>    -1.0127     0.5776    52.0255 </r>
       <r>    -0.9632     0.9347    52.0717 </r>
       <r>    -0.9137     1.9236    52.1670 </r>
       <r>    -0.8642     3.0726    52.3190 </r>
       <r>    -0.8147     3.9150    52.5128 </r>
       <r>    -0.7652     4.2569    52.7235 </r>
       <r>    -0.7157     4.2467    52.9337 </r>
       <r>    -0.6662     4.1714    53.1402 </r>
       <r>    -0.6167     4.1751    53.3469 </r>
       <r>    -0.5673     4.1891    53.5542 </r>
       <r>    -0.5178     4.1182    53.7581 </r>
       <r>    -0.4683     4.0198    53.9570 </r>
       <r>    -0.4188     4.0311    54.1566 </r>
       <r>    -0.3693     4.1361    54.3613 </r>
       <r>    -0.3198     4.0826    54.5634 </r>
       <r>    -0.2703     3.5960    54.7414 </r>
       <r>    -0.2208     2.6857    54.8743 </r>
       <r>    -0.1713     1.7302    54.9600 </r>
       <r>    -0.1218     1.2482    55.0217 </r>
       <r>    -0.0723     1.5390    55.0979 </r>
       <r>    -0.0228     2.4596    55.2197 </r>
       <r>     0.0267     3.4881    55.3923 </r>
       <r>     0.0762     4.0307    55.5918 </r>
       <r>     0.1257     3.7727    55.7786 </r>
       <r>     0.1752     2.8365    55.9190 </r>
       <r>     0.2247     1.6477    56.0005 </r>
       <r>     0.2742     0.6402    56.0322 </r>
       <r>     0.3237     0.0317    56.0338 </r>
       <r>     0.3732    -0.2030    56.0237 </r>
       <r>     0.4227    -0.2131    56.0132 </r>
       <r>     0.4722    -0.1432    56.0061 </r>
       <r>     0.5217    -0.0748    56.0024 </r>
       <r>     0.5712    -0.0322    56.0008 </r>
       <r>     0.6207    -0.0117    56.0002 </r>
       <r>     0.6702    -0.0036    56.0001 </r>
       <r>     0.7197    -0.0010    56.0000 </r>
       <r>     0.7692    -0.0002    56.0000 </r>
       <r>     0.8187    -0.0000    56.0000 </r>
       <r>     0.8682    -0.0000    56.0000 </r>
       <r>     0.9177    -0.0000    56.0000 </r>
       <r>     0.9672    -0.0000    56.0000 </r>
       <r>     1.0167    -0.0000    56.0000 </r>
       <r>     1.0662    -0.0000    56.0000 </r>
       <r>     1.1157    -0.0000    56.0000 </r>
       <r>     1.1652    -0.0000    56.0000 </r>
       <r>     1.2147    -0.0000    56.0000 </r>
       <r>     1.2642    -0.0000    56.0000 </r>
       <r>     1.3137    -0.0000    56.0000 </r>
       <r>     1.3632     0.0000    56.0000 </r>
       <r>     1.4127     0.0000    56.0000 </r>
       <r>     1.4622     0.0000    56.0000 </r>
       <r>     1.5117     0.0000    56.0000 </r>
       <r>     1.5612     0.0000    56.0000 </r>
       <r>     1.6107     0.0000    56.0000 </r>
       <r>     1.6602     0.0000    56.0000 </r>
       <r>     1.7097     0.0000    56.0000 </r>
       <r>     1.7592     0.0000    56.0000 </r>
       <r>     1.8087     0.0000    56.0000 </r>
       <r>     1.8582     0.0000    56.0000 </r>
       <r>     1.9076     0.0000    56.0000 </r>
       <r>     1.9571     0.0000    56.0000 </r>
       <r>     2.0066     0.0000    56.0000 </r>
       <r>     2.0561     0.0000    56.0000 </r>
      </set>
     </set>
    </array>
   </total>
  </dos>
 </calculation>
 <structure name="finalpos" >
  <crystal>
   <varray name="basis" >
    <v>      21.96964583       0.00000000       0.00000000 </v>
    <v>       0.00000000      22.55171695       0.00000000 </v>
    <v>       0.00000000       0.00000000      23.08711448 </v>
   </varray>
   <i name="volume">  11438.58553475 </i>
   <varray name="rec_basis" >
    <v>       0.04551735       0.00000000       0.00000000 </v>
    <v>       0.00000000       0.04434252       0.00000000 </v>
    <v>       0.00000000       0.00000000       0.04331420 </v>
   </varray>
  </crystal>
  <varray name="positions" >
   <v>       0.39758873       0.52653521       0.48150088 </v>
   <v>       0.57577032       0.61942655       0.60032269 </v>
   <v>       0.49742169       0.57992016       0.52259693 </v>
   <v>       0.49784005       0.55852726       0.40462357 </v>
   <v>       0.57718124       0.50506953       0.58112737 </v>
   <v>       0.56453930       0.39295378       0.54705129 </v>
   <v>       0.45972216       0.45905571       0.55353856 </v>
   <v>       0.55184152       0.47586316       0.46404939 </v>
  </varray>
 </structure>
</modeling>
