unknown system                          
            1
    21.969646    0.000000    0.000000
     0.000000   22.551717    0.000000
     0.000000    0.000000   23.087114
   Au
     8
Direct configuration=     1
   0.39773471  0.52660801  0.48145099
   0.57575869  0.61929407  0.60022978
   0.49725080  0.57994789  0.52273898
   0.49787021  0.55853855  0.40459534
   0.57727189  0.50510006  0.58105179
   0.56469795  0.39297577  0.54708791
   0.45956346  0.45907739  0.55353303
   0.55175731  0.47580964  0.46412287
Direct configuration=     2
   0.39767089  0.52657618  0.48147280
   0.57576377  0.61935199  0.60027040
   0.49732551  0.57993577  0.52267687
   0.49785702  0.55853361  0.40460769
   0.57723226  0.50508672  0.58108483
   0.56462859  0.39296616  0.54707190
   0.45963284  0.45906791  0.55353545
   0.55179412  0.47583304  0.46409074
Direct configuration=     3
   0.39758873  0.52653521  0.48150088
   0.57577032  0.61942655  0.60032269
   0.49742169  0.57992016  0.52259693
   0.49784005  0.55852726  0.40462357
   0.57718124  0.50506953  0.58112737
   0.56453930  0.39295378  0.54705129
   0.45972216  0.45905571  0.55353856
   0.55184152  0.47586316  0.46404939
