       N       E                     dE             d eps       ncg     rms          rms(c)
DAV:   1     0.688464116865E+03    0.68846E+03   -0.16462E+04   276   0.704E+02
DAV:   2     0.240580446175E+03   -0.44788E+03   -0.41600E+03   456   0.128E+02
DAV:   3     0.143145568118E+02   -0.22627E+03   -0.21008E+03   408   0.122E+02
DAV:   4    -0.384172065985E+02   -0.52732E+02   -0.45902E+02   392   0.559E+01
DAV:   5    -0.430686443428E+02   -0.46514E+01   -0.43428E+01   303   0.245E+01    0.253E+01
DAV:   6    -0.547225183947E+02   -0.11654E+02   -0.97598E+01   302   0.147E+02    0.511E+01
DAV:   7    -0.387537040258E+02    0.15969E+02   -0.65014E+01   325   0.782E+01    0.254E+01
DAV:   8    -0.386084180616E+02    0.14529E+00   -0.24962E+01   327   0.724E+01    0.365E+01
DAV:   9    -0.410945544151E+02   -0.24861E+01   -0.17070E+01   374   0.593E+01    0.480E+01
DAV:  10    -0.385576283837E+02    0.25369E+01   -0.31362E+01   352   0.508E+01    0.337E+01
DAV:  11    -0.368046054828E+02    0.17530E+01   -0.86508E+00   351   0.292E+01    0.194E+01
DAV:  12    -0.356243945600E+02    0.11802E+01   -0.53224E+00   368   0.311E+01    0.223E+01
DAV:  13    -0.351989888451E+02    0.42541E+00   -0.37374E+00   359   0.224E+01    0.157E+01
DAV:  14    -0.353115326047E+02   -0.11254E+00   -0.18517E+00   357   0.196E+01    0.183E+01
DAV:  15    -0.350134244833E+02    0.29811E+00   -0.14479E+00   366   0.142E+01    0.137E+01
DAV:  16    -0.351740544349E+02   -0.16063E+00   -0.45149E-01   373   0.841E+00    0.909E+00
DAV:  17    -0.353646624470E+02   -0.19061E+00   -0.96203E-01   374   0.936E+00    0.475E+00
DAV:  18    -0.356017282122E+02   -0.23707E+00   -0.15428E-01   349   0.315E+00    0.652E+00
DAV:  19    -0.358158774706E+02   -0.21415E+00   -0.13939E-01   349   0.518E+00    0.340E+00
DAV:  20    -0.361555489211E+02   -0.33967E+00   -0.18441E-01   373   0.551E+00    0.361E+00
DAV:  21    -0.364383066613E+02   -0.28276E+00   -0.15082E-01   357   0.404E+00    0.187E+00
DAV:  22    -0.366588481683E+02   -0.22054E+00   -0.63014E-02   357   0.226E+00    0.190E+00
DAV:  23    -0.367621213880E+02   -0.10327E+00   -0.24401E-02   342   0.212E+00    0.810E-01
DAV:  24    -0.369021427676E+02   -0.14002E+00   -0.16462E-02   340   0.121E+00    0.918E-01
DAV:  25    -0.369783905903E+02   -0.76248E-01   -0.61563E-03   317   0.855E-01    0.852E-01
DAV:  26    -0.370254685080E+02   -0.47078E-01   -0.36047E-03   356   0.738E-01    0.344E-01
DAV:  27    -0.370776624662E+02   -0.52194E-01   -0.15785E-03   301   0.380E-01    0.179E-01
DAV:  28    -0.371226044999E+02   -0.44942E-01   -0.89487E-04   244   0.241E-01    0.209E-01
DAV:  29    -0.371608805390E+02   -0.38276E-01   -0.10170E-03   261   0.248E-01    0.115E-01
DAV:  30    -0.371973563331E+02   -0.36476E-01   -0.92924E-04   245   0.166E-01    0.952E-02
DAV:  31    -0.372180587293E+02   -0.20702E-01   -0.35141E-04   214   0.127E-01    0.517E-02
DAV:  32    -0.372346484562E+02   -0.16590E-01   -0.31087E-04   205   0.795E-02    0.633E-02
DAV:  33    -0.372429787100E+02   -0.83303E-02   -0.11527E-04   190   0.768E-02    0.476E-02
DAV:  34    -0.372528572571E+02   -0.98785E-02   -0.20583E-04   205   0.578E-02    0.375E-02
DAV:  35    -0.372607704687E+02   -0.79132E-02   -0.16303E-04   189   0.455E-02    0.224E-02
DAV:  36    -0.372647915872E+02   -0.40211E-02   -0.10139E-04   182   0.325E-02    0.179E-02
DAV:  37    -0.372670727127E+02   -0.22811E-02   -0.73453E-05   175   0.338E-02    0.174E-02
DAV:  38    -0.372681512069E+02   -0.10785E-02   -0.37601E-05   182   0.331E-02    0.133E-02
DAV:  39    -0.372689820326E+02   -0.83083E-03   -0.34440E-05   175   0.242E-02    0.120E-02
DAV:  40    -0.372694778537E+02   -0.49582E-03   -0.24802E-05   173   0.202E-02    0.626E-03
DAV:  41    -0.372698266168E+02   -0.34876E-03   -0.15120E-05   168   0.152E-02    0.523E-03
DAV:  42    -0.372700613172E+02   -0.23470E-03   -0.98968E-06   173   0.126E-02    0.440E-03
DAV:  43    -0.372702568876E+02   -0.19557E-03   -0.73896E-06   165   0.989E-03    0.317E-03
DAV:  44    -0.372704255699E+02   -0.16868E-03   -0.58020E-06   166   0.889E-03    0.381E-03
DAV:  45    -0.372705671664E+02   -0.14160E-03   -0.52843E-06   173   0.839E-03    0.234E-03
DAV:  46    -0.372706344133E+02   -0.67247E-04   -0.32687E-06   175   0.654E-03
   1 F= -.37270634E+02 E0= -.37272983E+02  d E =-.372706E+02  mag=     8.0124
