unknown system                          
            1
    22.831530    0.000000    0.000000
     0.000000   22.967089    0.000000
     0.000000    0.000000   21.019880
   Ni   Pd
     6     4
Direct configuration=     1
   0.54910474  0.43303852  0.56363983
   0.55765330  0.48813922  0.46475884
   0.49583221  0.40103694  0.46218170
   0.45920546  0.47935711  0.53045005
   0.43858673  0.58087834  0.53725758
   0.45961556  0.49785431  0.41711790
   0.60212508  0.39055191  0.47466574
   0.53966179  0.54495568  0.56523060
   0.51248490  0.58580822  0.45556997
   0.39143148  0.42654934  0.46050452
