  13  13   0   0
  0.1089653E+04  0.2169915E-08  0.2500623E-08  0.2610602E-08  0.5000000E-15
   1.0000000000000000E-004
  CAR 
 unknown system                          
      2.33720070    -12.71746540  301     -3.81195474      1.00000000
    -12.717  0.0000E+00  0.0000E+00  0.0000E+00  0.0000E+00
    -12.667  0.0000E+00  0.0000E+00  0.0000E+00  0.0000E+00
    -12.617  0.0000E+00  0.0000E+00  0.0000E+00  0.0000E+00
    -12.567  0.0000E+00  0.0000E+00  0.0000E+00  0.0000E+00
    -12.517  0.0000E+00  0.0000E+00  0.0000E+00  0.0000E+00
    -12.467  0.0000E+00  0.0000E+00  0.0000E+00  0.0000E+00
    -12.416  0.0000E+00  0.0000E+00  0.0000E+00  0.0000E+00
    -12.366 -0.1421E-30  0.0000E+00 -0.7129E-32  0.0000E+00
    -12.316 -0.7955E-29 -0.4437E-29 -0.4063E-30 -0.2226E-30
    -12.266 -0.3984E-27 -0.2226E-27 -0.2040E-28 -0.1139E-28
    -12.216 -0.1757E-25 -0.1001E-25 -0.9019E-27 -0.5135E-27
    -12.165 -0.6819E-24 -0.3960E-24 -0.3512E-25 -0.2038E-25
    -12.115 -0.2330E-22 -0.1379E-22 -0.1205E-23 -0.7126E-24
    -12.065 -0.7008E-21 -0.4229E-21 -0.3637E-22 -0.2194E-22
    -12.015 -0.1855E-19 -0.1141E-19 -0.9671E-21 -0.5945E-21
    -11.965 -0.4318E-18 -0.2708E-18 -0.2264E-19 -0.1419E-19
    -11.915 -0.8843E-17 -0.5655E-17 -0.4664E-18 -0.2980E-18
    -11.864 -0.1537E-15 -0.1005E-15 -0.8181E-17 -0.5342E-17
    -11.814 -0.2438E-14 -0.1622E-14 -0.1305E-15 -0.8674E-16
    -11.764 -0.3381E-13 -0.2293E-13 -0.1827E-14 -0.1238E-14
    -11.714 -0.4117E-12 -0.2848E-12 -0.2249E-13 -0.1553E-13
    -11.664 -0.4398E-11 -0.3103E-11 -0.2432E-12 -0.1712E-12
    -11.613 -0.4120E-10 -0.2965E-10 -0.2311E-11 -0.1659E-11
    -11.563 -0.3381E-09 -0.2482E-09 -0.1928E-10 -0.1412E-10
    -11.513 -0.2428E-08 -0.1819E-08 -0.1411E-09 -0.1054E-09
    -11.463 -0.1524E-07 -0.1166E-07 -0.9060E-09 -0.6903E-09
    -11.413 -0.8347E-07 -0.6516E-07 -0.5095E-08 -0.3960E-08
    -11.363 -0.3979E-06 -0.3172E-06 -0.2506E-07 -0.1988E-07
    -11.312 -0.1646E-05 -0.1341E-05 -0.1076E-06 -0.8716E-07
    -11.262 -0.5879E-05 -0.4899E-05 -0.4027E-06 -0.3330E-06
    -11.212 -0.1803E-04 -0.1538E-04 -0.1307E-05 -0.1105E-05
    -11.162 -0.4693E-04 -0.4108E-04 -0.3662E-05 -0.3166E-05
    -11.112 -0.1019E-03 -0.9180E-04 -0.8774E-05 -0.7773E-05
    -11.061 -0.1776E-03 -0.1661E-03 -0.1769E-04 -0.1611E-04
    -11.011 -0.2256E-03 -0.2240E-03 -0.2901E-04 -0.2734E-04
    -10.961 -0.1284E-03 -0.1588E-03 -0.3545E-04 -0.3531E-04
    -10.911  0.2804E-03  0.1927E-03 -0.2138E-04 -0.2564E-04
    -10.861  0.1115E-02  0.9621E-03  0.3457E-04  0.2264E-04
    -10.811  0.2290E-02  0.2102E-02  0.1495E-03  0.1281E-03
    -10.760  0.3458E-02  0.3302E-02  0.3230E-03  0.2938E-03
    -10.710  0.4140E-02  0.4085E-02  0.5308E-03  0.4988E-03
    -10.660  0.4017E-02  0.4090E-02  0.7324E-03  0.7040E-03
    -10.610  0.3148E-02  0.3314E-02  0.8904E-03  0.8703E-03
    -10.560  0.1930E-02  0.2116E-02  0.9872E-03  0.9765E-03
    -10.509  0.8285E-03  0.9730E-03  0.1029E-02  0.1025E-02
    -10.459  0.1203E-03  0.1989E-03  0.1035E-02  0.1035E-02
    -10.409 -0.1811E-03 -0.1568E-03  0.1026E-02  0.1027E-02
    -10.359 -0.2200E-03 -0.2242E-03  0.1015E-02  0.1016E-02
    -10.309 -0.1551E-03 -0.1669E-03  0.1007E-02  0.1008E-02
    -10.259 -0.8301E-04 -0.9252E-04  0.1003E-02  0.1003E-02
    -10.208 -0.3618E-04 -0.4149E-04  0.1001E-02  0.1001E-02
    -10.158 -0.1323E-04 -0.1556E-04  0.1000E-02  0.1000E-02
    -10.108 -0.4124E-05 -0.4966E-05  0.1000E-02  0.1000E-02
    -10.058 -0.1106E-05 -0.1361E-05  0.1000E-02  0.1000E-02
    -10.008 -0.2565E-06 -0.3226E-06  0.1000E-02  0.1000E-02
     -9.957 -0.5171E-07 -0.6641E-07  0.1000E-02  0.1000E-02
     -9.907 -0.9501E-08 -0.1225E-07  0.1000E-02  0.1000E-02
     -9.857 -0.4464E-08 -0.4407E-08  0.1000E-02  0.1000E-02
     -9.807 -0.1917E-07 -0.1620E-07  0.1000E-02  0.1000E-02
     -9.757 -0.1022E-06 -0.8703E-07  0.1000E-02  0.1000E-02
     -9.707 -0.4786E-06 -0.4132E-06  0.1000E-02  0.1000E-02
     -9.656 -0.1944E-05 -0.1703E-05  0.9999E-03  0.9999E-03
     -9.606 -0.6818E-05 -0.6061E-05  0.9995E-03  0.9996E-03
     -9.556 -0.2050E-04 -0.1851E-04  0.9985E-03  0.9987E-03
     -9.506 -0.5223E-04 -0.4798E-04  0.9959E-03  0.9962E-03
     -9.456 -0.1106E-03 -0.1036E-03  0.9903E-03  0.9910E-03
     -9.405 -0.1868E-03 -0.1796E-03  0.9810E-03  0.9820E-03
     -9.355 -0.2248E-03 -0.2258E-03  0.9697E-03  0.9707E-03
     -9.305 -0.9899E-04 -0.1234E-03  0.9647E-03  0.9645E-03
     -9.255  0.3562E-03  0.2929E-03  0.9826E-03  0.9792E-03
     -9.205  0.1234E-02  0.1131E-02  0.1045E-02  0.1036E-02
     -9.155  0.2409E-02  0.2292E-02  0.1165E-02  0.1151E-02
     -9.104  0.3495E-02  0.3411E-02  0.1341E-02  0.1322E-02
     -9.054  0.4015E-02  0.4007E-02  0.1542E-02  0.1523E-02
     -9.004  0.3723E-02  0.3791E-02  0.1729E-02  0.1713E-02
     -8.954  0.2826E-02  0.2916E-02  0.1871E-02  0.1860E-02
     -8.904  0.1904E-02  0.1934E-02  0.1967E-02  0.1957E-02
     -8.853  0.1553E-02  0.1464E-02  0.2044E-02  0.2030E-02
     -8.803  0.1993E-02  0.1797E-02  0.2144E-02  0.2120E-02
     -8.753  0.2921E-02  0.2707E-02  0.2291E-02  0.2256E-02
     -8.703  0.3705E-02  0.3591E-02  0.2477E-02  0.2437E-02
     -8.653  0.3808E-02  0.3860E-02  0.2668E-02  0.2630E-02
     -8.603  0.3139E-02  0.3327E-02  0.2826E-02  0.2797E-02
     -8.552  0.2114E-02  0.2328E-02  0.2932E-02  0.2914E-02
     -8.502  0.1376E-02  0.1494E-02  0.3001E-02  0.2989E-02
     -8.452  0.1375E-02  0.1343E-02  0.3070E-02  0.3056E-02
     -8.402  0.2089E-02  0.1947E-02  0.3175E-02  0.3154E-02
     -8.352  0.3044E-02  0.2894E-02  0.3327E-02  0.3299E-02
     -8.301  0.3638E-02  0.3576E-02  0.3510E-02  0.3479E-02
     -8.251  0.3577E-02  0.3619E-02  0.3689E-02  0.3660E-02
     -8.201  0.3102E-02  0.3176E-02  0.3845E-02  0.3820E-02
     -8.151  0.2828E-02  0.2834E-02  0.3987E-02  0.3962E-02
     -8.101  0.3299E-02  0.3185E-02  0.4153E-02  0.4122E-02
     -8.051  0.4588E-02  0.4389E-02  0.4383E-02  0.4342E-02
     -8.000  0.6259E-02  0.6061E-02  0.4697E-02  0.4646E-02
     -7.950  0.7658E-02  0.7536E-02  0.5081E-02  0.5024E-02
     -7.900  0.8298E-02  0.8273E-02  0.5498E-02  0.5440E-02
     -7.850  0.8047E-02  0.8105E-02  0.5901E-02  0.5846E-02
     -7.800  0.7123E-02  0.7236E-02  0.6259E-02  0.6209E-02
     -7.749  0.5990E-02  0.6124E-02  0.6559E-02  0.6517E-02
     -7.699  0.5220E-02  0.5326E-02  0.6821E-02  0.6784E-02
     -7.649  0.5277E-02  0.5302E-02  0.7086E-02  0.7050E-02
     -7.599  0.6238E-02  0.6161E-02  0.7399E-02  0.7359E-02
     -7.549  0.7701E-02  0.7552E-02  0.7786E-02  0.7738E-02
     -7.499  0.9028E-02  0.8871E-02  0.8239E-02  0.8183E-02
     -7.448  0.9791E-02  0.9675E-02  0.8730E-02  0.8669E-02
     -7.398  0.1001E-01  0.9946E-02  0.9232E-02  0.9168E-02
     -7.348  0.9998E-02  0.9982E-02  0.9734E-02  0.9669E-02
     -7.298  0.1008E-01  0.1009E-01  0.1024E-01  0.1018E-01
     -7.248  0.1041E-01  0.1044E-01  0.1076E-01  0.1070E-01
     -7.197  0.1109E-01  0.1109E-01  0.1132E-01  0.1126E-01
     -7.147  0.1223E-01  0.1216E-01  0.1193E-01  0.1187E-01
     -7.097  0.1394E-01  0.1377E-01  0.1263E-01  0.1256E-01
     -7.047  0.1617E-01  0.1590E-01  0.1344E-01  0.1336E-01
     -6.997  0.1862E-01  0.1829E-01  0.1438E-01  0.1427E-01
     -6.947  0.2080E-01  0.2050E-01  0.1542E-01  0.1530E-01
     -6.896  0.2225E-01  0.2206E-01  0.1654E-01  0.1641E-01
     -6.846  0.2263E-01  0.2263E-01  0.1767E-01  0.1754E-01
     -6.796  0.2193E-01  0.2212E-01  0.1878E-01  0.1865E-01
     -6.746  0.2048E-01  0.2076E-01  0.1980E-01  0.1970E-01
     -6.696  0.1889E-01  0.1916E-01  0.2075E-01  0.2066E-01
     -6.645  0.1786E-01  0.1801E-01  0.2165E-01  0.2156E-01
     -6.595  0.1778E-01  0.1778E-01  0.2254E-01  0.2245E-01
     -6.545  0.1854E-01  0.1843E-01  0.2347E-01  0.2338E-01
     -6.495  0.1956E-01  0.1944E-01  0.2445E-01  0.2435E-01
     -6.445  0.2016E-01  0.2011E-01  0.2546E-01  0.2536E-01
     -6.395  0.1990E-01  0.1995E-01  0.2646E-01  0.2636E-01
     -6.344  0.1886E-01  0.1898E-01  0.2741E-01  0.2732E-01
     -6.294  0.1756E-01  0.1769E-01  0.2829E-01  0.2820E-01
     -6.244  0.1667E-01  0.1675E-01  0.2913E-01  0.2905E-01
     -6.194  0.1664E-01  0.1663E-01  0.2996E-01  0.2988E-01
     -6.144  0.1750E-01  0.1740E-01  0.3084E-01  0.3075E-01
     -6.093  0.1898E-01  0.1883E-01  0.3179E-01  0.3170E-01
     -6.043  0.2085E-01  0.2064E-01  0.3284E-01  0.3273E-01
     -5.993  0.2310E-01  0.2283E-01  0.3400E-01  0.3388E-01
     -5.943  0.2603E-01  0.2564E-01  0.3530E-01  0.3517E-01
     -5.893  0.2993E-01  0.2940E-01  0.3681E-01  0.3664E-01
     -5.843  0.3469E-01  0.3410E-01  0.3855E-01  0.3835E-01
     -5.792  0.3964E-01  0.3912E-01  0.4054E-01  0.4032E-01
     -5.742  0.4366E-01  0.4336E-01  0.4273E-01  0.4249E-01
     -5.692  0.4575E-01  0.4576E-01  0.4502E-01  0.4479E-01
     -5.642  0.4566E-01  0.4591E-01  0.4731E-01  0.4709E-01
     -5.592  0.4413E-01  0.4444E-01  0.4953E-01  0.4932E-01
     -5.541  0.4249E-01  0.4265E-01  0.5166E-01  0.5146E-01
     -5.491  0.4193E-01  0.4184E-01  0.5376E-01  0.5356E-01
     -5.441  0.4276E-01  0.4247E-01  0.5591E-01  0.5569E-01
     -5.391  0.4412E-01  0.4384E-01  0.5812E-01  0.5789E-01
     -5.341  0.4452E-01  0.4444E-01  0.6036E-01  0.6012E-01
     -5.290  0.4266E-01  0.4290E-01  0.6250E-01  0.6228E-01
     -5.240  0.3822E-01  0.3872E-01  0.6442E-01  0.6422E-01
     -5.190  0.3186E-01  0.3249E-01  0.6602E-01  0.6585E-01
     -5.140  0.2468E-01  0.2534E-01  0.6725E-01  0.6712E-01
     -5.090  0.1764E-01  0.1828E-01  0.6814E-01  0.6804E-01
     -5.040  0.1131E-01  0.1194E-01  0.6871E-01  0.6864E-01
     -4.989  0.6097E-02  0.6679E-02  0.6901E-01  0.6897E-01
     -4.939  0.2257E-02  0.2737E-02  0.6913E-01  0.6911E-01
     -4.889 -0.1002E-03  0.2210E-03  0.6912E-01  0.6912E-01
     -4.839 -0.1094E-02 -0.9528E-03  0.6907E-01  0.6907E-01
     -4.789 -0.9743E-03 -0.1000E-02  0.6902E-01  0.6902E-01
     -4.738  0.3052E-04 -0.1431E-03  0.6902E-01  0.6902E-01
     -4.688  0.1730E-02  0.1431E-02  0.6911E-01  0.6909E-01
     -4.638  0.3839E-02  0.3459E-02  0.6930E-01  0.6926E-01
     -4.588  0.5865E-02  0.5492E-02  0.6959E-01  0.6954E-01
     -4.538  0.7193E-02  0.6946E-02  0.6995E-01  0.6989E-01
     -4.488  0.7365E-02  0.7337E-02  0.7032E-01  0.7025E-01
     -4.437  0.6337E-02  0.6543E-02  0.7064E-01  0.7058E-01
     -4.387  0.4520E-02  0.4880E-02  0.7087E-01  0.7083E-01
     -4.337  0.2550E-02  0.2940E-02  0.7100E-01  0.7097E-01
     -4.287  0.9605E-03  0.1280E-02  0.7104E-01  0.7104E-01
     -4.237 -0.2423E-04  0.1920E-03  0.7104E-01  0.7105E-01
     -4.186 -0.4715E-03 -0.3430E-03  0.7102E-01  0.7103E-01
     -4.136 -0.5579E-03 -0.5144E-03  0.7099E-01  0.7101E-01
     -4.086 -0.3842E-03 -0.4929E-03  0.7097E-01  0.7098E-01
     -4.036  0.8281E-04 -0.3089E-03  0.7098E-01  0.7097E-01
     -3.986  0.9122E-03  0.1391E-03  0.7102E-01  0.7097E-01
     -3.936  0.2046E-02  0.9620E-03  0.7113E-01  0.7102E-01
     -3.885  0.3232E-02  0.2130E-02  0.7129E-01  0.7113E-01
     -3.835  0.4148E-02  0.3418E-02  0.7150E-01  0.7130E-01
     -3.785  0.4629E-02  0.4518E-02  0.7173E-01  0.7153E-01
     -3.735  0.4756E-02  0.5215E-02  0.7197E-01  0.7179E-01
     -3.685  0.4701E-02  0.5459E-02  0.7220E-01  0.7206E-01
     -3.634  0.4511E-02  0.5283E-02  0.7243E-01  0.7233E-01
     -3.584  0.4101E-02  0.4726E-02  0.7263E-01  0.7256E-01
     -3.534  0.3485E-02  0.3901E-02  0.7281E-01  0.7276E-01
     -3.484  0.2928E-02  0.3097E-02  0.7296E-01  0.7292E-01
     -3.434  0.2787E-02  0.2698E-02  0.7310E-01  0.7305E-01
     -3.384  0.3161E-02  0.2901E-02  0.7325E-01  0.7320E-01
     -3.333  0.3727E-02  0.3484E-02  0.7344E-01  0.7337E-01
     -3.283  0.3956E-02  0.3921E-02  0.7364E-01  0.7357E-01
     -3.233  0.3518E-02  0.3756E-02  0.7382E-01  0.7376E-01
     -3.183  0.2509E-02  0.2927E-02  0.7394E-01  0.7390E-01
     -3.133  0.1329E-02  0.1758E-02  0.7401E-01  0.7399E-01
     -3.082  0.3627E-03  0.6789E-03  0.7403E-01  0.7403E-01
     -3.032 -0.2227E-03 -0.5228E-04  0.7402E-01  0.7402E-01
     -2.982 -0.4610E-03 -0.4102E-03  0.7399E-01  0.7400E-01
     -2.932 -0.4244E-03 -0.4728E-03  0.7397E-01  0.7398E-01
     -2.882 -0.1047E-03 -0.2668E-03  0.7397E-01  0.7397E-01
     -2.832  0.5626E-03  0.2639E-03  0.7400E-01  0.7398E-01
     -2.781  0.1574E-02  0.1161E-02  0.7407E-01  0.7404E-01
     -2.731  0.2783E-02  0.2342E-02  0.7421E-01  0.7415E-01
     -2.681  0.3988E-02  0.3623E-02  0.7441E-01  0.7434E-01
     -2.631  0.5110E-02  0.4866E-02  0.7467E-01  0.7458E-01
     -2.581  0.6231E-02  0.6080E-02  0.7498E-01  0.7489E-01
     -2.530  0.7378E-02  0.7286E-02  0.7535E-01  0.7525E-01
     -2.480  0.8275E-02  0.8274E-02  0.7577E-01  0.7567E-01
     -2.430  0.8392E-02  0.8571E-02  0.7619E-01  0.7610E-01
     -2.380  0.7354E-02  0.7756E-02  0.7656E-01  0.7649E-01
     -2.330  0.5317E-02  0.5871E-02  0.7683E-01  0.7678E-01
     -2.280  0.2952E-02  0.3487E-02  0.7697E-01  0.7695E-01
     -2.229  0.1059E-02  0.1388E-02  0.7703E-01  0.7702E-01
     -2.179  0.1633E-03  0.1576E-03  0.7703E-01  0.7703E-01
     -2.129  0.3655E-03 -0.4408E-05  0.7705E-01  0.7703E-01
     -2.079  0.1382E-02  0.7495E-03  0.7712E-01  0.7707E-01
     -2.029  0.2673E-02  0.2012E-02  0.7726E-01  0.7717E-01
     -1.978  0.3633E-02  0.3224E-02  0.7744E-01  0.7733E-01
     -1.928  0.3862E-02  0.3863E-02  0.7763E-01  0.7753E-01
     -1.878  0.3404E-02  0.3713E-02  0.7780E-01  0.7771E-01
     -1.828  0.2727E-02  0.3025E-02  0.7794E-01  0.7786E-01
     -1.778  0.2379E-02  0.2365E-02  0.7806E-01  0.7798E-01
     -1.728  0.2593E-02  0.2215E-02  0.7819E-01  0.7809E-01
     -1.677  0.3169E-02  0.2658E-02  0.7835E-01  0.7823E-01
     -1.627  0.3767E-02  0.3417E-02  0.7854E-01  0.7840E-01
     -1.577  0.4291E-02  0.4206E-02  0.7875E-01  0.7861E-01
     -1.527  0.4971E-02  0.5014E-02  0.7900E-01  0.7886E-01
     -1.477  0.6006E-02  0.5995E-02  0.7930E-01  0.7916E-01
     -1.426  0.7171E-02  0.7097E-02  0.7966E-01  0.7952E-01
     -1.376  0.7852E-02  0.7875E-02  0.8006E-01  0.7991E-01
     -1.326  0.7558E-02  0.7791E-02  0.8044E-01  0.8031E-01
     -1.276  0.6402E-02  0.6736E-02  0.8076E-01  0.8064E-01
     -1.226  0.5055E-02  0.5228E-02  0.8101E-01  0.8091E-01
     -1.176  0.4216E-02  0.4051E-02  0.8122E-01  0.8111E-01
     -1.125  0.4123E-02  0.3681E-02  0.8143E-01  0.8129E-01
     -1.075  0.4515E-02  0.4023E-02  0.8166E-01  0.8150E-01
     -1.025  0.4952E-02  0.4627E-02  0.8191E-01  0.8173E-01
     -0.975  0.5132E-02  0.5075E-02  0.8216E-01  0.8198E-01
     -0.925  0.4987E-02  0.5198E-02  0.8241E-01  0.8224E-01
     -0.874  0.4665E-02  0.5071E-02  0.8265E-01  0.8250E-01
     -0.824  0.4469E-02  0.4924E-02  0.8287E-01  0.8274E-01
     -0.774  0.4716E-02  0.5036E-02  0.8311E-01  0.8300E-01
     -0.724  0.5478E-02  0.5561E-02  0.8338E-01  0.8328E-01
     -0.674  0.6419E-02  0.6342E-02  0.8371E-01  0.8359E-01
     -0.624  0.6940E-02  0.6911E-02  0.8405E-01  0.8394E-01
     -0.573  0.6618E-02  0.6780E-02  0.8439E-01  0.8428E-01
     -0.523  0.5589E-02  0.5847E-02  0.8467E-01  0.8458E-01
     -0.473  0.4540E-02  0.4576E-02  0.8489E-01  0.8480E-01
     -0.423  0.4246E-02  0.3761E-02  0.8511E-01  0.8499E-01
     -0.373  0.4982E-02  0.3987E-02  0.8536E-01  0.8519E-01
     -0.322  0.6266E-02  0.5178E-02  0.8567E-01  0.8545E-01
     -0.272  0.7163E-02  0.6576E-02  0.8603E-01  0.8578E-01
     -0.222  0.6965E-02  0.7223E-02  0.8638E-01  0.8615E-01
     -0.172  0.5737E-02  0.6626E-02  0.8667E-01  0.8648E-01
     -0.122  0.4290E-02  0.5131E-02  0.8688E-01  0.8674E-01
     -0.072  0.3617E-02  0.3702E-02  0.8707E-01  0.8692E-01
     -0.021  0.4233E-02  0.3295E-02  0.8728E-01  0.8709E-01
      0.029  0.5942E-02  0.4280E-02  0.8758E-01  0.8730E-01
      0.079  0.8146E-02  0.6340E-02  0.8799E-01  0.8762E-01
      0.129  0.1033E-01  0.8840E-02  0.8850E-01  0.8806E-01
      0.179  0.1221E-01  0.1125E-01  0.8912E-01  0.8863E-01
      0.230  0.1353E-01  0.1320E-01  0.8980E-01  0.8929E-01
      0.280  0.1381E-01  0.1430E-01  0.9049E-01  0.9001E-01
      0.330  0.1257E-01  0.1401E-01  0.9112E-01  0.9071E-01
      0.380  0.9809E-02  0.1204E-01  0.9161E-01  0.9132E-01
      0.430  0.6256E-02  0.8715E-02  0.9193E-01  0.9175E-01
      0.480  0.2957E-02  0.5007E-02  0.9207E-01  0.9200E-01
      0.531  0.6800E-03  0.1953E-02  0.9211E-01  0.9210E-01
      0.581 -0.4212E-03  0.1027E-03  0.9209E-01  0.9211E-01
      0.631 -0.6727E-03 -0.6239E-03  0.9205E-01  0.9208E-01
      0.681 -0.5266E-03 -0.6629E-03  0.9203E-01  0.9204E-01
      0.731 -0.3046E-03 -0.4496E-03  0.9201E-01  0.9202E-01
      0.782 -0.1423E-03 -0.2364E-03  0.9200E-01  0.9201E-01
      0.832 -0.5561E-04 -0.1021E-03  0.9200E-01  0.9200E-01
      0.882 -0.1850E-04 -0.3721E-04  0.9200E-01  0.9200E-01
      0.932 -0.5291E-05 -0.1159E-04  0.9200E-01  0.9200E-01
      0.982 -0.1309E-05 -0.3114E-05  0.9200E-01  0.9200E-01
      1.032 -0.2815E-06 -0.7251E-06  0.9200E-01  0.9200E-01
      1.083 -0.5275E-07 -0.1469E-06  0.9200E-01  0.9200E-01
      1.133 -0.8631E-08 -0.2597E-07  0.9200E-01  0.9200E-01
      1.183 -0.1235E-08 -0.4012E-08  0.9200E-01  0.9200E-01
      1.233 -0.1549E-09 -0.5428E-09  0.9200E-01  0.9200E-01
      1.283 -0.1703E-10 -0.6438E-10  0.9200E-01  0.9200E-01
      1.334 -0.1642E-11 -0.6700E-11  0.9200E-01  0.9200E-01
      1.384 -0.1391E-12 -0.6122E-12  0.9200E-01  0.9200E-01
      1.434 -0.1034E-13 -0.4915E-13  0.9200E-01  0.9200E-01
      1.484 -0.6770E-15 -0.3465E-14  0.9200E-01  0.9200E-01
      1.534 -0.4425E-16 -0.2168E-15  0.9200E-01  0.9200E-01
      1.584  0.0000E+00 -0.1327E-16  0.9200E-01  0.9200E-01
      1.635  0.0000E+00  0.0000E+00  0.9200E-01  0.9200E-01
      1.685  0.0000E+00  0.0000E+00  0.9200E-01  0.9200E-01
      1.735  0.0000E+00  0.0000E+00  0.9200E-01  0.9200E-01
      1.785  0.0000E+00  0.0000E+00  0.9200E-01  0.9200E-01
      1.835  0.0000E+00  0.0000E+00  0.9200E-01  0.9200E-01
      1.886  0.0000E+00  0.0000E+00  0.9200E-01  0.9200E-01
      1.936  0.0000E+00  0.0000E+00  0.9200E-01  0.9200E-01
      1.986  0.0000E+00  0.0000E+00  0.9200E-01  0.9200E-01
      2.036  0.0000E+00  0.0000E+00  0.9200E-01  0.9200E-01
      2.086  0.0000E+00  0.0000E+00  0.9200E-01  0.9200E-01
      2.136  0.0000E+00  0.0000E+00  0.9200E-01  0.9200E-01
      2.187  0.0000E+00  0.0000E+00  0.9200E-01  0.9200E-01
      2.237  0.0000E+00  0.0000E+00  0.9200E-01  0.9200E-01
      2.287  0.0000E+00  0.0000E+00  0.9200E-01  0.9200E-01
      2.337  0.0000E+00  0.0000E+00  0.9200E-01  0.9200E-01
