   13   13 1000    2
  0.1089653E+04  0.2169915E-08  0.2500623E-08  0.2610602E-08  0.5000000E-15
   1.0000000000000000E-004
  CAR 
 unknown system                          
    143      1     92
 
  0.1262379E-14  0.1262379E-14  0.1262379E-14  0.1000000E+01
    1      -10.717465    -10.709898   1.000000   1.000000
    2       -9.067706     -9.062728   1.000000   1.000000
    3       -8.696408     -8.686288   1.000000   1.000000
    4       -8.311155     -8.302803   1.000000   1.000000
    5       -8.012719     -8.003750   1.000000   1.000000
    6       -7.909903     -7.905173   1.000000   1.000000
    7       -7.775600     -7.766661   1.000000   1.000000
    8       -7.545380     -7.540820   1.000000   1.000000
    9       -7.503166     -7.496850   1.000000   1.000000
   10       -7.368170     -7.360521   1.000000   1.000000
   11       -7.273252     -7.267754   1.000000   1.000000
   12       -7.192632     -7.186859   1.000000   1.000000
   13       -7.090997     -7.086091   1.000000   1.000000
   14       -7.039835     -7.036036   1.000000   1.000000
   15       -6.985026     -6.978970   1.000000   1.000000
   16       -6.932493     -6.927186   1.000000   1.000000
   17       -6.910538     -6.904777   1.000000   1.000000
   18       -6.841576     -6.833658   1.000000   1.000000
   19       -6.817355     -6.811365   1.000000   1.000000
   20       -6.780370     -6.776034   1.000000   1.000000
   21       -6.712159     -6.707448   1.000000   1.000000
   22       -6.664076     -6.659821   1.000000   1.000000
   23       -6.576015     -6.570836   1.000000   1.000000
   24       -6.528904     -6.524138   1.000000   1.000000
   25       -6.500744     -6.495903   1.000000   1.000000
   26       -6.438663     -6.433768   1.000000   1.000000
   27       -6.400542     -6.395508   1.000000   1.000000
   28       -6.342469     -6.337577   1.000000   1.000000
   29       -6.308678     -6.303336   1.000000   1.000000
   30       -6.195060     -6.189847   1.000000   1.000000
   31       -6.168338     -6.164269   1.000000   1.000000
   32       -6.110155     -6.105427   1.000000   1.000000
   33       -6.059756     -6.054430   1.000000   1.000000
   34       -6.013146     -6.008714   1.000000   1.000000
   35       -5.980201     -5.974801   1.000000   1.000000
   36       -5.935248     -5.931255   1.000000   1.000000
   37       -5.899002     -5.893623   1.000000   1.000000
   38       -5.860606     -5.855439   1.000000   1.000000
   39       -5.843279     -5.839285   1.000000   1.000000
   40       -5.796529     -5.789360   1.000000   1.000000
   41       -5.791220     -5.785344   1.000000   1.000000
   42       -5.745279     -5.740324   1.000000   1.000000
   43       -5.740953     -5.737109   1.000000   1.000000
   44       -5.725422     -5.720307   1.000000   1.000000
   45       -5.716170     -5.708427   1.000000   1.000000
   46       -5.701252     -5.696818   1.000000   1.000000
   47       -5.672022     -5.666295   1.000000   1.000000
   48       -5.643391     -5.639201   1.000000   1.000000
   49       -5.616010     -5.611478   1.000000   1.000000
   50       -5.600278     -5.596801   1.000000   1.000000
   51       -5.574106     -5.567919   1.000000   1.000000
   52       -5.548216     -5.544736   1.000000   1.000000
   53       -5.530052     -5.526484   1.000000   1.000000
   54       -5.497712     -5.492699   1.000000   1.000000
   55       -5.457540     -5.452226   1.000000   1.000000
   56       -5.440557     -5.435803   1.000000   1.000000
   57       -5.411356     -5.406328   1.000000   1.000000
   58       -5.397336     -5.391310   1.000000   1.000000
   59       -5.356302     -5.351698   1.000000   1.000000
   60       -5.346400     -5.342020   1.000000   1.000000
   61       -5.343805     -5.337379   1.000000   1.000000
   62       -5.322492     -5.317355   1.000000   1.000000
   63       -5.310177     -5.303178   1.000000   1.000000
   64       -5.278165     -5.272787   1.000000   1.000000
   65       -5.255207     -5.248656   1.000000   1.000000
   66       -5.218437     -5.214065   1.000000   1.000000
   67       -5.168935     -5.165955   1.000000   1.000000
   68       -5.118527     -5.113155   1.000000   1.000000
   69       -5.088008     -5.075591   1.000000   1.000000
   70       -4.584690     -4.578101   1.000000   1.000000
   71       -4.478485     -4.466420   1.000013   1.000019
   72       -3.841977     -3.795284   0.625461   0.429732
   73       -3.616119     -3.599377  -0.022829  -0.030483
   74       -3.311909     -3.293353  -0.001157  -0.000757
   75       -2.675626     -2.657686  -0.000000  -0.000000
   76       -2.473945     -2.462059  -0.000000  -0.000000
   77       -2.424454     -2.413540  -0.000000  -0.000000
   78       -1.967838     -1.939929  -0.000000  -0.000000
   79       -1.647856     -1.613086  -0.000000  -0.000000
   80       -1.406720     -1.389650  -0.000000  -0.000000
   81       -1.360359     -1.339978  -0.000000  -0.000000
   82       -1.101075     -1.067242  -0.000000  -0.000000
   83       -0.913434     -0.880604  -0.000000  -0.000000
   84       -0.682317     -0.667806  -0.000000  -0.000000
   85       -0.580052     -0.559606  -0.000000  -0.000000
   86       -0.311396     -0.279233  -0.000000  -0.000000
   87       -0.241695     -0.205671  -0.000000  -0.000000
   88        0.047199      0.094430  -0.000000  -0.000000
   89        0.105186      0.143488  -0.000000  -0.000000
   90        0.251637      0.300155  -0.000000  -0.000000
   91        0.296176      0.314440  -0.000000  -0.000000
   92        0.303980      0.337201  -0.000000  -0.000000
