       N       E                     dE             d eps       ncg     rms          rms(c)
DAV:   1     0.982581566179E+03    0.98258E+03   -0.24159E+04   368   0.731E+02
DAV:   2     0.285419008236E+03   -0.69716E+03   -0.62353E+03   392   0.204E+02
DAV:   3     0.174998202007E+02   -0.26792E+03   -0.25513E+03   472   0.141E+02
DAV:   4    -0.349437286139E+02   -0.52444E+02   -0.49096E+02   440   0.120E+02
DAV:   5    -0.373644075290E+02   -0.24207E+01   -0.23909E+01   504   0.245E+01    0.287E+01
DAV:   6    -0.150551073537E+02    0.22309E+02   -0.13476E+02   396   0.899E+01    0.120E+01
DAV:   7    -0.114154492095E+02    0.36397E+01   -0.31327E+01   440   0.630E+01    0.512E+00
DAV:   8    -0.110465464031E+02    0.36890E+00   -0.57521E+00   464   0.504E+01    0.430E+00
DAV:   9    -0.125927618280E+02   -0.15462E+01   -0.13222E+00   504   0.291E+01    0.273E+00
DAV:  10    -0.158009821915E+02   -0.32082E+01   -0.19121E+00   528   0.102E+01    0.220E+00
DAV:  11    -0.178542098110E+02   -0.20532E+01   -0.68684E-01   472   0.124E+01    0.190E+00
DAV:  12    -0.203538119712E+02   -0.24996E+01   -0.93569E-01   552   0.603E+00    0.168E+00
DAV:  13    -0.244863831806E+02   -0.41326E+01   -0.21953E+00   480   0.658E+00    0.118E+00
DAV:  14    -0.273877317150E+02   -0.29013E+01   -0.12407E+00   472   0.809E+00    0.119E+00
DAV:  15    -0.284304909673E+02   -0.10428E+01   -0.22574E-01   496   0.616E+00    0.864E-01
DAV:  16    -0.303691326743E+02   -0.19386E+01   -0.48907E-01   512   0.374E+00    0.604E-01
DAV:  17    -0.313848138434E+02   -0.10157E+01   -0.23809E-01   492   0.257E+00    0.476E-01
DAV:  18    -0.317430314995E+02   -0.35822E+00   -0.52324E-02   504   0.245E+00    0.351E-01
DAV:  19    -0.320580367499E+02   -0.31501E+00   -0.20983E-02   552   0.180E+00    0.249E-01
DAV:  20    -0.325688515252E+02   -0.51081E+00   -0.24289E-02   496   0.106E+00    0.151E-01
DAV:  21    -0.327353849984E+02   -0.16653E+00   -0.52827E-03   524   0.114E+00    0.118E-01
DAV:  22    -0.328401321049E+02   -0.10475E+00   -0.26898E-03   524   0.757E-01    0.842E-02
DAV:  23    -0.329476861700E+02   -0.10755E+00   -0.28725E-03   516   0.337E-01    0.542E-02
DAV:  24    -0.329823532039E+02   -0.34667E-01   -0.84701E-04   440   0.353E-01    0.477E-02
DAV:  25    -0.330021181004E+02   -0.19765E-01   -0.41213E-04   328   0.332E-01    0.370E-02
DAV:  26    -0.330199031859E+02   -0.17785E-01   -0.59021E-04   376   0.189E-01    0.258E-02
DAV:  27    -0.330284684387E+02   -0.85653E-02   -0.23909E-04   276   0.143E-01    0.251E-02
DAV:  28    -0.330327007860E+02   -0.42323E-02   -0.13628E-04   272   0.142E-01    0.198E-02
DAV:  29    -0.330366091737E+02   -0.39084E-02   -0.18702E-04   264   0.140E-01    0.177E-02
DAV:  30    -0.330386119418E+02   -0.20028E-02   -0.17106E-04   280   0.117E-01    0.135E-02
DAV:  31    -0.330398670919E+02   -0.12552E-02   -0.11923E-04   256   0.962E-02    0.125E-02
DAV:  32    -0.330405985874E+02   -0.73150E-03   -0.87993E-05   264   0.792E-02    0.999E-03
DAV:  33    -0.330419940437E+02   -0.13955E-02   -0.10430E-04   264   0.716E-02    0.117E-02
DAV:  34    -0.330427009967E+02   -0.70695E-03   -0.67252E-05   256   0.596E-02    0.919E-03
DAV:  35    -0.330428235954E+02   -0.12260E-03   -0.35967E-05   264   0.411E-02    0.852E-03
DAV:  36    -0.330429624259E+02   -0.13883E-03   -0.21719E-05   240   0.277E-02    0.865E-03
DAV:  37    -0.330430159909E+02   -0.53565E-04   -0.11377E-05   256   0.198E-02
   1 F= -.33043016E+02 E0= -.33032637E+02  d E =-.330430E+02  mag=     0.2214
       N       E                     dE             d eps       ncg     rms          rms(c)
DAV:   1    -0.330431383479E+02   -0.17592E-03   -0.12221E-01   400   0.119E+00    0.226E-02
DAV:   2    -0.330436171115E+02   -0.47876E-03   -0.19010E-03   544   0.340E-01    0.252E-02
DAV:   3    -0.330437204894E+02   -0.10338E-03   -0.98481E-05   272   0.196E-01    0.168E-02
DAV:   4    -0.330437943024E+02   -0.73813E-04   -0.15644E-05   248   0.602E-02
   2 F= -.33043794E+02 E0= -.33033381E+02  d E =-.778311E-03  mag=     0.2185
       N       E                     dE             d eps       ncg     rms          rms(c)
DAV:   1    -0.330440959330E+02   -0.37544E-03   -0.23441E-01   388   0.165E+00    0.286E-02
DAV:   2    -0.330445327493E+02   -0.43682E-03   -0.36558E-03   576   0.430E-01    0.298E-02
DAV:   3    -0.330445626609E+02   -0.29912E-04   -0.11122E-04   224   0.173E-01
   3 F= -.33044563E+02 E0= -.33034066E+02  d E =-.154667E-02  mag=     0.2164
