 vasp.6.1.2 22Jul20 (build Aug  2 2021 21:04:21) gamma-only                      
 executed on             LinuxPGI date 2021.12.25  00:35:07
 running on   16 total cores
 distrk:  each k-point on   16 cores,    1 groups
 distr:  one band on NCORE=   8 cores,    2 groups


--------------------------------------------------------------------------------------------------------


 INCAR:
 POTCAR:    PAW_PBE Cu 22Jun2005                  
 -----------------------------------------------------------------------------
|                                                                             |
|           W    W    AA    RRRRR   N    N  II  N    N   GGGG   !!!           |
|           W    W   A  A   R    R  NN   N  II  NN   N  G    G  !!!           |
|           W    W  A    A  R    R  N N  N  II  N N  N  G       !!!           |
|           W WW W  AAAAAA  RRRRR   N  N N  II  N  N N  G  GGG   !            |
|           WW  WW  A    A  R   R   N   NN  II  N   NN  G    G                |
|           W    W  A    A  R    R  N    N  II  N    N   GGGG   !!!           |
|                                                                             |
|     You use a magnetic or noncollinear calculation, but did not specify     |
|     the initial magnetic moment with the MAGMOM tag. Note that a            |
|     default of 1 will be used for all atoms. This ferromagnetic setup       |
|     may break the symmetry of the crystal, in particular it may rule        |
|     out finding an antiferromagnetic solution. Thence, we recommend         |
|     setting the initial magnetic moment manually or verifying carefully     |
|     that this magnetic setup is desired.                                    |
|                                                                             |
 -----------------------------------------------------------------------------

 POTCAR:    PAW_PBE Cu 22Jun2005                  
   SHA256 =  0e71e558f37a4e8407882b4609ceaae59938afaad9ced71dfe8490308a0ab630 Cu/POTCAR             
   COPYR  = (c) Copyright 22Jun2005 Georg Kresse                                                    
   COPYR  = This file is part of the software VASP. Any use, copying, and all other rights are regul
   COPYR  = If you do not have a valid VASP license, you may not use, copy or distribute this file. 
   VRHFIN =Cu: d10 p1                                                                               
   LEXCH  = PE                                                                                      
   EATOM  =  1390.9808 eV,  102.2342 Ry                                                             
                                                                                                    
   TITEL  = PAW_PBE Cu 22Jun2005                                                                    
   LULTRA =        F    use ultrasoft PP ?                                                          
   IUNSCR =        1    unscreen: 0-lin 1-nonlin 2-no                                               
   RPACOR =    2.000    partial core radius                                                         
   POMASS =   63.546; ZVAL   =   11.000    mass and valenz                                          
   RCORE  =    2.300    outmost cutoff radius                                                       
   RWIGS  =    2.200; RWIGS  =    1.164    wigner-seitz radius (au A)                               
   ENMAX  =  295.446; ENMIN  =  221.585 eV                                                          
   ICORE  =        3    local potential                                                             
   LCOR   =        T    correct aug charges                                                         
   LPAW   =        T    paw PP                                                                      
   EAUG   =  586.980                                                                                
   DEXC   =    0.000                                                                                
   RMAX   =    2.344    core radius for proj-oper                                                   
   RAUG   =    1.300    factor for augmentation sphere                                              
   RDEP   =    2.302    radius for radial grids                                                     
   RDEPT  =    1.771    core radius for aug-charge                                                  
                                                                                                    
   Atomic configuration                                                                             
    9 entries                                                                                       
     n  l   j            E        occ.                                                              
     1  0  0.50     -8850.2468   2.0000                                                             
     2  0  0.50     -1062.3498   2.0000                                                             
     2  1  1.50      -916.8226   6.0000                                                             
     3  0  0.50      -114.6929   2.0000                                                             
     3  1  1.50       -72.1325   6.0000                                                             
     3  2  2.50        -5.0394  10.0000                                                             
     4  0  0.50        -4.6097   1.0000                                                             
     4  1  0.50        -4.0817   0.0000                                                             
     4  3  2.50        -1.3606   0.0000                                                             
   Description                                                                                      
     l       E           TYP  RCUT    TYP  RCUT                                                     
     2     -5.0393973     23  2.200                                                                 
     2     10.8846608     23  2.200                                                                 
     0     -4.6097109     23  2.200                                                                 
     0      8.2520465     23  2.200                                                                 
     1     -2.7211652     23  2.200                                                                 
     1     21.7055443     23  2.200                                                                 
     3      2.7211652     23  2.300                                                                 
  local pseudopotential read in
  partial core-charges read in
  partial kinetic energy density read in
  atomic valenz-charges read in
  non local Contribution for L=            2  read in
    real space projection operators read in
  non local Contribution for L=            2  read in
    real space projection operators read in
  non local Contribution for L=            0  read in
    real space projection operators read in
  non local Contribution for L=            0  read in
    real space projection operators read in
  non local Contribution for L=            1  read in
    real space projection operators read in
  non local Contribution for L=            1  read in
    real space projection operators read in
    PAW grid and wavefunctions read in
 
   number of l-projection  operators is LMAX  =            6
   number of lm-projection operators is LMMAX =           18
 
  PAW_PBE Cu 22Jun2005                  :
 energy of atom  1       EATOM=-1390.9808
 kinetic energy error for atom=    0.0232 (will be added to EATOM!!)
 
 
 POSCAR: Cu
  positions in cartesian coordinates
  No initial velocities read in
 exchange correlation table for  LEXCH =        8
   RHO(1)=    0.500       N(1)  =     2000
   RHO(2)=  100.500       N(2)  =     4000
 


--------------------------------------------------------------------------------------------------------


 ion  position               nearest neighbor table
   1  0.533  0.476  0.540-   5 2.37   6 2.39   9 2.44   3 2.45  12 2.45  13 2.46   4 2.47   2 2.54
                            11 2.68   8 2.71
   2  0.457  0.477  0.466-   9 2.40  13 2.40   8 2.45   5 2.47  11 2.49   1 2.54
   3  0.593  0.559  0.532-  10 2.38   7 2.40   6 2.43   1 2.45  11 2.53   8 2.55   4 2.58
   4  0.502  0.551  0.596-  13 2.46  10 2.46   1 2.47  11 2.48   3 2.58  12 2.61
   5  0.460  0.405  0.532-   1 2.37   2 2.47  13 2.51  12 2.54   9 2.54
   6  0.630  0.474  0.498-   8 2.38   1 2.39   3 2.43   9 2.48
   7  0.564  0.616  0.462-   3 2.40  11 2.43   8 2.45  10 2.50
   8  0.556  0.520  0.447-   6 2.38   7 2.45   2 2.45  11 2.47   3 2.55   9 2.60   1 2.71
   9  0.544  0.418  0.465-   2 2.40   1 2.44   6 2.48   5 2.54   8 2.60
  10  0.532  0.635  0.553-   3 2.38  11 2.42   4 2.46   7 2.50
  11  0.482  0.566  0.503-  10 2.42   7 2.43  13 2.45   8 2.47   4 2.48   2 2.49   3 2.53   1 2.68

  12  0.474  0.452  0.617-  13 2.35   1 2.45   5 2.54   4 2.61
  13  0.423  0.498  0.551-  12 2.35   2 2.40  11 2.45   1 2.46   4 2.46   5 2.51
 

IMPORTANT INFORMATION: All symmetrisations will be switched off!
NOSYMM: (Re-)initialisation of all symmetry stuff for point group C_1.


----------------------------------------------------------------------------------------

                                     Primitive cell                                     

  volume of cell :   14165.4933

  direct lattice vectors                    reciprocal lattice vectors
    21.699153219  0.000000000  0.000000000     0.046084748  0.000000000  0.000000000
     0.000000000 25.006234285  0.000000000     0.000000000  0.039990028  0.000000000
     0.000000000  0.000000000 26.106017185     0.000000000  0.000000000  0.038305345

  length of vectors
    21.699153219 25.006234285 26.106017185     0.046084748  0.039990028  0.038305345

  position of ions in fractional coordinates (direct lattice)
     0.532655308  0.475894305  0.539959244
     0.456689962  0.476681117  0.465996811
     0.592671510  0.558544472  0.531735523
     0.502342989  0.551159654  0.595822983
     0.460192159  0.405454438  0.531682450
     0.630260184  0.474358857  0.497813207
     0.563755961  0.616187793  0.462385084
     0.555645016  0.519781299  0.446807604
     0.544342490  0.418221850  0.465232075
     0.532185835  0.634789615  0.552903668
     0.481613240  0.565727535  0.503310336
     0.474204404  0.452198623  0.617101472
     0.423209386  0.498303762  0.551274119

  ion indices of the primitive-cell ions
   primitive index   ion index
                 1           1
                 2           2
                 3           3
                 4           4
                 5           5
                 6           6
                 7           7
                 8           8
                 9           9
                10          10
                11          11
                12          12
                13          13

----------------------------------------------------------------------------------------

 
 
 KPOINTS: KPOINTS created by Atomic Simulation Env

Automatic generation of k-mesh.
Space group operators:
 irot       det(A)        alpha          n_x          n_y          n_z        tau_x        tau_y        tau_z
    1     1.000000     0.000000     1.000000     0.000000     0.000000     0.000000     0.000000     0.000000
 
 Subroutine IBZKPT returns following result:
 ===========================================
 
 Found      1 irreducible k-points:
 
 Following reciprocal coordinates:
            Coordinates               Weight
  0.000000  0.000000  0.000000      1.000000
 
 Following cartesian coordinates:
            Coordinates               Weight
  0.000000  0.000000  0.000000      1.000000
 


--------------------------------------------------------------------------------------------------------




 Dimension of arrays:
   k-points           NKPTS =      1   k-points in BZ     NKDIM =      1   number of bands    NBANDS=     92
   number of dos      NEDOS =    301   number of ions     NIONS =     13
   non local maximal  LDIM  =      6   non local SUM 2l+1 LMDIM =     18
   total plane-waves  NPLWV = ******
   max r-space proj   IRMAX =      1   max aug-charges    IRDMAX=   3761
   dimension x,y,z NGX =   108 NGY =  126 NGZ =  128
   dimension x,y,z NGXF=   216 NGYF=  252 NGZF=  256
   support grid    NGXF=   216 NGYF=  252 NGZF=  256
   ions per type =              13
   NGX,Y,Z   is equivalent  to a cutoff of   8.27,  8.38,  8.15 a.u.
   NGXF,Y,Z  is equivalent  to a cutoff of  16.55, 16.75, 16.30 a.u.

 SYSTEM =  unknown system                          
 POSCAR =  Cu                                      

 Startparameter for this run:
   NWRITE =      2    write-flag & timer
   PREC   = normal    normal or accurate (medium, high low for compatibility)
   ISTART =      0    job   : 0-new  1-cont  2-samecut
   ICHARG =      2    charge: 1-file 2-atom 10-const
   ISPIN  =      2    spin polarized calculation?
   LNONCOLLINEAR =      F non collinear calculations
   LSORBIT =      F    spin-orbit coupling
   INIWAV =      1    electr: 0-lowe 1-rand  2-diag
   LASPH  =      F    aspherical Exc in radial PAW
   METAGGA=      F    non-selfconsistent MetaGGA calc.

 Electronic Relaxation 1
   ENCUT  =  400.0 eV  29.40 Ry    5.42 a.u.  35.39 40.78 42.57*2*pi/ulx,y,z
   ENINI  =  400.0     initial cutoff
   ENAUG  =  587.0 eV  augmentation charge cutoff
   NELM   =     60;   NELMIN=  2; NELMDL=  0     # of ELM steps 
   EDIFF  = 0.1E-03   stopping-criterion for ELM
   LREAL  =      F    real-space projection
   NLSPLINE    = F    spline interpolate recip. space projectors
   LCOMPAT=      F    compatible to vasp.4.4
   GGA_COMPAT  = T    GGA compatible to vasp.4.4-vasp.4.6
   LMAXPAW     = -100 max onsite density
   LMAXMIX     =    2 max onsite mixed and CHGCAR
   VOSKOWN=      0    Vosko Wilk Nusair interpolation
   ROPT   =    0.00000
 Ionic relaxation
   EDIFFG = 0.1E-02   stopping-criterion for IOM
   NSW    =   1000    number of steps for IOM
   NBLOCK =      1;   KBLOCK =   1000    inner block; outer block 
   IBRION =      2    ionic relax: 0-MD 1-quasi-New 2-CG
   NFREE  =      1    steps in history (QN), initial steepest desc. (CG)
   ISIF   =      0    stress and relaxation
   IWAVPR =     11    prediction:  0-non 1-charg 2-wave 3-comb
   ISYM   =      0    0-nonsym 1-usesym 2-fastsym
   LCORR  =      T    Harris-Foulkes like correction to forces

   POTIM  = 0.5000    time-step for ionic-motion
   TEIN   =    0.0    initial temperature
   TEBEG  =    0.0;   TEEND  =   0.0 temperature during run
   SMASS  =  -3.00    Nose mass-parameter (am)
   estimated Nose-frequenzy (Omega)   =  0.10E-29 period in steps = 0.13E+47 mass=  -0.108E-25a.u.
   SCALEE = 1.0000    scale energy and forces
   NPACO  =    256;   APACO  = 16.0  distance and # of slots for P.C.
   PSTRESS=    0.0 pullay stress

  Mass of Ions in am
   POMASS =  63.55
  Ionic Valenz
   ZVAL   =  11.00
  Atomic Wigner-Seitz radii
   RWIGS  =  -1.00
  virtual crystal weights 
   VCA    =   1.00
   NELECT =     143.0000    total number of electrons
   NUPDOWN=      -1.0000    fix difference up-down

 DOS related values:
   EMIN   =  10.00;   EMAX   =-10.00  energy-range for DOS
   EFERMI =   0.00
   ISMEAR =     1;   SIGMA  =   0.20  broadening in eV -4-tet -1-fermi 0-gaus

 Electronic relaxation 2 (details)
   IALGO  =     38    algorithm
   LDIAG  =      T    sub-space diagonalisation (order eigenvalues)
   LSUBROT=      F    optimize rotation matrix (better conditioning)
   TURBO    =      0    0=normal 1=particle mesh
   IRESTART =      0    0=no restart 2=restart with 2 vectors
   NREBOOT  =      0    no. of reboots
   NMIN     =      0    reboot dimension
   EREF     =   0.00    reference energy to select bands
   IMIX   =      4    mixing-type and parameters
     AMIX     =   0.40;   BMIX     =  1.00
     AMIX_MAG =   1.60;   BMIX_MAG =  1.00
     AMIN     =   0.10
     WC   =   100.;   INIMIX=   1;  MIXPRE=   1;  MAXMIX= -45

 Intra band minimization:
   WEIMIN = 0.0010     energy-eigenvalue tresh-hold
   EBREAK =  0.27E-06  absolut break condition
   DEPER  =   0.30     relativ break condition  

   TIME   =   0.40     timestep for ELM

  volume/ion in A,a.u.               =    1089.65      7353.34
  Fermi-wavevector in a.u.,A,eV,Ry     =   0.353815  0.668613  1.703246  0.125185
  Thomas-Fermi vector in A             =   1.268359
 
 Write flags
   LWAVE        =      F    write WAVECAR
   LDOWNSAMPLE  =      F    k-point downsampling of WAVECAR
   LCHARG       =      F    write CHGCAR
   LVTOT        =      F    write LOCPOT, total local potential
   LVHAR        =      F    write LOCPOT, Hartree potential only
   LELF         =      F    write electronic localiz. function (ELF)
   LORBIT       =      0    0 simple, 1 ext, 2 COOP (PROOUT), +10 PAW based schemes


 Dipole corrections
   LMONO  =      F    monopole corrections only (constant potential shift)
   LDIPOL =      F    correct potential (dipole corrections)
   IDIPOL =      0    1-x, 2-y, 3-z, 4-all directions 
   EPSILON=  1.0000000 bulk dielectric constant

 Exchange correlation treatment:
   GGA     =    PE    GGA type
   LEXCH   =     8    internal setting for exchange type
   VOSKOWN=      0    Vosko Wilk Nusair interpolation
   LHFCALC =     F    Hartree Fock is set to
   LHFONE  =     F    Hartree Fock one center treatment
   AEXX    =    0.0000 exact exchange contribution

 Linear response parameters
   LEPSILON=     F    determine dielectric tensor
   LRPA    =     F    only Hartree local field effects (RPA)
   LNABLA  =     F    use nabla operator in PAW spheres
   LVEL    =     F    velocity operator in full k-point grid
   LINTERFAST=   F  fast interpolation
   KINTER  =     0    interpolate to denser k-point grid
   CSHIFT  =0.1000    complex shift for real part using Kramers Kronig
   OMEGAMAX=  -1.0    maximum frequency
   DEG_THRESHOLD= 0.2000000E-02 threshold for treating states as degnerate
   RTIME   =   -0.100 relaxation time in fs
  (WPLASMAI=    0.000 imaginary part of plasma frequency in eV, 0.658/RTIME)
   DFIELD  = 0.0000000 0.0000000 0.0000000 field for delta impulse in time
 
 Orbital magnetization related:
   ORBITALMAG=     F  switch on orbital magnetization
   LCHIMAG   =     F  perturbation theory with respect to B field
   DQ        =  0.001000  dq finite difference perturbation B field
   LLRAUG    =     F  two centre corrections for induced B field



--------------------------------------------------------------------------------------------------------


 conjugate gradient relaxation of ions
 charge density and potential will be updated during run
 spin polarized calculation
 Variant of blocked Davidson
 Davidson routine will perform the subspace rotation
 perform sub-space diagonalisation
    after iterative eigenvector-optimisation
 modified Broyden-mixing scheme, WC =      100.0
 initial mixing is a Kerker type mixing with AMIX =  0.4000 and BMIX =      1.0000
 Hartree-type preconditioning will be used
 using additional bands            20
 reciprocal scheme for non local part
 use partial core corrections
 calculate Harris-corrections to forces 
   (improved forces if not selfconsistent)
 use gradient corrections 
 use of overlap-Matrix (Vanderbilt PP)
 Methfessel and Paxton  Order N= 1 SIGMA  =   0.20


--------------------------------------------------------------------------------------------------------


  energy-cutoff  :      400.00
  volume of cell :    14165.49
      direct lattice vectors                 reciprocal lattice vectors
    21.699153219  0.000000000  0.000000000     0.046084748  0.000000000  0.000000000
     0.000000000 25.006234285  0.000000000     0.000000000  0.039990028  0.000000000
     0.000000000  0.000000000 26.106017185     0.000000000  0.000000000  0.038305345

  length of vectors
    21.699153219 25.006234285 26.106017185     0.046084748  0.039990028  0.038305345


 
 k-points in units of 2pi/SCALE and weight: KPOINTS created by Atomic Simulation Env
   0.00000000  0.00000000  0.00000000       1.000
 
 k-points in reciprocal lattice and weights: KPOINTS created by Atomic Simulation Env
   0.00000000  0.00000000  0.00000000       1.000
 
 position of ions in fractional coordinates (direct lattice) 
   0.53265531  0.47589430  0.53995924
   0.45668996  0.47668112  0.46599681
   0.59267151  0.55854447  0.53173552
   0.50234299  0.55115965  0.59582298
   0.46019216  0.40545444  0.53168245
   0.63026018  0.47435886  0.49781321
   0.56375596  0.61618779  0.46238508
   0.55564502  0.51978130  0.44680760
   0.54434249  0.41822185  0.46523208
   0.53218584  0.63478961  0.55290367
   0.48161324  0.56572753  0.50331034
   0.47420440  0.45219862  0.61710147
   0.42320939  0.49830376  0.55127412
 
 position of ions in cartesian coordinates  (Angst):
  11.55816914 11.90032448 14.09618531
   9.90978546 11.91999969 12.16532077
  12.86046990 13.96709393 13.88149669
  10.90041748 13.78242742 15.55456503
   9.98578016 10.13888866 13.88011117
  13.67611230 11.86192872 12.99592015
  12.23302697 15.40853631 12.07103295
  12.05702633 12.99777295 11.66436698
  11.81177109 10.45815358 12.14535656
  11.54798198 15.87369783 14.43411266
  10.45059949 14.14671528 13.13942829
  10.28983402 11.30778471 16.11006163
   9.18328531 12.46070063 14.39157164
 


--------------------------------------------------------------------------------------------------------


 use parallel FFT for orbitals z direction half grid
 k-point   1 :   0.0000 0.0000 0.0000  plane waves:  128652

 maximum and minimum number of plane-waves per node :     16086    16074

 maximum number of plane-waves:    128652
 maximum index in each direction: 
   IXMAX=   35   IYMAX=   40   IZMAX=   42
   IXMIN=  -35   IYMIN=  -40   IZMIN=    0


 parallel 3D FFT for wavefunctions:
    minimum data exchange during FFTs selected (reduces bandwidth)
 parallel 3D FFT for charge:
    minimum data exchange during FFTs selected (reduces bandwidth)


 total amount of memory used by VASP MPI-rank0   178002. kBytes
=======================================================================

   base      :      30000. kBytes
   nonl-proj :       5660. kBytes
   fftplans  :      35072. kBytes
   grid      :      83543. kBytes
   one-center:         31. kBytes
   wavefun   :      23696. kBytes
 
     INWAV:  cpu time    0.0000: real time    0.0000
 Broyden mixing: mesh for mixing (old mesh)
   NGX = 71   NGY = 81   NGZ = 85
  (NGX  =216   NGY  =252   NGZ  =256)
  gives a total of 488835 points

 initial charge density was supplied:
 charge density of overlapping atoms calculated
 number of electron     143.0000000 magnetization      13.0000000
 keeping initial charge density in first step


--------------------------------------------------------------------------------------------------------


 Maximum index for augmentation-charges           278 (set IRDMAX)


--------------------------------------------------------------------------------------------------------


 First call to EWALD:  gamma=   0.073
 Maximum number of real-space cells 3x 3x 3
 Maximum number of reciprocal cells 3x 3x 3

    FEWALD:  cpu time    0.0023: real time    0.0023


--------------------------------------- Iteration      1(   1)  ---------------------------------------


    POTLOK:  cpu time    3.4116: real time    3.4193
    SETDIJ:  cpu time    0.0295: real time    0.0296
     EDDAV:  cpu time   15.8476: real time   15.8671
       DOS:  cpu time    0.0053: real time    0.0053
    --------------------------------------------
      LOOP:  cpu time   19.2941: real time   19.3213

 eigenvalue-minimisations  :   368
 total energy-change (2. order) : 0.9825816E+03  (-0.2415948E+04)
 number of electron     143.0000000 magnetization      13.0000000
 augmentation part      143.0000000 magnetization      13.0000000

 Free energy of the ion-electron system (eV)
  ---------------------------------------------------
  alpha Z        PSCENC =         8.72503597
  Ewald energy   TEWEN  =     25770.36385657
  -Hartree energ DENC   =    -42223.35278164
  -exchange      EXHF   =         0.00000000
  -V(xc)+E(xc)   XCENC  =       585.00437751
  PAW double counting   =     15965.26744864   -17340.97210982
  entropy T*S    EENTRO =        -0.03749370
  eigenvalues    EBANDS =       135.13391005
  atomic energy  EATOM  =     18082.44932260
  Solvation  Ediel_sol  =         0.00000000
  ---------------------------------------------------
  free energy    TOTEN  =       982.58156618 eV

  energy without entropy =      982.61905988  energy(sigma->0) =      982.59406408


--------------------------------------------------------------------------------------------------------




--------------------------------------- Iteration      1(   2)  ---------------------------------------


     EDDAV:  cpu time   16.8240: real time   16.8471
       DOS:  cpu time    0.0031: real time    0.0031
    --------------------------------------------
      LOOP:  cpu time   16.8272: real time   16.8502

 eigenvalue-minimisations  :   392
 total energy-change (2. order) :-0.6971626E+03  (-0.6235254E+03)
 number of electron     143.0000000 magnetization      13.0000000
 augmentation part      143.0000000 magnetization      13.0000000

 Free energy of the ion-electron system (eV)
  ---------------------------------------------------
  alpha Z        PSCENC =         8.72503597
  Ewald energy   TEWEN  =     25770.36385657
  -Hartree energ DENC   =    -42223.35278164
  -exchange      EXHF   =         0.00000000
  -V(xc)+E(xc)   XCENC  =       585.00437751
  PAW double counting   =     15965.26744864   -17340.97210982
  entropy T*S    EENTRO =         0.01056937
  eigenvalues    EBANDS =      -562.07671096
  atomic energy  EATOM  =     18082.44932260
  Solvation  Ediel_sol  =         0.00000000
  ---------------------------------------------------
  free energy    TOTEN  =       285.41900824 eV

  energy without entropy =      285.40843887  energy(sigma->0) =      285.41548511


--------------------------------------------------------------------------------------------------------




--------------------------------------- Iteration      1(   3)  ---------------------------------------


     EDDAV:  cpu time   19.3383: real time   19.3609
       DOS:  cpu time    0.0049: real time    0.0049
    --------------------------------------------
      LOOP:  cpu time   19.3432: real time   19.3658

 eigenvalue-minimisations  :   472
 total energy-change (2. order) :-0.2679192E+03  (-0.2551341E+03)
 number of electron     143.0000000 magnetization      13.0000000
 augmentation part      143.0000000 magnetization      13.0000000

 Free energy of the ion-electron system (eV)
  ---------------------------------------------------
  alpha Z        PSCENC =         8.72503597
  Ewald energy   TEWEN  =     25770.36385657
  -Hartree energ DENC   =    -42223.35278164
  -exchange      EXHF   =         0.00000000
  -V(xc)+E(xc)   XCENC  =       585.00437751
  PAW double counting   =     15965.26744864   -17340.97210982
  entropy T*S    EENTRO =         0.00165588
  eigenvalues    EBANDS =      -829.98698551
  atomic energy  EATOM  =     18082.44932260
  Solvation  Ediel_sol  =         0.00000000
  ---------------------------------------------------
  free energy    TOTEN  =        17.49982020 eV

  energy without entropy =       17.49816432  energy(sigma->0) =       17.49926824


--------------------------------------------------------------------------------------------------------




--------------------------------------- Iteration      1(   4)  ---------------------------------------


     EDDAV:  cpu time   18.3136: real time   18.3353
       DOS:  cpu time    0.0049: real time    0.0049
    --------------------------------------------
      LOOP:  cpu time   18.3185: real time   18.3402

 eigenvalue-minimisations  :   440
 total energy-change (2. order) :-0.5244355E+02  (-0.4909644E+02)
 number of electron     143.0000000 magnetization      13.0000000
 augmentation part      143.0000000 magnetization      13.0000000

 Free energy of the ion-electron system (eV)
  ---------------------------------------------------
  alpha Z        PSCENC =         8.72503597
  Ewald energy   TEWEN  =     25770.36385657
  -Hartree energ DENC   =    -42223.35278164
  -exchange      EXHF   =         0.00000000
  -V(xc)+E(xc)   XCENC  =       585.00437751
  PAW double counting   =     15965.26744864   -17340.97210982
  entropy T*S    EENTRO =         0.02775034
  eigenvalues    EBANDS =      -882.45662879
  atomic energy  EATOM  =     18082.44932260
  Solvation  Ediel_sol  =         0.00000000
  ---------------------------------------------------
  free energy    TOTEN  =       -34.94372861 eV

  energy without entropy =      -34.97147896  energy(sigma->0) =      -34.95297873


--------------------------------------------------------------------------------------------------------




--------------------------------------- Iteration      1(   5)  ---------------------------------------


     EDDAV:  cpu time   20.4952: real time   20.5182
       DOS:  cpu time    0.0051: real time    0.0051
    CHARGE:  cpu time    1.2857: real time    1.2877
    MIXING:  cpu time    0.0494: real time    0.0495
    --------------------------------------------
      LOOP:  cpu time   21.8354: real time   21.8604

 eigenvalue-minimisations  :   504
 total energy-change (2. order) :-0.2420679E+01  (-0.2390909E+01)
 number of electron     142.9999888 magnetization      11.9642139
 augmentation part       87.5291230 magnetization      12.0459693

 Broyden mixing:
  rms(total) = 0.28749E+01    rms(broyden)= 0.28747E+01
  rms(prec ) = 0.29348E+01
  weight for this iteration     100.00

 Free energy of the ion-electron system (eV)
  ---------------------------------------------------
  alpha Z        PSCENC =         8.72503597
  Ewald energy   TEWEN  =     25770.36385657
  -Hartree energ DENC   =    -42223.35278164
  -exchange      EXHF   =         0.00000000
  -V(xc)+E(xc)   XCENC  =       585.00437751
  PAW double counting   =     15965.26744864   -17340.97210982
  entropy T*S    EENTRO =         0.04628261
  eigenvalues    EBANDS =      -884.89583997
  atomic energy  EATOM  =     18082.44932260
  Solvation  Ediel_sol  =         0.00000000
  ---------------------------------------------------
  free energy    TOTEN  =       -37.36440753 eV

  energy without entropy =      -37.41069014  energy(sigma->0) =      -37.37983507


--------------------------------------------------------------------------------------------------------




--------------------------------------- Iteration      1(   6)  ---------------------------------------


    POTLOK:  cpu time    3.4452: real time    3.4510
    SETDIJ:  cpu time    0.0305: real time    0.0305
     EDDAV:  cpu time   17.1478: real time   17.1679
       DOS:  cpu time    0.0057: real time    0.0057
    CHARGE:  cpu time    1.1779: real time    1.1799
    MIXING:  cpu time    0.0630: real time    0.0630
    --------------------------------------------
      LOOP:  cpu time   21.8701: real time   21.8981

 eigenvalue-minimisations  :   396
 total energy-change (2. order) : 0.2230930E+02  (-0.1347608E+02)
 number of electron     142.9999889 magnetization      11.3861011
 augmentation part       94.8501180 magnetization       7.0799060

 Broyden mixing:
  rms(total) = 0.11979E+01    rms(broyden)= 0.11976E+01
  rms(prec ) = 0.12579E+01
  weight for this iteration     100.00

 eigenvalues of (default mixing * dielectric matrix)
  average eigenvalue GAMMA=   0.8215
  0.8215

 Free energy of the ion-electron system (eV)
  ---------------------------------------------------
  alpha Z        PSCENC =         8.72503597
  Ewald energy   TEWEN  =     25770.36385657
  -Hartree energ DENC   =    -42014.49980990
  -exchange      EXHF   =         0.00000000
  -V(xc)+E(xc)   XCENC  =       587.37879819
  PAW double counting   =     16157.95437001   -17489.83842184
  entropy T*S    EENTRO =        -0.02143844
  eigenvalues    EBANDS =     -1117.56682052
  atomic energy  EATOM  =     18082.44932260
  Solvation  Ediel_sol  =         0.00000000
  ---------------------------------------------------
  free energy    TOTEN  =       -15.05510735 eV

  energy without entropy =      -15.03366892  energy(sigma->0) =      -15.04796121


--------------------------------------------------------------------------------------------------------




--------------------------------------- Iteration      1(   7)  ---------------------------------------


    POTLOK:  cpu time    3.4381: real time    3.4466
    SETDIJ:  cpu time    0.0234: real time    0.0304
     EDDAV:  cpu time   17.9656: real time   17.9861
       DOS:  cpu time    0.0027: real time    0.0027
    CHARGE:  cpu time    1.2402: real time    1.2414
    MIXING:  cpu time    0.0594: real time    0.0594
    --------------------------------------------
      LOOP:  cpu time   22.7293: real time   22.7666

 eigenvalue-minimisations  :   440
 total energy-change (2. order) : 0.3639658E+01  (-0.3132704E+01)
 number of electron     142.9999883 magnetization      10.6943972
 augmentation part       91.8090939 magnetization       6.3611904

 Broyden mixing:
  rms(total) = 0.51222E+00    rms(broyden)= 0.51209E+00
  rms(prec ) = 0.53056E+00
  weight for this iteration     100.00

 eigenvalues of (default mixing * dielectric matrix)
  average eigenvalue GAMMA=   0.8184
  1.0010  0.6359

 Free energy of the ion-electron system (eV)
  ---------------------------------------------------
  alpha Z        PSCENC =         8.72503597
  Ewald energy   TEWEN  =     25770.36385657
  -Hartree energ DENC   =    -42172.91301015
  -exchange      EXHF   =         0.00000000
  -V(xc)+E(xc)   XCENC  =       593.79285430
  PAW double counting   =     16473.68393358   -17858.66409837
  entropy T*S    EENTRO =        -0.04532337
  eigenvalues    EBANDS =      -908.80802034
  atomic energy  EATOM  =     18082.44932260
  Solvation  Ediel_sol  =         0.00000000
  ---------------------------------------------------
  free energy    TOTEN  =       -11.41544921 eV

  energy without entropy =      -11.37012584  energy(sigma->0) =      -11.40034142


--------------------------------------------------------------------------------------------------------




--------------------------------------- Iteration      1(   8)  ---------------------------------------


    POTLOK:  cpu time    3.4359: real time    3.4460
    SETDIJ:  cpu time    0.0305: real time    0.0305
     EDDAV:  cpu time   18.3813: real time   18.4033
       DOS:  cpu time    0.0036: real time    0.0036
    CHARGE:  cpu time    1.2533: real time    1.2555
    MIXING:  cpu time    0.0694: real time    0.0702
    --------------------------------------------
      LOOP:  cpu time   23.1741: real time   23.2090

 eigenvalue-minimisations  :   464
 total energy-change (2. order) : 0.3689028E+00  (-0.5752082E+00)
 number of electron     142.9999893 magnetization      10.2000943
 augmentation part       91.5979257 magnetization       5.5607409

 Broyden mixing:
  rms(total) = 0.42989E+00    rms(broyden)= 0.42982E+00
  rms(prec ) = 0.44776E+00
  weight for this iteration     100.00

 eigenvalues of (default mixing * dielectric matrix)
  average eigenvalue GAMMA=   0.7767
  1.1372  0.6452  0.5478

 Free energy of the ion-electron system (eV)
  ---------------------------------------------------
  alpha Z        PSCENC =         8.72503597
  Ewald energy   TEWEN  =     25770.36385657
  -Hartree energ DENC   =    -42194.93807289
  -exchange      EXHF   =         0.00000000
  -V(xc)+E(xc)   XCENC  =       593.72971828
  PAW double counting   =     16663.29015737   -18056.34154337
  entropy T*S    EENTRO =        -0.03884673
  eigenvalues    EBANDS =      -878.28617421
  atomic energy  EATOM  =     18082.44932260
  Solvation  Ediel_sol  =         0.00000000
  ---------------------------------------------------
  free energy    TOTEN  =       -11.04654640 eV

  energy without entropy =      -11.00769967  energy(sigma->0) =      -11.03359749


--------------------------------------------------------------------------------------------------------




--------------------------------------- Iteration      1(   9)  ---------------------------------------


    POTLOK:  cpu time    3.4225: real time    3.4280
    SETDIJ:  cpu time    0.0300: real time    0.0300
     EDDAV:  cpu time   20.6786: real time   20.7009
       DOS:  cpu time    0.0022: real time    0.0022
    CHARGE:  cpu time    1.2321: real time    1.2334
    MIXING:  cpu time    0.0703: real time    0.0704
    --------------------------------------------
      LOOP:  cpu time   25.4358: real time   25.4650

 eigenvalue-minimisations  :   504
 total energy-change (2. order) :-0.1546215E+01  (-0.1322180E+00)
 number of electron     142.9999889 magnetization       9.1094880
 augmentation part       91.6018773 magnetization       4.9719260

 Broyden mixing:
  rms(total) = 0.27327E+00    rms(broyden)= 0.27323E+00
  rms(prec ) = 0.27911E+00
  weight for this iteration     100.00

 eigenvalues of (default mixing * dielectric matrix)
  average eigenvalue GAMMA=   0.9442
  1.5579  0.9597  0.8092  0.4500

 Free energy of the ion-electron system (eV)
  ---------------------------------------------------
  alpha Z        PSCENC =         8.72503597
  Ewald energy   TEWEN  =     25770.36385657
  -Hartree energ DENC   =    -42201.51670480
  -exchange      EXHF   =         0.00000000
  -V(xc)+E(xc)   XCENC  =       591.92486130
  PAW double counting   =     16747.15611012   -18141.98618249
  entropy T*S    EENTRO =        -0.03165125
  eigenvalues    EBANDS =      -869.67740986
  atomic energy  EATOM  =     18082.44932260
  Solvation  Ediel_sol  =         0.00000000
  ---------------------------------------------------
  free energy    TOTEN  =       -12.59276183 eV

  energy without entropy =      -12.56111058  energy(sigma->0) =      -12.58221141


--------------------------------------------------------------------------------------------------------




--------------------------------------- Iteration      1(  10)  ---------------------------------------


    POTLOK:  cpu time    3.4151: real time    3.4232
    SETDIJ:  cpu time    0.0275: real time    0.0275
     EDDAV:  cpu time   22.0040: real time   22.0276
       DOS:  cpu time    0.0016: real time    0.0016
    CHARGE:  cpu time    1.2688: real time    1.2702
    MIXING:  cpu time    0.0781: real time    0.0782
    --------------------------------------------
      LOOP:  cpu time   26.7950: real time   26.8283

 eigenvalue-minimisations  :   528
 total energy-change (2. order) :-0.3208220E+01  (-0.1912072E+00)
 number of electron     142.9999887 magnetization       8.5113429
 augmentation part       91.8669963 magnetization       5.3680860

 Broyden mixing:
  rms(total) = 0.21955E+00    rms(broyden)= 0.21946E+00
  rms(prec ) = 0.22540E+00
  weight for this iteration     100.00

 eigenvalues of (default mixing * dielectric matrix)
  average eigenvalue GAMMA=   0.9509
  1.8805  1.1441  0.6758  0.5530  0.5014

 Free energy of the ion-electron system (eV)
  ---------------------------------------------------
  alpha Z        PSCENC =         8.72503597
  Ewald energy   TEWEN  =     25770.36385657
  -Hartree energ DENC   =    -42207.29417032
  -exchange      EXHF   =         0.00000000
  -V(xc)+E(xc)   XCENC  =       588.87778164
  PAW double counting   =     16843.10834851   -18238.05929982
  entropy T*S    EENTRO =        -0.02463296
  eigenvalues    EBANDS =      -863.94722437
  atomic energy  EATOM  =     18082.44932260
  Solvation  Ediel_sol  =         0.00000000
  ---------------------------------------------------
  free energy    TOTEN  =       -15.80098219 eV

  energy without entropy =      -15.77634923  energy(sigma->0) =      -15.79277121


--------------------------------------------------------------------------------------------------------




--------------------------------------- Iteration      1(  11)  ---------------------------------------


    POTLOK:  cpu time    3.4246: real time    3.4334
    SETDIJ:  cpu time    0.0309: real time    0.0310
     EDDAV:  cpu time   19.4831: real time   19.5067
       DOS:  cpu time    0.0010: real time    0.0010
    CHARGE:  cpu time    1.2672: real time    1.2685
    MIXING:  cpu time    0.0832: real time    0.0833
    --------------------------------------------
      LOOP:  cpu time   24.2901: real time   24.3239

 eigenvalue-minimisations  :   472
 total energy-change (2. order) :-0.2053228E+01  (-0.6868386E-01)
 number of electron     142.9999888 magnetization       7.7359761
 augmentation part       91.8575034 magnetization       5.0689346

 Broyden mixing:
  rms(total) = 0.18992E+00    rms(broyden)= 0.18987E+00
  rms(prec ) = 0.19392E+00
  weight for this iteration     100.00

 eigenvalues of (default mixing * dielectric matrix)
  average eigenvalue GAMMA=   0.9658
  1.9975  1.2791  0.7315  0.7315  0.5277  0.5277

 Free energy of the ion-electron system (eV)
  ---------------------------------------------------
  alpha Z        PSCENC =         8.72503597
  Ewald energy   TEWEN  =     25770.36385657
  -Hartree energ DENC   =    -42214.26373451
  -exchange      EXHF   =         0.00000000
  -V(xc)+E(xc)   XCENC  =       587.39829847
  PAW double counting   =     16863.79760865   -18259.48761495
  entropy T*S    EENTRO =        -0.01754667
  eigenvalues    EBANDS =      -856.81943595
  atomic energy  EATOM  =     18082.44932260
  Solvation  Ediel_sol  =         0.00000000
  ---------------------------------------------------
  free energy    TOTEN  =       -17.85420981 eV

  energy without entropy =      -17.83666314  energy(sigma->0) =      -17.84836092


--------------------------------------------------------------------------------------------------------




--------------------------------------- Iteration      1(  12)  ---------------------------------------


    POTLOK:  cpu time    3.4963: real time    3.5117
    SETDIJ:  cpu time    0.0312: real time    0.0312
     EDDAV:  cpu time   21.4125: real time   21.4373
       DOS:  cpu time    0.0009: real time    0.0009
    CHARGE:  cpu time    1.2586: real time    1.2598
    MIXING:  cpu time    0.0907: real time    0.0909
    --------------------------------------------
      LOOP:  cpu time   26.2902: real time   26.3318

 eigenvalue-minimisations  :   552
 total energy-change (2. order) :-0.2499602E+01  (-0.9356933E-01)
 number of electron     142.9999888 magnetization       6.1767551
 augmentation part       91.7760700 magnetization       4.0521937

 Broyden mixing:
  rms(total) = 0.16763E+00    rms(broyden)= 0.16756E+00
  rms(prec ) = 0.17098E+00
  weight for this iteration     100.00

 eigenvalues of (default mixing * dielectric matrix)
  average eigenvalue GAMMA=   1.1634
  2.3976  2.3976  0.7788  0.7788  0.7734  0.5244  0.4935

 Free energy of the ion-electron system (eV)
  ---------------------------------------------------
  alpha Z        PSCENC =         8.72503597
  Ewald energy   TEWEN  =     25770.36385657
  -Hartree energ DENC   =    -42223.23869701
  -exchange      EXHF   =         0.00000000
  -V(xc)+E(xc)   XCENC  =       585.70922946
  PAW double counting   =     16867.66013550   -18264.24603993
  entropy T*S    EENTRO =         0.00164832
  eigenvalues    EBANDS =      -847.77830346
  atomic energy  EATOM  =     18082.44932260
  Solvation  Ediel_sol  =         0.00000000
  ---------------------------------------------------
  free energy    TOTEN  =       -20.35381197 eV

  energy without entropy =      -20.35546030  energy(sigma->0) =      -20.35436141


--------------------------------------------------------------------------------------------------------




--------------------------------------- Iteration      1(  13)  ---------------------------------------


    POTLOK:  cpu time    3.4573: real time    3.4657
    SETDIJ:  cpu time    0.0309: real time    0.0309
     EDDAV:  cpu time   18.9185: real time   18.9384
       DOS:  cpu time    0.0014: real time    0.0014
    CHARGE:  cpu time    1.1490: real time    1.1510
    MIXING:  cpu time    0.0988: real time    0.0989
    --------------------------------------------
      LOOP:  cpu time   23.6557: real time   23.6862

 eigenvalue-minimisations  :   480
 total energy-change (2. order) :-0.4132571E+01  (-0.2195273E+00)
 number of electron     142.9999888 magnetization       5.2640715
 augmentation part       91.7518436 magnetization       3.7997975

 Broyden mixing:
  rms(total) = 0.11828E+00    rms(broyden)= 0.11819E+00
  rms(prec ) = 0.11986E+00
  weight for this iteration     100.00

 eigenvalues of (default mixing * dielectric matrix)
  average eigenvalue GAMMA=   1.2329
  3.3806  2.1199  1.0463  1.0463  0.4807  0.5990  0.5990  0.5915

 Free energy of the ion-electron system (eV)
  ---------------------------------------------------
  alpha Z        PSCENC =         8.72503597
  Ewald energy   TEWEN  =     25770.36385657
  -Hartree energ DENC   =    -42230.10025918
  -exchange      EXHF   =         0.00000000
  -V(xc)+E(xc)   XCENC  =       582.62808639
  PAW double counting   =     16845.49730658   -18241.32325332
  entropy T*S    EENTRO =         0.02274626
  eigenvalues    EBANDS =      -842.74922507
  atomic energy  EATOM  =     18082.44932260
  Solvation  Ediel_sol  =         0.00000000
  ---------------------------------------------------
  free energy    TOTEN  =       -24.48638318 eV

  energy without entropy =      -24.50912945  energy(sigma->0) =      -24.49396527


--------------------------------------------------------------------------------------------------------




--------------------------------------- Iteration      1(  14)  ---------------------------------------


    POTLOK:  cpu time    3.4315: real time    3.4390
    SETDIJ:  cpu time    0.0269: real time    0.0270
     EDDAV:  cpu time   19.5394: real time   19.5606
       DOS:  cpu time    0.0092: real time    0.0092
    CHARGE:  cpu time    1.2809: real time    1.2836
    MIXING:  cpu time    0.1064: real time    0.1064
    --------------------------------------------
      LOOP:  cpu time   24.3943: real time   24.4258

 eigenvalue-minimisations  :   472
 total energy-change (2. order) :-0.2901349E+01  (-0.1240666E+00)
 number of electron     142.9999888 magnetization       5.0276501
 augmentation part       91.7837212 magnetization       3.7331670

 Broyden mixing:
  rms(total) = 0.11864E+00    rms(broyden)= 0.11862E+00
  rms(prec ) = 0.12191E+00
  weight for this iteration     100.00

 eigenvalues of (default mixing * dielectric matrix)
  average eigenvalue GAMMA=   1.2032
  2.8717  2.7952  1.1642  1.1642  0.6456  0.6456  0.6132  0.4645  0.4645

 Free energy of the ion-electron system (eV)
  ---------------------------------------------------
  alpha Z        PSCENC =         8.72503597
  Ewald energy   TEWEN  =     25770.36385657
  -Hartree energ DENC   =    -42226.45257489
  -exchange      EXHF   =         0.00000000
  -V(xc)+E(xc)   XCENC  =       580.22763146
  PAW double counting   =     16818.75723491   -18212.89747787
  entropy T*S    EENTRO =         0.00879038
  eigenvalues    EBANDS =      -848.56955084
  atomic energy  EATOM  =     18082.44932260
  Solvation  Ediel_sol  =         0.00000000
  ---------------------------------------------------
  free energy    TOTEN  =       -27.38773172 eV

  energy without entropy =      -27.39652210  energy(sigma->0) =      -27.39066184


--------------------------------------------------------------------------------------------------------




--------------------------------------- Iteration      1(  15)  ---------------------------------------


    POTLOK:  cpu time    3.4456: real time    3.4545
    SETDIJ:  cpu time    0.0313: real time    0.0313
     EDDAV:  cpu time   20.2459: real time   20.2677
       DOS:  cpu time    0.0010: real time    0.0010
    CHARGE:  cpu time    1.2485: real time    1.2499
    MIXING:  cpu time    0.1149: real time    0.1158
    --------------------------------------------
      LOOP:  cpu time   25.0872: real time   25.1201

 eigenvalue-minimisations  :   496
 total energy-change (2. order) :-0.1042759E+01  (-0.2257448E-01)
 number of electron     142.9999888 magnetization       4.2631785
 augmentation part       91.8046593 magnetization       3.0168593

 Broyden mixing:
  rms(total) = 0.86393E-01    rms(broyden)= 0.86389E-01
  rms(prec ) = 0.88575E-01
  weight for this iteration     100.00

 eigenvalues of (default mixing * dielectric matrix)
  average eigenvalue GAMMA=   1.3021
  3.4497  3.4497  1.2470  1.2470  0.7702  0.7702  0.5715  0.5715  0.4720  0.4720

 Free energy of the ion-electron system (eV)
  ---------------------------------------------------
  alpha Z        PSCENC =         8.72503597
  Ewald energy   TEWEN  =     25770.36385657
  -Hartree energ DENC   =    -42221.02190102
  -exchange      EXHF   =         0.00000000
  -V(xc)+E(xc)   XCENC  =       579.31529027
  PAW double counting   =     16799.71019731   -18193.27815800
  entropy T*S    EENTRO =         0.01065450
  eigenvalues    EBANDS =      -854.70478917
  atomic energy  EATOM  =     18082.44932260
  Solvation  Ediel_sol  =         0.00000000
  ---------------------------------------------------
  free energy    TOTEN  =       -28.43049097 eV

  energy without entropy =      -28.44114547  energy(sigma->0) =      -28.43404247


--------------------------------------------------------------------------------------------------------




--------------------------------------- Iteration      1(  16)  ---------------------------------------


    POTLOK:  cpu time    3.4309: real time    3.4489
    SETDIJ:  cpu time    0.0293: real time    0.0293
     EDDAV:  cpu time   20.6194: real time   20.6419
       DOS:  cpu time    0.0076: real time    0.0076
    CHARGE:  cpu time    1.2622: real time    1.2636
    MIXING:  cpu time    0.1262: real time    0.1263
    --------------------------------------------
      LOOP:  cpu time   25.4755: real time   25.5176

 eigenvalue-minimisations  :   512
 total energy-change (2. order) :-0.1938642E+01  (-0.4890726E-01)
 number of electron     142.9999888 magnetization       3.3521601
 augmentation part       91.8123637 magnetization       2.1748493

 Broyden mixing:
  rms(total) = 0.60408E-01    rms(broyden)= 0.60402E-01
  rms(prec ) = 0.61436E-01
  weight for this iteration     100.00

 eigenvalues of (default mixing * dielectric matrix)
  average eigenvalue GAMMA=   1.3873
  3.9753  3.9753  1.4840  1.1705  1.1705  0.6868  0.6868  0.6946  0.4852  0.4852
  0.4465

 Free energy of the ion-electron system (eV)
  ---------------------------------------------------
  alpha Z        PSCENC =         8.72503597
  Ewald energy   TEWEN  =     25770.36385657
  -Hartree energ DENC   =    -42209.05754641
  -exchange      EXHF   =         0.00000000
  -V(xc)+E(xc)   XCENC  =       577.60261813
  PAW double counting   =     16754.61464939   -18147.91259559
  entropy T*S    EENTRO =         0.02048271
  eigenvalues    EBANDS =      -867.17495605
  atomic energy  EATOM  =     18082.44932260
  Solvation  Ediel_sol  =         0.00000000
  ---------------------------------------------------
  free energy    TOTEN  =       -30.36913267 eV

  energy without entropy =      -30.38961539  energy(sigma->0) =      -30.37596025


--------------------------------------------------------------------------------------------------------




--------------------------------------- Iteration      1(  17)  ---------------------------------------


    POTLOK:  cpu time    3.4424: real time    3.4482
    SETDIJ:  cpu time    0.0301: real time    0.0302
     EDDAV:  cpu time   20.3289: real time   20.3516
       DOS:  cpu time    0.0115: real time    0.0115
    CHARGE:  cpu time    1.2626: real time    1.2639
    MIXING:  cpu time    0.1372: real time    0.1373
    --------------------------------------------
      LOOP:  cpu time   25.2127: real time   25.2426

 eigenvalue-minimisations  :   492
 total energy-change (2. order) :-0.1015681E+01  (-0.2380912E-01)
 number of electron     142.9999888 magnetization       2.7181382
 augmentation part       91.7720597 magnetization       1.6906960

 Broyden mixing:
  rms(total) = 0.47566E-01    rms(broyden)= 0.47560E-01
  rms(prec ) = 0.48949E-01
  weight for this iteration     100.00

 eigenvalues of (default mixing * dielectric matrix)
  average eigenvalue GAMMA=   1.4535
  5.7516  2.7117  2.4256  1.1929  1.1929  0.7379  0.7379  0.6370  0.6370  0.5102
  0.4724  0.4351

 Free energy of the ion-electron system (eV)
  ---------------------------------------------------
  alpha Z        PSCENC =         8.72503597
  Ewald energy   TEWEN  =     25770.36385657
  -Hartree energ DENC   =    -42203.04773972
  -exchange      EXHF   =         0.00000000
  -V(xc)+E(xc)   XCENC  =       576.69565171
  PAW double counting   =     16743.42433419   -18137.92882822
  entropy T*S    EENTRO =         0.01653255
  eigenvalues    EBANDS =      -872.08297949
  atomic energy  EATOM  =     18082.44932260
  Solvation  Ediel_sol  =         0.00000000
  ---------------------------------------------------
  free energy    TOTEN  =       -31.38481384 eV

  energy without entropy =      -31.40134639  energy(sigma->0) =      -31.39032469


--------------------------------------------------------------------------------------------------------




--------------------------------------- Iteration      1(  18)  ---------------------------------------


    POTLOK:  cpu time    3.4389: real time    3.4542
    SETDIJ:  cpu time    0.0367: real time    0.0368
     EDDAV:  cpu time   22.0385: real time   22.7655
       DOS:  cpu time    0.0091: real time    0.0091
    CHARGE:  cpu time    1.2356: real time    1.2369
    MIXING:  cpu time    0.1492: real time    0.1493
    --------------------------------------------
      LOOP:  cpu time   26.9080: real time   27.6518

 eigenvalue-minimisations  :   504
 total energy-change (2. order) :-0.3582177E+00  (-0.5232382E-02)
 number of electron     142.9999888 magnetization       2.2867397
 augmentation part       91.7796412 magnetization       1.3850906

 Broyden mixing:
  rms(total) = 0.35141E-01    rms(broyden)= 0.35132E-01
  rms(prec ) = 0.36470E-01
  weight for this iteration     100.00

 eigenvalues of (default mixing * dielectric matrix)
  average eigenvalue GAMMA=   1.4375
  6.2003  2.5849  2.5849  1.1759  1.1759  0.8146  0.8146  0.6559  0.6559  0.6218
  0.4799  0.4799  0.4429

 Free energy of the ion-electron system (eV)
  ---------------------------------------------------
  alpha Z        PSCENC =         8.72503597
  Ewald energy   TEWEN  =     25770.36385657
  -Hartree energ DENC   =    -42199.10916876
  -exchange      EXHF   =         0.00000000
  -V(xc)+E(xc)   XCENC  =       576.28203926
  PAW double counting   =     16746.36614150   -18141.32816949
  entropy T*S    EENTRO =         0.00933729
  eigenvalues    EBANDS =      -875.50142644
  atomic energy  EATOM  =     18082.44932260
  Solvation  Ediel_sol  =         0.00000000
  ---------------------------------------------------
  free energy    TOTEN  =       -31.74303150 eV

  energy without entropy =      -31.75236878  energy(sigma->0) =      -31.74614393


--------------------------------------------------------------------------------------------------------




--------------------------------------- Iteration      1(  19)  ---------------------------------------


    POTLOK:  cpu time    3.5129: real time    3.5208
    SETDIJ:  cpu time    0.0318: real time    0.0318
     EDDAV:  cpu time   21.3328: real time   21.3564
       DOS:  cpu time    0.0076: real time    0.0076
    CHARGE:  cpu time    1.2713: real time    1.2727
    MIXING:  cpu time    0.1620: real time    0.1622
    --------------------------------------------
      LOOP:  cpu time   26.3183: real time   26.3515

 eigenvalue-minimisations  :   552
 total energy-change (2. order) :-0.3150053E+00  (-0.2098338E-02)
 number of electron     142.9999888 magnetization       1.5966026
 augmentation part       91.8027738 magnetization       0.7879239

 Broyden mixing:
  rms(total) = 0.24880E-01    rms(broyden)= 0.24870E-01
  rms(prec ) = 0.26085E-01
  weight for this iteration     100.00

 eigenvalues of (default mixing * dielectric matrix)
  average eigenvalue GAMMA=   1.5811
  7.7009  2.8721  2.8721  1.2229  1.2229  1.3068  0.8225  0.8225  0.6961  0.6961
  0.4371  0.4949  0.4949  0.4736

 Free energy of the ion-electron system (eV)
  ---------------------------------------------------
  alpha Z        PSCENC =         8.72503597
  Ewald energy   TEWEN  =     25770.36385657
  -Hartree energ DENC   =    -42195.71896527
  -exchange      EXHF   =         0.00000000
  -V(xc)+E(xc)   XCENC  =       575.90003133
  PAW double counting   =     16749.94055617   -18144.83915812
  entropy T*S    EENTRO =         0.00158872
  eigenvalues    EBANDS =      -878.88030472
  atomic energy  EATOM  =     18082.44932260
  Solvation  Ediel_sol  =         0.00000000
  ---------------------------------------------------
  free energy    TOTEN  =       -32.05803675 eV

  energy without entropy =      -32.05962547  energy(sigma->0) =      -32.05856632


--------------------------------------------------------------------------------------------------------




--------------------------------------- Iteration      1(  20)  ---------------------------------------


    POTLOK:  cpu time    3.4667: real time    3.4784
    SETDIJ:  cpu time    0.0311: real time    0.0311
     EDDAV:  cpu time   18.7792: real time   18.8006
       DOS:  cpu time    0.0085: real time    0.0085
    CHARGE:  cpu time    1.2517: real time    1.2531
    MIXING:  cpu time    0.1825: real time    0.1827
    --------------------------------------------
      LOOP:  cpu time   23.7197: real time   23.7544

 eigenvalue-minimisations  :   496
 total energy-change (2. order) :-0.5108148E+00  (-0.2428861E-02)
 number of electron     142.9999888 magnetization       1.2902184
 augmentation part       91.8018333 magnetization       0.6172030

 Broyden mixing:
  rms(total) = 0.15053E-01    rms(broyden)= 0.15026E-01
  rms(prec ) = 0.16138E-01
  weight for this iteration     100.00

 eigenvalues of (default mixing * dielectric matrix)
  average eigenvalue GAMMA=   1.6641
  8.9757  3.0837  3.0837  1.6506  1.1975  1.1975  0.8899  0.8788  0.7267  0.7267
  0.6594  0.4915  0.4915  0.4391  0.4702

 Free energy of the ion-electron system (eV)
  ---------------------------------------------------
  alpha Z        PSCENC =         8.72503597
  Ewald energy   TEWEN  =     25770.36385657
  -Hartree energ DENC   =    -42191.08912722
  -exchange      EXHF   =         0.00000000
  -V(xc)+E(xc)   XCENC  =       575.34537761
  PAW double counting   =     16758.15353860   -18153.29513850
  entropy T*S    EENTRO =        -0.01012287
  eigenvalues    EBANDS =      -883.21159429
  atomic energy  EATOM  =     18082.44932260
  Solvation  Ediel_sol  =         0.00000000
  ---------------------------------------------------
  free energy    TOTEN  =       -32.56885153 eV

  energy without entropy =      -32.55872866  energy(sigma->0) =      -32.56547724


--------------------------------------------------------------------------------------------------------




--------------------------------------- Iteration      1(  21)  ---------------------------------------


    POTLOK:  cpu time    3.4211: real time    3.4274
    SETDIJ:  cpu time    0.0304: real time    0.0304
     EDDAV:  cpu time   21.3274: real time   21.3558
       DOS:  cpu time    0.0049: real time    0.0049
    CHARGE:  cpu time    1.2326: real time    1.2344
    MIXING:  cpu time    0.2182: real time    0.2185
    --------------------------------------------
      LOOP:  cpu time   26.2345: real time   26.2715

 eigenvalue-minimisations  :   524
 total energy-change (2. order) :-0.1665335E+00  (-0.5282719E-03)
 number of electron     142.9999888 magnetization       1.0676192
 augmentation part       91.7961943 magnetization       0.4723917

 Broyden mixing:
  rms(total) = 0.11826E-01    rms(broyden)= 0.11809E-01
  rms(prec ) = 0.12815E-01
  weight for this iteration     100.00

 eigenvalues of (default mixing * dielectric matrix)
  average eigenvalue GAMMA=   1.6961
  9.7858  3.2784  3.2784  1.8182  1.2159  1.2159  1.2273  0.7705  0.7705  0.6683
  0.6683  0.5703  0.4857  0.4857  0.4376  0.4606

 Free energy of the ion-electron system (eV)
  ---------------------------------------------------
  alpha Z        PSCENC =         8.72503597
  Ewald energy   TEWEN  =     25770.36385657
  -Hartree energ DENC   =    -42189.09544218
  -exchange      EXHF   =         0.00000000
  -V(xc)+E(xc)   XCENC  =       575.17974340
  PAW double counting   =     16758.48826366   -18153.62523455
  entropy T*S    EENTRO =        -0.01454293
  eigenvalues    EBANDS =      -885.20638755
  atomic energy  EATOM  =     18082.44932260
  Solvation  Ediel_sol  =         0.00000000
  ---------------------------------------------------
  free energy    TOTEN  =       -32.73538500 eV

  energy without entropy =      -32.72084207  energy(sigma->0) =      -32.73053736


--------------------------------------------------------------------------------------------------------




--------------------------------------- Iteration      1(  22)  ---------------------------------------


    POTLOK:  cpu time    3.4165: real time    3.4243
    SETDIJ:  cpu time    0.0300: real time    0.0300
     EDDAV:  cpu time   21.2522: real time   21.2796
       DOS:  cpu time    0.0010: real time    0.0010
    CHARGE:  cpu time    1.2407: real time    1.2419
    MIXING:  cpu time    0.2023: real time    0.2025
    --------------------------------------------
      LOOP:  cpu time   26.1427: real time   26.1793

 eigenvalue-minimisations  :   524
 total energy-change (2. order) :-0.1047471E+00  (-0.2689772E-03)
 number of electron     142.9999888 magnetization       0.8069488
 augmentation part       91.7912811 magnetization       0.2710707

 Broyden mixing:
  rms(total) = 0.84207E-02    rms(broyden)= 0.84079E-02
  rms(prec ) = 0.91684E-02
  weight for this iteration     100.00

 eigenvalues of (default mixing * dielectric matrix)
  average eigenvalue GAMMA=   1.7671
 10.8624  3.5384  3.5384  2.0075  1.5298  1.2226  1.2226  0.8306  0.8306  0.6963
  0.6963  0.6103  0.5698  0.4388  0.4890  0.4890  0.4688

 Free energy of the ion-electron system (eV)
  ---------------------------------------------------
  alpha Z        PSCENC =         8.72503597
  Ewald energy   TEWEN  =     25770.36385657
  -Hartree energ DENC   =    -42187.53430694
  -exchange      EXHF   =         0.00000000
  -V(xc)+E(xc)   XCENC  =       575.07446980
  PAW double counting   =     16758.96493744   -18154.06677837
  entropy T*S    EENTRO =        -0.01786893
  eigenvalues    EBANDS =      -886.79880025
  atomic energy  EATOM  =     18082.44932260
  Solvation  Ediel_sol  =         0.00000000
  ---------------------------------------------------
  free energy    TOTEN  =       -32.84013210 eV

  energy without entropy =      -32.82226317  energy(sigma->0) =      -32.83417579


--------------------------------------------------------------------------------------------------------




--------------------------------------- Iteration      1(  23)  ---------------------------------------


    POTLOK:  cpu time    3.4188: real time    3.4274
    SETDIJ:  cpu time    0.0305: real time    0.0306
     EDDAV:  cpu time   21.0053: real time   21.0302
       DOS:  cpu time    0.0010: real time    0.0010
    CHARGE:  cpu time    1.2595: real time    1.2608
    MIXING:  cpu time    0.2176: real time    0.2178
    --------------------------------------------
      LOOP:  cpu time   25.9328: real time   25.9679

 eigenvalue-minimisations  :   516
 total energy-change (2. order) :-0.1075541E+00  (-0.2872479E-03)
 number of electron     142.9999888 magnetization       0.6834363
 augmentation part       91.7934816 magnetization       0.2205216

 Broyden mixing:
  rms(total) = 0.54219E-02    rms(broyden)= 0.53970E-02
  rms(prec ) = 0.59194E-02
  weight for this iteration     100.00

 eigenvalues of (default mixing * dielectric matrix)
  average eigenvalue GAMMA=   1.8176
 11.7486  3.7389  3.7389  2.2944  1.6802  1.2131  1.2131  0.9479  0.9479  0.7192
  0.7192  0.6846  0.6846  0.4962  0.4962  0.4375  0.4910  0.4653

 Free energy of the ion-electron system (eV)
  ---------------------------------------------------
  alpha Z        PSCENC =         8.72503597
  Ewald energy   TEWEN  =     25770.36385657
  -Hartree energ DENC   =    -42185.35346056
  -exchange      EXHF   =         0.00000000
  -V(xc)+E(xc)   XCENC  =       574.95193676
  PAW double counting   =     16759.43826447   -18154.41024100
  entropy T*S    EENTRO =        -0.02149465
  eigenvalues    EBANDS =      -889.09090634
  atomic energy  EATOM  =     18082.44932260
  Solvation  Ediel_sol  =         0.00000000
  ---------------------------------------------------
  free energy    TOTEN  =       -32.94768617 eV

  energy without entropy =      -32.92619152  energy(sigma->0) =      -32.94052129


--------------------------------------------------------------------------------------------------------




--------------------------------------- Iteration      1(  24)  ---------------------------------------


    POTLOK:  cpu time    3.4163: real time    3.4317
    SETDIJ:  cpu time    0.0297: real time    0.0297
     EDDAV:  cpu time   20.3943: real time   20.4150
       DOS:  cpu time    0.0050: real time    0.0050
    CHARGE:  cpu time    1.2426: real time    1.2447
    MIXING:  cpu time    0.2316: real time    0.2318
    --------------------------------------------
      LOOP:  cpu time   25.3195: real time   25.3580

 eigenvalue-minimisations  :   440
 total energy-change (2. order) :-0.3466703E-01  (-0.8470147E-04)
 number of electron     142.9999888 magnetization       0.5958663
 augmentation part       91.7977403 magnetization       0.1734896

 Broyden mixing:
  rms(total) = 0.47662E-02    rms(broyden)= 0.47532E-02
  rms(prec ) = 0.51282E-02
  weight for this iteration     100.00

 eigenvalues of (default mixing * dielectric matrix)
  average eigenvalue GAMMA=   1.8230
 12.2218  3.8693  3.8693  2.4652  1.8022  1.2397  1.2397  1.0526  1.0526  0.7448
  0.7448  0.6916  0.6916  0.5768  0.4971  0.4971  0.4388  0.4696  0.4719

 Free energy of the ion-electron system (eV)
  ---------------------------------------------------
  alpha Z        PSCENC =         8.72503597
  Ewald energy   TEWEN  =     25770.36385657
  -Hartree energ DENC   =    -42184.24323403
  -exchange      EXHF   =         0.00000000
  -V(xc)+E(xc)   XCENC  =       574.90486436
  PAW double counting   =     16758.84689804   -18153.70796578
  entropy T*S    EENTRO =        -0.02354506
  eigenvalues    EBANDS =      -890.29758587
  atomic energy  EATOM  =     18082.44932260
  Solvation  Ediel_sol  =         0.00000000
  ---------------------------------------------------
  free energy    TOTEN  =       -32.98235320 eV

  energy without entropy =      -32.95880814  energy(sigma->0) =      -32.97450485


--------------------------------------------------------------------------------------------------------




--------------------------------------- Iteration      1(  25)  ---------------------------------------


    POTLOK:  cpu time    3.4053: real time    3.4157
    SETDIJ:  cpu time    0.0293: real time    0.0293
     EDDAV:  cpu time   14.8333: real time   14.8513
       DOS:  cpu time    0.0020: real time    0.0020
    CHARGE:  cpu time    1.2629: real time    1.2642
    MIXING:  cpu time    0.2468: real time    0.2479
    --------------------------------------------
      LOOP:  cpu time   19.7796: real time   19.8104

 eigenvalue-minimisations  :   328
 total energy-change (2. order) :-0.1976490E-01  (-0.4121269E-04)
 number of electron     142.9999888 magnetization       0.4882201
 augmentation part       91.7986176 magnetization       0.0961901

 Broyden mixing:
  rms(total) = 0.37030E-02    rms(broyden)= 0.36942E-02
  rms(prec ) = 0.39671E-02
  weight for this iteration     100.00

 eigenvalues of (default mixing * dielectric matrix)
  average eigenvalue GAMMA=   1.8443
 12.7973  4.1807  4.1807  2.2530  2.2530  1.2412  1.2412  1.1528  1.1528  0.7835
  0.7835  0.7267  0.6469  0.6469  0.5145  0.5145  0.4726  0.4726  0.4412  0.4296

 Free energy of the ion-electron system (eV)
  ---------------------------------------------------
  alpha Z        PSCENC =         8.72503597
  Ewald energy   TEWEN  =     25770.36385657
  -Hartree energ DENC   =    -42183.64899046
  -exchange      EXHF   =         0.00000000
  -V(xc)+E(xc)   XCENC  =       574.88295803
  PAW double counting   =     16758.50257160   -18153.34341163
  entropy T*S    EENTRO =        -0.02500673
  eigenvalues    EBANDS =      -890.90845406
  atomic energy  EATOM  =     18082.44932260
  Solvation  Ediel_sol  =         0.00000000
  ---------------------------------------------------
  free energy    TOTEN  =       -33.00211810 eV

  energy without entropy =      -32.97711137  energy(sigma->0) =      -32.99378253


--------------------------------------------------------------------------------------------------------




--------------------------------------- Iteration      1(  26)  ---------------------------------------


    POTLOK:  cpu time    3.4118: real time    3.4227
    SETDIJ:  cpu time    0.0293: real time    0.0294
     EDDAV:  cpu time   16.1956: real time   16.2140
       DOS:  cpu time    0.0083: real time    0.0083
    CHARGE:  cpu time    1.2315: real time    1.2328
    MIXING:  cpu time    0.2613: real time    0.2616
    --------------------------------------------
      LOOP:  cpu time   21.1378: real time   21.1688

 eigenvalue-minimisations  :   376
 total energy-change (2. order) :-0.1778509E-01  (-0.5902143E-04)
 number of electron     142.9999888 magnetization       0.4228121
 augmentation part       91.7959469 magnetization       0.0702435

 Broyden mixing:
  rms(total) = 0.25811E-02    rms(broyden)= 0.25670E-02
  rms(prec ) = 0.28459E-02
  weight for this iteration     100.00

 eigenvalues of (default mixing * dielectric matrix)
  average eigenvalue GAMMA=   1.8569
 13.3062  4.4570  4.4570  2.3775  2.3775  1.2258  1.2258  1.2373  1.2373  0.8045
  0.8045  0.7405  0.6817  0.6817  0.6033  0.5178  0.4856  0.4856  0.4626  0.4379
  0.3874

 Free energy of the ion-electron system (eV)
  ---------------------------------------------------
  alpha Z        PSCENC =         8.72503597
  Ewald energy   TEWEN  =     25770.36385657
  -Hartree energ DENC   =    -42183.22340226
  -exchange      EXHF   =         0.00000000
  -V(xc)+E(xc)   XCENC  =       574.86683969
  PAW double counting   =     16758.71151708   -18153.60498093
  entropy T*S    EENTRO =        -0.02661445
  eigenvalues    EBANDS =      -891.28147746
  atomic energy  EATOM  =     18082.44932260
  Solvation  Ediel_sol  =         0.00000000
  ---------------------------------------------------
  free energy    TOTEN  =       -33.01990319 eV

  energy without entropy =      -32.99328873  energy(sigma->0) =      -33.01103170


--------------------------------------------------------------------------------------------------------




--------------------------------------- Iteration      1(  27)  ---------------------------------------


    POTLOK:  cpu time    3.4398: real time    3.4490
    SETDIJ:  cpu time    0.0309: real time    0.0310
     EDDAV:  cpu time   12.8705: real time   12.8854
       DOS:  cpu time    0.0089: real time    0.0089
    CHARGE:  cpu time    1.2620: real time    1.2648
    MIXING:  cpu time    0.2777: real time    0.2780
    --------------------------------------------
      LOOP:  cpu time   17.8898: real time   17.9171

 eigenvalue-minimisations  :   276
 total energy-change (2. order) :-0.8565253E-02  (-0.2390946E-04)
 number of electron     142.9999888 magnetization       0.3922330
 augmentation part       91.7952193 magnetization       0.0686050

 Broyden mixing:
  rms(total) = 0.25057E-02    rms(broyden)= 0.24962E-02
  rms(prec ) = 0.27062E-02
  weight for this iteration     100.00

 eigenvalues of (default mixing * dielectric matrix)
  average eigenvalue GAMMA=   1.8259
 13.5300  4.5338  4.5338  2.4393  2.4393  1.2299  1.2299  1.2873  1.2873  0.8064
  0.8064  0.7164  0.7164  0.7107  0.5910  0.5910  0.4916  0.4916  0.4379  0.4604
  0.4604  0.3790

 Free energy of the ion-electron system (eV)
  ---------------------------------------------------
  alpha Z        PSCENC =         8.72503597
  Ewald energy   TEWEN  =     25770.36385657
  -Hartree energ DENC   =    -42182.80901797
  -exchange      EXHF   =         0.00000000
  -V(xc)+E(xc)   XCENC  =       574.85719168
  PAW double counting   =     16758.65814131   -18153.58725542
  entropy T*S    EENTRO =        -0.02763237
  eigenvalues    EBANDS =      -891.65811081
  atomic energy  EATOM  =     18082.44932260
  Solvation  Ediel_sol  =         0.00000000
  ---------------------------------------------------
  free energy    TOTEN  =       -33.02846844 eV

  energy without entropy =      -33.00083607  energy(sigma->0) =      -33.01925765


--------------------------------------------------------------------------------------------------------




--------------------------------------- Iteration      1(  28)  ---------------------------------------


    POTLOK:  cpu time    3.4409: real time    3.4535
    SETDIJ:  cpu time    0.0306: real time    0.0306
     EDDAV:  cpu time   12.6267: real time   12.6401
       DOS:  cpu time    0.0099: real time    0.0099
    CHARGE:  cpu time    1.2570: real time    1.2584
    MIXING:  cpu time    0.2994: real time    0.2997
    --------------------------------------------
      LOOP:  cpu time   17.6645: real time   17.6922

 eigenvalue-minimisations  :   272
 total energy-change (2. order) :-0.4232347E-02  (-0.1362773E-04)
 number of electron     142.9999888 magnetization       0.3496847
 augmentation part       91.7951328 magnetization       0.0410848

 Broyden mixing:
  rms(total) = 0.19752E-02    rms(broyden)= 0.19700E-02
  rms(prec ) = 0.21099E-02
  weight for this iteration     100.00

 eigenvalues of (default mixing * dielectric matrix)
  average eigenvalue GAMMA=   1.8358
 13.9085  4.7370  4.7370  2.5300  2.5300  1.3289  1.3289  1.2422  1.2422  0.9644
  0.9644  0.7562  0.7562  0.6627  0.6627  0.5719  0.5719  0.5163  0.4748  0.4748
  0.4365  0.4634  0.3618

 Free energy of the ion-electron system (eV)
  ---------------------------------------------------
  alpha Z        PSCENC =         8.72503597
  Ewald energy   TEWEN  =     25770.36385657
  -Hartree energ DENC   =    -42182.47071966
  -exchange      EXHF   =         0.00000000
  -V(xc)+E(xc)   XCENC  =       574.85136477
  PAW double counting   =     16758.68373043   -18153.62477602
  entropy T*S    EENTRO =        -0.02813696
  eigenvalues    EBANDS =      -891.98237849
  atomic energy  EATOM  =     18082.44932260
  Solvation  Ediel_sol  =         0.00000000
  ---------------------------------------------------
  free energy    TOTEN  =       -33.03270079 eV

  energy without entropy =      -33.00456382  energy(sigma->0) =      -33.02332180


--------------------------------------------------------------------------------------------------------




--------------------------------------- Iteration      1(  29)  ---------------------------------------


    POTLOK:  cpu time    3.3832: real time    3.3879
    SETDIJ:  cpu time    0.0302: real time    0.0302
     EDDAV:  cpu time   12.7519: real time   12.7666
       DOS:  cpu time    0.0087: real time    0.0087
    CHARGE:  cpu time    1.2442: real time    1.2454
    MIXING:  cpu time    0.3092: real time    0.3096
    --------------------------------------------
      LOOP:  cpu time   17.7273: real time   17.7484

 eigenvalue-minimisations  :   264
 total energy-change (2. order) :-0.3908388E-02  (-0.1870223E-04)
 number of electron     142.9999888 magnetization       0.3141742
 augmentation part       91.7955315 magnetization       0.0269731

 Broyden mixing:
  rms(total) = 0.17709E-02    rms(broyden)= 0.17637E-02
  rms(prec ) = 0.18437E-02
  weight for this iteration     100.00

 eigenvalues of (default mixing * dielectric matrix)
  average eigenvalue GAMMA=   1.8847
 14.3861  5.1710  5.1710  2.7587  2.7587  1.5796  1.2584  1.2584  1.3538  1.0583
  1.0583  0.8144  0.8144  0.6948  0.6948  0.6786  0.6421  0.4939  0.4939  0.4850
  0.4692  0.4376  0.3965  0.3057

 Free energy of the ion-electron system (eV)
  ---------------------------------------------------
  alpha Z        PSCENC =         8.72503597
  Ewald energy   TEWEN  =     25770.36385657
  -Hartree energ DENC   =    -42182.03598760
  -exchange      EXHF   =         0.00000000
  -V(xc)+E(xc)   XCENC  =       574.84389861
  PAW double counting   =     16758.64731751   -18153.59235005
  entropy T*S    EENTRO =        -0.02880963
  eigenvalues    EBANDS =      -892.40889315
  atomic energy  EATOM  =     18082.44932260
  Solvation  Ediel_sol  =         0.00000000
  ---------------------------------------------------
  free energy    TOTEN  =       -33.03660917 eV

  energy without entropy =      -33.00779954  energy(sigma->0) =      -33.02700596


--------------------------------------------------------------------------------------------------------




--------------------------------------- Iteration      1(  30)  ---------------------------------------


    POTLOK:  cpu time    3.4399: real time    3.4447
    SETDIJ:  cpu time    0.0286: real time    0.0287
     EDDAV:  cpu time   13.4223: real time   13.4386
       DOS:  cpu time    0.0098: real time    0.0098
    CHARGE:  cpu time    1.2505: real time    1.2525
    MIXING:  cpu time    0.3242: real time    0.3246
    --------------------------------------------
      LOOP:  cpu time   18.4753: real time   18.4988

 eigenvalue-minimisations  :   280
 total energy-change (2. order) :-0.2002768E-02  (-0.1710574E-04)
 number of electron     142.9999888 magnetization       0.2901371
 augmentation part       91.7971936 magnetization       0.0219142

 Broyden mixing:
  rms(total) = 0.13473E-02    rms(broyden)= 0.13395E-02
  rms(prec ) = 0.13925E-02
  weight for this iteration     100.00

 eigenvalues of (default mixing * dielectric matrix)
  average eigenvalue GAMMA=   1.9035
 14.9324  5.4893  5.4893  2.9136  2.9136  1.7220  1.5198  1.2615  1.2615  1.0720
  1.0720  0.8255  0.8255  0.6921  0.6921  0.7258  0.6190  0.5438  0.4922  0.4922
  0.4378  0.4664  0.4664  0.3800  0.2812

 Free energy of the ion-electron system (eV)
  ---------------------------------------------------
  alpha Z        PSCENC =         8.72503597
  Ewald energy   TEWEN  =     25770.36385657
  -Hartree energ DENC   =    -42181.73309988
  -exchange      EXHF   =         0.00000000
  -V(xc)+E(xc)   XCENC  =       574.83826403
  PAW double counting   =     16758.56633433   -18153.49398952
  entropy T*S    EENTRO =        -0.02941126
  eigenvalues    EBANDS =      -892.72492479
  atomic energy  EATOM  =     18082.44932260
  Solvation  Ediel_sol  =         0.00000000
  ---------------------------------------------------
  free energy    TOTEN  =       -33.03861194 eV

  energy without entropy =      -33.00920068  energy(sigma->0) =      -33.02880819


--------------------------------------------------------------------------------------------------------




--------------------------------------- Iteration      1(  31)  ---------------------------------------


    POTLOK:  cpu time    3.4405: real time    3.4457
[...]
     26      -6.4387      1.00000
     27      -6.4005      1.00000
     28      -6.3425      1.00000
     29      -6.3087      1.00000
     30      -6.1951      1.00000
     31      -6.1683      1.00000
     32      -6.1102      1.00000
     33      -6.0598      1.00000
     34      -6.0131      1.00000
     35      -5.9802      1.00000
     36      -5.9352      1.00000
     37      -5.8990      1.00000
     38      -5.8606      1.00000
     39      -5.8433      1.00000
     40      -5.7965      1.00000
     41      -5.7912      1.00000
     42      -5.7453      1.00000
     43      -5.7410      1.00000
     44      -5.7254      1.00000
     45      -5.7162      1.00000
     46      -5.7013      1.00000
     47      -5.6720      1.00000
     48      -5.6434      1.00000
     49      -5.6160      1.00000
     50      -5.6003      1.00000
     51      -5.5741      1.00000
     52      -5.5482      1.00000
     53      -5.5301      1.00000
     54      -5.4977      1.00000
     55      -5.4575      1.00000
     56      -5.4406      1.00000
     57      -5.4114      1.00000
     58      -5.3973      1.00000
     59      -5.3563      1.00000
     60      -5.3464      1.00000
     61      -5.3438      1.00000
     62      -5.3225      1.00000
     63      -5.3102      1.00000
     64      -5.2782      1.00000
     65      -5.2552      1.00000
     66      -5.2184      1.00000
     67      -5.1689      1.00000
     68      -5.1185      1.00000
     69      -5.0880      1.00000
     70      -4.5847      1.00000
     71      -4.4785      1.00001
     72      -3.8420      0.62546
     73      -3.6161     -0.02283
     74      -3.3119     -0.00116
     75      -2.6756     -0.00000
     76      -2.4739     -0.00000
     77      -2.4245     -0.00000
     78      -1.9678     -0.00000
     79      -1.6479     -0.00000
     80      -1.4067     -0.00000
     81      -1.3604     -0.00000
     82      -1.1011     -0.00000
     83      -0.9134     -0.00000
     84      -0.6823     -0.00000
     85      -0.5801     -0.00000
     86      -0.3114     -0.00000
     87      -0.2417     -0.00000
     88       0.0472     -0.00000
     89       0.1052     -0.00000
     90       0.2516     -0.00000
     91       0.2962     -0.00000
     92       0.3040     -0.00000

 spin component 2

 k-point     1 :       0.0000    0.0000    0.0000
  band No.  band energies     occupation 
      1     -10.7099      1.00000
      2      -9.0627      1.00000
      3      -8.6863      1.00000
      4      -8.3028      1.00000
      5      -8.0037      1.00000
      6      -7.9052      1.00000
      7      -7.7667      1.00000
      8      -7.5408      1.00000
      9      -7.4969      1.00000
     10      -7.3605      1.00000
     11      -7.2678      1.00000
     12      -7.1869      1.00000
     13      -7.0861      1.00000
     14      -7.0360      1.00000
     15      -6.9790      1.00000
     16      -6.9272      1.00000
     17      -6.9048      1.00000
     18      -6.8337      1.00000
     19      -6.8114      1.00000
     20      -6.7760      1.00000
     21      -6.7074      1.00000
     22      -6.6598      1.00000
     23      -6.5708      1.00000
     24      -6.5241      1.00000
     25      -6.4959      1.00000
     26      -6.4338      1.00000
     27      -6.3955      1.00000
     28      -6.3376      1.00000
     29      -6.3033      1.00000
     30      -6.1898      1.00000
     31      -6.1643      1.00000
     32      -6.1054      1.00000
     33      -6.0544      1.00000
     34      -6.0087      1.00000
     35      -5.9748      1.00000
     36      -5.9313      1.00000
     37      -5.8936      1.00000
     38      -5.8554      1.00000
     39      -5.8393      1.00000
     40      -5.7894      1.00000
     41      -5.7853      1.00000
     42      -5.7403      1.00000
     43      -5.7371      1.00000
     44      -5.7203      1.00000
     45      -5.7084      1.00000
     46      -5.6968      1.00000
     47      -5.6663      1.00000
     48      -5.6392      1.00000
     49      -5.6115      1.00000
     50      -5.5968      1.00000
     51      -5.5679      1.00000
     52      -5.5447      1.00000
     53      -5.5265      1.00000
     54      -5.4927      1.00000
     55      -5.4522      1.00000
     56      -5.4358      1.00000
     57      -5.4063      1.00000
     58      -5.3913      1.00000
     59      -5.3517      1.00000
     60      -5.3420      1.00000
     61      -5.3374      1.00000
     62      -5.3174      1.00000
     63      -5.3032      1.00000
     64      -5.2728      1.00000
     65      -5.2487      1.00000
     66      -5.2141      1.00000
     67      -5.1660      1.00000
     68      -5.1132      1.00000
     69      -5.0756      1.00000
     70      -4.5781      1.00000
     71      -4.4664      1.00002
     72      -3.7953      0.42973
     73      -3.5994     -0.03048
     74      -3.2934     -0.00076
     75      -2.6577     -0.00000
     76      -2.4621     -0.00000
     77      -2.4135     -0.00000
     78      -1.9399     -0.00000
     79      -1.6131     -0.00000
     80      -1.3897     -0.00000
     81      -1.3400     -0.00000
     82      -1.0672     -0.00000
     83      -0.8806     -0.00000
     84      -0.6678     -0.00000
     85      -0.5596     -0.00000
     86      -0.2792     -0.00000
     87      -0.2057     -0.00000
     88       0.0944     -0.00000
     89       0.1435     -0.00000
     90       0.3002     -0.00000
     91       0.3144     -0.00000
     92       0.3372     -0.00000


--------------------------------------------------------------------------------------------------------


 soft charge-density along one line, spin component            1
         0         1         2         3         4         5         6         7         8         9
 total charge-density along one line
 
 soft charge-density along one line, spin component            2
         0         1         2         3         4         5         6         7         8         9
 total charge-density along one line
 
 pseudopotential strength for first ion, spin component:            1
-11.197   0.015   0.003  -0.021   0.004   1.545  -0.012  -0.003
  0.015 -11.168  -0.010   0.004   0.014  -0.012   1.523   0.008
  0.003  -0.010 -11.196   0.009   0.027  -0.003   0.008   1.544
 -0.021   0.004   0.009 -11.203   0.016   0.016  -0.003  -0.007
  0.004   0.014   0.027   0.016 -11.198  -0.002  -0.011  -0.020
  1.545  -0.012  -0.003   0.016  -0.002   5.909   0.007   0.001
 -0.012   1.523   0.008  -0.003  -0.011   0.007   5.924  -0.005
 -0.003   0.008   1.544  -0.007  -0.020   0.001  -0.005   5.909
  0.016  -0.003  -0.007   1.549  -0.012  -0.011   0.003   0.004
 -0.002  -0.011  -0.020  -0.012   1.546   0.002   0.007   0.014
  0.001   0.005  -0.001  -0.005   0.005   0.002  -0.001  -0.000
  0.003   0.009  -0.002  -0.010   0.009   0.003  -0.001  -0.001
  0.008   0.007   0.001  -0.000   0.002  -0.011  -0.008  -0.002
 -0.000  -0.003   0.008   0.008  -0.000  -0.000   0.001  -0.009
 -0.003  -0.000  -0.005   0.006   0.008   0.002  -0.000   0.006
  0.011   0.009   0.002  -0.000   0.002  -0.016  -0.011  -0.002
 -0.000  -0.003   0.010   0.011  -0.000  -0.000   0.001  -0.012
 -0.003  -0.000  -0.006   0.008   0.010   0.002  -0.000   0.008
 pseudopotential strength for first ion, spin component:            2
-11.188   0.014  -0.002  -0.018   0.005   1.537  -0.011   0.001
  0.014 -11.161  -0.009   0.003   0.014  -0.011   1.517   0.007
 -0.002  -0.009 -11.182   0.004   0.025   0.001   0.007   1.533
 -0.018   0.003   0.004 -11.193   0.017   0.014  -0.002  -0.003
  0.005   0.014   0.025   0.017 -11.190  -0.003  -0.011  -0.019
  1.537  -0.011   0.001   0.014  -0.003   5.915   0.007  -0.002
 -0.011   1.517   0.007  -0.002  -0.011   0.007   5.928  -0.004
  0.001   0.007   1.533  -0.003  -0.019  -0.002  -0.004   5.917
  0.014  -0.002  -0.003   1.541  -0.014  -0.010   0.002   0.002
 -0.003  -0.011  -0.019  -0.014   1.539   0.002   0.007   0.013
  0.001   0.005  -0.001  -0.005   0.005   0.002  -0.000  -0.001
  0.001   0.008  -0.003  -0.009   0.008   0.004  -0.000  -0.001
  0.008   0.007   0.002  -0.000   0.002  -0.011  -0.008  -0.002
 -0.000  -0.003   0.007   0.008  -0.000  -0.000   0.001  -0.009
 -0.003  -0.000  -0.004   0.006   0.008   0.002  -0.000   0.006
  0.011   0.009   0.002  -0.000   0.003  -0.016  -0.011  -0.002
 -0.000  -0.003   0.009   0.011  -0.000  -0.000   0.001  -0.012
 -0.003  -0.000  -0.006   0.008   0.010   0.002  -0.000   0.008
 total augmentation occupancy for first ion, spin component:            1
  1.925   0.004   0.000  -0.013   0.002  -0.015  -0.007  -0.007   0.005  -0.005   0.002  -0.010   0.007  -0.001   0.007   0.002
  0.004   1.934  -0.004   0.002  -0.003  -0.007  -0.022   0.002   0.001  -0.003  -0.008  -0.004  -0.000   0.005  -0.004   0.003
  0.000  -0.004   1.912  -0.000   0.013  -0.007   0.002  -0.017  -0.001  -0.006   0.003   0.003  -0.006   0.003  -0.005   0.003
 -0.013   0.002  -0.000   1.933   0.006   0.005   0.001  -0.001  -0.022  -0.008   0.015   0.010   0.004  -0.000  -0.010  -0.001
  0.002  -0.003   0.013   0.006   1.920  -0.005  -0.004  -0.006  -0.008  -0.015  -0.029   0.001  -0.016  -0.011   0.001   0.004
 -0.015  -0.007  -0.007   0.005  -0.005   0.019  -0.003  -0.003   0.000  -0.000   0.032  -0.002  -0.021   0.001   0.005   0.001
 -0.007  -0.022   0.002   0.001  -0.004  -0.003   0.018   0.001   0.002  -0.003   0.028  -0.002  -0.013  -0.001   0.002   0.001
 -0.007   0.002  -0.017  -0.001  -0.006  -0.003   0.001   0.017  -0.002  -0.001  -0.014  -0.000  -0.008  -0.010   0.005   0.001
  0.005   0.001  -0.001  -0.022  -0.008   0.000   0.002  -0.002   0.021  -0.003  -0.050   0.004   0.000  -0.022  -0.018   0.000
 -0.005  -0.003  -0.006  -0.008  -0.015  -0.000  -0.003  -0.001  -0.003   0.018   0.021  -0.002  -0.005  -0.001  -0.009   0.001
  0.002  -0.008   0.003   0.015  -0.029   0.032   0.028  -0.014  -0.050   0.021   1.764  -0.175   0.044  -0.064  -0.068  -0.007
 -0.010  -0.004   0.003   0.010   0.001  -0.002  -0.002  -0.000   0.004  -0.002  -0.175   0.021  -0.008   0.015   0.018   0.001
  0.007  -0.000  -0.006   0.004  -0.016  -0.021  -0.013  -0.008   0.000  -0.005   0.044  -0.008   0.230   0.022   0.032  -0.015
 -0.001   0.005   0.003  -0.000  -0.011   0.001  -0.001  -0.010  -0.022  -0.001  -0.064   0.015   0.022   0.216  -0.043  -0.001
  0.007  -0.004  -0.005  -0.010   0.001   0.005   0.002   0.005  -0.018  -0.009  -0.068   0.018   0.032  -0.043   0.240  -0.002
  0.002   0.003   0.003  -0.001   0.004   0.001   0.001   0.001   0.000   0.001  -0.007   0.001  -0.015  -0.001  -0.002   0.001
 -0.001  -0.004   0.002   0.003   0.000   0.000  -0.000   0.001   0.001   0.000   0.011  -0.002  -0.001  -0.015   0.003   0.000
 -0.005  -0.001   0.000   0.004   0.001  -0.000   0.000  -0.001   0.001   0.001   0.012  -0.002  -0.002   0.003  -0.017   0.000
 total augmentation occupancy for first ion, spin component:            2
  0.001  -0.001  -0.002   0.002   0.001  -0.001   0.000   0.001  -0.001  -0.000  -0.002  -0.000  -0.001   0.000  -0.000  -0.000
 -0.001   0.000   0.001  -0.001  -0.000   0.000  -0.000  -0.000   0.000   0.000   0.000   0.000   0.000  -0.000   0.000  -0.000
 -0.002   0.001   0.004  -0.003  -0.001   0.001  -0.000  -0.002   0.001   0.000   0.003   0.001   0.001  -0.001   0.001   0.000
  0.002  -0.001  -0.003   0.001   0.001  -0.001   0.000   0.001  -0.001  -0.000  -0.002  -0.001  -0.001   0.000  -0.000   0.000
  0.001  -0.000  -0.001   0.001   0.000  -0.000   0.000   0.000  -0.000  -0.000  -0.001  -0.000  -0.000   0.000  -0.000  -0.000
 -0.001   0.000   0.001  -0.001  -0.000   0.000  -0.000  -0.000   0.000   0.000   0.001   0.000   0.000  -0.000   0.000  -0.000
  0.000  -0.000  -0.000   0.000   0.000  -0.000   0.000   0.000  -0.000  -0.000  -0.000  -0.000  -0.000   0.000  -0.000   0.000
  0.001  -0.000  -0.002   0.001   0.000  -0.000   0.000   0.000  -0.000  -0.000  -0.001  -0.000  -0.000   0.000  -0.000   0.000
 -0.001   0.000   0.001  -0.001  -0.000   0.000  -0.000  -0.000   0.000   0.000   0.001   0.000   0.000  -0.000   0.000  -0.000
 -0.000   0.000   0.000  -0.000  -0.000   0.000  -0.000  -0.000   0.000   0.000   0.000   0.000   0.000  -0.000   0.000   0.000
 -0.002   0.000   0.003  -0.002  -0.001   0.001  -0.000  -0.001   0.001   0.000   0.002   0.001   0.001  -0.001   0.001  -0.000
 -0.000   0.000   0.001  -0.001  -0.000   0.000  -0.000  -0.000   0.000   0.000   0.001   0.000   0.000  -0.000   0.000   0.000
 -0.001   0.000   0.001  -0.001  -0.000   0.000  -0.000  -0.000   0.000   0.000   0.001   0.000   0.000  -0.000   0.000   0.000
  0.000  -0.000  -0.001   0.000   0.000  -0.000   0.000   0.000  -0.000  -0.000  -0.001  -0.000  -0.000  -0.000   0.000   0.000
 -0.000   0.000   0.001  -0.000  -0.000   0.000  -0.000  -0.000   0.000   0.000   0.001   0.000   0.000   0.000  -0.000  -0.000
 -0.000  -0.000   0.000   0.000  -0.000  -0.000   0.000   0.000  -0.000   0.000  -0.000   0.000   0.000   0.000  -0.000  -0.000
 -0.000   0.000  -0.000   0.000  -0.000   0.000  -0.000  -0.000  -0.000   0.000   0.000   0.000   0.000   0.000  -0.000  -0.000
 -0.000   0.000   0.000  -0.000  -0.000  -0.000  -0.000  -0.000   0.000  -0.000  -0.000   0.000  -0.000  -0.000   0.000   0.000


------------------------ aborting loop because EDIFF is reached ----------------------------------------


    CHARGE:  cpu time    1.2022: real time    1.2036
    FORLOC:  cpu time    0.1010: real time    0.1018
    FORNL :  cpu time    5.8544: real time    5.8606
    FORCOR:  cpu time    3.3131: real time    3.3179
    FORHAR:  cpu time    0.4502: real time    0.4506
    MIXING:  cpu time    0.0625: real time    0.0625
    OFIELD:  cpu time    0.0000: real time    0.0000

 VOLUME and BASIS-vectors are now :
 -----------------------------------------------------------------------------
  energy-cutoff  :      400.00
  volume of cell :    14165.49
      direct lattice vectors                 reciprocal lattice vectors
    21.699153219  0.000000000  0.000000000     0.046084748  0.000000000  0.000000000
     0.000000000 25.006234285  0.000000000     0.000000000  0.039990028  0.000000000
     0.000000000  0.000000000 26.106017185     0.000000000  0.000000000  0.038305345

  length of vectors
    21.699153219 25.006234285 26.106017185     0.046084748  0.039990028  0.038305345


 FORCES acting on ions
    electron-ion (+dipol)            ewald-force                    non-local-force                 convergence-correction
 -----------------------------------------------------------------------------------------------
   -.466E+03 0.545E+03 -.531E+03   0.467E+03 -.544E+03 0.531E+03   -.102E+01 -.111E+01 -.250E+00   0.348E-01 0.550E-01 0.509E-01
   0.950E+03 0.285E+03 0.104E+04   -.946E+03 -.283E+03 -.103E+04   -.398E+01 -.185E+01 -.628E+01   0.102E-01 0.524E-01 -.370E-01
   -.114E+04 -.478E+03 -.415E+03   0.114E+04 0.476E+03 0.413E+03   0.313E+01 0.237E+01 0.206E+01   -.672E-01 -.189E-01 -.178E-01
   0.125E+03 -.521E+03 -.126E+04   -.126E+03 0.520E+03 0.125E+04   0.847E+00 0.862E+00 0.673E+01   -.443E-01 -.306E-01 0.583E-02
   0.575E+03 0.129E+04 -.120E+03   -.572E+03 -.129E+04 0.119E+03   -.359E+01 -.712E+01 0.742E+00   -.276E-01 -.922E-01 0.361E-01
   -.134E+04 0.482E+03 0.114E+03   0.133E+04 -.478E+03 -.113E+03   0.109E+02 -.453E+01 -.121E+01   -.154E-01 -.253E-01 -.487E-01
   -.380E+03 -.107E+04 0.824E+03   0.377E+03 0.106E+04 -.818E+03   0.250E+01 0.731E+01 -.571E+01   0.551E-01 0.378E-03 -.120E-01
   -.381E+03 -.108E+03 0.130E+04   0.380E+03 0.109E+03 -.129E+04   0.135E+01 -.139E+01 -.404E+01   -.836E-01 -.407E-02 0.240E-01
   -.347E+03 0.116E+04 0.755E+03   0.345E+03 -.115E+04 -.751E+03   0.224E+01 -.612E+01 -.384E+01   0.185E-01 -.401E-01 0.327E-01
   -.247E+02 -.130E+04 -.505E+03   0.253E+02 0.129E+04 0.502E+03   -.569E+00 0.962E+01 0.290E+01   0.112E-01 0.220E-01 0.122E+00
   0.842E+03 -.814E+03 0.398E+03   -.840E+03 0.810E+03 -.398E+03   -.168E+01 0.395E+01 -.918E+00   0.407E-01 0.203E-01 0.116E-01
   0.215E+03 0.594E+03 -.124E+04   -.217E+03 -.589E+03 0.123E+04   0.120E+01 -.423E+01 0.885E+01   0.409E-01 0.793E-01 -.372E-01
   0.137E+04 -.728E+02 -.355E+03   -.137E+04 0.722E+02 0.353E+03   -.841E+01 0.552E+00 0.205E+01   0.315E-01 -.235E-01 -.116E+00
 -----------------------------------------------------------------------------------------------
   -.299E+01 0.171E+01 -.118E+01   0.682E-12 0.455E-12 0.171E-12   0.298E+01 -.169E+01 0.110E+01   0.484E-02 -.537E-02 0.143E-01
 
 
 POSITION                                       TOTAL-FORCE (eV/Angst)
 -----------------------------------------------------------------------------------
     11.55933     11.90221     14.09786        -0.006767     -0.023884     -0.010700
      9.91008     11.92207     12.16390         0.006492     -0.012686     -0.006680
     12.85831     13.96662     13.88093        -0.000125      0.005052     -0.000238
     10.89907     13.78123     15.55501        -0.009683      0.002905      0.006506
      9.98446     10.13539     13.88140         0.006774      0.008971     -0.002057
     13.67556     11.86067     12.99422        -0.006285      0.000011     -0.011571
     12.23497     15.40845     12.07050         0.007677      0.001433      0.004281
     12.05383     12.99778     11.66507        -0.000570     -0.001672     -0.003291
     11.81262     10.45665     12.14625        -0.009394      0.000245      0.012028
     11.54823     15.87473     14.43871         0.003008     -0.005535      0.021382
     10.45196     14.14738     13.13965         0.003499      0.020042      0.003841
     10.29155     11.31092     16.10874         0.006861      0.014172     -0.001675
      9.18429     12.45992     14.38729        -0.001488     -0.009054     -0.011825
 -----------------------------------------------------------------------------------
    total drift:                               -0.005806      0.017177     -0.064170


--------------------------------------------------------------------------------------------------------



  FREE ENERGIE OF THE ION-ELECTRON SYSTEM (eV)
  ---------------------------------------------------
  free  energy   TOTEN  =       -33.04456266 eV

  energy  without entropy=      -33.01307311  energy(sigma->0) =      -33.03406614
 
 d Force = 0.2194956E-03[ 0.849E-04, 0.354E-03]  d Energy = 0.7683585E-03-0.549E-03
 d Force = 0.6945058E-01[ 0.697E-01, 0.692E-01]  d Ewald  = 0.6945034E-01 0.246E-06


--------------------------------------------------------------------------------------------------------


    POTLOK:  cpu time    3.4373: real time    3.4486


--------------------------------------------------------------------------------------------------------




--------------------------------------------------------------------------------------------------------


  
 reached required accuracy - stopping structural energy minimisation
     LOOP+:  cpu time   80.9166: real time   81.1193
    4ORBIT:  cpu time    0.0000: real time    0.0000

 total amount of memory used by VASP MPI-rank0   178002. kBytes
=======================================================================

   base      :      30000. kBytes
   nonl-proj :       5660. kBytes
   fftplans  :      35072. kBytes
   grid      :      83543. kBytes
   one-center:         31. kBytes
   wavefun   :      23696. kBytes
 
  
  
 General timing and accounting informations for this job:
 ========================================================
  
                  Total CPU time used (sec):     1015.138
                            User time (sec):     1008.966
                          System time (sec):        6.172
                         Elapsed time (sec):     1020.920
  
                   Maximum memory used (kb):      355596.
                   Average memory used (kb):           0.
  
                          Minor page faults:      1657094
                          Major page faults:        28001
                 Voluntary context switches:         3650
