<?xml version="1.0" encoding="ISO-8859-1"?>
<modeling>
 <generator>
  <i name="program" type="string">vasp </i>
  <i name="version" type="string">6.1.2  </i>
  <i name="subversion" type="string">22Jul20 (build Aug  2 2021 21:04:21) gamma-only                       parallel </i>
  <i name="platform" type="string">LinuxPGI </i>
  <i name="date" type="string">2021 12 25 </i>
  <i name="time" type="string">00:35:07 </i>
 </generator>
 <incar>
  <i type="int" name="ISPIN">     2</i>
  <i type="int" name="IBRION">     2</i>
  <i type="int" name="NSW">  1000</i>
  <i type="int" name="ISIF">     0</i>
  <i type="int" name="ISYM">     0</i>
  <i name="ENCUT">    400.00000000</i>
  <i type="logical" name="LREAL"> F  </i>
  <i type="int" name="ISMEAR">     1</i>
  <i name="SIGMA">      0.20000000</i>
  <i type="logical" name="LWAVE"> F  </i>
  <i type="logical" name="LCHARG"> F  </i>
  <i type="int" name="KPAR">     1</i>
  <i type="int" name="NCORE">     8</i>
  <i type="string" name="GGA"> PE</i>
  <i type="int" name="ISPIN">     2</i>
 </incar>
 <structure name="primitive_cell" >
  <crystal>
   <varray name="basis" >
    <v>      21.69915322       0.00000000       0.00000000 </v>
    <v>       0.00000000      25.00623429       0.00000000 </v>
    <v>       0.00000000       0.00000000      26.10601719 </v>
   </varray>
   <i name="volume">  14165.49325946 </i>
   <varray name="rec_basis" >
    <v>       0.04608475       0.00000000       0.00000000 </v>
    <v>       0.00000000       0.03999003       0.00000000 </v>
    <v>       0.00000000       0.00000000       0.03830535 </v>
   </varray>
  </crystal>
  <varray name="positions" >
   <v>       0.53265531       0.47589430       0.53995924 </v>
   <v>       0.45668996       0.47668112       0.46599681 </v>
   <v>       0.59267151       0.55854447       0.53173552 </v>
   <v>       0.50234299       0.55115965       0.59582298 </v>
   <v>       0.46019216       0.40545444       0.53168245 </v>
   <v>       0.63026018       0.47435886       0.49781321 </v>
   <v>       0.56375596       0.61618779       0.46238508 </v>
   <v>       0.55564502       0.51978130       0.44680760 </v>
   <v>       0.54434249       0.41822185       0.46523208 </v>
   <v>       0.53218584       0.63478961       0.55290367 </v>
   <v>       0.48161324       0.56572753       0.50331034 </v>
   <v>       0.47420440       0.45219862       0.61710147 </v>
   <v>       0.42320939       0.49830376       0.55127412 </v>
  </varray>
 </structure>
 <varray name="primitive_index" >
  <v type="int" >        1 </v>
  <v type="int" >        2 </v>
  <v type="int" >        3 </v>
  <v type="int" >        4 </v>
  <v type="int" >        5 </v>
  <v type="int" >        6 </v>
  <v type="int" >        7 </v>
  <v type="int" >        8 </v>
  <v type="int" >        9 </v>
  <v type="int" >       10 </v>
  <v type="int" >       11 </v>
  <v type="int" >       12 </v>
  <v type="int" >       13 </v>
 </varray>
 <kpoints>
  <generation param="Gamma">
   <v type="int" name="divisions">       1        1        1 </v>
   <v name="usershift">      0.00000000       0.00000000       0.00000000 </v>
   <v name="genvec1">      1.00000000       0.00000000       0.00000000 </v>
   <v name="genvec2">      0.00000000       1.00000000       0.00000000 </v>
   <v name="genvec3">      0.00000000       0.00000000       1.00000000 </v>
   <v name="shift">      0.00000000       0.00000000       0.00000000 </v>
  </generation>
  <varray name="kpointlist" >
   <v>       0.00000000       0.00000000       0.00000000 </v>
  </varray>
  <varray name="weights" >
   <v>       1.00000000 </v>
  </varray>
 </kpoints>
 <parameters>
  <separator name="general" >
   <i type="string" name="SYSTEM">unknown system</i>
   <i type="logical" name="LCOMPAT"> F  </i>
  </separator>
  <separator name="electronic" >
   <i type="string" name="PREC">normal</i>
   <i name="ENMAX">    400.00000000</i>
   <i name="ENAUG">    586.98000000</i>
   <i name="EDIFF">      0.00010000</i>
   <i type="int" name="IALGO">    38</i>
   <i type="int" name="IWAVPR">    11</i>
   <i type="int" name="NBANDS">    92</i>
   <i type="int" name="NBANDSLOW">    -1</i>
   <i type="int" name="NBANDSHIGH">    -1</i>
   <i name="NELECT">    143.00000000</i>
   <i type="int" name="TURBO">     0</i>
   <i type="int" name="IRESTART">     0</i>
   <i type="int" name="NREBOOT">     0</i>
   <i type="int" name="NMIN">     0</i>
   <i name="EREF">      0.00000000</i>
   <separator name="electronic smearing" >
    <i type="int" name="ISMEAR">     1</i>
    <i name="SIGMA">      0.20000000</i>
    <i name="KSPACING">      0.50000000</i>
    <i type="logical" name="KGAMMA"> T  </i>
    <i type="logical" name="KBLOWUP"> T  </i>
   </separator>
   <separator name="electronic projectors" >
    <i type="logical" name="LREAL"> F  </i>
    <v name="ROPT">      0.00000000</v>
    <i type="int" name="LMAXPAW">  -100</i>
    <i type="int" name="LMAXMIX">     2</i>
    <i type="logical" name="NLSPLINE"> F  </i>
   </separator>
   <separator name="electronic startup" >
    <i type="int" name="ISTART">     0</i>
    <i type="int" name="ICHARG">     2</i>
    <i type="int" name="INIWAV">     1</i>
   </separator>
   <separator name="electronic spin" >
    <i type="int" name="ISPIN">     2</i>
    <i type="logical" name="LNONCOLLINEAR"> F  </i>
    <v name="MAGMOM">      1.00000000      1.00000000      1.00000000      1.00000000      1.00000000      1.00000000      1.00000000      1.00000000      1.00000000      1.00000000      1.00000000      1.00000000      1.00000000</v>
    <i name="NUPDOWN">     -1.00000000</i>
    <i type="logical" name="LSORBIT"> F  </i>
    <v name="SAXIS">      0.00000000      0.00000000      1.00000000</v>
    <i type="logical" name="LSPIRAL"> F  </i>
    <v name="QSPIRAL">      0.00000000      0.00000000      0.00000000</v>
    <i type="logical" name="LZEROZ"> F  </i>
   </separator>
   <separator name="electronic exchange-correlation" >
    <i type="logical" name="LASPH"> F  </i>
    <i type="logical" name="LMETAGGA"> F  </i>
   </separator>
   <separator name="electronic convergence" >
    <i type="int" name="NELM">    60</i>
    <i type="int" name="NELMDL">     0</i>
    <i type="int" name="NELMIN">     2</i>
    <i name="ENINI">    400.00000000</i>
    <separator name="electronic convergence detail" >
     <i type="logical" name="LDIAG"> T  </i>
     <i type="logical" name="LSUBROT"> F  </i>
     <i name="WEIMIN">      0.00100000</i>
     <i name="EBREAK">      0.00000027</i>
     <i name="DEPER">      0.30000000</i>
     <i type="int" name="NRMM">     4</i>
     <i name="TIME">      0.40000000</i>
    </separator>
   </separator>
   <separator name="electronic mixer" >
    <i name="AMIX">      0.40000000</i>
    <i name="BMIX">      1.00000000</i>
    <i name="AMIN">      0.10000000</i>
    <i name="AMIX_MAG">      1.60000000</i>
    <i name="BMIX_MAG">      1.00000000</i>
    <separator name="electronic mixer details" >
     <i type="int" name="IMIX">     4</i>
     <i type="logical" name="MIXFIRST"> F  </i>
     <i type="int" name="MAXMIX">   -45</i>
     <i name="WC">    100.00000000</i>
     <i type="int" name="INIMIX">     1</i>
     <i type="int" name="MIXPRE">     1</i>
     <i type="int" name="MREMOVE">     5</i>
    </separator>
   </separator>
   <separator name="electronic dipolcorrection" >
    <i type="logical" name="LDIPOL"> F  </i>
    <i type="logical" name="LMONO"> F  </i>
    <i type="int" name="IDIPOL">     0</i>
    <i name="EPSILON">      1.00000000</i>
    <v name="DIPOL">   -100.00000000   -100.00000000   -100.00000000</v>
    <i name="EFIELD">      0.00000000</i>
   </separator>
  </separator>
  <separator name="grids" >
   <i type="int" name="NGX">   108</i>
   <i type="int" name="NGY">   126</i>
   <i type="int" name="NGZ">   128</i>
   <i type="int" name="NGXF">   216</i>
   <i type="int" name="NGYF">   252</i>
   <i type="int" name="NGZF">   256</i>
   <i type="logical" name="ADDGRID"> F  </i>
  </separator>
  <separator name="ionic" >
   <i type="int" name="NSW">  1000</i>
   <i type="int" name="IBRION">     2</i>
   <i type="int" name="MDALGO">     0</i>
   <i type="int" name="ISIF">     0</i>
   <i name="PSTRESS">      0.00000000</i>
   <i name="EDIFFG">      0.00100000</i>
   <i type="int" name="NFREE">     1</i>
   <i name="POTIM">      0.50000000</i>
   <i name="SMASS">     -3.00000000</i>
   <i name="SCALEE">      1.00000000</i>
  </separator>
  <separator name="ionic md" >
   <i name="TEBEG">      0.00010000</i>
   <i name="TEEND">      0.00010000</i>
   <i type="int" name="NBLOCK">     1</i>
   <i type="int" name="KBLOCK">  1000</i>
   <i type="int" name="NPACO">   256</i>
   <i name="APACO">     16.00000000</i>
  </separator>
  <separator name="symmetry" >
   <i type="int" name="ISYM">     0</i>
   <i name="SYMPREC">      0.00001000</i>
  </separator>
  <separator name="dos" >
   <i type="int" name="LORBIT">     0</i>
   <v name="RWIGS">     -1.00000000</v>
   <i type="int" name="NEDOS">   301</i>
   <i name="EMIN">     10.00000000</i>
   <i name="EMAX">    -10.00000000</i>
   <i name="EFERMI">      0.00000000</i>
  </separator>
  <separator name="writing" >
   <i type="int" name="NWRITE">     2</i>
   <i type="logical" name="LWAVE"> F  </i>
   <i type="logical" name="LDOWNSAMPLE"> F  </i>
   <i type="logical" name="LCHARG"> F  </i>
   <i type="logical" name="LPARD"> F  </i>
   <i type="logical" name="LVTOT"> F  </i>
   <i type="logical" name="LVHAR"> F  </i>
   <i type="logical" name="LELF"> F  </i>
   <i type="logical" name="LOPTICS"> F  </i>
   <v name="STM">      0.00000000      0.00000000      0.00000000      0.00000000      0.00000000      0.00000000      0.00000000</v>
  </separator>
  <separator name="performance" >
   <i type="int" name="NPAR">     2</i>
   <i type="int" name="NSIM">     4</i>
   <i type="int" name="NBLK">    -1</i>
   <i type="logical" name="LPLANE"> T  </i>
   <i type="logical" name="LSCALAPACK"> T  </i>
   <i type="logical" name="LSCAAWARE"> F  </i>
   <i type="logical" name="LSCALU"> F  </i>
   <i type="logical" name="LASYNC"> F  </i>
   <i type="logical" name="LORBITALREAL"> F  </i>
  </separator>
  <separator name="miscellaneous" >
   <i type="int" name="IDIOT">     3</i>
   <i type="int" name="PHON_NSTRUCT">    -1</i>
   <i type="logical" name="LMUSIC"> F  </i>
   <v name="POMASS">     63.54600000</v>
   <v name="DARWINR">      0.00000000</v>
   <v name="DARWINV">      1.00000000</v>
   <i type="logical" name="LCORR"> T  </i>
  </separator>
  <i type="logical" name="GGA_COMPAT"> T  </i>
  <i type="logical" name="LBERRY"> F  </i>
  <i type="int" name="ICORELEVEL">     0</i>
  <i type="logical" name="LDAU"> F  </i>
  <i type="int" name="I_CONSTRAINED_M">     0</i>
  <separator name="electronic exchange-correlation" >
   <i type="string" name="GGA">PE</i>
   <i type="int" name="VOSKOWN">     0</i>
   <i type="logical" name="LHFCALC"> F  </i>
   <i type="string" name="PRECFOCK"></i>
   <i type="logical" name="LSYMGRAD"> F  </i>
   <i type="logical" name="LHFONE"> F  </i>
   <i type="logical" name="LRHFCALC"> F  </i>
   <i type="logical" name="LTHOMAS"> F  </i>
   <i type="logical" name="LMODELHF"> F  </i>
   <i type="logical" name="LFOCKACE"> F  </i>
   <i name="ENCUT4O">     -1.00000000</i>
   <i type="int" name="EXXOEP">     0</i>
   <i type="int" name="FOURORBIT">     0</i>
   <i name="AEXX">      0.00000000</i>
   <i name="HFALPHA">      0.00000000</i>
   <i name="MCALPHA">      0.00000000</i>
   <i name="ALDAX">      1.00000000</i>
   <i name="AGGAX">      1.00000000</i>
   <i name="ALDAC">      1.00000000</i>
   <i name="AGGAC">      1.00000000</i>
   <i type="int" name="NKREDX">     1</i>
   <i type="int" name="NKREDY">     1</i>
   <i type="int" name="NKREDZ">     1</i>
   <i type="logical" name="SHIFTRED"> F  </i>
   <i type="logical" name="ODDONLY"> F  </i>
   <i type="logical" name="EVENONLY"> F  </i>
   <i type="int" name="LMAXFOCK">     0</i>
   <i type="int" name="NMAXFOCKAE">     0</i>
   <i type="logical" name="LFOCKAEDFT"> F  </i>
   <i name="HFSCREEN">      0.00000000</i>
   <i name="HFSCREENC">      0.00000000</i>
   <i type="int" name="NBANDSGWLOW">     0</i>
  </separator>
  <separator name="vdW DFT" >
   <i type="logical" name="LUSE_VDW"> F  </i>
   <i name="Zab_VDW">     -0.84910000</i>
   <i name="PARAM1">      0.12340000</i>
   <i name="PARAM2">      1.00000000</i>
   <i name="PARAM3">      0.00000000</i>
  </separator>
  <separator name="model GW" >
   <i type="int" name="MODEL_GW">     0</i>
   <i name="MODEL_EPS0">    653.79199659</i>
   <i name="MODEL_ALPHA">      1.00000000</i>
  </separator>
  <separator name="linear response parameters" >
   <i type="logical" name="LEPSILON"> F  </i>
   <i type="logical" name="LRPA"> F  </i>
   <i type="logical" name="LNABLA"> F  </i>
   <i type="logical" name="LVEL"> F  </i>
   <i type="int" name="KINTER">     0</i>
   <i name="CSHIFT">      0.10000000</i>
   <i name="OMEGAMAX">     -1.00000000</i>
   <i name="DEG_THRESHOLD">      0.00200000</i>
   <i name="RTIME">     -0.10000000</i>
   <i name="WPLASMAI">      0.00000000</i>
   <v name="DFIELD">      0.00000000      0.00000000      0.00000000</v>
   <v name="WPLASMA">      0.00000000      0.00000000      0.00000000      0.00000000      0.00000000      0.00000000      0.00000000      0.00000000      0.00000000</v>
  </separator>
  <separator name="orbital magnetization" >
   <i type="logical" name="NUCIND"> F  </i>
   <v name="MAGPOS">      0.00000000      0.00000000      0.00000000</v>
   <i type="logical" name="LNICSALL"> T  </i>
   <i type="logical" name="ORBITALMAG"> F  </i>
   <i type="logical" name="LMAGBLOCH"> F  </i>
   <i type="logical" name="LCHIMAG"> F  </i>
   <i type="logical" name="LGAUGE"> T  </i>
   <i type="int" name="MAGATOM">     0</i>
   <v name="MAGDIPOL">      0.00000000      0.00000000      0.00000000</v>
   <v name="AVECCONST">      0.00000000      0.00000000      0.00000000</v>
  </separator>
  <separator name="response functions" >
   <i type="logical" name="LFINITE_TEMPERATURE"> F  </i>
   <i type="logical" name="LADDER"> F  </i>
   <i type="logical" name="LRPAFORCE"> F  </i>
   <i type="logical" name="LFXC"> F  </i>
   <i type="logical" name="LHARTREE"> T  </i>
   <i type="int" name="IBSE">     0</i>
   <v type="int" name="KPOINT">    -1     0     0     0</v>
   <i type="logical" name="LTCTC"> F  </i>
   <i type="logical" name="LTCTE"> F  </i>
   <i type="logical" name="LTETE"> F  </i>
   <i type="logical" name="LTRIPLET"> F  </i>
   <i type="logical" name="LFXCEPS"> F  </i>
   <i type="logical" name="LFXHEG"> F  </i>
   <i type="int" name="NATURALO">     2</i>
   <i type="logical" name="LHOLEGF"> F  </i>
   <i type="logical" name="L2ORDER"> F  </i>
   <i type="logical" name="LDMP1"> F  </i>
   <i type="logical" name="LMP2LT"> F  </i>
   <i type="logical" name="LSMP2LT"> F  </i>
   <i type="logical" name="LGWLF"> F  </i>
   <i name="ENCUTGW">     -2.00000000</i>
   <i name="ENCUTGWSOFT">     -2.00000000</i>
   <i name="ENCUTLF">     -1.00000000</i>
   <i type="logical" name="LESF_SPLINES"> F  </i>
   <i type="int" name="LMAXMP2">    -1</i>
   <i name="SCISSOR">      0.00000000</i>
   <i type="int" name="NOMEGA">     0</i>
   <i type="int" name="NOMEGAR">     0</i>
   <i type="int" name="NBANDSGW">    -1</i>
   <i type="int" name="NBANDSO">    -1</i>
   <i type="int" name="NBANDSV">    -1</i>
   <i type="int" name="NELM">     1</i>
   <i type="int" name="NELMHF">     1</i>
   <i type="int" name="DIM">     3</i>
   <i type="int" name="IESPILON">     4</i>
   <i type="int" name="ANTIRES">     0</i>
   <i name="OMEGAMAX">    -30.00000000</i>
   <i name="OMEGAMIN">    -30.00000000</i>
   <i name="OMEGATL">   -200.00000000</i>
   <i type="int" name="OMEGAGRID">     0</i>
   <i name="CSHIFT">     -0.10000000</i>
   <i type="logical" name="LSELFENERGY"> F  </i>
   <i type="logical" name="LSPECTRAL"> F  </i>
   <i type="logical" name="LSPECTRALGW"> F  </i>
   <i type="logical" name="LSINGLES"> F  </i>
   <i type="logical" name="LFERMIGW"> F  </i>
   <i type="logical" name="ODDONLYGW"> F  </i>
   <i type="logical" name="EVENONLYGW"> F  </i>
   <i type="int" name="NKREDLFX">     1</i>
   <i type="int" name="NKREDLFY">     1</i>
   <i type="int" name="NKREDLFZ">     1</i>
   <i type="int" name="MAXMEM">  2800</i>
   <i type="int" name="TELESCOPE">     0</i>
   <i type="int" name="NTAUPAR">    -1</i>
   <i type="int" name="NOMEGAPAR">    -1</i>
   <i name="LAMBDA">      1.00000000</i>
  </separator>
  <separator name="External order field" >
   <i name="OFIELD_KAPPA">      0.00000000</i>
   <v name="OFIELD_K">      0.00000000      0.00000000      0.00000000</v>
   <i name="OFIELD_Q6_NEAR">      0.00000000</i>
   <i name="OFIELD_Q6_FAR">      0.00000000</i>
   <i name="OFIELD_A">      0.00000000</i>
  </separator>
 </parameters>
 <atominfo>
  <atoms>      13 </atoms>
  <types>       1 </types>
  <array name="atoms" >
   <dimension dim="1">ion</dimension>
   <field type="string">element</field>
   <field type="int">atomtype</field>
   <set>
    <rc><c>Cu</c><c>   1</c></rc>
    <rc><c>Cu</c><c>   1</c></rc>
    <rc><c>Cu</c><c>   1</c></rc>
    <rc><c>Cu</c><c>   1</c></rc>
    <rc><c>Cu</c><c>   1</c></rc>
    <rc><c>Cu</c><c>   1</c></rc>
    <rc><c>Cu</c><c>   1</c></rc>
    <rc><c>Cu</c><c>   1</c></rc>
    <rc><c>Cu</c><c>   1</c></rc>
    <rc><c>Cu</c><c>   1</c></rc>
    <rc><c>Cu</c><c>   1</c></rc>
    <rc><c>Cu</c><c>   1</c></rc>
    <rc><c>Cu</c><c>   1</c></rc>
   </set>
  </array>
  <array name="atomtypes" >
   <dimension dim="1">type</dimension>
   <field type="int">atomspertype</field>
   <field type="string">element</field>
   <field>mass</field>
   <field>valence</field>
   <field type="string">pseudopotential</field>
   <set>
    <rc><c>  13</c><c>Cu</c><c>     63.54600000</c><c>     11.00000000</c><c>  PAW_PBE Cu 22Jun2005                  </c></rc>
   </set>
  </array>
 </atominfo>
 <structure name="initialpos" >
  <crystal>
   <varray name="basis" >
    <v>      21.69915322       0.00000000       0.00000000 </v>
    <v>       0.00000000      25.00623429       0.00000000 </v>
    <v>       0.00000000       0.00000000      26.10601719 </v>
   </varray>
   <i name="volume">  14165.49325946 </i>
   <varray name="rec_basis" >
    <v>       0.04608475       0.00000000       0.00000000 </v>
    <v>       0.00000000       0.03999003       0.00000000 </v>
    <v>       0.00000000       0.00000000       0.03830535 </v>
   </varray>
  </crystal>
  <varray name="positions" >
   <v>       0.53265531       0.47589430       0.53995924 </v>
   <v>       0.45668996       0.47668112       0.46599681 </v>
   <v>       0.59267151       0.55854447       0.53173552 </v>
   <v>       0.50234299       0.55115965       0.59582298 </v>
   <v>       0.46019216       0.40545444       0.53168245 </v>
   <v>       0.63026018       0.47435886       0.49781321 </v>
   <v>       0.56375596       0.61618779       0.46238508 </v>
   <v>       0.55564502       0.51978130       0.44680760 </v>
   <v>       0.54434249       0.41822185       0.46523208 </v>
   <v>       0.53218584       0.63478961       0.55290367 </v>
   <v>       0.48161324       0.56572753       0.50331034 </v>
   <v>       0.47420440       0.45219862       0.61710147 </v>
   <v>       0.42320939       0.49830376       0.55127412 </v>
  </varray>
 </structure>
 <calculation>
  <scstep>
   <time name="dav">   15.85   15.87</time>
   <time name="total">   19.29   19.32</time>
   <energy>
    <i name="alphaZ">      8.72503597 </i>
    <i name="ewald">  25770.36385657 </i>
    <i name="hartreedc"> -42223.35278164 </i>
    <i name="XCdc">    585.00437751 </i>
    <i name="pawpsdc">  15965.26744864 </i>
    <i name="pawaedc"> -17340.97210982 </i>
    <i name="eentropy">     -0.03749370 </i>
    <i name="bandstr">    135.13391005 </i>
    <i name="atom">  18082.44932260 </i>
    <i name="e_fr_energy">    982.58156618 </i>
    <i name="e_wo_entrp">    982.61905988 </i>
    <i name="e_0_energy">    982.59406408 </i>
   </energy>
  </scstep>
  <scstep>
   <time name="dav">   16.82   16.85</time>
   <time name="total">   16.83   16.85</time>
   <energy>
    <i name="e_fr_energy">    285.41900824 </i>
    <i name="e_wo_entrp">    285.40843887 </i>
    <i name="e_0_energy">    285.41548511 </i>
   </energy>
  </scstep>
  <scstep>
   <time name="dav">   19.34   19.36</time>
   <time name="total">   19.34   19.37</time>
   <energy>
    <i name="e_fr_energy">     17.49982020 </i>
    <i name="e_wo_entrp">     17.49816432 </i>
    <i name="e_0_energy">     17.49926824 </i>
   </energy>
  </scstep>
  <scstep>
   <time name="dav">   18.31   18.34</time>
   <time name="total">   18.32   18.34</time>
   <energy>
    <i name="e_fr_energy">    -34.94372861 </i>
    <i name="e_wo_entrp">    -34.97147896 </i>
    <i name="e_0_energy">    -34.95297873 </i>
   </energy>
  </scstep>
  <scstep>
   <time name="dav">   20.50   20.52</time>
   <time name="total">   21.84   21.86</time>
   <energy>
    <i name="e_fr_energy">    -37.36440753 </i>
    <i name="e_wo_entrp">    -37.41069014 </i>
    <i name="e_0_energy">    -37.37983507 </i>
   </energy>
  </scstep>
  <scstep>
   <time name="dav">   17.15   17.17</time>
   <time name="total">   21.87   21.90</time>
   <energy>
    <i name="e_fr_energy">    -15.05510735 </i>
    <i name="e_wo_entrp">    -15.03366892 </i>
    <i name="e_0_energy">    -15.04796121 </i>
   </energy>
  </scstep>
  <scstep>
   <time name="dav">   17.97   17.99</time>
   <time name="total">   22.73   22.77</time>
   <energy>
    <i name="e_fr_energy">    -11.41544921 </i>
    <i name="e_wo_entrp">    -11.37012584 </i>
    <i name="e_0_energy">    -11.40034142 </i>
   </energy>
  </scstep>
  <scstep>
   <time name="dav">   18.38   18.40</time>
   <time name="total">   23.17   23.21</time>
   <energy>
    <i name="e_fr_energy">    -11.04654640 </i>
    <i name="e_wo_entrp">    -11.00769967 </i>
    <i name="e_0_energy">    -11.03359749 </i>
   </energy>
  </scstep>
  <scstep>
   <time name="dav">   20.68   20.70</time>
   <time name="total">   25.44   25.47</time>
   <energy>
    <i name="e_fr_energy">    -12.59276183 </i>
    <i name="e_wo_entrp">    -12.56111058 </i>
    <i name="e_0_energy">    -12.58221141 </i>
   </energy>
  </scstep>
  <scstep>
   <time name="dav">   22.00   22.03</time>
   <time name="total">   26.80   26.83</time>
   <energy>
    <i name="e_fr_energy">    -15.80098219 </i>
    <i name="e_wo_entrp">    -15.77634923 </i>
    <i name="e_0_energy">    -15.79277121 </i>
   </energy>
  </scstep>
  <scstep>
   <time name="dav">   19.48   19.51</time>
   <time name="total">   24.29   24.32</time>
   <energy>
    <i name="e_fr_energy">    -17.85420981 </i>
    <i name="e_wo_entrp">    -17.83666314 </i>
    <i name="e_0_energy">    -17.84836092 </i>
   </energy>
  </scstep>
  <scstep>
   <time name="dav">   21.41   21.44</time>
   <time name="total">   26.29   26.33</time>
   <energy>
    <i name="e_fr_energy">    -20.35381197 </i>
    <i name="e_wo_entrp">    -20.35546030 </i>
    <i name="e_0_energy">    -20.35436141 </i>
   </energy>
  </scstep>
  <scstep>
   <time name="dav">   18.92   18.94</time>
   <time name="total">   23.66   23.69</time>
   <energy>
    <i name="e_fr_energy">    -24.48638318 </i>
    <i name="e_wo_entrp">    -24.50912945 </i>
    <i name="e_0_energy">    -24.49396527 </i>
   </energy>
  </scstep>
  <scstep>
   <time name="dav">   19.54   19.56</time>
   <time name="total">   24.39   24.43</time>
   <energy>
    <i name="e_fr_energy">    -27.38773172 </i>
    <i name="e_wo_entrp">    -27.39652210 </i>
    <i name="e_0_energy">    -27.39066184 </i>
   </energy>
  </scstep>
  <scstep>
   <time name="dav">   20.25   20.27</time>
   <time name="total">   25.09   25.12</time>
   <energy>
    <i name="e_fr_energy">    -28.43049097 </i>
    <i name="e_wo_entrp">    -28.44114547 </i>
    <i name="e_0_energy">    -28.43404247 </i>
   </energy>
  </scstep>
  <scstep>
   <time name="dav">   20.62   20.64</time>
   <time name="total">   25.48   25.52</time>
   <energy>
    <i name="e_fr_energy">    -30.36913267 </i>
    <i name="e_wo_entrp">    -30.38961539 </i>
    <i name="e_0_energy">    -30.37596025 </i>
   </energy>
  </scstep>
  <scstep>
   <time name="dav">   20.33   20.35</time>
   <time name="total">   25.21   25.24</time>
   <energy>
    <i name="e_fr_energy">    -31.38481384 </i>
    <i name="e_wo_entrp">    -31.40134639 </i>
    <i name="e_0_energy">    -31.39032469 </i>
   </energy>
  </scstep>
  <scstep>
   <time name="dav">   22.04   22.77</time>
   <time name="total">   26.91   27.65</time>
   <energy>
    <i name="e_fr_energy">    -31.74303150 </i>
    <i name="e_wo_entrp">    -31.75236878 </i>
    <i name="e_0_energy">    -31.74614393 </i>
   </energy>
  </scstep>
  <scstep>
   <time name="dav">   21.33   21.36</time>
   <time name="total">   26.32   26.35</time>
   <energy>
    <i name="e_fr_energy">    -32.05803675 </i>
    <i name="e_wo_entrp">    -32.05962547 </i>
    <i name="e_0_energy">    -32.05856632 </i>
   </energy>
  </scstep>
  <scstep>
   <time name="dav">   18.78   18.80</time>
   <time name="total">   23.72   23.75</time>
   <energy>
    <i name="e_fr_energy">    -32.56885153 </i>
    <i name="e_wo_entrp">    -32.55872866 </i>
    <i name="e_0_energy">    -32.56547724 </i>
   </energy>
  </scstep>
  <scstep>
   <time name="dav">   21.33   21.36</time>
   <time name="total">   26.23   26.27</time>
   <energy>
    <i name="e_fr_energy">    -32.73538500 </i>
    <i name="e_wo_entrp">    -32.72084207 </i>
    <i name="e_0_energy">    -32.73053736 </i>
   </energy>
  </scstep>
  <scstep>
   <time name="dav">   21.25   21.28</time>
   <time name="total">   26.14   26.18</time>
   <energy>
    <i name="e_fr_energy">    -32.84013210 </i>
    <i name="e_wo_entrp">    -32.82226317 </i>
    <i name="e_0_energy">    -32.83417579 </i>
   </energy>
  </scstep>
  <scstep>
   <time name="dav">   21.01   21.03</time>
   <time name="total">   25.93   25.97</time>
   <energy>
    <i name="e_fr_energy">    -32.94768617 </i>
    <i name="e_wo_entrp">    -32.92619152 </i>
    <i name="e_0_energy">    -32.94052129 </i>
   </energy>
  </scstep>
  <scstep>
   <time name="dav">   20.39   20.42</time>
   <time name="total">   25.32   25.36</time>
   <energy>
    <i name="e_fr_energy">    -32.98235320 </i>
    <i name="e_wo_entrp">    -32.95880814 </i>
    <i name="e_0_energy">    -32.97450485 </i>
   </energy>
  </scstep>
  <scstep>
   <time name="dav">   14.83   14.85</time>
   <time name="total">   19.78   19.81</time>
   <energy>
    <i name="e_fr_energy">    -33.00211810 </i>
    <i name="e_wo_entrp">    -32.97711137 </i>
    <i name="e_0_energy">    -32.99378253 </i>
   </energy>
  </scstep>
  <scstep>
   <time name="dav">   16.20   16.21</time>
   <time name="total">   21.14   21.17</time>
   <energy>
    <i name="e_fr_energy">    -33.01990319 </i>
    <i name="e_wo_entrp">    -32.99328873 </i>
    <i name="e_0_energy">    -33.01103170 </i>
   </energy>
  </scstep>
  <scstep>
   <time name="dav">   12.87   12.89</time>
   <time name="total">   17.89   17.92</time>
   <energy>
    <i name="e_fr_energy">    -33.02846844 </i>
    <i name="e_wo_entrp">    -33.00083607 </i>
    <i name="e_0_energy">    -33.01925765 </i>
   </energy>
  </scstep>
  <scstep>
   <time name="dav">   12.63   12.64</time>
   <time name="total">   17.66   17.69</time>
   <energy>
    <i name="e_fr_energy">    -33.03270079 </i>
    <i name="e_wo_entrp">    -33.00456382 </i>
    <i name="e_0_energy">    -33.02332180 </i>
   </energy>
  </scstep>
  <scstep>
   <time name="dav">   12.75   12.77</time>
   <time name="total">   17.73   17.75</time>
   <energy>
    <i name="e_fr_energy">    -33.03660917 </i>
    <i name="e_wo_entrp">    -33.00779954 </i>
    <i name="e_0_energy">    -33.02700596 </i>
   </energy>
  </scstep>
  <scstep>
   <time name="dav">   13.42   13.44</time>
   <time name="total">   18.48   18.50</time>
   <energy>
    <i name="e_fr_energy">    -33.03861194 </i>
    <i name="e_wo_entrp">    -33.00920068 </i>
    <i name="e_0_energy">    -33.02880819 </i>
   </energy>
  </scstep>
  <scstep>
   <time name="dav">   12.58   12.60</time>
   <time name="total">   17.68   17.71</time>
   <energy>
    <i name="e_fr_energy">    -33.03986709 </i>
    <i name="e_wo_entrp">    -33.01002594 </i>
    <i name="e_0_energy">    -33.02992004 </i>
   </energy>
  </scstep>
  <scstep>
   <time name="dav">   12.87   12.88</time>
   <time name="total">   17.96   17.99</time>
   <energy>
    <i name="e_fr_energy">    -33.04059859 </i>
    <i name="e_wo_entrp">    -33.01045933 </i>
    <i name="e_0_energy">    -33.03055217 </i>
   </energy>
  </scstep>
  <scstep>
   <time name="dav">   12.74   12.76</time>
   <time name="total">   17.86   17.88</time>
   <energy>
    <i name="e_fr_energy">    -33.04199404 </i>
    <i name="e_wo_entrp">    -33.01137049 </i>
    <i name="e_0_energy">    -33.03178619 </i>
   </energy>
  </scstep>
  <scstep>
   <time name="dav">   14.12   14.13</time>
   <time name="total">   20.53   20.56</time>
   <energy>
    <i name="e_fr_energy">    -33.04270100 </i>
    <i name="e_wo_entrp">    -33.01181357 </i>
    <i name="e_0_energy">    -33.03240519 </i>
   </energy>
  </scstep>
  <scstep>
   <time name="dav">   12.81   12.83</time>
   <time name="total">   17.96   17.99</time>
   <energy>
    <i name="e_fr_energy">    -33.04282360 </i>
    <i name="e_wo_entrp">    -33.01185117 </i>
    <i name="e_0_energy">    -33.03249945 </i>
   </energy>
  </scstep>
  <scstep>
   <time name="dav">   12.13   12.14</time>
   <time name="total">   17.39   17.42</time>
   <energy>
    <i name="e_fr_energy">    -33.04296243 </i>
    <i name="e_wo_entrp">    -33.01188115 </i>
    <i name="e_0_energy">    -33.03260200 </i>
   </energy>
  </scstep>
  <scstep>
   <time name="dav">   12.46   12.47</time>
   <time name="total">   15.87   15.89</time>
   <energy>
    <i name="alphaZ">      8.72503597 </i>
    <i name="ewald">  25770.36385657 </i>
    <i name="hartreedc"> -42181.40413868 </i>
    <i name="XCdc">    574.83279716 </i>
    <i name="pawpsdc">  16758.86965163 </i>
    <i name="pawaedc"> -18153.78500987 </i>
    <i name="eentropy">     -0.03113738 </i>
    <i name="bandstr">   -893.06339399 </i>
    <i name="atom">  18082.44932260 </i>
    <i name="e_fr_energy">    -33.04301599 </i>
    <i name="e_wo_entrp">    -33.01187861 </i>
    <i name="e_0_energy">    -33.03263686 </i>
   </energy>
  </scstep>
  <structure>
   <crystal>
    <varray name="basis" >
     <v>      21.69915322       0.00000000       0.00000000 </v>
     <v>       0.00000000      25.00623429       0.00000000 </v>
     <v>       0.00000000       0.00000000      26.10601719 </v>
    </varray>
    <i name="volume">  14165.49325946 </i>
    <varray name="rec_basis" >
     <v>       0.04608475       0.00000000       0.00000000 </v>
     <v>       0.00000000       0.03999003       0.00000000 </v>
     <v>       0.00000000       0.00000000       0.03830535 </v>
    </varray>
   </crystal>
   <varray name="positions" >
    <v>       0.53265531       0.47589430       0.53995924 </v>
    <v>       0.45668996       0.47668112       0.46599681 </v>
    <v>       0.59267151       0.55854447       0.53173552 </v>
    <v>       0.50234299       0.55115965       0.59582298 </v>
    <v>       0.46019216       0.40545444       0.53168245 </v>
    <v>       0.63026018       0.47435886       0.49781321 </v>
    <v>       0.56375596       0.61618779       0.46238508 </v>
    <v>       0.55564502       0.51978130       0.44680760 </v>
    <v>       0.54434249       0.41822185       0.46523208 </v>
    <v>       0.53218584       0.63478961       0.55290367 </v>
    <v>       0.48161324       0.56572753       0.50331034 </v>
    <v>       0.47420440       0.45219862       0.61710147 </v>
    <v>       0.42320939       0.49830376       0.55127412 </v>
   </varray>
  </structure>
  <varray name="forces" >
   <v>       0.01012928       0.01640186       0.01454352 </v>
   <v>       0.00257457       0.01805872      -0.01235191 </v>
   <v>      -0.01883548      -0.00408947      -0.00489160 </v>
   <v>      -0.01176325      -0.01039084       0.00390622 </v>
   <v>      -0.01150249      -0.03046280       0.01125788 </v>
   <v>      -0.00485007      -0.01096765      -0.01482896 </v>
   <v>       0.01694880      -0.00074332      -0.00466063 </v>
   <v>      -0.02778194       0.00008424       0.00609030 </v>
   <v>       0.00735759      -0.01307873       0.00774052 </v>
   <v>       0.00216775       0.00897343       0.04004174 </v>
   <v>       0.01186793       0.00575776       0.00196107 </v>
   <v>       0.01494215       0.02726239      -0.01151519 </v>
   <v>       0.00874518      -0.00680561      -0.03729295 </v>
  </varray>
  <energy>
   <i name="e_fr_energy">    -33.04301599 </i>
   <i name="e_wo_entrp">    -33.01187861 </i>
   <i name="e_0_energy">    -33.03263686 </i>
  </energy>
  <time name="totalsc">  825.20  827.07</time>
 </calculation>
 <calculation>
  <scstep>
   <time name="dav">   16.72   16.78</time>
   <time name="total">   21.53   21.60</time>
   <energy>
    <i name="alphaZ">      8.72503597 </i>
    <i name="ewald">  25770.31390259 </i>
    <i name="hartreedc"> -42181.35976192 </i>
    <i name="XCdc">    574.83158592 </i>
    <i name="pawpsdc">  16758.86457371 </i>
    <i name="pawaedc"> -18153.77958916 </i>
    <i name="eentropy">     -0.03105297 </i>
    <i name="bandstr">   -893.05715508 </i>
    <i name="atom">  18082.44932260 </i>
    <i name="e_fr_energy">    -33.04313835 </i>
    <i name="e_wo_entrp">    -33.01208538 </i>
    <i name="e_0_energy">    -33.03278736 </i>
   </energy>
  </scstep>
  <scstep>
   <time name="dav">   20.91   20.94</time>
   <time name="total">   25.73   25.76</time>
   <energy>
    <i name="e_fr_energy">    -33.04361711 </i>
    <i name="e_wo_entrp">    -33.01243824 </i>
    <i name="e_0_energy">    -33.03322416 </i>
   </energy>
  </scstep>
  <scstep>
   <time name="dav">   12.94   12.96</time>
   <time name="total">   17.69   17.71</time>
   <energy>
    <i name="e_fr_energy">    -33.04372049 </i>
    <i name="e_wo_entrp">    -33.01250703 </i>
    <i name="e_0_energy">    -33.03331600 </i>
   </energy>
  </scstep>
  <scstep>
   <time name="dav">   12.20   12.22</time>
   <time name="total">   15.65   15.67</time>
   <energy>
    <i name="alphaZ">      8.72503597 </i>
    <i name="ewald">  25770.31390259 </i>
    <i name="hartreedc"> -42181.39891622 </i>
    <i name="XCdc">    574.83192664 </i>
    <i name="pawpsdc">  16758.75689098 </i>
    <i name="pawaedc"> -18153.66607100 </i>
    <i name="eentropy">     -0.03124047 </i>
    <i name="bandstr">   -893.02464539 </i>
    <i name="atom">  18082.44932260 </i>
    <i name="e_fr_energy">    -33.04379430 </i>
    <i name="e_wo_entrp">    -33.01255384 </i>
    <i name="e_0_energy">    -33.03338081 </i>
   </energy>
  </scstep>
  <structure>
   <crystal>
    <varray name="basis" >
     <v>      21.69915322       0.00000000       0.00000000 </v>
     <v>       0.00000000      25.00623429       0.00000000 </v>
     <v>       0.00000000       0.00000000      26.10601719 </v>
    </varray>
    <i name="volume">  14165.49325946 </i>
    <varray name="rec_basis" >
     <v>       0.04608475       0.00000000       0.00000000 </v>
     <v>       0.00000000       0.03999003       0.00000000 </v>
     <v>       0.00000000       0.00000000       0.03830535 </v>
    </varray>
   </crystal>
   <varray name="positions" >
    <v>       0.53267783       0.47592595       0.53998612 </v>
    <v>       0.45669569       0.47671596       0.46597399 </v>
    <v>       0.59262963       0.55853658       0.53172648 </v>
    <v>       0.50231684       0.55113961       0.59583020 </v>
    <v>       0.46016659       0.40539567       0.53170325 </v>
    <v>       0.63024940       0.47433770       0.49778580 </v>
    <v>       0.56379364       0.61618636       0.46237647 </v>
    <v>       0.55558325       0.51978146       0.44681886 </v>
    <v>       0.54435885       0.41819662       0.46524638 </v>
    <v>       0.53219065       0.63480693       0.55297766 </v>
    <v>       0.48163963       0.56573864       0.50331396 </v>
    <v>       0.47423762       0.45225122       0.61708019 </v>
    <v>       0.42322883       0.49829063       0.55120520 </v>
   </varray>
  </structure>
  <varray name="forces" >
   <v>       0.00248366      -0.00148338       0.00298659 </v>
   <v>       0.00412865       0.00367873      -0.00955330 </v>
   <v>      -0.00993163      -0.00010283      -0.00266365 </v>
   <v>      -0.01035088      -0.00415935       0.00520304 </v>
   <v>      -0.00262953      -0.01111969       0.00479744 </v>
   <v>      -0.00505290      -0.00591210      -0.01265289 </v>
   <v>       0.01193394       0.00001304      -0.00021560 </v>
   <v>      -0.01508627      -0.00100105       0.00175277 </v>
   <v>      -0.00015963      -0.00681915       0.00920401 </v>
   <v>       0.00251807       0.00240680       0.03002936 </v>
   <v>       0.00778214       0.01182652       0.00263595 </v>
   <v>       0.01054590       0.02029817      -0.00665326 </v>
   <v>       0.00381848      -0.00762570      -0.02487046 </v>
  </varray>
  <energy>
   <i name="e_fr_energy">    -33.04379430 </i>
   <i name="e_wo_entrp">    -33.01255384 </i>
   <i name="e_0_energy">    -33.03338081 </i>
  </energy>
  <time name="totalsc">   96.83   97.03</time>
 </calculation>
 <calculation>
  <scstep>
   <time name="dav">   16.80   16.82</time>
   <time name="total">   21.63   21.66</time>
   <energy>
    <i name="alphaZ">      8.72503597 </i>
    <i name="ewald">  25770.24445225 </i>
    <i name="hartreedc"> -42181.32346941 </i>
    <i name="XCdc">    574.82915850 </i>
    <i name="pawpsdc">  16758.64068084 </i>
    <i name="pawaedc"> -18153.54126752 </i>
    <i name="eentropy">     -0.03139275 </i>
    <i name="bandstr">   -893.03661641 </i>
    <i name="atom">  18082.44932260 </i>
    <i name="e_fr_energy">    -33.04409593 </i>
    <i name="e_wo_entrp">    -33.01270318 </i>
    <i name="e_0_energy">    -33.03363168 </i>
   </energy>
  </scstep>
  <scstep>
   <time name="dav">   22.32   22.34</time>
   <time name="total">   27.13   27.16</time>
   <energy>
    <i name="e_fr_energy">    -33.04453275 </i>
    <i name="e_wo_entrp">    -33.01306781 </i>
    <i name="e_0_energy">    -33.03404444 </i>
   </energy>
  </scstep>
  <scstep>
   <time name="dav">   14.26   14.34</time>
   <time name="total">   17.73   17.82</time>
   <energy>
    <i name="alphaZ">      8.72503597 </i>
    <i name="ewald">  25770.24445225 </i>
    <i name="hartreedc"> -42181.36203605 </i>
    <i name="XCdc">    574.82996753 </i>
    <i name="pawpsdc">  16758.54818017 </i>
    <i name="pawaedc"> -18153.44368482 </i>
    <i name="eentropy">     -0.03148955 </i>
    <i name="bandstr">   -893.00431075 </i>
    <i name="atom">  18082.44932260 </i>
    <i name="e_fr_energy">    -33.04456266 </i>
    <i name="e_wo_entrp">    -33.01307311 </i>
    <i name="e_0_energy">    -33.03406614 </i>
   </energy>
  </scstep>
  <structure>
   <crystal>
    <varray name="basis" >
     <v>      21.69915322       0.00000000       0.00000000 </v>
     <v>       0.00000000      25.00623429       0.00000000 </v>
     <v>       0.00000000       0.00000000      26.10601719 </v>
    </varray>
    <i name="volume">  14165.49325946 </i>
    <varray name="rec_basis" >
     <v>       0.04608475       0.00000000       0.00000000 </v>
     <v>       0.00000000       0.03999003       0.00000000 </v>
     <v>       0.00000000       0.00000000       0.03830535 </v>
    </varray>
   </crystal>
   <varray name="positions" >
    <v>       0.53270894       0.47596966       0.54002325 </v>
    <v>       0.45670359       0.47676408       0.46594246 </v>
    <v>       0.59257179       0.55852568       0.53171400 </v>
    <v>       0.50228071       0.55111192       0.59584017 </v>
    <v>       0.46013126       0.40531449       0.53173199 </v>
    <v>       0.63023451       0.47430847       0.49774795 </v>
    <v>       0.56384569       0.61618438       0.46236457 </v>
    <v>       0.55549793       0.51978169       0.44683440 </v>
    <v>       0.54438144       0.41816176       0.46526614 </v>
    <v>       0.53219731       0.63483084       0.55307988 </v>
    <v>       0.48167607       0.56575399       0.50331897 </v>
    <v>       0.47428351       0.45232387       0.61705080 </v>
    <v>       0.42325569       0.49827250       0.55111001 </v>
   </varray>
  </structure>
  <varray name="forces" >
   <v>      -0.00676708      -0.02388372      -0.01069960 </v>
   <v>       0.00649228      -0.01268575      -0.00668018 </v>
   <v>      -0.00012496       0.00505199      -0.00023825 </v>
   <v>      -0.00968254       0.00290516       0.00650649 </v>
   <v>       0.00677398       0.00897070      -0.00205692 </v>
   <v>      -0.00628478       0.00001145      -0.01157121 </v>
   <v>       0.00767719       0.00143297       0.00428072 </v>
   <v>      -0.00057002      -0.00167195      -0.00329144 </v>
   <v>      -0.00939372       0.00024468       0.01202762 </v>
   <v>       0.00300799      -0.00553517       0.02138223 </v>
   <v>       0.00349866       0.02004180       0.00384061 </v>
   <v>       0.00686071       0.01417229      -0.00167479 </v>
   <v>      -0.00148771      -0.00905444      -0.01182529 </v>
  </varray>
  <energy>
   <i name="e_fr_energy">    -33.04456266 </i>
   <i name="e_wo_entrp">    -33.01307311 </i>
   <i name="e_0_energy">    -33.03406614 </i>
  </energy>
  <time name="totalsc">   80.92   81.12</time>
  <eigenvalues>
   <array>
    <dimension dim="1">band</dimension>
    <dimension dim="2">kpoint</dimension>
    <dimension dim="3">spin</dimension>
    <field>eigene</field>
    <field>occ</field>
    <set>
     <set comment="spin 1">
      <set comment="kpoint 1">
       <r>  -10.7175    1.0000 </r>
       <r>   -9.0677    1.0000 </r>
       <r>   -8.6964    1.0000 </r>
       <r>   -8.3112    1.0000 </r>
       <r>   -8.0127    1.0000 </r>
       <r>   -7.9099    1.0000 </r>
       <r>   -7.7756    1.0000 </r>
       <r>   -7.5454    1.0000 </r>
       <r>   -7.5032    1.0000 </r>
       <r>   -7.3682    1.0000 </r>
       <r>   -7.2733    1.0000 </r>
       <r>   -7.1926    1.0000 </r>
       <r>   -7.0910    1.0000 </r>
       <r>   -7.0398    1.0000 </r>
       <r>   -6.9850    1.0000 </r>
       <r>   -6.9325    1.0000 </r>
       <r>   -6.9105    1.0000 </r>
       <r>   -6.8416    1.0000 </r>
       <r>   -6.8174    1.0000 </r>
       <r>   -6.7804    1.0000 </r>
       <r>   -6.7122    1.0000 </r>
       <r>   -6.6641    1.0000 </r>
       <r>   -6.5760    1.0000 </r>
       <r>   -6.5289    1.0000 </r>
       <r>   -6.5007    1.0000 </r>
       <r>   -6.4387    1.0000 </r>
       <r>   -6.4005    1.0000 </r>
       <r>   -6.3425    1.0000 </r>
       <r>   -6.3087    1.0000 </r>
       <r>   -6.1951    1.0000 </r>
       <r>   -6.1683    1.0000 </r>
       <r>   -6.1102    1.0000 </r>
       <r>   -6.0598    1.0000 </r>
       <r>   -6.0131    1.0000 </r>
       <r>   -5.9802    1.0000 </r>
       <r>   -5.9352    1.0000 </r>
       <r>   -5.8990    1.0000 </r>
       <r>   -5.8606    1.0000 </r>
       <r>   -5.8433    1.0000 </r>
       <r>   -5.7965    1.0000 </r>
       <r>   -5.7912    1.0000 </r>
       <r>   -5.7453    1.0000 </r>
       <r>   -5.7410    1.0000 </r>
       <r>   -5.7254    1.0000 </r>
       <r>   -5.7162    1.0000 </r>
       <r>   -5.7013    1.0000 </r>
       <r>   -5.6720    1.0000 </r>
       <r>   -5.6434    1.0000 </r>
       <r>   -5.6160    1.0000 </r>
       <r>   -5.6003    1.0000 </r>
       <r>   -5.5741    1.0000 </r>
       <r>   -5.5482    1.0000 </r>
       <r>   -5.5301    1.0000 </r>
       <r>   -5.4977    1.0000 </r>
       <r>   -5.4575    1.0000 </r>
       <r>   -5.4406    1.0000 </r>
       <r>   -5.4114    1.0000 </r>
       <r>   -5.3973    1.0000 </r>
       <r>   -5.3563    1.0000 </r>
       <r>   -5.3464    1.0000 </r>
       <r>   -5.3438    1.0000 </r>
       <r>   -5.3225    1.0000 </r>
       <r>   -5.3102    1.0000 </r>
       <r>   -5.2782    1.0000 </r>
       <r>   -5.2552    1.0000 </r>
       <r>   -5.2184    1.0000 </r>
       <r>   -5.1689    1.0000 </r>
       <r>   -5.1185    1.0000 </r>
       <r>   -5.0880    1.0000 </r>
       <r>   -4.5847    1.0000 </r>
       <r>   -4.4785    1.0000 </r>
       <r>   -3.8420    0.6255 </r>
       <r>   -3.6161   -0.0228 </r>
       <r>   -3.3119   -0.0012 </r>
       <r>   -2.6756   -0.0000 </r>
       <r>   -2.4739   -0.0000 </r>
       <r>   -2.4245   -0.0000 </r>
       <r>   -1.9678   -0.0000 </r>
       <r>   -1.6479   -0.0000 </r>
       <r>   -1.4067   -0.0000 </r>
       <r>   -1.3604   -0.0000 </r>
       <r>   -1.1011   -0.0000 </r>
       <r>   -0.9134   -0.0000 </r>
       <r>   -0.6823   -0.0000 </r>
       <r>   -0.5801   -0.0000 </r>
       <r>   -0.3114   -0.0000 </r>
       <r>   -0.2417   -0.0000 </r>
       <r>    0.0472   -0.0000 </r>
       <r>    0.1052   -0.0000 </r>
       <r>    0.2516   -0.0000 </r>
       <r>    0.2962   -0.0000 </r>
       <r>    0.3040   -0.0000 </r>
      </set>
     </set>
     <set comment="spin 2">
      <set comment="kpoint 1">
       <r>  -10.7099    1.0000 </r>
       <r>   -9.0627    1.0000 </r>
       <r>   -8.6863    1.0000 </r>
       <r>   -8.3028    1.0000 </r>
       <r>   -8.0037    1.0000 </r>
       <r>   -7.9052    1.0000 </r>
       <r>   -7.7667    1.0000 </r>
       <r>   -7.5408    1.0000 </r>
       <r>   -7.4969    1.0000 </r>
       <r>   -7.3605    1.0000 </r>
       <r>   -7.2678    1.0000 </r>
       <r>   -7.1869    1.0000 </r>
       <r>   -7.0861    1.0000 </r>
       <r>   -7.0360    1.0000 </r>
       <r>   -6.9790    1.0000 </r>
       <r>   -6.9272    1.0000 </r>
       <r>   -6.9048    1.0000 </r>
       <r>   -6.8337    1.0000 </r>
       <r>   -6.8114    1.0000 </r>
       <r>   -6.7760    1.0000 </r>
       <r>   -6.7074    1.0000 </r>
       <r>   -6.6598    1.0000 </r>
       <r>   -6.5708    1.0000 </r>
       <r>   -6.5241    1.0000 </r>
       <r>   -6.4959    1.0000 </r>
       <r>   -6.4338    1.0000 </r>
       <r>   -6.3955    1.0000 </r>
       <r>   -6.3376    1.0000 </r>
       <r>   -6.3033    1.0000 </r>
       <r>   -6.1898    1.0000 </r>
       <r>   -6.1643    1.0000 </r>
       <r>   -6.1054    1.0000 </r>
       <r>   -6.0544    1.0000 </r>
       <r>   -6.0087    1.0000 </r>
       <r>   -5.9748    1.0000 </r>
       <r>   -5.9313    1.0000 </r>
       <r>   -5.8936    1.0000 </r>
       <r>   -5.8554    1.0000 </r>
       <r>   -5.8393    1.0000 </r>
       <r>   -5.7894    1.0000 </r>
       <r>   -5.7853    1.0000 </r>
       <r>   -5.7403    1.0000 </r>
       <r>   -5.7371    1.0000 </r>
       <r>   -5.7203    1.0000 </r>
       <r>   -5.7084    1.0000 </r>
       <r>   -5.6968    1.0000 </r>
       <r>   -5.6663    1.0000 </r>
       <r>   -5.6392    1.0000 </r>
       <r>   -5.6115    1.0000 </r>
       <r>   -5.5968    1.0000 </r>
       <r>   -5.5679    1.0000 </r>
       <r>   -5.5447    1.0000 </r>
       <r>   -5.5265    1.0000 </r>
       <r>   -5.4927    1.0000 </r>
       <r>   -5.4522    1.0000 </r>
       <r>   -5.4358    1.0000 </r>
       <r>   -5.4063    1.0000 </r>
       <r>   -5.3913    1.0000 </r>
       <r>   -5.3517    1.0000 </r>
       <r>   -5.3420    1.0000 </r>
       <r>   -5.3374    1.0000 </r>
       <r>   -5.3174    1.0000 </r>
       <r>   -5.3032    1.0000 </r>
       <r>   -5.2728    1.0000 </r>
       <r>   -5.2487    1.0000 </r>
       <r>   -5.2141    1.0000 </r>
       <r>   -5.1660    1.0000 </r>
       <r>   -5.1132    1.0000 </r>
       <r>   -5.0756    1.0000 </r>
       <r>   -4.5781    1.0000 </r>
       <r>   -4.4664    1.0000 </r>
       <r>   -3.7953    0.4297 </r>
       <r>   -3.5994   -0.0305 </r>
       <r>   -3.2934   -0.0008 </r>
       <r>   -2.6577   -0.0000 </r>
       <r>   -2.4621   -0.0000 </r>
       <r>   -2.4135   -0.0000 </r>
       <r>   -1.9399   -0.0000 </r>
       <r>   -1.6131   -0.0000 </r>
       <r>   -1.3897   -0.0000 </r>
       <r>   -1.3400   -0.0000 </r>
       <r>   -1.0672   -0.0000 </r>
       <r>   -0.8806   -0.0000 </r>
       <r>   -0.6678   -0.0000 </r>
       <r>   -0.5596   -0.0000 </r>
       <r>   -0.2792   -0.0000 </r>
       <r>   -0.2057   -0.0000 </r>
       <r>    0.0944   -0.0000 </r>
       <r>    0.1435   -0.0000 </r>
       <r>    0.3002   -0.0000 </r>
       <r>    0.3144   -0.0000 </r>
       <r>    0.3372   -0.0000 </r>
      </set>
     </set>
    </set>
   </array>
  </eigenvalues>
  <separator name="orbital magnetization" >
   <v name="MAGDIPOLOUT">      0.00000000      0.00000000      0.00000000</v>
  </separator>
  <dos>
   <i name="efermi">     -3.81195474 </i>
   <total>
    <array>
     <dimension dim="1">gridpoints</dimension>
     <dimension dim="2">spin</dimension>
     <field>energy</field>
     <field>total</field>
     <field>integrated</field>
     <set>
      <set comment="spin 1">
       <r>   -12.7175     0.0000     0.0000 </r>
       <r>   -12.6673     0.0000     0.0000 </r>
       <r>   -12.6171     0.0000     0.0000 </r>
       <r>   -12.5669     0.0000     0.0000 </r>
       <r>   -12.5167     0.0000     0.0000 </r>
       <r>   -12.4666     0.0000     0.0000 </r>
       <r>   -12.4164     0.0000     0.0000 </r>
       <r>   -12.3662    -0.0000    -0.0000 </r>
       <r>   -12.3160    -0.0000    -0.0000 </r>
       <r>   -12.2658    -0.0000    -0.0000 </r>
       <r>   -12.2156    -0.0000    -0.0000 </r>
       <r>   -12.1655    -0.0000    -0.0000 </r>
       <r>   -12.1153    -0.0000    -0.0000 </r>
       <r>   -12.0651    -0.0000    -0.0000 </r>
       <r>   -12.0149    -0.0000    -0.0000 </r>
       <r>   -11.9647    -0.0000    -0.0000 </r>
       <r>   -11.9145    -0.0000    -0.0000 </r>
       <r>   -11.8644    -0.0000    -0.0000 </r>
       <r>   -11.8142    -0.0000    -0.0000 </r>
       <r>   -11.7640    -0.0000    -0.0000 </r>
       <r>   -11.7138    -0.0000    -0.0000 </r>
       <r>   -11.6636    -0.0000    -0.0000 </r>
       <r>   -11.6135    -0.0000    -0.0000 </r>
       <r>   -11.5633    -0.0000    -0.0000 </r>
       <r>   -11.5131    -0.0000    -0.0000 </r>
       <r>   -11.4629    -0.0000    -0.0000 </r>
       <r>   -11.4127    -0.0001    -0.0000 </r>
       <r>   -11.3625    -0.0004    -0.0000 </r>
       <r>   -11.3124    -0.0016    -0.0001 </r>
       <r>   -11.2622    -0.0059    -0.0004 </r>
       <r>   -11.2120    -0.0180    -0.0013 </r>
       <r>   -11.1618    -0.0469    -0.0037 </r>
       <r>   -11.1116    -0.1019    -0.0088 </r>
       <r>   -11.0615    -0.1776    -0.0177 </r>
       <r>   -11.0113    -0.2256    -0.0290 </r>
       <r>   -10.9611    -0.1284    -0.0355 </r>
       <r>   -10.9109     0.2804    -0.0214 </r>
       <r>   -10.8607     1.1149     0.0346 </r>
       <r>   -10.8105     2.2904     0.1495 </r>
       <r>   -10.7604     3.4583     0.3230 </r>
       <r>   -10.7102     4.1403     0.5308 </r>
       <r>   -10.6600     4.0171     0.7324 </r>
       <r>   -10.6098     3.1481     0.8904 </r>
       <r>   -10.5596     1.9298     0.9872 </r>
       <r>   -10.5094     0.8285     1.0288 </r>
       <r>   -10.4593     0.1203     1.0348 </r>
       <r>   -10.4091    -0.1811     1.0258 </r>
       <r>   -10.3589    -0.2200     1.0147 </r>
       <r>   -10.3087    -0.1551     1.0069 </r>
       <r>   -10.2585    -0.0830     1.0028 </r>
       <r>   -10.2084    -0.0362     1.0009 </r>
       <r>   -10.1582    -0.0132     1.0003 </r>
       <r>   -10.1080    -0.0041     1.0001 </r>
       <r>   -10.0578    -0.0011     1.0000 </r>
       <r>   -10.0076    -0.0003     1.0000 </r>
       <r>    -9.9574    -0.0001     1.0000 </r>
       <r>    -9.9073    -0.0000     1.0000 </r>
       <r>    -9.8571    -0.0000     1.0000 </r>
       <r>    -9.8069    -0.0000     1.0000 </r>
       <r>    -9.7567    -0.0001     1.0000 </r>
       <r>    -9.7065    -0.0005     1.0000 </r>
       <r>    -9.6563    -0.0019     0.9999 </r>
       <r>    -9.6062    -0.0068     0.9995 </r>
       <r>    -9.5560    -0.0205     0.9985 </r>
       <r>    -9.5058    -0.0522     0.9959 </r>
       <r>    -9.4556    -0.1106     0.9903 </r>
       <r>    -9.4054    -0.1868     0.9810 </r>
       <r>    -9.3553    -0.2248     0.9697 </r>
       <r>    -9.3051    -0.0990     0.9647 </r>
       <r>    -9.2549     0.3562     0.9826 </r>
       <r>    -9.2047     1.2340     1.0445 </r>
       <r>    -9.1545     2.4092     1.1654 </r>
       <r>    -9.1043     3.4951     1.3408 </r>
       <r>    -9.0542     4.0153     1.5423 </r>
       <r>    -9.0040     3.7231     1.7291 </r>
       <r>    -8.9538     2.8259     1.8709 </r>
       <r>    -8.9036     1.9044     1.9665 </r>
       <r>    -8.8534     1.5535     2.0445 </r>
       <r>    -8.8033     1.9933     2.1445 </r>
       <r>    -8.7531     2.9206     2.2911 </r>
       <r>    -8.7029     3.7055     2.4770 </r>
       <r>    -8.6527     3.8082     2.6681 </r>
       <r>    -8.6025     3.1390     2.8256 </r>
       <r>    -8.5523     2.1139     2.9317 </r>
       <r>    -8.5022     1.3756     3.0007 </r>
       <r>    -8.4520     1.3753     3.0697 </r>
       <r>    -8.4018     2.0894     3.1746 </r>
       <r>    -8.3516     3.0436     3.3273 </r>
       <r>    -8.3014     3.6381     3.5099 </r>
       <r>    -8.2512     3.5773     3.6894 </r>
       <r>    -8.2011     3.1018     3.8451 </r>
       <r>    -8.1509     2.8281     3.9870 </r>
       <r>    -8.1007     3.2990     4.1525 </r>
       <r>    -8.0505     4.5884     4.3828 </r>
       <r>    -8.0003     6.2585     4.6969 </r>
       <r>    -7.9502     7.6584     5.0812 </r>
       <r>    -7.9000     8.2982     5.4976 </r>
       <r>    -7.8498     8.0472     5.9014 </r>
       <r>    -7.7996     7.1230     6.2589 </r>
       <r>    -7.7494     5.9895     6.5594 </r>
       <r>    -7.6992     5.2204     6.8214 </r>
       <r>    -7.6491     5.2772     7.0862 </r>
       <r>    -7.5989     6.2384     7.3993 </r>
       <r>    -7.5487     7.7007     7.7857 </r>
       <r>    -7.4985     9.0282     8.2388 </r>
       <r>    -7.4483     9.7908     8.7301 </r>
       <r>    -7.3982    10.0066     9.2323 </r>
       <r>    -7.3480     9.9978     9.7340 </r>
       <r>    -7.2978    10.0800    10.2398 </r>
       <r>    -7.2476    10.4143    10.7624 </r>
       <r>    -7.1974    11.0899    11.3189 </r>
       <r>    -7.1472    12.2300    11.9327 </r>
       <r>    -7.0971    13.9436    12.6324 </r>
       <r>    -7.0469    16.1744    13.4441 </r>
       <r>    -6.9967    18.6198    14.3784 </r>
       <r>    -6.9465    20.8046    15.4225 </r>
       <r>    -6.8963    22.2482    16.5389 </r>
       <r>    -6.8461    22.6327    17.6747 </r>
       <r>    -6.7960    21.9318    18.7753 </r>
       <r>    -6.7458    20.4762    19.8028 </r>
       <r>    -6.6956    18.8917    20.7508 </r>
       <r>    -6.6454    17.8601    21.6471 </r>
       <r>    -6.5952    17.7801    22.5393 </r>
       <r>    -6.5451    18.5377    23.4696 </r>
       <r>    -6.4949    19.5628    24.4513 </r>
       <r>    -6.4447    20.1591    25.4629 </r>
       <r>    -6.3945    19.9003    26.4616 </r>
       <r>    -6.3443    18.8611    27.4081 </r>
       <r>    -6.2941    17.5632    28.2894 </r>
       <r>    -6.2440    16.6739    29.1262 </r>
       <r>    -6.1938    16.6397    29.9612 </r>
       <r>    -6.1436    17.4965    30.8392 </r>
       <r>    -6.0934    18.9820    31.7918 </r>
       <r>    -6.0432    20.8458    32.8378 </r>
       <r>    -5.9930    23.1025    33.9972 </r>
       <r>    -5.9429    26.0343    35.3036 </r>
       <r>    -5.8927    29.9265    36.8054 </r>
       <r>    -5.8425    34.6908    38.5463 </r>
       <r>    -5.7923    39.6413    40.5356 </r>
       <r>    -5.7421    43.6590    42.7265 </r>
       <r>    -5.6920    45.7495    45.0223 </r>
       <r>    -5.6418    45.6626    47.3137 </r>
       <r>    -5.5916    44.1271    49.5281 </r>
       <r>    -5.5414    42.4874    51.6602 </r>
       <r>    -5.4912    41.9311    53.7644 </r>
       <r>    -5.4410    42.7553    55.9100 </r>
       <r>    -5.3909    44.1238    58.1242 </r>
       <r>    -5.3407    44.5225    60.3585 </r>
       <r>    -5.2905    42.6639    62.4994 </r>
       <r>    -5.2403    38.2186    64.4173 </r>
       <r>    -5.1901    31.8568    66.0160 </r>
       <r>    -5.1400    24.6829    67.2546 </r>
       <r>    -5.0898    17.6378    68.1397 </r>
       <r>    -5.0396    11.3149    68.7075 </r>
       <r>    -4.9894     6.0967    69.0135 </r>
       <r>    -4.9392     2.2569    69.1267 </r>
       <r>    -4.8890    -0.1002    69.1217 </r>
       <r>    -4.8389    -1.0943    69.0668 </r>
       <r>    -4.7887    -0.9743    69.0179 </r>
       <r>    -4.7385     0.0305    69.0194 </r>
       <r>    -4.6883     1.7301    69.1062 </r>
       <r>    -4.6381     3.8392    69.2989 </r>
       <r>    -4.5879     5.8646    69.5932 </r>
       <r>    -4.5378     7.1928    69.9542 </r>
       <r>    -4.4876     7.3646    70.3237 </r>
       <r>    -4.4374     6.3370    70.6417 </r>
       <r>    -4.3872     4.5201    70.8686 </r>
       <r>    -4.3370     2.5499    70.9965 </r>
       <r>    -4.2869     0.9605    71.0447 </r>
       <r>    -4.2367    -0.0242    71.0435 </r>
       <r>    -4.1865    -0.4715    71.0198 </r>
       <r>    -4.1363    -0.5579    70.9918 </r>
       <r>    -4.0861    -0.3842    70.9726 </r>
       <r>    -4.0359     0.0828    70.9767 </r>
       <r>    -3.9858     0.9122    71.0225 </r>
       <r>    -3.9356     2.0463    71.1252 </r>
       <r>    -3.8854     3.2322    71.2874 </r>
       <r>    -3.8352     4.1481    71.4955 </r>
       <r>    -3.7850     4.6287    71.7278 </r>
       <r>    -3.7348     4.7557    71.9665 </r>
       <r>    -3.6847     4.7013    72.2024 </r>
       <r>    -3.6345     4.5110    72.4288 </r>
       <r>    -3.5843     4.1012    72.6346 </r>
       <r>    -3.5341     3.4852    72.8095 </r>
       <r>    -3.4839     2.9282    72.9564 </r>
       <r>    -3.4338     2.7868    73.0963 </r>
       <r>    -3.3836     3.1606    73.2549 </r>
       <r>    -3.3334     3.7267    73.4419 </r>
       <r>    -3.2832     3.9558    73.6404 </r>
       <r>    -3.2330     3.5178    73.8169 </r>
       <r>    -3.1828     2.5094    73.9429 </r>
       <r>    -3.1327     1.3286    74.0095 </r>
       <r>    -3.0825     0.3627    74.0277 </r>
       <r>    -3.0323    -0.2227    74.0165 </r>
       <r>    -2.9821    -0.4610    73.9934 </r>
       <r>    -2.9319    -0.4244    73.9721 </r>
       <r>    -2.8818    -0.1047    73.9669 </r>
       <r>    -2.8316     0.5626    73.9951 </r>
       <r>    -2.7814     1.5738    74.0741 </r>
       <r>    -2.7312     2.7826    74.2137 </r>
       <r>    -2.6810     3.9876    74.4138 </r>
       <r>    -2.6308     5.1098    74.6702 </r>
       <r>    -2.5807     6.2307    74.9829 </r>
       <r>    -2.5305     7.3785    75.3532 </r>
       <r>    -2.4803     8.2752    75.7684 </r>
       <r>    -2.4301     8.3922    76.1896 </r>
       <r>    -2.3799     7.3537    76.5586 </r>
       <r>    -2.3297     5.3169    76.8254 </r>
       <r>    -2.2796     2.9524    76.9736 </r>
       <r>    -2.2294     1.0586    77.0267 </r>
       <r>    -2.1792     0.1633    77.0349 </r>
       <r>    -2.1290     0.3655    77.0532 </r>
       <r>    -2.0788     1.3820    77.1226 </r>
       <r>    -2.0287     2.6731    77.2567 </r>
       <r>    -1.9785     3.6327    77.4390 </r>
       <r>    -1.9283     3.8616    77.6328 </r>
       <r>    -1.8781     3.4044    77.8037 </r>
       <r>    -1.8279     2.7268    77.9405 </r>
       <r>    -1.7777     2.3791    78.0599 </r>
       <r>    -1.7276     2.5928    78.1900 </r>
       <r>    -1.6774     3.1694    78.3490 </r>
       <r>    -1.6272     3.7668    78.5381 </r>
       <r>    -1.5770     4.2912    78.7534 </r>
       <r>    -1.5268     4.9709    79.0029 </r>
       <r>    -1.4766     6.0061    79.3043 </r>
       <r>    -1.4265     7.1710    79.6641 </r>
       <r>    -1.3763     7.8521    80.0581 </r>
       <r>    -1.3261     7.5581    80.4374 </r>
       <r>    -1.2759     6.4022    80.7587 </r>
       <r>    -1.2257     5.0552    81.0124 </r>
       <r>    -1.1756     4.2162    81.2240 </r>
       <r>    -1.1254     4.1231    81.4309 </r>
       <r>    -1.0752     4.5146    81.6574 </r>
       <r>    -1.0250     4.9524    81.9059 </r>
       <r>    -0.9748     5.1325    82.1635 </r>
       <r>    -0.9246     4.9875    82.4138 </r>
       <r>    -0.8745     4.6648    82.6479 </r>
       <r>    -0.8243     4.4690    82.8721 </r>
       <r>    -0.7741     4.7157    83.1088 </r>
       <r>    -0.7239     5.4781    83.3837 </r>
       <r>    -0.6737     6.4189    83.7058 </r>
       <r>    -0.6236     6.9400    84.0541 </r>
       <r>    -0.5734     6.6177    84.3862 </r>
       <r>    -0.5232     5.5893    84.6666 </r>
       <r>    -0.4730     4.5402    84.8945 </r>
       <r>    -0.4228     4.2458    85.1075 </r>
       <r>    -0.3726     4.9823    85.3576 </r>
       <r>    -0.3225     6.2664    85.6720 </r>
       <r>    -0.2723     7.1628    86.0315 </r>
       <r>    -0.2221     6.9649    86.3810 </r>
       <r>    -0.1719     5.7368    86.6689 </r>
       <r>    -0.1217     4.2903    86.8842 </r>
       <r>    -0.0715     3.6173    87.0657 </r>
       <r>    -0.0214     4.2332    87.2781 </r>
       <r>     0.0288     5.9421    87.5763 </r>
       <r>     0.0790     8.1455    87.9851 </r>
       <r>     0.1292    10.3261    88.5033 </r>
       <r>     0.1794    12.2117    89.1161 </r>
       <r>     0.2295    13.5349    89.7953 </r>
       <r>     0.2797    13.8138    90.4885 </r>
       <r>     0.3299    12.5673    91.1191 </r>
       <r>     0.3801     9.8091    91.6114 </r>
       <r>     0.4303     6.2555    91.9253 </r>
       <r>     0.4805     2.9568    92.0737 </r>
       <r>     0.5306     0.6800    92.1078 </r>
       <r>     0.5808    -0.4212    92.0867 </r>
       <r>     0.6310    -0.6727    92.0529 </r>
       <r>     0.6812    -0.5266    92.0265 </r>
       <r>     0.7314    -0.3046    92.0112 </r>
       <r>     0.7816    -0.1423    92.0041 </r>
       <r>     0.8317    -0.0556    92.0013 </r>
       <r>     0.8819    -0.0185    92.0003 </r>
       <r>     0.9321    -0.0053    92.0001 </r>
       <r>     0.9823    -0.0013    92.0000 </r>
       <r>     1.0325    -0.0003    92.0000 </r>
       <r>     1.0826    -0.0001    92.0000 </r>
       <r>     1.1328    -0.0000    92.0000 </r>
       <r>     1.1830    -0.0000    92.0000 </r>
       <r>     1.2332    -0.0000    92.0000 </r>
       <r>     1.2834    -0.0000    92.0000 </r>
       <r>     1.3336    -0.0000    92.0000 </r>
       <r>     1.3837    -0.0000    92.0000 </r>
       <r>     1.4339    -0.0000    92.0000 </r>
       <r>     1.4841    -0.0000    92.0000 </r>
       <r>     1.5343    -0.0000    92.0000 </r>
       <r>     1.5845     0.0000    92.0000 </r>
       <r>     1.6346     0.0000    92.0000 </r>
       <r>     1.6848     0.0000    92.0000 </r>
       <r>     1.7350     0.0000    92.0000 </r>
       <r>     1.7852     0.0000    92.0000 </r>
       <r>     1.8354     0.0000    92.0000 </r>
       <r>     1.8856     0.0000    92.0000 </r>
       <r>     1.9357     0.0000    92.0000 </r>
       <r>     1.9859     0.0000    92.0000 </r>
       <r>     2.0361     0.0000    92.0000 </r>
       <r>     2.0863     0.0000    92.0000 </r>
       <r>     2.1365     0.0000    92.0000 </r>
       <r>     2.1867     0.0000    92.0000 </r>
       <r>     2.2368     0.0000    92.0000 </r>
       <r>     2.2870     0.0000    92.0000 </r>
       <r>     2.3372     0.0000    92.0000 </r>
      </set>
      <set comment="spin 2">
       <r>   -12.7175     0.0000     0.0000 </r>
       <r>   -12.6673     0.0000     0.0000 </r>
       <r>   -12.6171     0.0000     0.0000 </r>
       <r>   -12.5669     0.0000     0.0000 </r>
       <r>   -12.5167     0.0000     0.0000 </r>
       <r>   -12.4666     0.0000     0.0000 </r>
       <r>   -12.4164     0.0000     0.0000 </r>
       <r>   -12.3662     0.0000     0.0000 </r>
       <r>   -12.3160    -0.0000    -0.0000 </r>
       <r>   -12.2658    -0.0000    -0.0000 </r>
       <r>   -12.2156    -0.0000    -0.0000 </r>
       <r>   -12.1655    -0.0000    -0.0000 </r>
       <r>   -12.1153    -0.0000    -0.0000 </r>
       <r>   -12.0651    -0.0000    -0.0000 </r>
       <r>   -12.0149    -0.0000    -0.0000 </r>
       <r>   -11.9647    -0.0000    -0.0000 </r>
       <r>   -11.9145    -0.0000    -0.0000 </r>
       <r>   -11.8644    -0.0000    -0.0000 </r>
       <r>   -11.8142    -0.0000    -0.0000 </r>
       <r>   -11.7640    -0.0000    -0.0000 </r>
       <r>   -11.7138    -0.0000    -0.0000 </r>
       <r>   -11.6636    -0.0000    -0.0000 </r>
       <r>   -11.6135    -0.0000    -0.0000 </r>
       <r>   -11.5633    -0.0000    -0.0000 </r>
       <r>   -11.5131    -0.0000    -0.0000 </r>
       <r>   -11.4629    -0.0000    -0.0000 </r>
       <r>   -11.4127    -0.0001    -0.0000 </r>
       <r>   -11.3625    -0.0003    -0.0000 </r>
       <r>   -11.3124    -0.0013    -0.0001 </r>
       <r>   -11.2622    -0.0049    -0.0003 </r>
       <r>   -11.2120    -0.0154    -0.0011 </r>
       <r>   -11.1618    -0.0411    -0.0032 </r>
       <r>   -11.1116    -0.0918    -0.0078 </r>
       <r>   -11.0615    -0.1661    -0.0161 </r>
       <r>   -11.0113    -0.2240    -0.0273 </r>
       <r>   -10.9611    -0.1588    -0.0353 </r>
       <r>   -10.9109     0.1927    -0.0256 </r>
       <r>   -10.8607     0.9621     0.0226 </r>
       <r>   -10.8105     2.1024     0.1281 </r>
       <r>   -10.7604     3.3018     0.2938 </r>
       <r>   -10.7102     4.0849     0.4988 </r>
       <r>   -10.6600     4.0896     0.7040 </r>
       <r>   -10.6098     3.3137     0.8703 </r>
       <r>   -10.5596     2.1162     0.9765 </r>
       <r>   -10.5094     0.9730     1.0254 </r>
       <r>   -10.4593     0.1989     1.0353 </r>
       <r>   -10.4091    -0.1568     1.0275 </r>
       <r>   -10.3589    -0.2242     1.0162 </r>
       <r>   -10.3087    -0.1669     1.0078 </r>
       <r>   -10.2585    -0.0925     1.0032 </r>
       <r>   -10.2084    -0.0415     1.0011 </r>
       <r>   -10.1582    -0.0156     1.0003 </r>
       <r>   -10.1080    -0.0050     1.0001 </r>
       <r>   -10.0578    -0.0014     1.0000 </r>
       <r>   -10.0076    -0.0003     1.0000 </r>
       <r>    -9.9574    -0.0001     1.0000 </r>
       <r>    -9.9073    -0.0000     1.0000 </r>
       <r>    -9.8571    -0.0000     1.0000 </r>
       <r>    -9.8069    -0.0000     1.0000 </r>
       <r>    -9.7567    -0.0001     1.0000 </r>
       <r>    -9.7065    -0.0004     1.0000 </r>
       <r>    -9.6563    -0.0017     0.9999 </r>
       <r>    -9.6062    -0.0061     0.9996 </r>
       <r>    -9.5560    -0.0185     0.9987 </r>
       <r>    -9.5058    -0.0480     0.9962 </r>
       <r>    -9.4556    -0.1036     0.9910 </r>
       <r>    -9.4054    -0.1796     0.9820 </r>
       <r>    -9.3553    -0.2258     0.9707 </r>
       <r>    -9.3051    -0.1234     0.9645 </r>
       <r>    -9.2549     0.2929     0.9792 </r>
       <r>    -9.2047     1.1307     1.0360 </r>
       <r>    -9.1545     2.2917     1.1510 </r>
       <r>    -9.1043     3.4114     1.3221 </r>
       <r>    -9.0542     4.0071     1.5232 </r>
       <r>    -9.0040     3.7911     1.7135 </r>
       <r>    -8.9538     2.9161     1.8598 </r>
       <r>    -8.9036     1.9340     1.9569 </r>
       <r>    -8.8534     1.4637     2.0303 </r>
       <r>    -8.8033     1.7968     2.1205 </r>
       <r>    -8.7531     2.7067     2.2563 </r>
       <r>    -8.7029     3.5906     2.4365 </r>
       <r>    -8.6527     3.8601     2.6302 </r>
       <r>    -8.6025     3.3274     2.7972 </r>
       <r>    -8.5523     2.3279     2.9140 </r>
       <r>    -8.5022     1.4942     2.9890 </r>
       <r>    -8.4520     1.3432     3.0564 </r>
       <r>    -8.4018     1.9468     3.1541 </r>
       <r>    -8.3516     2.8942     3.2993 </r>
       <r>    -8.3014     3.5758     3.4788 </r>
       <r>    -8.2512     3.6189     3.6604 </r>
       <r>    -8.2011     3.1763     3.8198 </r>
       <r>    -8.1509     2.8343     3.9620 </r>
       <r>    -8.1007     3.1852     4.1218 </r>
       <r>    -8.0505     4.3893     4.3421 </r>
       <r>    -8.0003     6.0609     4.6463 </r>
       <r>    -7.9502     7.5356     5.0244 </r>
       <r>    -7.9000     8.2733     5.4396 </r>
       <r>    -7.8498     8.1047     5.8463 </r>
       <r>    -7.7996     7.2357     6.2094 </r>
       <r>    -7.7494     6.1236     6.5167 </r>
       <r>    -7.6992     5.3265     6.7840 </r>
       <r>    -7.6491     5.3022     7.0501 </r>
       <r>    -7.5989     6.1610     7.3592 </r>
       <r>    -7.5487     7.5525     7.7382 </r>
       <r>    -7.4985     8.8714     8.1834 </r>
       <r>    -7.4483     9.6751     8.6689 </r>
       <r>    -7.3982     9.9460     9.1681 </r>
       <r>    -7.3480     9.9823     9.6690 </r>
       <r>    -7.2978    10.0935    10.1755 </r>
       <r>    -7.2476    10.4369    10.6992 </r>
       <r>    -7.1974    11.0896    11.2557 </r>
       <r>    -7.1472    12.1633    11.8661 </r>
       <r>    -7.0971    13.7746    12.5574 </r>
       <r>    -7.0469    15.9006    13.3553 </r>
       <r>    -6.9967    18.2864    14.2729 </r>
       <r>    -6.9465    20.4973    15.3015 </r>
       <r>    -6.8963    22.0634    16.4087 </r>
       <r>    -6.8461    22.6347    17.5446 </r>
       <r>    -6.7960    22.1164    18.6544 </r>
       <r>    -6.7458    20.7631    19.6964 </r>
       <r>    -6.6956    19.1598    20.6579 </r>
       <r>    -6.6454    18.0083    21.5616 </r>
       <r>    -6.5952    17.7780    22.4537 </r>
       <r>    -6.5451    18.4326    23.3787 </r>
       <r>    -6.4949    19.4442    24.3544 </r>
       <r>    -6.4447    20.1065    25.3634 </r>
       <r>    -6.3945    19.9452    26.3643 </r>
       <r>    -6.3443    18.9790    27.3167 </r>
       <r>    -6.2941    17.6924    28.2046 </r>
       <r>    -6.2440    16.7501    29.0451 </r>
       <r>    -6.1938    16.6284    29.8796 </r>
       <r>    -6.1436    17.4024    30.7529 </r>
       <r>    -6.0934    18.8290    31.6978 </r>
       <r>    -6.0432    20.6432    32.7337 </r>
       <r>    -5.9930    22.8262    33.8792 </r>
       <r>    -5.9429    25.6422    35.1659 </r>
       <r>    -5.8927    29.4041    36.6415 </r>
       <r>    -5.8425    34.0985    38.3526 </r>
       <r>    -5.7923    39.1180    40.3157 </r>
       <r>    -5.7421    43.3618    42.4916 </r>
       <r>    -5.6920    45.7575    44.7879 </r>
       <r>    -5.6418    45.9132    47.0919 </r>
       <r>    -5.5916    44.4369    49.3218 </r>
       <r>    -5.5414    42.6518    51.4622 </r>
       <r>    -5.4912    41.8430    53.5620 </r>
       <r>    -5.4410    42.4716    55.6933 </r>
       <r>    -5.3909    43.8362    57.8931 </r>
       <r>    -5.3407    44.4435    60.1234 </r>
       <r>    -5.2905    42.9003    62.2762 </r>
       <r>    -5.2403    38.7235    64.2194 </r>
       <r>    -5.1901    32.4947    65.8501 </r>
       <r>    -5.1400    25.3405    67.1217 </r>
       <r>    -5.0898    18.2775    68.0389 </r>
       <r>    -5.0396    11.9376    68.6380 </r>
       <r>    -4.9894     6.6787    68.9731 </r>
       <r>    -4.9392     2.7375    69.1105 </r>
       <r>    -4.8890     0.2210    69.1216 </r>
       <r>    -4.8389    -0.9528    69.0738 </r>
       <r>    -4.7887    -1.0004    69.0236 </r>
       <r>    -4.7385    -0.1431    69.0164 </r>
       <r>    -4.6883     1.4307    69.0882 </r>
       <r>    -4.6381     3.4591    69.2618 </r>
       <r>    -4.5879     5.4924    69.5374 </r>
       <r>    -4.5378     6.9460    69.8860 </r>
       <r>    -4.4876     7.3370    70.2542 </r>
       <r>    -4.4374     6.5427    70.5825 </r>
       <r>    -4.3872     4.8804    70.8274 </r>
       <r>    -4.3370     2.9399    70.9749 </r>
       <r>    -4.2869     1.2802    71.0392 </r>
       <r>    -4.2367     0.1920    71.0488 </r>
       <r>    -4.1865    -0.3430    71.0316 </r>
       <r>    -4.1363    -0.5144    71.0058 </r>
       <r>    -4.0861    -0.4929    70.9810 </r>
       <r>    -4.0359    -0.3089    70.9655 </r>
       <r>    -3.9858     0.1391    70.9725 </r>
       <r>    -3.9356     0.9620    71.0208 </r>
       <r>    -3.8854     2.1299    71.1277 </r>
       <r>    -3.8352     3.4182    71.2992 </r>
       <r>    -3.7850     4.5182    71.5260 </r>
       <r>    -3.7348     5.2152    71.7877 </r>
       <r>    -3.6847     5.4591    72.0616 </r>
       <r>    -3.6345     5.2830    72.3267 </r>
       <r>    -3.5843     4.7264    72.5639 </r>
       <r>    -3.5341     3.9011    72.7597 </r>
       <r>    -3.4839     3.0965    72.9151 </r>
       <r>    -3.4338     2.6981    73.0505 </r>
       <r>    -3.3836     2.9006    73.1960 </r>
       <r>    -3.3334     3.4843    73.3709 </r>
       <r>    -3.2832     3.9214    73.5677 </r>
       <r>    -3.2330     3.7565    73.7562 </r>
       <r>    -3.1828     2.9274    73.9031 </r>
       <r>    -3.1327     1.7583    73.9913 </r>
       <r>    -3.0825     0.6789    74.0254 </r>
       <r>    -3.0323    -0.0523    74.0227 </r>
       <r>    -2.9821    -0.4102    74.0022 </r>
       <r>    -2.9319    -0.4728    73.9784 </r>
       <r>    -2.8818    -0.2668    73.9650 </r>
       <r>    -2.8316     0.2639    73.9783 </r>
       <r>    -2.7814     1.1610    74.0365 </r>
       <r>    -2.7312     2.3423    74.1541 </r>
       <r>    -2.6810     3.6230    74.3359 </r>
       <r>    -2.6308     4.8664    74.5801 </r>
       <r>    -2.5807     6.0800    74.8852 </r>
       <r>    -2.5305     7.2858    75.2508 </r>
       <r>    -2.4803     8.2744    75.6661 </r>
       <r>    -2.4301     8.5707    76.0962 </r>
       <r>    -2.3799     7.7562    76.4854 </r>
       <r>    -2.3297     5.8707    76.7800 </r>
       <r>    -2.2796     3.4870    76.9550 </r>
       <r>    -2.2294     1.3876    77.0246 </r>
       <r>    -2.1792     0.1576    77.0325 </r>
       <r>    -2.1290    -0.0044    77.0323 </r>
       <r>    -2.0788     0.7495    77.0699 </r>
       <r>    -2.0287     2.0121    77.1709 </r>
       <r>    -1.9785     3.2242    77.3327 </r>
       <r>    -1.9283     3.8628    77.5265 </r>
       <r>    -1.8781     3.7127    77.7128 </r>
       <r>    -1.8279     3.0247    77.8646 </r>
       <r>    -1.7777     2.3646    77.9833 </r>
       <r>    -1.7276     2.2154    78.0945 </r>
       <r>    -1.6774     2.6584    78.2279 </r>
       <r>    -1.6272     3.4169    78.3993 </r>
       <r>    -1.5770     4.2062    78.6104 </r>
       <r>    -1.5268     5.0137    78.8620 </r>
       <r>    -1.4766     5.9946    79.1628 </r>
       <r>    -1.4265     7.0966    79.5189 </r>
       <r>    -1.3763     7.8751    79.9141 </r>
       <r>    -1.3261     7.7913    80.3051 </r>
       <r>    -1.2759     6.7359    80.6431 </r>
       <r>    -1.2257     5.2278    80.9055 </r>
       <r>    -1.1756     4.0512    81.1088 </r>
       <r>    -1.1254     3.6811    81.2935 </r>
       <r>    -1.0752     4.0229    81.4954 </r>
       <r>    -1.0250     4.6267    81.7276 </r>
       <r>    -0.9748     5.0746    81.9822 </r>
       <r>    -0.9246     5.1982    82.2431 </r>
       <r>    -0.8745     5.0713    82.4976 </r>
       <r>    -0.8243     4.9241    82.7447 </r>
       <r>    -0.7741     5.0361    82.9974 </r>
       <r>    -0.7239     5.5613    83.2765 </r>
       <r>    -0.6737     6.3423    83.5947 </r>
       <r>    -0.6236     6.9109    83.9415 </r>
       <r>    -0.5734     6.7798    84.2818 </r>
       <r>    -0.5232     5.8469    84.5752 </r>
       <r>    -0.4730     4.5765    84.8048 </r>
       <r>    -0.4228     3.7608    84.9936 </r>
       <r>    -0.3726     3.9867    85.1936 </r>
       <r>    -0.3225     5.1780    85.4535 </r>
       <r>    -0.2723     6.5763    85.7835 </r>
       <r>    -0.2221     7.2227    86.1459 </r>
       <r>    -0.1719     6.6264    86.4784 </r>
       <r>    -0.1217     5.1312    86.7359 </r>
       <r>    -0.0715     3.7023    86.9217 </r>
       <r>    -0.0214     3.2948    87.0871 </r>
       <r>     0.0288     4.2795    87.3018 </r>
       <r>     0.0790     6.3404    87.6200 </r>
       <r>     0.1292     8.8404    88.0636 </r>
       <r>     0.1794    11.2463    88.6280 </r>
       <r>     0.2295    13.2010    89.2905 </r>
       <r>     0.2797    14.2979    90.0080 </r>
       <r>     0.3299    14.0108    90.7111 </r>
       <r>     0.3801    12.0358    91.3150 </r>
       <r>     0.4303     8.7145    91.7523 </r>
       <r>     0.4805     5.0071    92.0036 </r>
       <r>     0.5306     1.9530    92.1016 </r>
       <r>     0.5808     0.1027    92.1068 </r>
       <r>     0.6310    -0.6239    92.0755 </r>
       <r>     0.6812    -0.6629    92.0422 </r>
       <r>     0.7314    -0.4496    92.0196 </r>
       <r>     0.7816    -0.2364    92.0078 </r>
       <r>     0.8317    -0.1021    92.0027 </r>
       <r>     0.8819    -0.0372    92.0008 </r>
       <r>     0.9321    -0.0116    92.0002 </r>
       <r>     0.9823    -0.0031    92.0000 </r>
       <r>     1.0325    -0.0007    92.0000 </r>
       <r>     1.0826    -0.0001    92.0000 </r>
       <r>     1.1328    -0.0000    92.0000 </r>
       <r>     1.1830    -0.0000    92.0000 </r>
       <r>     1.2332    -0.0000    92.0000 </r>
       <r>     1.2834    -0.0000    92.0000 </r>
       <r>     1.3336    -0.0000    92.0000 </r>
       <r>     1.3837    -0.0000    92.0000 </r>
       <r>     1.4339    -0.0000    92.0000 </r>
       <r>     1.4841    -0.0000    92.0000 </r>
       <r>     1.5343    -0.0000    92.0000 </r>
       <r>     1.5845    -0.0000    92.0000 </r>
       <r>     1.6346     0.0000    92.0000 </r>
       <r>     1.6848     0.0000    92.0000 </r>
       <r>     1.7350     0.0000    92.0000 </r>
       <r>     1.7852     0.0000    92.0000 </r>
       <r>     1.8354     0.0000    92.0000 </r>
       <r>     1.8856     0.0000    92.0000 </r>
       <r>     1.9357     0.0000    92.0000 </r>
       <r>     1.9859     0.0000    92.0000 </r>
       <r>     2.0361     0.0000    92.0000 </r>
       <r>     2.0863     0.0000    92.0000 </r>
       <r>     2.1365     0.0000    92.0000 </r>
       <r>     2.1867     0.0000    92.0000 </r>
       <r>     2.2368     0.0000    92.0000 </r>
       <r>     2.2870     0.0000    92.0000 </r>
       <r>     2.3372     0.0000    92.0000 </r>
      </set>
     </set>
    </array>
   </total>
  </dos>
 </calculation>
 <structure name="finalpos" >
  <crystal>
   <varray name="basis" >
    <v>      21.69915322       0.00000000       0.00000000 </v>
    <v>       0.00000000      25.00623429       0.00000000 </v>
    <v>       0.00000000       0.00000000      26.10601719 </v>
   </varray>
   <i name="volume">  14165.49325946 </i>
   <varray name="rec_basis" >
    <v>       0.04608475       0.00000000       0.00000000 </v>
    <v>       0.00000000       0.03999003       0.00000000 </v>
    <v>       0.00000000       0.00000000       0.03830535 </v>
   </varray>
  </crystal>
  <varray name="positions" >
   <v>       0.53270894       0.47596966       0.54002325 </v>
   <v>       0.45670359       0.47676408       0.46594246 </v>
   <v>       0.59257179       0.55852568       0.53171400 </v>
   <v>       0.50228071       0.55111192       0.59584017 </v>
   <v>       0.46013126       0.40531449       0.53173199 </v>
   <v>       0.63023451       0.47430847       0.49774795 </v>
   <v>       0.56384569       0.61618438       0.46236457 </v>
   <v>       0.55549793       0.51978169       0.44683440 </v>
   <v>       0.54438144       0.41816176       0.46526614 </v>
   <v>       0.53219731       0.63483084       0.55307988 </v>
   <v>       0.48167607       0.56575399       0.50331897 </v>
   <v>       0.47428351       0.45232387       0.61705080 </v>
   <v>       0.42325569       0.49827250       0.55111001 </v>
  </varray>
 </structure>
</modeling>
