unknown system                          
            1
    21.699153    0.000000    0.000000
     0.000000   25.006234    0.000000
     0.000000    0.000000   26.106017
   Cu
    13
Direct configuration=     1
   0.53265531  0.47589430  0.53995924
   0.45668996  0.47668112  0.46599681
   0.59267151  0.55854447  0.53173552
   0.50234299  0.55115965  0.59582298
   0.46019216  0.40545444  0.53168245
   0.63026018  0.47435886  0.49781321
   0.56375596  0.61618779  0.46238508
   0.55564502  0.51978130  0.44680760
   0.54434249  0.41822185  0.46523208
   0.53218584  0.63478961  0.55290367
   0.48161324  0.56572753  0.50331034
   0.47420440  0.45219862  0.61710147
   0.42320939  0.49830376  0.55127412
Direct configuration=     2
   0.53267783  0.47592595  0.53998612
   0.45669569  0.47671596  0.46597399
   0.59262963  0.55853658  0.53172648
   0.50231684  0.55113961  0.59583020
   0.46016659  0.40539567  0.53170325
   0.63024940  0.47433770  0.49778580
   0.56379364  0.61618636  0.46237647
   0.55558325  0.51978146  0.44681886
   0.54435885  0.41819662  0.46524638
   0.53219065  0.63480693  0.55297766
   0.48163963  0.56573864  0.50331396
   0.47423762  0.45225122  0.61708019
   0.42322883  0.49829063  0.55120520
Direct configuration=     3
   0.53270894  0.47596966  0.54002325
   0.45670359  0.47676408  0.46594246
   0.59257179  0.55852568  0.53171400
   0.50228071  0.55111192  0.59584017
   0.46013126  0.40531449  0.53173199
   0.63023451  0.47430847  0.49774795
   0.56384569  0.61618438  0.46236457
   0.55549793  0.51978169  0.44683440
   0.54438144  0.41816176  0.46526614
   0.53219731  0.63483084  0.55307988
   0.48167607  0.56575399  0.50331897
   0.47428351  0.45232387  0.61705080
   0.42325569  0.49827250  0.55111001
