  16  16   0   0
  0.8509633E+03  0.2385720E-08  0.2392332E-08  0.2385558E-08  0.5000000E-15
   1.0000000000000000E-004
  CAR 
 unknown system                          
      2.39682821    -11.20633466  301     -4.31458856      1.00000000
    -11.206  0.0000E+00  0.0000E+00  0.0000E+00  0.0000E+00
    -11.161  0.0000E+00  0.0000E+00  0.0000E+00  0.0000E+00
    -11.116  0.0000E+00  0.0000E+00  0.0000E+00  0.0000E+00
    -11.070  0.0000E+00  0.0000E+00  0.0000E+00  0.0000E+00
    -11.025  0.0000E+00  0.0000E+00  0.0000E+00  0.0000E+00
    -10.980  0.0000E+00  0.0000E+00  0.0000E+00  0.0000E+00
    -10.934  0.0000E+00  0.0000E+00  0.0000E+00  0.0000E+00
    -10.889  0.0000E+00  0.0000E+00  0.0000E+00  0.0000E+00
    -10.844 -0.4008E-30  0.0000E+00 -0.1817E-31  0.0000E+00
    -10.798 -0.1475E-28  0.0000E+00 -0.6870E-30  0.0000E+00
    -10.753 -0.5013E-27 -0.3139E-29 -0.2342E-28 -0.1423E-30
    -10.708 -0.1535E-25 -0.1088E-27 -0.7196E-27 -0.5077E-29
    -10.662 -0.4237E-24 -0.3488E-26 -0.1993E-25 -0.1632E-27
    -10.617 -0.1054E-22 -0.1007E-24 -0.4977E-24 -0.4731E-26
    -10.572 -0.2361E-21 -0.2622E-23 -0.1120E-22 -0.1236E-24
    -10.526 -0.4765E-20 -0.6149E-22 -0.2273E-21 -0.2912E-23
    -10.481 -0.8663E-19 -0.1299E-20 -0.4155E-20 -0.6181E-22
    -10.435 -0.1418E-17 -0.2472E-19 -0.6846E-19 -0.1183E-20
    -10.390 -0.1968E-16 -0.4236E-18 -0.9609E-18 -0.2039E-19
    -10.345 -0.2701E-15 -0.6538E-17 -0.1321E-16 -0.3168E-18
    -10.299 -0.3203E-14 -0.8838E-16 -0.1584E-15 -0.4324E-17
    -10.254 -0.3432E-13 -0.1099E-14 -0.1715E-14 -0.5417E-16
    -10.209 -0.3306E-12 -0.1234E-13 -0.1670E-13 -0.6137E-15
    -10.163 -0.2862E-11 -0.1245E-12 -0.1465E-12 -0.6260E-14
    -10.118 -0.2225E-10 -0.1129E-11 -0.1156E-11 -0.5747E-13
    -10.073 -0.1553E-09 -0.9205E-11 -0.8199E-11 -0.4749E-12
    -10.027 -0.9727E-09 -0.6736E-10 -0.5231E-10 -0.3529E-11
     -9.982 -0.5459E-08 -0.4424E-09 -0.2998E-09 -0.2359E-10
     -9.937 -0.2742E-07 -0.2605E-08 -0.1543E-08 -0.1417E-09
     -9.891 -0.1232E-06 -0.1374E-07 -0.7128E-08 -0.7645E-09
     -9.846 -0.4935E-06 -0.6479E-07 -0.2950E-07 -0.3703E-08
     -9.801 -0.1760E-05 -0.2730E-06 -0.1093E-06 -0.1608E-07
     -9.755 -0.5568E-05 -0.1025E-05 -0.3618E-06 -0.6254E-07
     -9.710 -0.1555E-04 -0.3418E-05 -0.1067E-05 -0.2175E-06
     -9.665 -0.3805E-04 -0.1009E-04 -0.2792E-05 -0.6748E-06
     -9.619 -0.8062E-04 -0.2618E-04 -0.6448E-05 -0.1862E-05
     -9.574 -0.1447E-03 -0.5918E-04 -0.1301E-04 -0.4545E-05
     -9.529 -0.2102E-03 -0.1146E-03 -0.2254E-04 -0.9743E-05
     -9.483 -0.2157E-03 -0.1842E-03 -0.3232E-04 -0.1810E-04
     -9.438 -0.5274E-04 -0.2266E-03 -0.3471E-04 -0.2837E-04
     -9.393  0.4025E-03 -0.1529E-03 -0.1646E-04 -0.3530E-04
     -9.347  0.1212E-02  0.1613E-03  0.3848E-04 -0.2799E-04
     -9.302  0.2284E-02  0.8169E-03  0.1421E-03  0.9049E-05
     -9.257  0.3348E-02  0.1800E-02  0.2939E-03  0.9065E-04
     -9.211  0.4036E-02  0.2916E-02  0.4769E-03  0.2229E-03
     -9.166  0.4064E-02  0.3826E-02  0.6612E-03  0.3964E-03
     -9.121  0.3386E-02  0.4196E-02  0.8147E-03  0.5866E-03
     -9.075  0.2231E-02  0.3874E-02  0.9159E-03  0.7623E-03
     -9.030  0.9894E-03  0.2978E-02  0.9607E-03  0.8973E-03
     -8.984  0.5914E-04  0.1826E-02  0.9634E-03  0.9801E-03
     -8.939 -0.2520E-03  0.7567E-03  0.9520E-03  0.1014E-02
     -8.894  0.2455E-03 -0.8688E-05  0.9631E-03  0.1014E-02
     -8.848  0.1620E-02 -0.3988E-03  0.1037E-02  0.9959E-03
     -8.803  0.3789E-02 -0.4227E-03  0.1208E-02  0.9768E-03
     -8.758  0.6498E-02 -0.9726E-04  0.1503E-02  0.9724E-03
     -8.712  0.9334E-02  0.5615E-03  0.1926E-02  0.9978E-03
     -8.667  0.1183E-01  0.1495E-02  0.2463E-02  0.1066E-02
     -8.622  0.1356E-01  0.2581E-02  0.3078E-02  0.1183E-02
     -8.576  0.1427E-01  0.3702E-02  0.3725E-02  0.1350E-02
     -8.531  0.1385E-01  0.4844E-02  0.4353E-02  0.1570E-02
     -8.486  0.1235E-01  0.6131E-02  0.4912E-02  0.1848E-02
     -8.440  0.9998E-02  0.7702E-02  0.5366E-02  0.2197E-02
     -8.395  0.7169E-02  0.9513E-02  0.5691E-02  0.2629E-02
     -8.350  0.4330E-02  0.1124E-01  0.5887E-02  0.3138E-02
     -8.304  0.1956E-02  0.1239E-01  0.5976E-02  0.3700E-02
     -8.259  0.4233E-03  0.1256E-01  0.5995E-02  0.4270E-02
     -8.214 -0.4939E-04  0.1161E-01  0.5993E-02  0.4796E-02
     -8.168  0.5993E-03  0.9753E-02  0.6020E-02  0.5239E-02
     -8.123  0.2321E-02  0.7409E-02  0.6125E-02  0.5575E-02
     -8.078  0.4989E-02  0.5095E-02  0.6351E-02  0.5806E-02
     -8.032  0.8376E-02  0.3273E-02  0.6731E-02  0.5954E-02
     -7.987  0.1210E-01  0.2233E-02  0.7280E-02  0.6055E-02
     -7.942  0.1560E-01  0.2018E-02  0.7987E-02  0.6147E-02
     -7.896  0.1831E-01  0.2474E-02  0.8818E-02  0.6259E-02
     -7.851  0.1988E-01  0.3422E-02  0.9719E-02  0.6414E-02
     -7.806  0.2039E-01  0.4842E-02  0.1064E-01  0.6634E-02
     -7.760  0.2029E-01  0.6886E-02  0.1156E-01  0.6946E-02
     -7.715  0.2011E-01  0.9677E-02  0.1248E-01  0.7385E-02
     -7.670  0.2009E-01  0.1304E-01  0.1339E-01  0.7976E-02
     -7.624  0.2011E-01  0.1644E-01  0.1430E-01  0.8722E-02
     -7.579  0.1998E-01  0.1918E-01  0.1520E-01  0.9591E-02
     -7.533  0.1965E-01  0.2072E-01  0.1610E-01  0.1053E-01
     -7.488  0.1929E-01  0.2093E-01  0.1697E-01  0.1148E-01
     -7.443  0.1906E-01  0.2002E-01  0.1784E-01  0.1239E-01
     -7.397  0.1897E-01  0.1845E-01  0.1870E-01  0.1322E-01
     -7.352  0.1885E-01  0.1682E-01  0.1955E-01  0.1399E-01
     -7.307  0.1862E-01  0.1566E-01  0.2039E-01  0.1470E-01
     -7.261  0.1835E-01  0.1538E-01  0.2123E-01  0.1539E-01
     -7.216  0.1823E-01  0.1599E-01  0.2205E-01  0.1612E-01
     -7.171  0.1832E-01  0.1714E-01  0.2288E-01  0.1690E-01
     -7.125  0.1843E-01  0.1829E-01  0.2372E-01  0.1773E-01
     -7.080  0.1818E-01  0.1905E-01  0.2454E-01  0.1859E-01
     -7.035  0.1732E-01  0.1935E-01  0.2533E-01  0.1947E-01
     -6.989  0.1601E-01  0.1940E-01  0.2605E-01  0.2035E-01
     -6.944  0.1473E-01  0.1947E-01  0.2672E-01  0.2123E-01
     -6.899  0.1412E-01  0.1961E-01  0.2736E-01  0.2212E-01
     -6.853  0.1450E-01  0.1959E-01  0.2802E-01  0.2301E-01
     -6.808  0.1572E-01  0.1905E-01  0.2873E-01  0.2387E-01
     -6.763  0.1721E-01  0.1780E-01  0.2951E-01  0.2468E-01
     -6.717  0.1823E-01  0.1600E-01  0.3034E-01  0.2540E-01
     -6.672  0.1835E-01  0.1413E-01  0.3117E-01  0.2604E-01
     -6.627  0.1764E-01  0.1280E-01  0.3197E-01  0.2662E-01
     -6.581  0.1660E-01  0.1246E-01  0.3272E-01  0.2719E-01
     -6.536  0.1580E-01  0.1322E-01  0.3344E-01  0.2779E-01
     -6.491  0.1550E-01  0.1484E-01  0.3414E-01  0.2846E-01
     -6.445  0.1552E-01  0.1679E-01  0.3485E-01  0.2922E-01
     -6.400  0.1545E-01  0.1842E-01  0.3555E-01  0.3006E-01
     -6.355  0.1499E-01  0.1921E-01  0.3623E-01  0.3093E-01
     -6.309  0.1420E-01  0.1901E-01  0.3687E-01  0.3179E-01
     -6.264  0.1347E-01  0.1812E-01  0.3748E-01  0.3261E-01
     -6.219  0.1326E-01  0.1711E-01  0.3808E-01  0.3339E-01
     -6.173  0.1379E-01  0.1640E-01  0.3871E-01  0.3413E-01
     -6.128  0.1498E-01  0.1604E-01  0.3939E-01  0.3486E-01
     -6.082  0.1646E-01  0.1579E-01  0.4013E-01  0.3558E-01
     -6.037  0.1782E-01  0.1540E-01  0.4094E-01  0.3627E-01
     -5.992  0.1876E-01  0.1490E-01  0.4179E-01  0.3695E-01
     -5.946  0.1919E-01  0.1459E-01  0.4266E-01  0.3761E-01
     -5.901  0.1921E-01  0.1480E-01  0.4353E-01  0.3828E-01
     -5.856  0.1904E-01  0.1561E-01  0.4440E-01  0.3899E-01
     -5.810  0.1892E-01  0.1677E-01  0.4526E-01  0.3975E-01
     -5.765  0.1901E-01  0.1790E-01  0.4612E-01  0.4056E-01
     -5.720  0.1931E-01  0.1867E-01  0.4699E-01  0.4141E-01
     -5.674  0.1968E-01  0.1896E-01  0.4789E-01  0.4227E-01
     -5.629  0.1992E-01  0.1881E-01  0.4879E-01  0.4312E-01
     -5.584  0.1992E-01  0.1834E-01  0.4969E-01  0.4395E-01
     -5.538  0.1977E-01  0.1773E-01  0.5059E-01  0.4476E-01
     -5.493  0.1974E-01  0.1725E-01  0.5148E-01  0.4554E-01
     -5.448  0.2018E-01  0.1720E-01  0.5240E-01  0.4632E-01
     -5.402  0.2134E-01  0.1772E-01  0.5337E-01  0.4712E-01
     -5.357  0.2331E-01  0.1864E-01  0.5442E-01  0.4797E-01
     -5.312  0.2587E-01  0.1955E-01  0.5560E-01  0.4885E-01
     -5.266  0.2854E-01  0.2008E-01  0.5689E-01  0.4977E-01
     -5.221  0.3066E-01  0.2016E-01  0.5828E-01  0.5068E-01
     -5.176  0.3172E-01  0.2013E-01  0.5972E-01  0.5159E-01
     -5.130  0.3156E-01  0.2058E-01  0.6115E-01  0.5253E-01
     -5.085  0.3047E-01  0.2196E-01  0.6253E-01  0.5352E-01
     -5.040  0.2904E-01  0.2438E-01  0.6385E-01  0.5463E-01
     -4.994  0.2794E-01  0.2741E-01  0.6512E-01  0.5587E-01
     -4.949  0.2775E-01  0.3028E-01  0.6637E-01  0.5724E-01
     -4.904  0.2893E-01  0.3214E-01  0.6769E-01  0.5870E-01
     -4.858  0.3158E-01  0.3248E-01  0.6912E-01  0.6017E-01
     -4.813  0.3535E-01  0.3139E-01  0.7072E-01  0.6160E-01
     -4.768  0.3922E-01  0.2949E-01  0.7250E-01  0.6293E-01
     -4.722  0.4187E-01  0.2763E-01  0.7440E-01  0.6419E-01
     -4.677  0.4216E-01  0.2649E-01  0.7631E-01  0.6539E-01
     -4.631  0.3973E-01  0.2636E-01  0.7811E-01  0.6658E-01
     -4.586  0.3513E-01  0.2714E-01  0.7970E-01  0.6781E-01
     -4.541  0.2939E-01  0.2850E-01  0.8104E-01  0.6911E-01
     -4.495  0.2345E-01  0.2999E-01  0.8210E-01  0.7047E-01
     -4.450  0.1784E-01  0.3111E-01  0.8291E-01  0.7188E-01
     -4.405  0.1272E-01  0.3134E-01  0.8348E-01  0.7330E-01
     -4.359  0.8202E-02  0.3037E-01  0.8386E-01  0.7467E-01
     -4.314  0.4462E-02  0.2828E-01  0.8406E-01  0.7596E-01
     -4.269  0.1715E-02  0.2554E-01  0.8414E-01  0.7711E-01
     -4.223  0.3527E-04  0.2282E-01  0.8414E-01  0.7815E-01
     -4.178 -0.7245E-03  0.2069E-01  0.8411E-01  0.7909E-01
     -4.133 -0.8713E-03  0.1933E-01  0.8407E-01  0.7996E-01
     -4.087 -0.7343E-03  0.1853E-01  0.8403E-01  0.8080E-01
     -4.042 -0.5514E-03  0.1779E-01  0.8401E-01  0.8161E-01
     -3.997 -0.4269E-03  0.1651E-01  0.8399E-01  0.8236E-01
     -3.951 -0.3432E-03  0.1429E-01  0.8397E-01  0.8301E-01
     -3.906 -0.1953E-03  0.1112E-01  0.8396E-01  0.8351E-01
     -3.861  0.1559E-03  0.7461E-02  0.8397E-01  0.8385E-01
     -3.815  0.8059E-03  0.3996E-02  0.8401E-01  0.8403E-01
     -3.770  0.1723E-02  0.1332E-02  0.8409E-01  0.8409E-01
     -3.725  0.2722E-02 -0.2286E-03  0.8421E-01  0.8408E-01
     -3.679  0.3547E-02 -0.7080E-03  0.8437E-01  0.8405E-01
     -3.634  0.4051E-02 -0.3245E-03  0.8455E-01  0.8403E-01
     -3.589  0.4331E-02  0.6279E-03  0.8475E-01  0.8406E-01
     -3.543  0.4684E-02  0.1833E-02  0.8496E-01  0.8415E-01
     -3.498  0.5366E-02  0.2987E-02  0.8521E-01  0.8428E-01
     -3.453  0.6340E-02  0.3886E-02  0.8549E-01  0.8446E-01
     -3.407  0.7216E-02  0.4523E-02  0.8582E-01  0.8466E-01
     -3.362  0.7495E-02  0.5091E-02  0.8616E-01  0.8489E-01
     -3.317  0.6921E-02  0.5807E-02  0.8647E-01  0.8516E-01
     -3.271  0.5701E-02  0.6680E-02  0.8673E-01  0.8546E-01
     -3.226  0.4403E-02  0.7423E-02  0.8693E-01  0.8580E-01
     -3.180  0.3621E-02  0.7624E-02  0.8710E-01  0.8614E-01
     -3.135  0.3645E-02  0.7076E-02  0.8726E-01  0.8646E-01
     -3.090  0.4339E-02  0.5982E-02  0.8746E-01  0.8673E-01
     -3.044  0.5272E-02  0.4877E-02  0.8770E-01  0.8696E-01
     -2.999  0.5967E-02  0.4296E-02  0.8797E-01  0.8715E-01
     -2.954  0.6124E-02  0.4460E-02  0.8825E-01  0.8735E-01
     -2.908  0.5719E-02  0.5163E-02  0.8851E-01  0.8759E-01
     -2.863  0.4983E-02  0.5936E-02  0.8873E-01  0.8786E-01
     -2.818  0.4273E-02  0.6320E-02  0.8892E-01  0.8814E-01
     -2.772  0.3884E-02  0.6106E-02  0.8910E-01  0.8842E-01
     -2.727  0.3875E-02  0.5411E-02  0.8928E-01  0.8866E-01
     -2.682  0.4027E-02  0.4591E-02  0.8946E-01  0.8887E-01
     -2.636  0.3996E-02  0.4018E-02  0.8964E-01  0.8905E-01
     -2.591  0.3543E-02  0.3859E-02  0.8980E-01  0.8923E-01
     -2.546  0.2681E-02  0.3973E-02  0.8992E-01  0.8941E-01
     -2.500  0.1648E-02  0.4022E-02  0.9000E-01  0.8959E-01
     -2.455  0.7355E-03  0.3701E-02  0.9003E-01  0.8976E-01
     -2.410  0.1238E-03  0.2943E-02  0.9004E-01  0.8989E-01
     -2.364 -0.1678E-03  0.1932E-02  0.9003E-01  0.8998E-01
     -2.319 -0.2318E-03  0.9634E-03  0.9002E-01  0.9002E-01
     -2.274 -0.1865E-03  0.2600E-03  0.9001E-01  0.9004E-01
     -2.228 -0.1184E-03 -0.1145E-03  0.9000E-01  0.9003E-01
     -2.183 -0.6981E-04 -0.2298E-03  0.9000E-01  0.9002E-01
     -2.138 -0.5421E-04 -0.2044E-03  0.9000E-01  0.9001E-01
     -2.092 -0.7452E-04 -0.1369E-03  0.9000E-01  0.9001E-01
     -2.047 -0.1315E-03 -0.8139E-04  0.8999E-01  0.9000E-01
     -2.002 -0.2167E-03 -0.5779E-04  0.8998E-01  0.9000E-01
     -1.956 -0.2941E-03 -0.7146E-04  0.8997E-01  0.9000E-01
     -1.911 -0.2809E-03 -0.1248E-03  0.8995E-01  0.8999E-01
     -1.865 -0.4942E-04 -0.2137E-03  0.8995E-01  0.8998E-01
     -1.820  0.5335E-03 -0.3096E-03  0.8998E-01  0.8997E-01
     -1.775  0.1536E-02 -0.3366E-03  0.9005E-01  0.8995E-01
     -1.729  0.2898E-02 -0.1624E-03  0.9018E-01  0.8994E-01
     -1.684  0.4432E-02  0.3722E-03  0.9038E-01  0.8996E-01
     -1.639  0.5889E-02  0.1381E-02  0.9064E-01  0.9002E-01
     -1.593  0.7055E-02  0.2849E-02  0.9096E-01  0.9015E-01
     -1.548  0.7816E-02  0.4591E-02  0.9132E-01  0.9036E-01
     -1.503  0.8149E-02  0.6300E-02  0.9169E-01  0.9065E-01
     -1.457  0.8095E-02  0.7657E-02  0.9206E-01  0.9099E-01
     -1.412  0.7727E-02  0.8452E-02  0.9241E-01  0.9138E-01
     -1.367  0.7150E-02  0.8636E-02  0.9273E-01  0.9177E-01
     -1.321  0.6515E-02  0.8303E-02  0.9303E-01  0.9215E-01
     -1.276  0.6018E-02  0.7633E-02  0.9330E-01  0.9249E-01
     -1.231  0.5896E-02  0.6844E-02  0.9357E-01  0.9280E-01
     -1.185  0.6378E-02  0.6176E-02  0.9385E-01  0.9308E-01
     -1.140  0.7593E-02  0.5900E-02  0.9420E-01  0.9335E-01
     -1.095  0.9476E-02  0.6306E-02  0.9463E-01  0.9363E-01
     -1.049  0.1174E-01  0.7624E-02  0.9516E-01  0.9398E-01
     -1.004  0.1393E-01  0.9872E-02  0.9579E-01  0.9443E-01
     -0.959  0.1559E-01  0.1273E-01  0.9650E-01  0.9501E-01
     -0.913  0.1636E-01  0.1553E-01  0.9724E-01  0.9571E-01
     -0.868  0.1603E-01  0.1753E-01  0.9797E-01  0.9650E-01
     -0.823  0.1457E-01  0.1815E-01  0.9863E-01  0.9733E-01
     -0.777  0.1217E-01  0.1719E-01  0.9918E-01  0.9811E-01
     -0.732  0.9170E-02  0.1488E-01  0.9960E-01  0.9878E-01
     -0.687  0.6070E-02  0.1174E-01  0.9987E-01  0.9931E-01
     -0.641  0.3347E-02  0.8335E-02  0.1000E+00  0.9969E-01
     -0.596  0.1326E-02  0.5182E-02  0.1001E+00  0.9993E-01
     -0.551  0.1001E-03  0.2646E-02  0.1001E+00  0.1000E+00
     -0.505 -0.4546E-03  0.8955E-03  0.1001E+00  0.1001E+00
     -0.460 -0.5784E-03 -0.9608E-04  0.1000E+00  0.1001E+00
     -0.414 -0.5130E-03 -0.5036E-03  0.1000E+00  0.1001E+00
     -0.369 -0.4248E-03 -0.5641E-03  0.1000E+00  0.1000E+00
     -0.324 -0.3772E-03 -0.4909E-03  0.9998E-01  0.1000E+00
     -0.278 -0.3367E-03 -0.4176E-03  0.9997E-01  0.9999E-01
     -0.233 -0.1975E-03 -0.3800E-03  0.9996E-01  0.9998E-01
     -0.188  0.1731E-03 -0.3232E-03  0.9997E-01  0.9996E-01
     -0.142  0.8655E-03 -0.1283E-03  0.1000E+00  0.9996E-01
     -0.097  0.1862E-02  0.3348E-03  0.1001E+00  0.9997E-01
     -0.052  0.3024E-02  0.1135E-02  0.1002E+00  0.1000E+00
     -0.006  0.4175E-02  0.2224E-02  0.1004E+00  0.1001E+00
      0.039  0.5225E-02  0.3450E-02  0.1007E+00  0.1003E+00
      0.084  0.6238E-02  0.4650E-02  0.1009E+00  0.1005E+00
      0.130  0.7358E-02  0.5764E-02  0.1013E+00  0.1008E+00
      0.175  0.8628E-02  0.6867E-02  0.1017E+00  0.1011E+00
      0.220  0.9839E-02  0.8054E-02  0.1021E+00  0.1014E+00
      0.266  0.1055E-01  0.9275E-02  0.1026E+00  0.1018E+00
      0.311  0.1033E-01  0.1024E-01  0.1031E+00  0.1023E+00
      0.356  0.8991E-02  0.1052E-01  0.1035E+00  0.1028E+00
      0.402  0.6789E-02  0.9792E-02  0.1038E+00  0.1032E+00
      0.447  0.4282E-02  0.8056E-02  0.1040E+00  0.1036E+00
      0.492  0.2074E-02  0.5695E-02  0.1041E+00  0.1039E+00
      0.538  0.5416E-03  0.3296E-02  0.1041E+00  0.1040E+00
      0.583 -0.2563E-03  0.1371E-02  0.1041E+00  0.1041E+00
      0.628 -0.5001E-03  0.1607E-03  0.1040E+00  0.1041E+00
      0.674 -0.4454E-03 -0.3853E-03  0.1040E+00  0.1041E+00
      0.719 -0.2966E-03 -0.4872E-03  0.1040E+00  0.1040E+00
      0.764 -0.1628E-03 -0.3831E-03  0.1040E+00  0.1040E+00
      0.810 -0.7641E-04 -0.2369E-03  0.1040E+00  0.1040E+00
      0.855 -0.3122E-04 -0.1229E-03  0.1040E+00  0.1040E+00
      0.900 -0.1122E-04 -0.5502E-04  0.1040E+00  0.1040E+00
      0.946 -0.3571E-05 -0.2155E-04  0.1040E+00  0.1040E+00
      0.991 -0.1010E-05 -0.7451E-05  0.1040E+00  0.1040E+00
      1.037 -0.2548E-06 -0.2285E-05  0.1040E+00  0.1040E+00
      1.082 -0.5744E-07 -0.6242E-06  0.1040E+00  0.1040E+00
      1.127 -0.1159E-07 -0.1522E-06  0.1040E+00  0.1040E+00
      1.173 -0.2095E-08 -0.3321E-07  0.1040E+00  0.1040E+00
      1.218 -0.3399E-09 -0.6490E-08  0.1040E+00  0.1040E+00
      1.263 -0.4952E-10 -0.1137E-08  0.1040E+00  0.1040E+00
      1.309 -0.6482E-11 -0.1790E-09  0.1040E+00  0.1040E+00
      1.354 -0.7627E-12 -0.2530E-10  0.1040E+00  0.1040E+00
      1.399 -0.8074E-13 -0.3214E-11  0.1040E+00  0.1040E+00
      1.445 -0.7683E-14 -0.3673E-12  0.1040E+00  0.1040E+00
      1.490 -0.6611E-15 -0.3774E-13  0.1040E+00  0.1040E+00
      1.535 -0.4897E-16 -0.3496E-14  0.1040E+00  0.1040E+00
      1.581 -0.4897E-17 -0.2889E-15  0.1040E+00  0.1040E+00
      1.626  0.0000E+00 -0.2448E-16  0.1040E+00  0.1040E+00
      1.671  0.0000E+00  0.0000E+00  0.1040E+00  0.1040E+00
      1.717  0.0000E+00  0.0000E+00  0.1040E+00  0.1040E+00
      1.762  0.0000E+00  0.0000E+00  0.1040E+00  0.1040E+00
      1.807  0.0000E+00  0.0000E+00  0.1040E+00  0.1040E+00
      1.853  0.0000E+00  0.0000E+00  0.1040E+00  0.1040E+00
      1.898  0.0000E+00  0.0000E+00  0.1040E+00  0.1040E+00
      1.943  0.0000E+00  0.0000E+00  0.1040E+00  0.1040E+00
      1.989  0.0000E+00  0.0000E+00  0.1040E+00  0.1040E+00
      2.034  0.0000E+00  0.0000E+00  0.1040E+00  0.1040E+00
      2.079  0.0000E+00  0.0000E+00  0.1040E+00  0.1040E+00
      2.125  0.0000E+00  0.0000E+00  0.1040E+00  0.1040E+00
      2.170  0.0000E+00  0.0000E+00  0.1040E+00  0.1040E+00
      2.215  0.0000E+00  0.0000E+00  0.1040E+00  0.1040E+00
      2.261  0.0000E+00  0.0000E+00  0.1040E+00  0.1040E+00
      2.306  0.0000E+00  0.0000E+00  0.1040E+00  0.1040E+00
      2.351  0.0000E+00  0.0000E+00  0.1040E+00  0.1040E+00
      2.397  0.0000E+00  0.0000E+00  0.1040E+00  0.1040E+00
