   16   16 1000    2
  0.8509633E+03  0.2385720E-08  0.2392332E-08  0.2385558E-08  0.5000000E-15
   1.0000000000000000E-004
  CAR 
 unknown system                          
    160      1    104
 
  0.1262379E-14  0.1262379E-14  0.1262379E-14  0.1000000E+01
    1       -9.206335     -9.141183   1.000000   1.000000
    2       -8.738867     -8.562564   1.000000   1.000000
    3       -8.659756     -8.368352   1.000000   1.000000
    4       -8.591870     -8.330094   1.000000   1.000000
    5       -8.525937     -8.252911   1.000000   1.000000
    6       -8.442970     -8.147708   1.000000   1.000000
    7       -8.055135     -7.853511   1.000000   1.000000
    8       -7.939222     -7.670372   1.000000   1.000000
    9       -7.907496     -7.604788   1.000000   1.000000
   10       -7.867816     -7.596734   1.000000   1.000000
   11       -7.834753     -7.564310   1.000000   1.000000
   12       -7.790750     -7.476358   1.000000   1.000000
   13       -7.666749     -7.445195   1.000000   1.000000
   14       -7.657636     -7.383623   1.000000   1.000000
   15       -7.628069     -7.353637   1.000000   1.000000
   16       -7.594916     -7.220140   1.000000   1.000000
   17       -7.506270     -7.170394   1.000000   1.000000
   18       -7.443708     -7.160156   1.000000   1.000000
   19       -7.410831     -7.088379   1.000000   1.000000
   20       -7.355229     -7.028618   1.000000   1.000000
   21       -7.301376     -6.994086   1.000000   1.000000
   22       -7.268953     -6.922921   1.000000   1.000000
   23       -7.163387     -6.861524   1.000000   1.000000
   24       -7.126856     -6.826981   1.000000   1.000000
   25       -7.083181     -6.771226   1.000000   1.000000
   26       -7.054093     -6.756195   1.000000   1.000000
   27       -6.966384     -6.617234   1.000000   1.000000
   28       -6.889603     -6.566031   1.000000   1.000000
   29       -6.787678     -6.469331   1.000000   1.000000
   30       -6.756750     -6.409845   1.000000   1.000000
   31       -6.709203     -6.364495   1.000000   1.000000
   32       -6.677705     -6.348204   1.000000   1.000000
   33       -6.612597     -6.303372   1.000000   1.000000
   34       -6.513523     -6.193729   1.000000   1.000000
   35       -6.459009     -6.142382   1.000000   1.000000
   36       -6.387367     -6.071133   1.000000   1.000000
   37       -6.373683     -6.057033   1.000000   1.000000
   38       -6.265649     -5.959219   1.000000   1.000000
   39       -6.173110     -5.861459   1.000000   1.000000
   40       -6.111137     -5.822949   1.000000   1.000000
   41       -6.066312     -5.769723   1.000000   1.000000
   42       -5.986983     -5.716394   1.000000   1.000000
   43       -5.979864     -5.676310   1.000000   1.000000
   44       -5.899917     -5.582166   1.000000   1.000000
   45       -5.853605     -5.557838   1.000000   1.000000
   46       -5.804379     -5.534212   1.000000   1.000000
   47       -5.737092     -5.420392   1.000000   1.000000
   48       -5.688398     -5.355227   1.000000   1.000000
   49       -5.638615     -5.335529   1.000000   1.000000
   50       -5.600928     -5.283744   1.000000   1.000000
   51       -5.563616     -5.248841   1.000000   1.000000
   52       -5.480157     -5.189974   1.000000   1.000000
   53       -5.433906     -5.113312   1.000000   1.000000
   54       -5.418459     -5.102533   1.000000   1.000000
   55       -5.339553     -5.030926   1.000000   1.000003
   56       -5.301368     -4.975595   1.000000   1.000015
   57       -5.270415     -4.971071   1.000000   1.000018
   58       -5.231931     -4.932713   1.000000   1.000056
   59       -5.215946     -4.916672   1.000000   1.000088
   60       -5.189357     -4.878045   1.000000   1.000250
   61       -5.163362     -4.857671   1.000000   1.000419
   62       -5.121896     -4.836242   1.000000   1.000704
   63       -5.106966     -4.794871   1.000000   1.001778
   64       -5.053450     -4.751167   1.000001   1.004237
   65       -5.015782     -4.719208   1.000004   1.007414
   66       -4.978010     -4.654912   1.000014   1.018477
   67       -4.937229     -4.623610   1.000049   1.025604
   68       -4.920832     -4.592684   1.000078   1.032115
   69       -4.894554     -4.574823   1.000162   1.034648
   70       -4.826587     -4.526164   1.000882   1.030138
   71       -4.785311     -4.490421   1.002172   1.007621
   72       -4.766242     -4.434659   1.003182   0.920173
   73       -4.751311     -4.415321   1.004226   0.872102
   74       -4.731893     -4.403214   1.005985   0.837281
   75       -4.717626     -4.371786   1.007609   0.731400
   76       -4.706427     -4.357617   1.009101   0.677477
   77       -4.687661     -4.317963   1.012048   0.514277
   78       -4.672902     -4.238953   1.014758   0.203920
   79       -4.630925     -4.200259   1.023914   0.093115
   80       -4.601704     -4.164614   1.030402   0.023912
   81       -4.582485     -4.098851   1.033731  -0.031484
   82       -4.495089     -4.018759   1.011828  -0.028571
   83       -4.480747     -3.983620   0.997511  -0.020554
   84       -4.425940     -3.951986   0.899664  -0.013936
   85       -3.661328     -3.456794  -0.000020  -0.000000
   86       -3.419803     -3.234770  -0.000000  -0.000000
   87       -3.345466     -3.163540  -0.000000  -0.000000
   88       -3.068285     -2.907039  -0.000000  -0.000000
   89       -2.919164     -2.770405  -0.000000  -0.000000
   90       -2.661242     -2.512534  -0.000000  -0.000000
   91       -1.661045     -1.516648  -0.000000  -0.000000
   92       -1.525539     -1.403515  -0.000000  -0.000000
   93       -1.408975     -1.285865  -0.000000  -0.000000
   94       -1.253539     -1.128344  -0.000000  -0.000000
   95       -1.069639     -0.956564  -0.000000  -0.000000
   96       -1.039669     -0.923224  -0.000000  -0.000000
   97       -0.930644     -0.852552  -0.000000  -0.000000
   98       -0.915328     -0.836676  -0.000000  -0.000000
   99       -0.835155     -0.762473  -0.000000  -0.000000
  100       -0.763752     -0.679697  -0.000000  -0.000000
  101       -0.000298      0.076265  -0.000000  -0.000000
  102        0.170106      0.240236  -0.000000  -0.000000
  103        0.286512      0.352737  -0.000000  -0.000000
  104        0.319680      0.396828  -0.000000  -0.000000
