       N       E                     dE             d eps       ncg     rms          rms(c)
DAV:   1     0.143800034396E+04    0.14380E+04   -0.27704E+04   416   0.742E+02
DAV:   2     0.720627892426E+03   -0.71737E+03   -0.64690E+03   800   0.898E+01
DAV:   3     0.116707977696E+03   -0.60392E+03   -0.56165E+03   688   0.846E+01
DAV:   4    -0.420341418009E+02   -0.15874E+03   -0.14426E+03   544   0.483E+01
DAV:   5    -0.640769579252E+02   -0.22043E+02   -0.18159E+02   552   0.164E+01    0.270E+01
DAV:   6    -0.552942144632E+02    0.87827E+01   -0.40128E+01   448   0.160E+01    0.163E+01
DAV:   7    -0.571153833430E+02   -0.18212E+01   -0.26906E+01   456   0.351E+01    0.270E+01
DAV:   8    -0.516336267598E+02    0.54818E+01   -0.31207E+01   456   0.287E+01    0.187E+01
DAV:   9    -0.487813419639E+02    0.28523E+01   -0.13316E+01   456   0.184E+01    0.136E+01
DAV:  10    -0.478543605520E+02    0.92698E+00   -0.68683E+00   456   0.130E+01    0.767E+00
DAV:  11    -0.488904752670E+02   -0.10361E+01   -0.25462E+00   448   0.903E+00    0.585E+00
DAV:  12    -0.498901947627E+02   -0.99972E+00   -0.89495E-01   432   0.553E+00    0.429E+00
DAV:  13    -0.512066046691E+02   -0.13164E+01   -0.53583E-01   448   0.331E+00    0.344E+00
DAV:  14    -0.533894278454E+02   -0.21828E+01   -0.75338E-01   448   0.341E+00    0.285E+00
DAV:  15    -0.545453624445E+02   -0.11559E+01   -0.33929E-01   456   0.295E+00    0.266E+00
DAV:  16    -0.551425242808E+02   -0.59716E+00   -0.17899E-01   456   0.233E+00    0.209E+00
DAV:  17    -0.560804655953E+02   -0.93794E+00   -0.19692E-01   448   0.181E+00    0.148E+00
DAV:  18    -0.570119152121E+02   -0.93145E+00   -0.18159E-01   456   0.160E+00    0.128E+00
DAV:  19    -0.579978649254E+02   -0.98595E+00   -0.18302E-01   440   0.128E+00    0.109E+00
DAV:  20    -0.584809141504E+02   -0.48305E+00   -0.55942E-02   456   0.968E-01    0.768E-01
DAV:  21    -0.592456709575E+02   -0.76476E+00   -0.93765E-02   424   0.864E-01    0.624E-01
DAV:  22    -0.598687854429E+02   -0.62311E+00   -0.69026E-02   440   0.794E-01    0.649E-01
DAV:  23    -0.604513997940E+02   -0.58261E+00   -0.59802E-02   432   0.705E-01    0.451E-01
DAV:  24    -0.607667250068E+02   -0.31533E+00   -0.22566E-02   440   0.539E-01    0.340E-01
DAV:  25    -0.610697123299E+02   -0.30299E+00   -0.18606E-02   440   0.434E-01    0.296E-01
DAV:  26    -0.613812241110E+02   -0.31151E+00   -0.13901E-02   432   0.356E-01    0.292E-01
DAV:  27    -0.616228783632E+02   -0.24165E+00   -0.84433E-03   456   0.297E-01    0.142E-01
DAV:  28    -0.617763127432E+02   -0.15343E+00   -0.39717E-03   448   0.182E-01    0.146E-01
DAV:  29    -0.618659859224E+02   -0.89673E-01   -0.17188E-03   456   0.155E-01    0.106E-01
DAV:  30    -0.619677490757E+02   -0.10176E+00   -0.25023E-03   424   0.120E-01    0.787E-02
DAV:  31    -0.620104180111E+02   -0.42669E-01   -0.82042E-04   384   0.824E-02    0.423E-02
DAV:  32    -0.620302106215E+02   -0.19793E-01   -0.22050E-04   336   0.539E-02    0.305E-02
DAV:  33    -0.620424572626E+02   -0.12247E-01   -0.13849E-04   304   0.286E-02    0.214E-02
DAV:  34    -0.620491172434E+02   -0.66600E-02   -0.11289E-04   304   0.263E-02    0.166E-02
DAV:  35    -0.620519834442E+02   -0.28662E-02   -0.76599E-05   296   0.241E-02    0.181E-02
DAV:  36    -0.620529509799E+02   -0.96754E-03   -0.59625E-05   304   0.203E-02    0.920E-03
DAV:  37    -0.620530926416E+02   -0.14166E-03   -0.40107E-05   288   0.127E-02    0.805E-03
DAV:  38    -0.620531890430E+02   -0.96401E-04   -0.22519E-05   304   0.112E-02
   1 F= -.62053189E+02 E0= -.62054969E+02  d E =-.620532E+02  mag=     7.6442
       N       E                     dE             d eps       ncg     rms          rms(c)
DAV:   1    -0.621797288169E+02   -0.12664E+00   -0.12058E+02   416   0.287E+01    0.285E+00
DAV:   2    -0.624021842449E+02   -0.22246E+00   -0.20786E+00   448   0.555E+00    0.412E+00
DAV:   3    -0.623684565057E+02    0.33728E-01   -0.61036E-01   432   0.486E+00    0.351E+00
DAV:   4    -0.623443009316E+02    0.24156E-01   -0.29151E-01   440   0.320E+00    0.266E+00
DAV:   5    -0.623071771040E+02    0.37124E-01   -0.12217E-01   416   0.203E+00    0.111E+00
DAV:   6    -0.623120837699E+02   -0.49067E-02   -0.90096E-02   448   0.164E+00    0.176E+00
DAV:   7    -0.622913501394E+02    0.20734E-01   -0.51979E-02   448   0.143E+00    0.784E-01
DAV:   8    -0.622880304265E+02    0.33197E-02   -0.14528E-02   432   0.817E-01    0.348E-01
DAV:   9    -0.622893541737E+02   -0.13237E-02   -0.37375E-03   432   0.361E-01    0.222E-01
DAV:  10    -0.622909764619E+02   -0.16223E-02   -0.17308E-03   448   0.240E-01    0.188E-01
DAV:  11    -0.622928783245E+02   -0.19019E-02   -0.97226E-04   384   0.172E-01    0.132E-01
DAV:  12    -0.622952198710E+02   -0.23415E-02   -0.39355E-04   296   0.109E-01    0.659E-02
DAV:  13    -0.622971575223E+02   -0.19377E-02   -0.13069E-04   272   0.603E-02    0.435E-02
DAV:  14    -0.623009831055E+02   -0.38256E-02   -0.14753E-04   288   0.419E-02    0.398E-02
DAV:  15    -0.623041327462E+02   -0.31496E-02   -0.84149E-05   296   0.387E-02    0.333E-02
DAV:  16    -0.623081502797E+02   -0.40175E-02   -0.11689E-04   288   0.302E-02    0.204E-02
DAV:  17    -0.623111480112E+02   -0.29977E-02   -0.57083E-05   288   0.209E-02    0.190E-02
DAV:  18    -0.623141193751E+02   -0.29714E-02   -0.65921E-05   288   0.206E-02    0.182E-02
DAV:  19    -0.623190833443E+02   -0.49640E-02   -0.17481E-04   320   0.218E-02    0.160E-02
DAV:  20    -0.623220156354E+02   -0.29323E-02   -0.90325E-05   304   0.191E-02    0.109E-02
DAV:  21    -0.623235268512E+02   -0.15112E-02   -0.45648E-05   304   0.142E-02    0.696E-03
DAV:  22    -0.623244824788E+02   -0.95563E-03   -0.31085E-05   280   0.104E-02    0.510E-03
DAV:  23    -0.623255407131E+02   -0.10582E-02   -0.31763E-05   296   0.972E-03    0.349E-03
DAV:  24    -0.623262596998E+02   -0.71899E-03   -0.24894E-05   264   0.854E-03    0.321E-03
DAV:  25    -0.623265900973E+02   -0.33040E-03   -0.14538E-05   280   0.670E-03    0.216E-03
DAV:  26    -0.623268339044E+02   -0.24381E-03   -0.85292E-06   272   0.457E-03    0.151E-03
DAV:  27    -0.623270282983E+02   -0.19439E-03   -0.49337E-06   264   0.359E-03    0.122E-03
DAV:  28    -0.623271221714E+02   -0.93873E-04   -0.27752E-06   264   0.279E-03
   2 F= -.62327122E+02 E0= -.62331027E+02  d E =-.273933E+00  mag=     7.9114
       N       E                     dE             d eps       ncg     rms          rms(c)
DAV:   1    -0.623120697885E+02    0.14959E-01   -0.49659E+01   416   0.184E+01    0.172E+00
DAV:   2    -0.624061484882E+02   -0.94079E-01   -0.88559E-01   440   0.361E+00    0.278E+00
DAV:   3    -0.623861904030E+02    0.19958E-01   -0.24222E-01   432   0.308E+00    0.208E+00
DAV:   4    -0.623791915083E+02    0.69989E-02   -0.10379E-01   432   0.190E+00    0.159E+00
DAV:   5    -0.623657662180E+02    0.13425E-01   -0.48102E-02   424   0.122E+00    0.673E-01
DAV:   6    -0.623672420450E+02   -0.14758E-02   -0.30886E-02   448   0.973E-01    0.104E+00
DAV:   7    -0.623605664865E+02    0.66756E-02   -0.19111E-02   432   0.859E-01    0.519E-01
DAV:   8    -0.623592519745E+02    0.13145E-02   -0.54349E-03   432   0.520E-01    0.230E-01
DAV:   9    -0.623598441245E+02   -0.59215E-03   -0.14853E-03   440   0.235E-01    0.144E-01
DAV:  10    -0.623604353673E+02   -0.59124E-03   -0.61723E-04   312   0.152E-01    0.112E-01
DAV:  11    -0.623611896453E+02   -0.75428E-03   -0.30581E-04   280   0.102E-01    0.720E-02
DAV:  12    -0.623622189732E+02   -0.10293E-02   -0.16762E-04   280   0.639E-02    0.363E-02
DAV:  13    -0.623628850584E+02   -0.66609E-03   -0.60502E-05   288   0.392E-02    0.223E-02
DAV:  14    -0.623640509386E+02   -0.11659E-02   -0.43072E-05   264   0.239E-02    0.197E-02
DAV:  15    -0.623651311427E+02   -0.10802E-02   -0.31357E-05   288   0.202E-02    0.182E-02
DAV:  16    -0.623665783579E+02   -0.14472E-02   -0.36659E-05   280   0.167E-02    0.123E-02
DAV:  17    -0.623676353051E+02   -0.10569E-02   -0.29866E-05   288   0.121E-02    0.959E-03
DAV:  18    -0.623685362915E+02   -0.90099E-03   -0.22474E-05   280   0.114E-02    0.852E-03
DAV:  19    -0.623702267906E+02   -0.16905E-02   -0.67830E-05   288   0.125E-02    0.906E-03
DAV:  20    -0.623714288634E+02   -0.12021E-02   -0.42583E-05   288   0.120E-02    0.605E-03
DAV:  21    -0.623720238575E+02   -0.59499E-03   -0.26442E-05   296   0.955E-03    0.371E-03
DAV:  22    -0.623724344415E+02   -0.41058E-03   -0.17916E-05   272   0.685E-03    0.275E-03
DAV:  23    -0.623728041369E+02   -0.36970E-03   -0.12513E-05   280   0.586E-03    0.186E-03
DAV:  24    -0.623732190960E+02   -0.41496E-03   -0.12103E-05   272   0.506E-03    0.149E-03
DAV:  25    -0.623733496654E+02   -0.13057E-03   -0.60271E-06   280   0.421E-03    0.118E-03
DAV:  26    -0.623734631667E+02   -0.11350E-03   -0.38690E-06   264   0.277E-03    0.798E-04
DAV:  27    -0.623735468828E+02   -0.83716E-04   -0.20683E-06   264   0.235E-03
   3 F= -.62373547E+02 E0= -.62379412E+02  d E =-.320358E+00  mag=     8.0507
       N       E                     dE             d eps       ncg     rms          rms(c)
DAV:   1    -0.623850582684E+02   -0.11595E-01   -0.88851E+00   416   0.778E+00    0.594E-01
DAV:   2    -0.624056036349E+02   -0.20545E-01   -0.18675E-01   440   0.194E+00    0.155E+00
DAV:   3    -0.623956434438E+02    0.99602E-02   -0.60303E-02   440   0.143E+00    0.533E-01
DAV:   4    -0.623963340037E+02   -0.69056E-03   -0.13427E-02   424   0.626E-01    0.526E-01
DAV:   5    -0.623953563453E+02    0.97766E-03   -0.37292E-03   424   0.378E-01    0.233E-01
DAV:   6    -0.623952981089E+02    0.58236E-04   -0.11435E-03   448   0.242E-01    0.172E-01
DAV:   7    -0.623952231963E+02    0.74913E-04   -0.11151E-03   448   0.181E-01    0.168E-01
DAV:   8    -0.623950515576E+02    0.17164E-03   -0.63395E-04   376   0.174E-01    0.896E-02
DAV:   9    -0.623950498750E+02    0.16826E-05   -0.25207E-04   264   0.976E-02
   4 F= -.62395050E+02 E0= -.62402550E+02  d E =-.215030E-01  mag=     8.0613
       N       E                     dE             d eps       ncg     rms          rms(c)
DAV:   1    -0.623553862691E+02    0.39665E-01   -0.49971E+01   416   0.185E+01    0.142E+00
DAV:   2    -0.624734364951E+02   -0.11805E+00   -0.10473E+00   432   0.460E+00    0.364E+00
DAV:   3    -0.624181643174E+02    0.55272E-01   -0.35160E-01   424   0.340E+00    0.129E+00
DAV:   4    -0.624192864614E+02   -0.11221E-02   -0.75897E-02   416   0.149E+00    0.120E+00
DAV:   5    -0.624142504135E+02    0.50360E-02   -0.21488E-02   432   0.894E-01    0.530E-01
DAV:   6    -0.624136864475E+02    0.56397E-03   -0.61094E-03   424   0.557E-01    0.405E-01
DAV:   7    -0.624138229871E+02   -0.13654E-03   -0.67841E-03   440   0.442E-01    0.438E-01
DAV:   8    -0.624130502865E+02    0.77270E-03   -0.41572E-03   448   0.424E-01    0.230E-01
DAV:   9    -0.624130607622E+02   -0.10476E-04   -0.12798E-03   440   0.244E-01    0.149E-01
DAV:  10    -0.624130074399E+02    0.53322E-04   -0.30266E-04   288   0.131E-01
   5 F= -.62413007E+02 E0= -.62423787E+02  d E =-.394606E-01  mag=     8.0874
       N       E                     dE             d eps       ncg     rms          rms(c)
DAV:   1    -0.624190780307E+02   -0.60173E-02   -0.73762E+00   416   0.708E+00    0.506E-01
DAV:   2    -0.624351078520E+02   -0.16030E-01   -0.14232E-01   440   0.167E+00    0.126E+00
DAV:   3    -0.624284445654E+02    0.66633E-02   -0.33733E-02   424   0.120E+00    0.406E-01
DAV:   4    -0.624291262733E+02   -0.68171E-03   -0.76227E-03   432   0.495E-01    0.392E-01
DAV:   5    -0.624286640134E+02    0.46226E-03   -0.34399E-03   432   0.314E-01    0.208E-01
DAV:   6    -0.624286415630E+02    0.22450E-04   -0.11363E-03   400   0.189E-01    0.157E-01
DAV:   7    -0.624288016743E+02   -0.16011E-03   -0.11658E-03   400   0.199E-01    0.212E-01
DAV:   8    -0.624286336017E+02    0.16807E-03   -0.67559E-04   360   0.173E-01    0.768E-02
DAV:   9    -0.624286942103E+02   -0.60609E-04   -0.18622E-04   272   0.897E-02
   6 F= -.62428694E+02 E0= -.62441091E+02  d E =-.156868E-01  mag=     8.1067
       N       E                     dE             d eps       ncg     rms          rms(c)
DAV:   1    -0.623699264021E+02    0.58707E-01   -0.66569E+01   416   0.213E+01    0.151E+00
DAV:   2    -0.625159827317E+02   -0.14606E+00   -0.12712E+00   432   0.497E+00    0.375E+00
DAV:   3    -0.624554156283E+02    0.60567E-01   -0.27995E-01   424   0.352E+00    0.110E+00
DAV:   4    -0.624579505969E+02   -0.25350E-02   -0.54913E-02   424   0.143E+00    0.107E+00
DAV:   5    -0.624541244265E+02    0.38262E-02   -0.23535E-02   424   0.902E-01    0.611E-01
DAV:   6    -0.624533075280E+02    0.81690E-03   -0.10803E-02   432   0.568E-01    0.494E-01
DAV:   7    -0.624543228657E+02   -0.10153E-02   -0.13436E-02   440   0.615E-01    0.670E-01
DAV:   8    -0.624516733264E+02    0.26495E-02   -0.75245E-03   440   0.533E-01    0.195E-01
DAV:   9    -0.624518230151E+02   -0.14969E-03   -0.14408E-03   448   0.233E-01    0.130E-01
DAV:  10    -0.624517806128E+02    0.42402E-04   -0.46314E-04   304   0.137E-01
   7 F= -.62451781E+02 E0= -.62467816E+02  d E =-.387732E-01  mag=     8.1362
       N       E                     dE             d eps       ncg     rms          rms(c)
DAV:   1    -0.624473816591E+02    0.44414E-02   -0.40553E+00   424   0.525E+00    0.404E-01
DAV:   2    -0.624568700997E+02   -0.94884E-02   -0.81804E-02   432   0.129E+00    0.102E+00
DAV:   3    -0.624525439767E+02    0.43261E-02   -0.21701E-02   424   0.944E-01    0.296E-01
DAV:   4    -0.624531058622E+02   -0.56189E-03   -0.42861E-03   424   0.393E-01    0.283E-01
DAV:   5    -0.624530166438E+02    0.89218E-04   -0.15540E-03   424   0.247E-01    0.149E-01
DAV:   6    -0.624531498686E+02   -0.13322E-03   -0.72006E-04   328   0.147E-01    0.133E-01
DAV:   7    -0.624534688413E+02   -0.31897E-03   -0.91007E-04   304   0.154E-01    0.158E-01
DAV:   8    -0.624536550284E+02   -0.18619E-03   -0.45176E-04   272   0.131E-01    0.567E-02
DAV:   9    -0.624538472239E+02   -0.19220E-03   -0.12075E-04   280   0.663E-02    0.332E-02
DAV:  10    -0.624539963709E+02   -0.14915E-03   -0.39072E-05   264   0.378E-02    0.189E-02
DAV:  11    -0.624541178498E+02   -0.12148E-03   -0.12069E-05   264   0.198E-02    0.167E-02
DAV:  12    -0.624543425664E+02   -0.22472E-03   -0.68047E-06   272   0.142E-02    0.100E-02
DAV:  13    -0.624546316230E+02   -0.28906E-03   -0.73861E-06   288   0.925E-03    0.932E-03
DAV:  14    -0.624548973830E+02   -0.26576E-03   -0.51462E-06   280   0.804E-03    0.621E-03
DAV:  15    -0.624551712872E+02   -0.27390E-03   -0.52287E-06   288   0.675E-03    0.450E-03
DAV:  16    -0.624554298182E+02   -0.25853E-03   -0.41564E-06   272   0.524E-03    0.369E-03
DAV:  17    -0.624557735962E+02   -0.34378E-03   -0.62402E-06   288   0.417E-03    0.295E-03
DAV:  18    -0.624560537250E+02   -0.28013E-03   -0.54744E-06   288   0.393E-03    0.214E-03
DAV:  19    -0.624564774007E+02   -0.42368E-03   -0.11225E-05   280   0.490E-03    0.202E-03
DAV:  20    -0.624567202310E+02   -0.24283E-03   -0.85766E-06   288   0.468E-03    0.122E-03
DAV:  21    -0.624568545167E+02   -0.13429E-03   -0.62183E-06   280   0.356E-03    0.714E-04
DAV:  22    -0.624569323026E+02   -0.77786E-04   -0.38413E-06   272   0.273E-03
   8 F= -.62456932E+02 E0= -.62473640E+02  d E =-.439249E-01  mag=     8.1729
       N       E                     dE             d eps       ncg     rms          rms(c)
DAV:   1    -0.624605801022E+02   -0.37256E-02   -0.62531E+00   416   0.653E+00    0.433E-01
DAV:   2    -0.624743474979E+02   -0.13767E-01   -0.11677E-01   448   0.141E+00    0.124E+00
DAV:   3    -0.624682019115E+02    0.61456E-02   -0.33546E-02   432   0.107E+00    0.383E-01
DAV:   4    -0.624686800668E+02   -0.47816E-03   -0.68570E-03   424   0.427E-01    0.285E-01
DAV:   5    -0.624682306899E+02    0.44938E-03   -0.19769E-03   456   0.260E-01    0.159E-01
DAV:   6    -0.624681660442E+02    0.64646E-04   -0.90135E-04   336   0.176E-01
   9 F= -.62468166E+02 E0= -.62486490E+02  d E =-.112337E-01  mag=     8.1830
       N       E                     dE             d eps       ncg     rms          rms(c)
DAV:   1    -0.624119241748E+02    0.56307E-01   -0.51288E+01   416   0.187E+01    0.121E+00
DAV:   2    -0.625153360192E+02   -0.10341E+00   -0.92087E-01   440   0.386E+00    0.308E+00
DAV:   3    -0.624804516106E+02    0.34884E-01   -0.24921E-01   424   0.285E+00    0.112E+00
DAV:   4    -0.624792538587E+02    0.11978E-02   -0.51862E-02   416   0.120E+00    0.788E-01
DAV:   5    -0.624759823685E+02    0.32715E-02   -0.13751E-02   432   0.712E-01    0.432E-01
DAV:   6    -0.624758498874E+02    0.13248E-03   -0.77798E-03   440   0.520E-01    0.517E-01
DAV:   7    -0.624731463430E+02    0.27035E-02   -0.77795E-03   456   0.493E-01    0.322E-01
DAV:   8    -0.624722247572E+02    0.92159E-03   -0.29602E-03   448   0.357E-01    0.166E-01
DAV:   9    -0.624722850244E+02   -0.60267E-04   -0.69389E-04   400   0.176E-01
  10 F= -.62472285E+02 E0= -.62493967E+02  d E =-.153527E-01  mag=     8.2246
       N       E                     dE             d eps       ncg     rms          rms(c)
DAV:   1    -0.624702660258E+02    0.19587E-02   -0.83334E+00   416   0.752E+00    0.445E-01
DAV:   2    -0.624843960307E+02   -0.14130E-01   -0.13872E-01   440   0.147E+00    0.859E-01
DAV:   3    -0.624826991228E+02    0.16969E-02   -0.26531E-02   432   0.972E-01    0.463E-01
DAV:   4    -0.624826226407E+02    0.76482E-04   -0.92833E-03   440   0.488E-01    0.326E-01
DAV:   5    -0.624825228802E+02    0.99760E-04   -0.21712E-03   440   0.268E-01    0.142E-01
DAV:   6    -0.624829814761E+02   -0.45860E-03   -0.78403E-04   432   0.163E-01    0.162E-01
DAV:   7    -0.624837589090E+02   -0.77743E-03   -0.10038E-03   440   0.183E-01    0.140E-01
DAV:   8    -0.624841805275E+02   -0.42162E-03   -0.44720E-04   296   0.147E-01    0.602E-02
DAV:   9    -0.624845811036E+02   -0.40058E-03   -0.10616E-04   280   0.623E-02    0.308E-02
DAV:  10    -0.624848512826E+02   -0.27018E-03   -0.26496E-05   272   0.309E-02    0.208E-02
DAV:  11    -0.624853450038E+02   -0.49372E-03   -0.15314E-05   280   0.194E-02    0.149E-02
DAV:  12    -0.624858698802E+02   -0.52488E-03   -0.14622E-05   288   0.149E-02    0.121E-02
DAV:  13    -0.624863398338E+02   -0.46995E-03   -0.11849E-05   288   0.123E-02    0.102E-02
DAV:  14    -0.624866573837E+02   -0.31755E-03   -0.81088E-06   272   0.105E-02    0.737E-03
DAV:  15    -0.624871615034E+02   -0.50412E-03   -0.10405E-05   280   0.830E-03    0.591E-03
DAV:  16    -0.624875725392E+02   -0.41104E-03   -0.82408E-06   296   0.660E-03    0.480E-03
DAV:  17    -0.624881775713E+02   -0.60503E-03   -0.13589E-05   288   0.584E-03    0.362E-03
DAV:  18    -0.624886322180E+02   -0.45465E-03   -0.12471E-05   288   0.602E-03    0.323E-03
DAV:  19    -0.624891783518E+02   -0.54613E-03   -0.19124E-05   288   0.634E-03    0.209E-03
DAV:  20    -0.624895350867E+02   -0.35673E-03   -0.16519E-05   280   0.594E-03    0.164E-03
DAV:  21    -0.624896636462E+02   -0.12856E-03   -0.95332E-06   280   0.467E-03    0.866E-04
DAV:  22    -0.624897655127E+02   -0.10187E-03   -0.58080E-06   272   0.323E-03    0.629E-04
DAV:  23    -0.624898356076E+02   -0.70095E-04   -0.32389E-06   256   0.253E-03
  11 F= -.62489836E+02 E0= -.62511741E+02  d E =-.175506E-01  mag=     8.2809
       N       E                     dE             d eps       ncg     rms          rms(c)
DAV:   1    -0.624538189334E+02    0.35947E-01   -0.33186E+01   416   0.150E+01    0.861E-01
DAV:   2    -0.625100432393E+02   -0.56224E-01   -0.54735E-01   456   0.292E+00    0.173E+00
DAV:   3    -0.625008046311E+02    0.92386E-02   -0.10884E-01   440   0.192E+00    0.898E-01
DAV:   4    -0.624992588790E+02    0.15458E-02   -0.31658E-02   432   0.921E-01    0.576E-01
DAV:   5    -0.624978506433E+02    0.14082E-02   -0.68850E-03   432   0.490E-01    0.293E-01
DAV:   6    -0.624980974282E+02   -0.24678E-03   -0.36958E-03   448   0.342E-01    0.365E-01
DAV:   7    -0.624976159607E+02    0.48147E-03   -0.50577E-03   448   0.374E-01    0.285E-01
DAV:   8    -0.624973802600E+02    0.23570E-03   -0.20712E-03   440   0.283E-01    0.110E-01
DAV:   9    -0.624973982968E+02   -0.18037E-04   -0.34136E-04   304   0.117E-01
  12 F= -.62497398E+02 E0= -.62519700E+02  d E =-.251133E-01  mag=     8.2873
       N       E                     dE             d eps       ncg     rms          rms(c)
DAV:   1    -0.624976734013E+02   -0.29314E-03   -0.64364E+00   416   0.660E+00    0.397E-01
DAV:   2    -0.625074675119E+02   -0.97941E-02   -0.10612E-01   424   0.122E+00    0.662E-01
DAV:   3    -0.625068079131E+02    0.65960E-03   -0.18699E-02   416   0.805E-01    0.409E-01
DAV:   4    -0.625066344835E+02    0.17343E-03   -0.61560E-03   416   0.413E-01    0.283E-01
DAV:   5    -0.625064508843E+02    0.18360E-03   -0.18397E-03   432   0.255E-01    0.151E-01
DAV:   6    -0.625066314016E+02   -0.18052E-03   -0.98450E-04   384   0.183E-01    0.175E-01
DAV:   7    -0.625066807874E+02   -0.49386E-04   -0.90674E-04   416   0.174E-01
  13 F= -.62506681E+02 E0= -.62528156E+02  d E =-.928249E-02  mag=     8.2875
       N       E                     dE             d eps       ncg     rms          rms(c)
DAV:   1    -0.624888411967E+02    0.17790E-01   -0.17393E+01   416   0.109E+01    0.634E-01
DAV:   2    -0.625146409056E+02   -0.25800E-01   -0.27872E-01   440   0.195E+00    0.978E-01
DAV:   3    -0.625135124922E+02    0.11284E-02   -0.43391E-02   424   0.124E+00    0.649E-01
DAV:   4    -0.625125102939E+02    0.10022E-02   -0.14839E-02   424   0.661E-01    0.449E-01
DAV:   5    -0.625118430748E+02    0.66722E-03   -0.45153E-03   440   0.399E-01    0.244E-01
DAV:   6    -0.625120955534E+02   -0.25248E-03   -0.29170E-03   456   0.306E-01    0.308E-01
DAV:   7    -0.625117433463E+02    0.35221E-03   -0.26757E-03   448   0.294E-01    0.190E-01
DAV:   8    -0.625116979871E+02    0.45359E-04   -0.96651E-04   448   0.200E-01
  14 F= -.62511698E+02 E0= -.62532043E+02  d E =-.142997E-01  mag=     8.2812
       N       E                     dE             d eps       ncg     rms          rms(c)
DAV:   1    -0.625070803297E+02    0.46630E-02   -0.88059E+00   416   0.771E+00    0.453E-01
DAV:   2    -0.625220004728E+02   -0.14920E-01   -0.14738E-01   440   0.150E+00    0.925E-01
DAV:   3    -0.625193378107E+02    0.26627E-02   -0.26940E-02   432   0.101E+00    0.432E-01
DAV:   4    -0.625193350732E+02    0.27376E-05   -0.69479E-03   432   0.478E-01    0.312E-01
DAV:   5    -0.625190969146E+02    0.23816E-03   -0.18776E-03   456   0.261E-01    0.184E-01
DAV:   6    -0.625191966971E+02   -0.99783E-04   -0.11412E-03   392   0.198E-01    0.190E-01
DAV:   7    -0.625192900851E+02   -0.93388E-04   -0.13271E-03   448   0.180E-01    0.128E-01
DAV:   8    -0.625193392132E+02   -0.49128E-04   -0.47984E-04   352   0.141E-01
  15 F= -.62519339E+02 E0= -.62539694E+02  d E =-.764123E-02  mag=     8.2829
       N       E                     dE             d eps       ncg     rms          rms(c)
DAV:   1    -0.624565141652E+02    0.62776E-01   -0.51096E+01   416   0.186E+01    0.106E+00
DAV:   2    -0.625420177834E+02   -0.85504E-01   -0.83680E-01   440   0.352E+00    0.209E+00
DAV:   3    -0.625289995360E+02    0.13018E-01   -0.14656E-01   440   0.232E+00    0.104E+00
DAV:   4    -0.625270934171E+02    0.19061E-02   -0.41819E-02   424   0.113E+00    0.764E-01
DAV:   5    -0.625250090668E+02    0.20844E-02   -0.10885E-02   448   0.622E-01    0.447E-01
DAV:   6    -0.625249939187E+02    0.15148E-04   -0.59241E-03   448   0.471E-01    0.438E-01
DAV:   7    -0.625241977046E+02    0.79621E-03   -0.66422E-03   448   0.413E-01    0.278E-01
DAV:   8    -0.625240276536E+02    0.17005E-03   -0.26322E-03   424   0.328E-01    0.139E-01
DAV:   9    -0.625240622948E+02   -0.34641E-04   -0.59592E-04   400   0.160E-01
  16 F= -.62524062E+02 E0= -.62544553E+02  d E =-.123643E-01  mag=     8.2963
       N       E                     dE             d eps       ncg     rms          rms(c)
DAV:   1    -0.625132359219E+02    0.10792E-01   -0.12639E+01   416   0.925E+00    0.509E-01
DAV:   2    -0.625327040201E+02   -0.19468E-01   -0.20108E-01   416   0.169E+00    0.834E-01
DAV:   3    -0.625316758314E+02    0.10282E-02   -0.28547E-02   416   0.105E+00    0.553E-01
DAV:   4    -0.625309778393E+02    0.69799E-03   -0.11223E-02   416   0.550E-01    0.363E-01
DAV:   5    -0.625305287175E+02    0.44912E-03   -0.28258E-03   416   0.298E-01    0.170E-01
DAV:   6    -0.625305504933E+02   -0.21776E-04   -0.95791E-04   440   0.184E-01
  17 F= -.62530550E+02 E0= -.62550496E+02  d E =-.648820E-02  mag=     8.3072
       N       E                     dE             d eps       ncg     rms          rms(c)
DAV:   1    -0.624638169251E+02    0.66712E-01   -0.50784E+01   416   0.186E+01    0.101E+00
DAV:   2    -0.625454644515E+02   -0.81648E-01   -0.80274E-01   424   0.339E+00    0.191E+00
DAV:   3    -0.625376233700E+02    0.78411E-02   -0.13652E-01   416   0.211E+00    0.111E+00
DAV:   4    -0.625340551700E+02    0.35682E-02   -0.42134E-02   416   0.106E+00    0.647E-01
DAV:   5    -0.625326247515E+02    0.14304E-02   -0.10272E-02   416   0.569E-01    0.379E-01
DAV:   6    -0.625325307180E+02    0.94033E-04   -0.64266E-03   440   0.423E-01    0.442E-01
DAV:   7    -0.625318887847E+02    0.64193E-03   -0.73130E-03   440   0.440E-01    0.304E-01
DAV:   8    -0.625315340851E+02    0.35470E-03   -0.27384E-03   448   0.335E-01    0.127E-01
DAV:   9    -0.625316542001E+02   -0.12012E-03   -0.50616E-04   352   0.143E-01    0.717E-02
DAV:  10    -0.625317485701E+02   -0.94370E-04   -0.94112E-05   280   0.686E-02
  18 F= -.62531749E+02 E0= -.62550484E+02  d E =-.768628E-02  mag=     8.3280
       N       E                     dE             d eps       ncg     rms          rms(c)
DAV:   1    -0.625291356032E+02    0.25186E-02   -0.77641E+00   432   0.714E+00    0.555E-01
DAV:   2    -0.625414682826E+02   -0.12333E-01   -0.13144E-01   448   0.148E+00    0.965E-01
DAV:   3    -0.625393884778E+02    0.20798E-02   -0.27489E-02   440   0.109E+00    0.471E-01
DAV:   4    -0.625395920178E+02   -0.20354E-03   -0.81639E-03   440   0.562E-01    0.391E-01
DAV:   5    -0.625392668546E+02    0.32516E-03   -0.30522E-03   440   0.347E-01    0.220E-01
DAV:   6    -0.625399487643E+02   -0.68191E-03   -0.32612E-03   440   0.288E-01    0.309E-01
DAV:   7    -0.625399495502E+02   -0.78588E-06   -0.23733E-03   424   0.266E-01    0.154E-01
DAV:   8    -0.625401020718E+02   -0.15252E-03   -0.48950E-04   352   0.160E-01    0.597E-02
DAV:   9    -0.625403024859E+02   -0.20041E-03   -0.11902E-04   296   0.699E-02    0.357E-02
DAV:  10    -0.625404015627E+02   -0.99077E-04   -0.48064E-05   264   0.431E-02
  19 F= -.62540402E+02 E0= -.62559438E+02  d E =-.865299E-02  mag=     8.3345
       N       E                     dE             d eps       ncg     rms          rms(c)
DAV:   1    -0.625405547301E+02   -0.25224E-03   -0.21420E-02   432   0.376E-01    0.347E-02
DAV:   2    -0.625407405330E+02   -0.18580E-03   -0.46496E-04   320   0.108E-01    0.997E-02
DAV:   3    -0.625407256308E+02    0.14902E-04   -0.23169E-04   240   0.896E-02
  20 F= -.62540726E+02 E0= -.62559745E+02  d E =-.897706E-02  mag=     8.3355
       N       E                     dE             d eps       ncg     rms          rms(c)
DAV:   1    -0.625397502000E+02    0.99033E-03   -0.25395E+00   416   0.415E+00    0.306E-01
DAV:   2    -0.625457124588E+02   -0.59623E-02   -0.53608E-02   424   0.927E-01    0.891E-01
DAV:   3    -0.625425909614E+02    0.31215E-02   -0.18389E-02   424   0.721E-01    0.211E-01
DAV:   4    -0.625431892220E+02   -0.59826E-03   -0.27098E-03   416   0.263E-01    0.205E-01
DAV:   5    -0.625430982594E+02    0.90963E-04   -0.95915E-04   344   0.185E-01
  21 F= -.62543098E+02 E0= -.62561739E+02  d E =-.237263E-02  mag=     8.3364
       N       E                     dE             d eps       ncg     rms          rms(c)
DAV:   1    -0.625430634870E+02    0.12573E-03   -0.16749E-01   448   0.108E+00    0.136E-01
DAV:   2    -0.625440253611E+02   -0.96187E-03   -0.49658E-03   440   0.384E-01    0.389E-01
DAV:   3    -0.625431632179E+02    0.86214E-03   -0.26925E-03   432   0.334E-01    0.952E-02
DAV:   4    -0.625433671116E+02   -0.20389E-03   -0.47557E-04   296   0.111E-01    0.895E-02
DAV:   5    -0.625433956747E+02   -0.28563E-04   -0.32956E-04   272   0.976E-02
  22 F= -.62543396E+02 E0= -.62561785E+02  d E =-.267004E-02  mag=     8.3374
       N       E                     dE             d eps       ncg     rms          rms(c)
DAV:   1    -0.625430191353E+02    0.34798E-03   -0.13149E+00   424   0.299E+00    0.190E-01
DAV:   2    -0.625450747208E+02   -0.20556E-02   -0.22326E-02   432   0.599E-01    0.360E-01
DAV:   3    -0.625446819717E+02    0.39275E-03   -0.41778E-03   424   0.403E-01    0.154E-01
DAV:   4    -0.625447713009E+02   -0.89329E-04   -0.11843E-03   376   0.178E-01    0.145E-01
DAV:   5    -0.625447092606E+02    0.62040E-04   -0.47629E-04   240   0.116E-01
  23 F= -.62544709E+02 E0= -.62563073E+02  d E =-.131359E-02  mag=     8.3388
       N       E                     dE             d eps       ncg     rms          rms(c)
DAV:   1    -0.625433220429E+02    0.14493E-02   -0.14509E+00   448   0.314E+00    0.190E-01
DAV:   2    -0.625455148022E+02   -0.21928E-02   -0.23580E-02   432   0.571E-01    0.366E-01
DAV:   3    -0.625450453267E+02    0.46948E-03   -0.44431E-03   424   0.363E-01    0.162E-01
DAV:   4    -0.625451817876E+02   -0.13646E-03   -0.96604E-04   352   0.176E-01    0.136E-01
DAV:   5    -0.625450908834E+02    0.90904E-04   -0.43171E-04   256   0.130E-01
  24 F= -.62545091E+02 E0= -.62563327E+02  d E =-.169521E-02  mag=     8.3412
       N       E                     dE             d eps       ncg     rms          rms(c)
DAV:   1    -0.625446494902E+02    0.53230E-03   -0.11126E+00   432   0.274E+00    0.168E-01
DAV:   2    -0.625467164019E+02   -0.20669E-02   -0.19359E-02   432   0.554E-01    0.437E-01
DAV:   3    -0.625459568811E+02    0.75952E-03   -0.55398E-03   424   0.401E-01    0.157E-01
DAV:   4    -0.625460673841E+02   -0.11050E-03   -0.65623E-04   312   0.137E-01    0.882E-02
DAV:   5    -0.625460892543E+02   -0.21870E-04   -0.30569E-04   248   0.987E-02
  25 F= -.62546089E+02 E0= -.62564289E+02  d E =-.998371E-03  mag=     8.3429
       N       E                     dE             d eps       ncg     rms          rms(c)
DAV:   1    -0.625368143464E+02    0.92530E-02   -0.80453E+00   416   0.736E+00    0.409E-01
DAV:   2    -0.625492162857E+02   -0.12402E-01   -0.12729E-01   424   0.136E+00    0.769E-01
DAV:   3    -0.625475002989E+02    0.17160E-02   -0.22817E-02   416   0.811E-01    0.377E-01
DAV:   4    -0.625475705204E+02   -0.70221E-04   -0.60581E-03   416   0.411E-01    0.309E-01
DAV:   5    -0.625471520337E+02    0.41849E-03   -0.17994E-03   416   0.252E-01    0.169E-01
DAV:   6    -0.625472393283E+02   -0.87295E-04   -0.11612E-03   424   0.194E-01    0.182E-01
DAV:   7    -0.625473265975E+02   -0.87269E-04   -0.15705E-03   432   0.209E-01    0.177E-01
DAV:   8    -0.625472100989E+02    0.11650E-03   -0.67319E-04   304   0.161E-01    0.520E-02
DAV:   9    -0.625472722250E+02   -0.62126E-04   -0.99469E-05   272   0.569E-02
  26 F= -.62547272E+02 E0= -.62565063E+02  d E =-.218134E-02  mag=     8.3468
       N       E                     dE             d eps       ncg     rms          rms(c)
DAV:   1    -0.625473742106E+02   -0.16411E-03   -0.48587E-01   432   0.181E+00    0.112E-01
DAV:   2    -0.625481377443E+02   -0.76353E-03   -0.80896E-03   416   0.359E-01    0.195E-01
DAV:   3    -0.625480673437E+02    0.70401E-04   -0.13403E-03   416   0.237E-01    0.951E-02
DAV:   4    -0.625480970856E+02   -0.29742E-04   -0.40715E-04   264   0.109E-01
  27 F= -.62548097E+02 E0= -.62565738E+02  d E =-.824861E-03  mag=     8.3478
       N       E                     dE             d eps       ncg     rms          rms(c)
DAV:   1    -0.625443284255E+02    0.37389E-02   -0.43894E+00   416   0.544E+00    0.309E-01
DAV:   2    -0.625510710017E+02   -0.67426E-02   -0.68398E-02   432   0.104E+00    0.555E-01
DAV:   3    -0.625502538222E+02    0.81718E-03   -0.11068E-02   416   0.658E-01    0.305E-01
DAV:   4    -0.625500659690E+02    0.18785E-03   -0.38368E-03   416   0.309E-01    0.220E-01
DAV:   5    -0.625499216264E+02    0.14434E-03   -0.10555E-03   360   0.173E-01    0.124E-01
DAV:   6    -0.625499640442E+02   -0.42418E-04   -0.53683E-04   336   0.138E-01
  28 F= -.62549964E+02 E0= -.62566798E+02  d E =-.269182E-02  mag=     8.3496
       N       E                     dE             d eps       ncg     rms          rms(c)
DAV:   1    -0.625291194237E+02    0.20802E-01   -0.17553E+01   416   0.109E+01    0.624E-01
DAV:   2    -0.625573284307E+02   -0.28209E-01   -0.28030E-01   432   0.208E+00    0.115E+00
DAV:   3    -0.625532625600E+02    0.40659E-02   -0.47502E-02   416   0.133E+00    0.575E-01
DAV:   4    -0.625528863075E+02    0.37625E-03   -0.13705E-02   416   0.606E-01    0.456E-01
DAV:   5    -0.625520626720E+02    0.82364E-03   -0.43762E-03   416   0.355E-01    0.222E-01
DAV:   6    -0.625520629119E+02   -0.23994E-06   -0.19030E-03   448   0.249E-01    0.224E-01
DAV:   7    -0.625522168831E+02   -0.15397E-03   -0.27756E-03   448   0.265E-01    0.226E-01
DAV:   8    -0.625519965471E+02    0.22034E-03   -0.14219E-03   416   0.216E-01    0.933E-02
DAV:   9    -0.625520955660E+02   -0.99019E-04   -0.22004E-04   264   0.959E-02
  29 F= -.62552096E+02 E0= -.62568102E+02  d E =-.482334E-02  mag=     8.3520
       N       E                     dE             d eps       ncg     rms          rms(c)
DAV:   1    -0.625529220931E+02   -0.92555E-03   -0.58399E-01   440   0.199E+00    0.157E-01
DAV:   2    -0.625541893039E+02   -0.12672E-02   -0.11604E-02   424   0.472E-01    0.368E-01
DAV:   3    -0.625536518688E+02    0.53744E-03   -0.34574E-03   424   0.356E-01    0.126E-01
DAV:   4    -0.625538246253E+02   -0.17276E-03   -0.86779E-04   384   0.162E-01    0.119E-01
DAV:   5    -0.625538058372E+02    0.18788E-04   -0.29685E-04   288   0.992E-02
  30 F= -.62553806E+02 E0= -.62569806E+02  d E =-.171027E-02  mag=     8.3530
       N       E                     dE             d eps       ncg     rms          rms(c)
DAV:   1    -0.625532566569E+02    0.56797E-03   -0.12621E+00   432   0.293E+00    0.234E-01
DAV:   2    -0.625557809408E+02   -0.25243E-02   -0.24040E-02   432   0.672E-01    0.542E-01
DAV:   3    -0.625546577915E+02    0.11231E-02   -0.69808E-03   432   0.511E-01    0.166E-01
DAV:   4    -0.625548459879E+02   -0.18820E-03   -0.12522E-03   440   0.210E-01    0.139E-01
DAV:   5    -0.625548142246E+02    0.31763E-04   -0.39503E-04   320   0.140E-01
  31 F= -.62554814E+02 E0= -.62570929E+02  d E =-.271866E-02  mag=     8.3542
       N       E                     dE             d eps       ncg     rms          rms(c)
DAV:   1    -0.625553274236E+02   -0.48144E-03   -0.55919E-01   424   0.195E+00    0.132E-01
DAV:   2    -0.625566599972E+02   -0.13326E-02   -0.10710E-02   432   0.436E-01    0.367E-01
DAV:   3    -0.625559572500E+02    0.70275E-03   -0.33397E-03   432   0.336E-01    0.980E-02
DAV:   4    -0.625561396020E+02   -0.18235E-03   -0.36624E-04   272   0.104E-01    0.717E-02
DAV:   5    -0.625561442764E+02   -0.46744E-05   -0.13296E-04   256   0.681E-02
  32 F= -.62556144E+02 E0= -.62572125E+02  d E =-.133005E-02  mag=     8.3548
       N       E                     dE             d eps       ncg     rms          rms(c)
DAV:   1    -0.625518924142E+02    0.42472E-02   -0.50300E+00   416   0.585E+00    0.354E-01
DAV:   2    -0.625606948266E+02   -0.88024E-02   -0.85873E-02   432   0.117E+00    0.818E-01
DAV:   3    -0.625585952224E+02    0.20996E-02   -0.21434E-02   424   0.805E-01    0.378E-01
DAV:   4    -0.625583661399E+02    0.22908E-03   -0.45778E-03   416   0.363E-01    0.192E-01
DAV:   5    -0.625582756399E+02    0.90500E-04   -0.71646E-04   408   0.175E-01
  33 F= -.62558276E+02 E0= -.62573690E+02  d E =-.346142E-02  mag=     8.3547
       N       E                     dE             d eps       ncg     rms          rms(c)
DAV:   1    -0.625588204829E+02   -0.45434E-03   -0.59576E-01   424   0.202E+00    0.187E-01
DAV:   2    -0.625610578521E+02   -0.22374E-02   -0.15419E-02   432   0.607E-01    0.580E-01
DAV:   3    -0.625593285643E+02    0.17293E-02   -0.67980E-03   424   0.501E-01    0.129E-01
DAV:   4    -0.625596151227E+02   -0.28656E-03   -0.82530E-04   392   0.155E-01    0.974E-02
DAV:   5    -0.625596128063E+02    0.23163E-05   -0.27806E-04   240   0.976E-02
  34 F= -.62559613E+02 E0= -.62574986E+02  d E =-.133717E-02  mag=     8.3545
       N       E                     dE             d eps       ncg     rms          rms(c)
DAV:   1    -0.625587702808E+02    0.84484E-03   -0.12942E+00   432   0.297E+00    0.195E-01
DAV:   2    -0.625607279083E+02   -0.19576E-02   -0.21438E-02   448   0.575E-01    0.360E-01
DAV:   3    -0.625604641941E+02    0.26371E-03   -0.44629E-03   424   0.396E-01    0.184E-01
DAV:   4    -0.625604477083E+02    0.16486E-04   -0.11326E-03   400   0.187E-01    0.110E-01
DAV:   5    -0.625604624142E+02   -0.14706E-04   -0.26609E-04   264   0.111E-01
  35 F= -.62560462E+02 E0= -.62575806E+02  d E =-.218677E-02  mag=     8.3535
       N       E                     dE             d eps       ncg     rms          rms(c)
DAV:   1    -0.625609460645E+02   -0.49836E-03   -0.41421E-01   432   0.168E+00    0.126E-01
DAV:   2    -0.625621745670E+02   -0.12285E-02   -0.92666E-03   424   0.419E-01    0.415E-01
DAV:   3    -0.625613082929E+02    0.86627E-03   -0.38342E-03   416   0.338E-01    0.963E-02
DAV:   4    -0.625615089304E+02   -0.20064E-03   -0.30822E-04   272   0.979E-02    0.602E-02
DAV:   5    -0.625615075399E+02    0.13905E-05   -0.83921E-05   272   0.616E-02
  36 F= -.62561508E+02 E0= -.62576699E+02  d E =-.104513E-02  mag=     8.3527
       N       E                     dE             d eps       ncg     rms          rms(c)
DAV:   1    -0.625590104588E+02    0.24985E-02   -0.37240E+00   416   0.501E+00    0.306E-01
DAV:   2    -0.625655843053E+02   -0.65738E-02   -0.61974E-02   440   0.102E+00    0.703E-01
DAV:   3    -0.625638254327E+02    0.17589E-02   -0.15005E-02   432   0.719E-01    0.297E-01
DAV:   4    -0.625637851167E+02    0.40316E-04   -0.32957E-03   424   0.289E-01    0.181E-01
DAV:   5    -0.625636834397E+02    0.10168E-03   -0.73344E-04   344   0.165E-01    0.126E-01
DAV:   6    -0.625637365675E+02   -0.53128E-04   -0.65024E-04   304   0.145E-01
  37 F= -.62563737E+02 E0= -.62578283E+02  d E =-.327415E-02  mag=     8.3509
       N       E                     dE             d eps       ncg     rms          rms(c)
DAV:   1    -0.625464622520E+02    0.17221E-01   -0.14900E+01   416   0.100E+01    0.601E-01
DAV:   2    -0.625722343540E+02   -0.25772E-01   -0.24258E-01   440   0.197E+00    0.128E+00
DAV:   3    -0.625670011872E+02    0.52332E-02   -0.52686E-02   432   0.135E+00    0.595E-01
DAV:   4    -0.625663696587E+02    0.63153E-03   -0.14650E-02   416   0.601E-01    0.410E-01
DAV:   5    -0.625656677207E+02    0.70194E-03   -0.32182E-03   440   0.333E-01    0.213E-01
DAV:   6    -0.625658861484E+02   -0.21843E-03   -0.21255E-03   432   0.268E-01    0.271E-01
DAV:   7    -0.625657710841E+02    0.11506E-03   -0.24830E-03   440   0.285E-01    0.208E-01
DAV:   8    -0.625657351537E+02    0.35930E-04   -0.11030E-03   448   0.208E-01    0.831E-02
DAV:   9    -0.625658301131E+02   -0.94959E-04   -0.22236E-04   272   0.887E-02
  38 F= -.62565830E+02 E0= -.62579960E+02  d E =-.536770E-02  mag=     8.3473
       N       E                     dE             d eps       ncg     rms          rms(c)
DAV:   1    -0.625673147519E+02   -0.15796E-02   -0.19347E+00   416   0.356E+00    0.316E-01
DAV:   2    -0.625725433046E+02   -0.52286E-02   -0.42200E-02   432   0.900E-01    0.847E-01
DAV:   3    -0.625693594372E+02    0.31839E-02   -0.15876E-02   432   0.717E-01    0.224E-01
DAV:   4    -0.625700422046E+02   -0.68277E-03   -0.29753E-03   424   0.305E-01    0.237E-01
DAV:   5    -0.625698818049E+02    0.16040E-03   -0.11485E-03   416   0.220E-01    0.156E-01
DAV:   6    -0.625699858659E+02   -0.10406E-03   -0.71771E-04   304   0.168E-01    0.135E-01
DAV:   7    -0.625700433856E+02   -0.57520E-04   -0.37006E-04   280   0.118E-01
  39 F= -.62570043E+02 E0= -.62584462E+02  d E =-.421327E-02  mag=     8.3464
       N       E                     dE             d eps       ncg     rms          rms(c)
DAV:   1    -0.625702205453E+02   -0.23468E-03   -0.11545E-01   448   0.875E-01    0.825E-02
DAV:   2    -0.625704835457E+02   -0.26300E-03   -0.23336E-03   432   0.200E-01    0.158E-01
DAV:   3    -0.625704124906E+02    0.71055E-04   -0.81978E-04   328   0.160E-01
  40 F= -.62570412E+02 E0= -.62584848E+02  d E =-.458238E-02  mag=     8.3463
       N       E                     dE             d eps       ncg     rms          rms(c)
DAV:   1    -0.625711504260E+02   -0.66688E-03   -0.65107E-01   440   0.210E+00    0.152E-01
DAV:   2    -0.625726277248E+02   -0.14773E-02   -0.12962E-02   424   0.511E-01    0.412E-01
DAV:   3    -0.625718963242E+02    0.73140E-03   -0.44683E-03   424   0.390E-01    0.158E-01
DAV:   4    -0.625719732509E+02   -0.76927E-04   -0.74148E-04   336   0.148E-01
  41 F= -.62571973E+02 E0= -.62586299E+02  d E =-.156076E-02  mag=     8.3463
       N       E                     dE             d eps       ncg     rms          rms(c)
DAV:   1    -0.625665493513E+02    0.53470E-02   -0.58534E+00   416   0.630E+00    0.386E-01
DAV:   2    -0.625752984643E+02   -0.87491E-02   -0.93847E-02   424   0.120E+00    0.651E-01
DAV:   3    -0.625745020267E+02    0.79644E-03   -0.15964E-02   416   0.767E-01    0.399E-01
DAV:   4    -0.625741971107E+02    0.30492E-03   -0.53367E-03   416   0.408E-01    0.277E-01
DAV:   5    -0.625739849827E+02    0.21213E-03   -0.14213E-03   432   0.218E-01    0.148E-01
DAV:   6    -0.625741627244E+02   -0.17774E-03   -0.13710E-03   424   0.197E-01    0.201E-01
DAV:   7    -0.625741334749E+02    0.29250E-04   -0.15734E-03   416   0.201E-01    0.130E-01
DAV:   8    -0.625740994901E+02    0.33985E-04   -0.41912E-04   288   0.130E-01
  42 F= -.62574099E+02 E0= -.62588106E+02  d E =-.368700E-02  mag=     8.3474
       N       E                     dE             d eps       ncg     rms          rms(c)
DAV:   1    -0.625745941792E+02   -0.46070E-03   -0.31990E-01   448   0.147E+00    0.947E-02
DAV:   2    -0.625750737707E+02   -0.47959E-03   -0.53205E-03   432   0.301E-01    0.153E-01
DAV:   3    -0.625750528050E+02    0.20966E-04   -0.83235E-04   432   0.197E-01
  43 F= -.62575053E+02 E0= -.62589089E+02  d E =-.953315E-03  mag=     8.3477
       N       E                     dE             d eps       ncg     rms          rms(c)
DAV:   1    -0.625738483679E+02    0.12254E-02   -0.28948E+00   416   0.442E+00    0.262E-01
DAV:   2    -0.625781064057E+02   -0.42580E-02   -0.45850E-02   432   0.883E-01    0.423E-01
DAV:   3    -0.625774952747E+02    0.61113E-03   -0.59077E-03   432   0.523E-01    0.143E-01
DAV:   4    -0.625775665429E+02   -0.71268E-04   -0.75653E-04   424   0.165E-01
  44 F= -.62577567E+02 E0= -.62591148E+02  d E =-.346705E-02  mag=     8.3477
       N       E                     dE             d eps       ncg     rms          rms(c)
DAV:   1    -0.625669660632E+02    0.10529E-01   -0.11567E+01   416   0.884E+00    0.517E-01
DAV:   2    -0.625856388817E+02   -0.18673E-01   -0.18039E-01   432   0.174E+00    0.987E-01
DAV:   3    -0.625826993970E+02    0.29395E-02   -0.29108E-02   432   0.112E+00    0.517E-01
DAV:   4    -0.625820090508E+02    0.69035E-03   -0.80803E-03   424   0.506E-01    0.321E-01
DAV:   5    -0.625816954766E+02    0.31357E-03   -0.25308E-03   416   0.281E-01    0.226E-01
DAV:   6    -0.625818252317E+02   -0.12976E-03   -0.23300E-03   432   0.263E-01    0.260E-01
DAV:   7    -0.625817737334E+02    0.51498E-04   -0.26008E-03   440   0.255E-01    0.168E-01
DAV:   8    -0.625817626233E+02    0.11110E-04   -0.71517E-04   392   0.175E-01
  45 F= -.62581763E+02 E0= -.62595484E+02  d E =-.766313E-02  mag=     8.3476
       N       E                     dE             d eps       ncg     rms          rms(c)
DAV:   1    -0.625259552247E+02    0.55819E-01   -0.46304E+01   416   0.177E+01    0.103E+00
DAV:   2    -0.626005926493E+02   -0.74637E-01   -0.73801E-01   432   0.348E+00    0.176E+00
DAV:   3    -0.625913152765E+02    0.92774E-02   -0.10934E-01   440   0.219E+00    0.871E-01
DAV:   4    -0.625895337199E+02    0.17816E-02   -0.27667E-02   432   0.974E-01    0.643E-01
DAV:   5    -0.625877797999E+02    0.17539E-02   -0.82400E-03   432   0.540E-01    0.352E-01
DAV:   6    -0.625880040092E+02   -0.22421E-03   -0.58678E-03   440   0.406E-01    0.437E-01
DAV:   7    -0.625878405097E+02    0.16350E-03   -0.82760E-03   440   0.442E-01    0.361E-01
DAV:   8    -0.625875428183E+02    0.29769E-03   -0.29596E-03   440   0.338E-01    0.130E-01
DAV:   9    -0.625876971501E+02   -0.15433E-03   -0.52839E-04   352   0.142E-01    0.884E-02
DAV:  10    -0.625877450398E+02   -0.47890E-04   -0.16844E-04   272   0.812E-02
  46 F= -.62587745E+02 E0= -.62601346E+02  d E =-.136455E-01  mag=     8.3458
       N       E                     dE             d eps       ncg     rms          rms(c)
DAV:   1    -0.623372902065E+02    0.25041E+00   -0.18683E+02   416   0.358E+01    0.205E+00
DAV:   2    -0.626449471540E+02   -0.30766E+00   -0.29760E+00   432   0.698E+00    0.349E+00
DAV:   3    -0.626031754348E+02    0.41772E-01   -0.41778E-01   440   0.427E+00    0.170E+00
DAV:   4    -0.625970816700E+02    0.60938E-02   -0.10437E-01   432   0.194E+00    0.136E+00
DAV:   5    -0.625890207294E+02    0.80609E-02   -0.32177E-02   432   0.112E+00    0.744E-01
DAV:   6    -0.625890363946E+02   -0.15665E-04   -0.21528E-02   440   0.801E-01    0.840E-01
DAV:   7    -0.625880398752E+02    0.99652E-03   -0.29765E-02   440   0.864E-01    0.711E-01
DAV:   8    -0.625864964637E+02    0.15434E-02   -0.11394E-02   448   0.683E-01    0.234E-01
DAV:   9    -0.625869526943E+02   -0.45623E-03   -0.19244E-03   448   0.264E-01    0.164E-01
DAV:  10    -0.625870523802E+02   -0.99686E-04   -0.50170E-04   344   0.147E-01
  47 F= -.62587052E+02 E0= -.62601035E+02  d E =-.129529E-01  mag=     8.3382
       N       E                     dE             d eps       ncg     rms          rms(c)
DAV:   1    -0.625184874499E+02    0.68465E-01   -0.54161E+01   416   0.192E+01    0.105E+00
DAV:   2    -0.626043611387E+02   -0.85874E-01   -0.82993E-01   424   0.364E+00    0.179E+00
DAV:   3    -0.625945012973E+02    0.98598E-02   -0.99043E-02   440   0.222E+00    0.930E-01
DAV:   4    -0.625925782620E+02    0.19230E-02   -0.29399E-02   448   0.971E-01    0.641E-01
DAV:   5    -0.625908162753E+02    0.17620E-02   -0.84636E-03   440   0.543E-01    0.385E-01
DAV:   6    -0.625910849067E+02   -0.26863E-03   -0.71502E-03   440   0.443E-01    0.467E-01
DAV:   7    -0.625909817959E+02    0.10311E-03   -0.98472E-03   440   0.485E-01    0.400E-01
DAV:   8    -0.625906210441E+02    0.36075E-03   -0.34871E-03   448   0.381E-01    0.170E-01
DAV:   9    -0.625907415583E+02   -0.12051E-03   -0.65910E-04   432   0.173E-01    0.109E-01
DAV:  10    -0.625907415200E+02    0.38330E-07   -0.21695E-04   280   0.984E-02
  48 F= -.62590742E+02 E0= -.62604540E+02  d E =-.166420E-01  mag=     8.3403
       N       E                     dE             d eps       ncg     rms          rms(c)
DAV:   1    -0.625912569150E+02   -0.51536E-03   -0.18595E-01   440   0.112E+00    0.622E-02
DAV:   2    -0.625916284284E+02   -0.37151E-03   -0.27768E-03   432   0.236E-01    0.147E-01
DAV:   3    -0.625915546265E+02    0.73802E-04   -0.55982E-04   328   0.155E-01
  49 F= -.62591555E+02 E0= -.62605224E+02  d E =-.813107E-03  mag=     8.3404
       N       E                     dE             d eps       ncg     rms          rms(c)
DAV:   1    -0.625915173358E+02    0.11109E-03   -0.16726E+00   416   0.336E+00    0.179E-01
DAV:   2    -0.625939258011E+02   -0.24085E-02   -0.24888E-02   432   0.641E-01    0.305E-01
DAV:   3    -0.625936804257E+02    0.24538E-03   -0.28151E-03   440   0.371E-01    0.142E-01
DAV:   4    -0.625936855706E+02   -0.51449E-05   -0.65624E-04   352   0.152E-01
  50 F= -.62593686E+02 E0= -.62607288E+02  d E =-.294405E-02  mag=     8.3402
       N       E                     dE             d eps       ncg     rms          rms(c)
DAV:   1    -0.625891099155E+02    0.45705E-02   -0.66750E+00   416   0.672E+00    0.366E-01
DAV:   2    -0.625993085294E+02   -0.10199E-01   -0.10050E-01   432   0.126E+00    0.662E-01
DAV:   3    -0.625982029943E+02    0.11055E-02   -0.15126E-02   424   0.774E-01    0.393E-01
DAV:   4    -0.625977199921E+02    0.48300E-03   -0.42888E-03   416   0.361E-01    0.224E-01
DAV:   5    -0.625975902353E+02    0.12976E-03   -0.95279E-04   448   0.191E-01    0.155E-01
DAV:   6    -0.625977533468E+02   -0.16311E-03   -0.12314E-03   440   0.203E-01    0.221E-01
DAV:   7    -0.625976480916E+02    0.10526E-03   -0.14096E-03   440   0.206E-01    0.124E-01
DAV:   8    -0.625976722412E+02   -0.24150E-04   -0.31693E-04   280   0.130E-01
  51 F= -.62597672E+02 E0= -.62611231E+02  d E =-.693072E-02  mag=     8.3386
       N       E                     dE             d eps       ncg     rms          rms(c)
DAV:   1    -0.625694935935E+02    0.28154E-01   -0.26683E+01   416   0.134E+01    0.741E-01
DAV:   2    -0.626112303699E+02   -0.41737E-01   -0.41419E-01   432   0.256E+00    0.121E+00
DAV:   3    -0.626073809830E+02    0.38494E-02   -0.52000E-02   440   0.155E+00    0.683E-01
DAV:   4    -0.626062209305E+02    0.11601E-02   -0.15431E-02   432   0.722E-01    0.486E-01
DAV:   5    -0.626052875523E+02    0.93338E-03   -0.48308E-03   424   0.400E-01    0.270E-01
DAV:   6    -0.626053428536E+02   -0.55301E-04   -0.29012E-03   432   0.292E-01    0.307E-01
DAV:   7    -0.626052793288E+02    0.63525E-04   -0.38800E-03   440   0.316E-01    0.254E-01
DAV:   8    -0.626051556783E+02    0.12365E-03   -0.14342E-03   448   0.257E-01    0.108E-01
DAV:   9    -0.626052382534E+02   -0.82575E-04   -0.34461E-04   272   0.117E-01
  52 F= -.62605238E+02 E0= -.62618887E+02  d E =-.144967E-01  mag=     8.3346
       N       E                     dE             d eps       ncg     rms          rms(c)
DAV:   1    -0.624737026145E+02    0.13145E+00   -0.10727E+02   416   0.270E+01    0.149E+00
DAV:   2    -0.626474713862E+02   -0.17377E+00   -0.16820E+00   432   0.517E+00    0.252E+00
DAV:   3    -0.626269271572E+02    0.20544E-01   -0.21920E-01   440   0.314E+00    0.137E+00
DAV:   4    -0.626221970678E+02    0.47301E-02   -0.66614E-02   432   0.147E+00    0.994E-01
DAV:   5    -0.626179536654E+02    0.42434E-02   -0.18426E-02   424   0.807E-01    0.534E-01
DAV:   6    -0.626178958747E+02    0.57791E-04   -0.11550E-02   432   0.576E-01    0.612E-01
DAV:   7    -0.626174584788E+02    0.43740E-03   -0.15987E-02   432   0.643E-01    0.547E-01
DAV:   8    -0.626166174407E+02    0.84104E-03   -0.68641E-03   448   0.531E-01    0.234E-01
DAV:   9    -0.626168805583E+02   -0.26312E-03   -0.17155E-03   448   0.253E-01    0.176E-01
DAV:  10    -0.626169034775E+02   -0.22919E-04   -0.51346E-04   304   0.144E-01
  53 F= -.62616903E+02 E0= -.62631394E+02  d E =-.261620E-01  mag=     8.3250
       N       E                     dE             d eps       ncg     rms          rms(c)
DAV:   1    -0.620250368123E+02    0.59184E+00   -0.43711E+02   416   0.553E+01    0.310E+00
DAV:   2    -0.627706553450E+02   -0.74562E+00   -0.71305E+00   448   0.107E+01    0.568E+00
DAV:   3    -0.626414688548E+02    0.12919E+00   -0.98683E-01   440   0.654E+00    0.276E+00
DAV:   4    -0.626277465056E+02    0.13722E-01   -0.35472E-01   432   0.307E+00    0.221E+00
DAV:   5    -0.626071391856E+02    0.20607E-01   -0.88785E-02   432   0.175E+00    0.114E+00
DAV:   6    -0.626048762246E+02    0.22630E-02   -0.41550E-02   432   0.116E+00    0.115E+00
DAV:   7    -0.626041281933E+02    0.74803E-03   -0.58364E-02   448   0.125E+00    0.113E+00
DAV:   8    -0.625993716489E+02    0.47565E-02   -0.35707E-02   456   0.108E+00    0.415E-01
DAV:   9    -0.626008512351E+02   -0.14796E-02   -0.79747E-03   448   0.505E-01    0.415E-01
DAV:  10    -0.626005576143E+02    0.29362E-03   -0.30633E-03   448   0.320E-01    0.171E-01
DAV:  11    -0.626009626608E+02   -0.40505E-03   -0.65758E-04   360   0.156E-01    0.129E-01
DAV:  12    -0.626015826800E+02   -0.62002E-03   -0.49877E-04   352   0.125E-01    0.103E-01
DAV:  13    -0.626020003390E+02   -0.41766E-03   -0.28212E-04   296   0.105E-01    0.633E-02
DAV:  14    -0.626023235607E+02   -0.32322E-03   -0.14579E-04   288   0.684E-02    0.279E-02
DAV:  15    -0.626025854357E+02   -0.26187E-03   -0.62077E-05   280   0.367E-02    0.191E-02
DAV:  16    -0.626027556260E+02   -0.17019E-03   -0.21211E-05   280   0.246E-02    0.878E-03
DAV:  17    -0.626029630117E+02   -0.20739E-03   -0.86865E-06   272   0.104E-02    0.554E-03
DAV:  18    -0.626030972048E+02   -0.13419E-03   -0.46015E-06   272   0.772E-03    0.474E-03
DAV:  19    -0.626033418357E+02   -0.24463E-03   -0.63438E-06   272   0.612E-03    0.333E-03
DAV:  20    -0.626035408600E+02   -0.19902E-03   -0.57319E-06   288   0.491E-03    0.281E-03
DAV:  21    -0.626037218392E+02   -0.18098E-03   -0.55960E-06   296   0.488E-03    0.224E-03
DAV:  22    -0.626038673563E+02   -0.14552E-03   -0.56399E-06   280   0.405E-03    0.154E-03
DAV:  23    -0.626039587812E+02   -0.91425E-04   -0.41922E-06   288   0.346E-03
  54 F= -.62603959E+02 E0= -.62622262E+02  d E =-.132173E-01  mag=     8.2927
       N       E                     dE             d eps       ncg     rms          rms(c)
DAV:   1    -0.622718881398E+02    0.33198E+00   -0.26245E+02   416   0.426E+01    0.234E+00
DAV:   2    -0.626997250866E+02   -0.42784E+00   -0.40987E+00   432   0.805E+00    0.404E+00
DAV:   3    -0.626447558110E+02    0.54969E-01   -0.57349E-01   440   0.484E+00    0.207E+00
DAV:   4    -0.626351993550E+02    0.95565E-02   -0.14041E-01   432   0.222E+00    0.154E+00
DAV:   5    -0.626247937022E+02    0.10406E-01   -0.51813E-02   432   0.130E+00    0.888E-01
DAV:   6    -0.626235568278E+02    0.12369E-02   -0.28349E-02   440   0.923E-01    0.889E-01
DAV:   7    -0.626229286814E+02    0.62815E-03   -0.37942E-02   432   0.965E-01    0.945E-01
DAV:   8    -0.626199720646E+02    0.29566E-02   -0.21374E-02   432   0.921E-01    0.464E-01
DAV:   9    -0.626201749169E+02   -0.20285E-03   -0.55963E-03   440   0.438E-01    0.274E-01
DAV:  10    -0.626199890556E+02    0.18586E-03   -0.14464E-03   448   0.240E-01    0.152E-01
DAV:  11    -0.626199835722E+02    0.54833E-05   -0.42830E-04   304   0.135E-01
  55 F= -.62619984E+02 E0= -.62635105E+02  d E =-.292421E-01  mag=     8.3025
       N       E                     dE             d eps       ncg     rms          rms(c)
DAV:   1    -0.626194851062E+02    0.50395E-03   -0.12213E+01   416   0.909E+00    0.507E-01
DAV:   2    -0.626385211546E+02   -0.19036E-01   -0.18931E-01   432   0.176E+00    0.897E-01
DAV:   3    -0.626363794894E+02    0.21417E-02   -0.26228E-02   432   0.109E+00    0.474E-01
DAV:   4    -0.626359561623E+02    0.42333E-03   -0.70221E-03   440   0.491E-01    0.330E-01
DAV:   5    -0.626356461164E+02    0.31005E-03   -0.19194E-03   440   0.269E-01    0.188E-01
DAV:   6    -0.626357996623E+02   -0.15355E-03   -0.13223E-03   440   0.211E-01    0.195E-01
DAV:   7    -0.626360165676E+02   -0.21691E-03   -0.19165E-03   448   0.207E-01    0.163E-01
DAV:   8    -0.626360023220E+02    0.14246E-04   -0.72136E-04   344   0.166E-01
  56 F= -.62636002E+02 E0= -.62651503E+02  d E =-.160187E-01  mag=     8.3030
       N       E                     dE             d eps       ncg     rms          rms(c)
DAV:   1    -0.625164576440E+02    0.11956E+00   -0.11045E+02   416   0.274E+01    0.155E+00
DAV:   2    -0.626926122509E+02   -0.17615E+00   -0.17311E+00   440   0.518E+00    0.260E+00
DAV:   3    -0.626723008181E+02    0.20311E-01   -0.23149E-01   440   0.321E+00    0.143E+00
DAV:   4    -0.626673796207E+02    0.49212E-02   -0.73488E-02   432   0.157E+00    0.110E+00
DAV:   5    -0.626620272568E+02    0.53524E-02   -0.18524E-02   432   0.883E-01    0.563E-01
DAV:   6    -0.626616482463E+02    0.37901E-03   -0.97261E-03   440   0.620E-01    0.540E-01
DAV:   7    -0.626604389585E+02    0.12093E-02   -0.11587E-02   440   0.536E-01    0.303E-01
DAV:   8    -0.626608097393E+02   -0.37078E-03   -0.42177E-03   440   0.397E-01    0.286E-01
DAV:   9    -0.626607291944E+02    0.80545E-04   -0.19870E-03   432   0.252E-01    0.149E-01
DAV:  10    -0.626608109474E+02   -0.81753E-04   -0.44287E-04   296   0.121E-01
  57 F= -.62660811E+02 E0= -.62677349E+02  d E =-.408274E-01  mag=     8.2865
       N       E                     dE             d eps       ncg     rms          rms(c)
DAV:   1    -0.626484725159E+02    0.12257E-01   -0.10325E+01   416   0.836E+00    0.498E-01
DAV:   2    -0.626649944072E+02   -0.16522E-01   -0.16764E-01   424   0.161E+00    0.837E-01
DAV:   3    -0.626630633113E+02    0.19311E-02   -0.25485E-02   432   0.103E+00    0.457E-01
DAV:   4    -0.626628541889E+02    0.20912E-03   -0.71220E-03   432   0.503E-01    0.351E-01
DAV:   5    -0.626623269613E+02    0.52723E-03   -0.20809E-03   432   0.296E-01    0.181E-01
DAV:   6    -0.626624530241E+02   -0.12606E-03   -0.11545E-03   440   0.204E-01    0.193E-01
DAV:   7    -0.626626308562E+02   -0.17783E-03   -0.15350E-03   432   0.205E-01    0.184E-01
DAV:   8    -0.626625373123E+02    0.93544E-04   -0.76131E-04   368   0.171E-01
  58 F= -.62662537E+02 E0= -.62679454E+02  d E =-.425537E-01  mag=     8.2756
       N       E                     dE             d eps       ncg     rms          rms(c)
DAV:   1    -0.626702956858E+02   -0.76648E-02   -0.27750E+00   416   0.434E+00    0.308E-01
DAV:   2    -0.626766140814E+02   -0.63184E-02   -0.57353E-02   432   0.952E-01    0.857E-01
DAV:   3    -0.626734541088E+02    0.31600E-02   -0.17708E-02   432   0.714E-01    0.234E-01
DAV:   4    -0.626739937075E+02   -0.53960E-03   -0.28431E-03   432   0.299E-01    0.212E-01
DAV:   5    -0.626738474380E+02    0.14627E-03   -0.94358E-04   368   0.195E-01    0.126E-01
DAV:   6    -0.626738762133E+02   -0.28775E-04   -0.57533E-04   256   0.135E-01
  59 F= -.62673876E+02 E0= -.62690519E+02  d E =-.113389E-01  mag=     8.2671
       N       E                     dE             d eps       ncg     rms          rms(c)
DAV:   1    -0.626585512424E+02    0.15296E-01   -0.25026E+01   416   0.130E+01    0.939E-01
DAV:   2    -0.627183922730E+02   -0.59841E-01   -0.53833E-01   432   0.291E+00    0.270E+00
DAV:   3    -0.626886614572E+02    0.29731E-01   -0.16711E-01   432   0.221E+00    0.719E-01
DAV:   4    -0.626910085056E+02   -0.23470E-02   -0.27501E-02   448   0.915E-01    0.643E-01
DAV:   5    -0.626890972400E+02    0.19113E-02   -0.93629E-03   440   0.629E-01    0.387E-01
DAV:   6    -0.626889626716E+02    0.13457E-03   -0.56948E-03   432   0.421E-01    0.386E-01
DAV:   7    -0.626881927890E+02    0.76988E-03   -0.35384E-03   448   0.349E-01    0.245E-01
DAV:   8    -0.626879967247E+02    0.19606E-03   -0.16184E-03   448   0.259E-01    0.142E-01
DAV:   9    -0.626881876678E+02   -0.19094E-03   -0.50703E-04   320   0.149E-01    0.852E-02
DAV:  10    -0.626883606192E+02   -0.17295E-03   -0.20578E-04   272   0.909E-02    0.642E-02
DAV:  11    -0.626885465266E+02   -0.18591E-03   -0.82081E-05   280   0.555E-02    0.297E-02
DAV:  12    -0.626889276592E+02   -0.38113E-03   -0.51395E-05   288   0.343E-02    0.298E-02
DAV:  13    -0.626891483545E+02   -0.22070E-03   -0.19910E-05   280   0.230E-02    0.207E-02
DAV:  14    -0.626894071903E+02   -0.25884E-03   -0.14557E-05   288   0.164E-02    0.934E-03
DAV:  15    -0.626896103752E+02   -0.20318E-03   -0.74172E-06   272   0.104E-02    0.549E-03
DAV:  16    -0.626898925423E+02   -0.28217E-03   -0.61182E-06   280   0.675E-03    0.428E-03
DAV:  17    -0.626901960717E+02   -0.30353E-03   -0.72081E-06   288   0.517E-03    0.381E-03
DAV:  18    -0.626904675542E+02   -0.27148E-03   -0.56981E-06   272   0.494E-03    0.279E-03
DAV:  19    -0.626909225404E+02   -0.45499E-03   -0.13404E-05   288   0.498E-03    0.268E-03
DAV:  20    -0.626912264115E+02   -0.30387E-03   -0.95538E-06   296   0.489E-03    0.187E-03
DAV:  21    -0.626914892786E+02   -0.26287E-03   -0.11015E-05   296   0.460E-03    0.126E-03
DAV:  22    -0.626916525612E+02   -0.16328E-03   -0.83795E-06   296   0.388E-03    0.972E-04
DAV:  23    -0.626917556817E+02   -0.10312E-03   -0.56030E-06   280   0.332E-03    0.665E-04
DAV:  24    -0.626918479227E+02   -0.92241E-04   -0.42725E-06   280   0.257E-03
  60 F= -.62691848E+02 E0= -.62707303E+02  d E =-.293106E-01  mag=     8.2156
       N       E                     dE             d eps       ncg     rms          rms(c)
DAV:   1    -0.626942351985E+02   -0.24795E-02   -0.25176E+00   432   0.411E+00    0.295E-01
DAV:   2    -0.626987482074E+02   -0.45130E-02   -0.44820E-02   440   0.888E-01    0.649E-01
DAV:   3    -0.626973008412E+02    0.14474E-02   -0.10971E-02   424   0.642E-01    0.263E-01
DAV:   4    -0.626974414918E+02   -0.14065E-03   -0.31259E-03   432   0.312E-01    0.222E-01
DAV:   5    -0.626971693532E+02    0.27214E-03   -0.88582E-04   400   0.187E-01    0.103E-01
DAV:   6    -0.626972036822E+02   -0.34329E-04   -0.62944E-04   304   0.140E-01
  61 F= -.62697204E+02 E0= -.62712588E+02  d E =-.535576E-02  mag=     8.2108
       N       E                     dE             d eps       ncg     rms          rms(c)
DAV:   1    -0.626927789425E+02    0.43904E-02   -0.53424E+00   424   0.600E+00    0.439E-01
DAV:   2    -0.627026391904E+02   -0.98602E-02   -0.98233E-02   440   0.126E+00    0.101E+00
DAV:   3    -0.626992471295E+02    0.33921E-02   -0.28976E-02   432   0.920E-01    0.424E-01
DAV:   4    -0.626993861490E+02   -0.13902E-03   -0.77851E-03   432   0.458E-01    0.325E-01
DAV:   5    -0.626986871937E+02    0.69896E-03   -0.22553E-03   432   0.299E-01    0.149E-01
DAV:   6    -0.626987440846E+02   -0.56891E-04   -0.13634E-03   448   0.215E-01    0.213E-01
DAV:   7    -0.626983308314E+02    0.41325E-03   -0.13372E-03   416   0.218E-01    0.159E-01
DAV:   8    -0.626982221742E+02    0.10866E-03   -0.51976E-04   280   0.146E-01    0.623E-02
DAV:   9    -0.626982819039E+02   -0.59730E-04   -0.12408E-04   288   0.652E-02
  62 F= -.62698282E+02 E0= -.62713050E+02  d E =-.643398E-02  mag=     8.1958
       N       E                     dE             d eps       ncg     rms          rms(c)
DAV:   1    -0.626972705249E+02    0.95165E-03   -0.37013E+00   416   0.502E+00    0.338E-01
DAV:   2    -0.627041919491E+02   -0.69214E-02   -0.67428E-02   424   0.111E+00    0.751E-01
DAV:   3    -0.627016897638E+02    0.25022E-02   -0.14016E-02   424   0.778E-01    0.250E-01
DAV:   4    -0.627020604333E+02   -0.37067E-03   -0.34802E-03   432   0.325E-01    0.273E-01
DAV:   5    -0.627016077989E+02    0.45263E-03   -0.14464E-03   376   0.209E-01    0.117E-01
DAV:   6    -0.627016017738E+02    0.60251E-05   -0.53208E-04   288   0.132E-01
  63 F= -.62701602E+02 E0= -.62716138E+02  d E =-.331987E-02  mag=     8.1840
       N       E                     dE             d eps       ncg     rms          rms(c)
DAV:   1    -0.626935956595E+02    0.80121E-02   -0.74211E+00   416   0.711E+00    0.472E-01
DAV:   2    -0.627070233123E+02   -0.13428E-01   -0.13325E-01   432   0.150E+00    0.106E+00
DAV:   3    -0.627026207762E+02    0.44025E-02   -0.31492E-02   432   0.105E+00    0.412E-01
DAV:   4    -0.627028748632E+02   -0.25409E-03   -0.91278E-03   440   0.467E-01    0.387E-01
DAV:   5    -0.627019223574E+02    0.95251E-03   -0.32962E-03   432   0.315E-01    0.161E-01
DAV:   6    -0.627017525875E+02    0.16977E-03   -0.10597E-03   440   0.198E-01    0.164E-01
DAV:   7    -0.627012299390E+02    0.52265E-03   -0.11623E-03   456   0.187E-01    0.158E-01
DAV:   8    -0.627010849941E+02    0.14494E-03   -0.59217E-04   304   0.154E-01    0.725E-02
DAV:   9    -0.627011645209E+02   -0.79527E-04   -0.14447E-04   264   0.757E-02
  64 F= -.62701165E+02 E0= -.62715090E+02  d E =-.288262E-02  mag=     8.1559
       N       E                     dE             d eps       ncg     rms          rms(c)
DAV:   1    -0.627017117537E+02   -0.62676E-03   -0.81108E-01   432   0.235E+00    0.179E-01
DAV:   2    -0.627037764727E+02   -0.20647E-02   -0.16497E-02   440   0.547E-01    0.454E-01
DAV:   3    -0.627029002193E+02    0.87625E-03   -0.53838E-03   432   0.421E-01    0.153E-01
DAV:   4    -0.627031435442E+02   -0.24332E-03   -0.12152E-03   392   0.181E-01    0.139E-01
DAV:   5    -0.627031546628E+02   -0.11119E-04   -0.41706E-04   264   0.120E-01
  65 F= -.62703155E+02 E0= -.62716912E+02  d E =-.199014E-02  mag=     8.1457
       N       E                     dE             d eps       ncg     rms          rms(c)
DAV:   1    -0.627034332774E+02   -0.28973E-03   -0.25382E-02   440   0.422E-01    0.765E-02
DAV:   2    -0.627039929157E+02   -0.55964E-03   -0.15827E-03   448   0.239E-01    0.265E-01
DAV:   3    -0.627035959099E+02    0.39701E-03   -0.10484E-03   336   0.208E-01    0.407E-02
DAV:   4    -0.627038542250E+02   -0.25832E-03   -0.11640E-04   264   0.619E-02    0.543E-02
DAV:   5    -0.627040541430E+02   -0.19992E-03   -0.75386E-05   280   0.498E-02    0.359E-02
DAV:   6    -0.627042925079E+02   -0.23836E-03   -0.49417E-05   280   0.384E-02    0.213E-02
DAV:   7    -0.627045244559E+02   -0.23195E-03   -0.21143E-05   280   0.246E-02    0.220E-02
DAV:   8    -0.627046480341E+02   -0.12358E-03   -0.12664E-05   264   0.185E-02    0.139E-02
DAV:   9    -0.627047910014E+02   -0.14297E-03   -0.49133E-06   272   0.983E-03    0.774E-03
DAV:  10    -0.627049577694E+02   -0.16677E-03   -0.30531E-06   264   0.654E-03    0.421E-03
DAV:  11    -0.627052220517E+02   -0.26428E-03   -0.35739E-06   264   0.433E-03    0.381E-03
DAV:  12    -0.627056363995E+02   -0.41435E-03   -0.71774E-06   288   0.471E-03    0.338E-03
DAV:  13    -0.627059359615E+02   -0.29956E-03   -0.54633E-06   288   0.453E-03    0.290E-03
DAV:  14    -0.627062079523E+02   -0.27199E-03   -0.61551E-06   296   0.428E-03    0.217E-03
DAV:  15    -0.627065266952E+02   -0.31874E-03   -0.83437E-06   288   0.395E-03    0.196E-03
DAV:  16    -0.627067489966E+02   -0.22230E-03   -0.70932E-06   296   0.385E-03    0.153E-03
DAV:  17    -0.627069492659E+02   -0.20027E-03   -0.82771E-06   296   0.371E-03    0.996E-04
DAV:  18    -0.627070233400E+02   -0.74074E-04   -0.46296E-06   280   0.309E-03
  66 F= -.62707023E+02 E0= -.62720825E+02  d E =-.585882E-02  mag=     8.1153
