 vasp.6.1.2 22Jul20 (build Aug  2 2021 21:04:21) gamma-only                      
 executed on             LinuxPGI date 2021.12.16  03:00:36
 running on   16 total cores
 distrk:  each k-point on   16 cores,    1 groups
 distr:  one band on NCORE=   8 cores,    2 groups


--------------------------------------------------------------------------------------------------------


 INCAR:
 POTCAR:    PAW_PBE Pd 04Jan2005                  
 -----------------------------------------------------------------------------
|                                                                             |
|           W    W    AA    RRRRR   N    N  II  N    N   GGGG   !!!           |
|           W    W   A  A   R    R  NN   N  II  NN   N  G    G  !!!           |
|           W    W  A    A  R    R  N N  N  II  N N  N  G       !!!           |
|           W WW W  AAAAAA  RRRRR   N  N N  II  N  N N  G  GGG   !            |
|           WW  WW  A    A  R   R   N   NN  II  N   NN  G    G                |
|           W    W  A    A  R    R  N    N  II  N    N   GGGG   !!!           |
|                                                                             |
|     You use a magnetic or noncollinear calculation, but did not specify     |
|     the initial magnetic moment with the MAGMOM tag. Note that a            |
|     default of 1 will be used for all atoms. This ferromagnetic setup       |
|     may break the symmetry of the crystal, in particular it may rule        |
|     out finding an antiferromagnetic solution. Thence, we recommend         |
|     setting the initial magnetic moment manually or verifying carefully     |
|     that this magnetic setup is desired.                                    |
|                                                                             |
 -----------------------------------------------------------------------------

 POTCAR:    PAW_PBE Pd 04Jan2005                  
   SHA256 =  dd6f6f02930356371984e2b707ff5e456046761dc76b07c1eba30abd15eb3c39 Pd/POTCAR             
   COPYR  = (c) Copyright 04Jan2005 Georg Kresse                                                    
   COPYR  = This file is part of the software VASP. Any use, copying, and all other rights are regul
   COPYR  = If you do not have a valid VASP license, you may not use, copy or distribute this file. 
   VRHFIN =Pd : s1 d9                                                                               
   LEXCH  = PE                                                                                      
   EATOM  =   809.7530 eV,   59.5152 Ry                                                             
                                                                                                    
   TITEL  = PAW_PBE Pd 04Jan2005                                                                    
   LULTRA =        F    use ultrasoft PP ?                                                          
   IUNSCR =        1    unscreen: 0-lin 1-nonlin 2-no                                               
   RPACOR =    2.000    partial core radius                                                         
   POMASS =  106.420; ZVAL   =   10.000    mass and valenz                                          
   RCORE  =    2.600    outmost cutoff radius                                                       
   RWIGS  =    2.710; RWIGS  =    1.434    wigner-seitz radius (au A)                               
   ENMAX  =  250.925; ENMIN  =  188.194 eV                                                          
   ICORE  =        3    local potential                                                             
   LCOR   =        T    correct aug charges                                                         
   LPAW   =        T    paw PP                                                                      
   EAUG   =  416.230                                                                                
   DEXC   =    0.000                                                                                
   RMAX   =    2.653    core radius for proj-oper                                                   
   RAUG   =    1.300    factor for augmentation sphere                                              
   RDEP   =    2.734    radius for radial grids                                                     
   RDEPT  =    2.103    core radius for aug-charge                                                  
                                                                                                    
   Atomic configuration                                                                             
   12 entries                                                                                       
     n  l   j            E        occ.                                                              
     1  0  0.50    -24164.6631   2.0000                                                             
     2  0  0.50     -3530.9218   2.0000                                                             
     2  1  1.50     -3165.6822   6.0000                                                             
     3  0  0.50      -639.4577   2.0000                                                             
     3  1  1.50      -519.4532   6.0000                                                             
     3  2  2.50      -328.9757  10.0000                                                             
     4  0  0.50       -88.7014   2.0000                                                             
     4  1  1.50       -54.4540   6.0000                                                             
     4  2  2.50        -6.6878   9.0000                                                             
     5  0  0.50        -4.3543   1.0000                                                             
     5  1  0.50        -1.3606   0.0000                                                             
     4  3  2.50        -1.3606   0.0000                                                             
   Description                                                                                      
     l       E           TYP  RCUT    TYP  RCUT                                                     
     2     -6.6878251     23  2.400                                                                 
     2     -8.0484077     23  2.400                                                                 
     0     -4.3542939     23  2.400                                                                 
     0      4.3406793     23  2.400                                                                 
     1     -4.0817478     23  2.600                                                                 
     1     15.8380318     23  2.600                                                                 
     3     -4.0817478     23  2.400                                                                 
  local pseudopotential read in
  partial core-charges read in
  partial kinetic energy density read in
  atomic valenz-charges read in
  non local Contribution for L=            2  read in
    real space projection operators read in
  non local Contribution for L=            2  read in
    real space projection operators read in
  non local Contribution for L=            0  read in
    real space projection operators read in
  non local Contribution for L=            0  read in
    real space projection operators read in
  non local Contribution for L=            1  read in
    real space projection operators read in
  non local Contribution for L=            1  read in
    real space projection operators read in
    PAW grid and wavefunctions read in
 
   number of l-projection  operators is LMAX  =            6
   number of lm-projection operators is LMMAX =           18
 
  PAW_PBE Pd 04Jan2005                  :
 energy of atom  1       EATOM= -809.7530
 kinetic energy error for atom=    0.0091 (will be added to EATOM!!)
 
 
 POSCAR: Pd
  positions in cartesian coordinates
  No initial velocities read in
 exchange correlation table for  LEXCH =        8
   RHO(1)=    0.500       N(1)  =     2000
   RHO(2)=  100.500       N(2)  =     4000
 


--------------------------------------------------------------------------------------------------------


 ion  position               nearest neighbor table
   1  0.485  0.495  0.520-   6 2.56   5 2.59   7 2.60   4 2.63  10 2.64   2 2.71  12 2.72   3 2.74
                            11 2.76   9 2.78  13 2.79   8 2.80  16 3.01  15 3.35
   2  0.542  0.567  0.587-  16 2.53   3 2.57  15 2.59  10 2.69   1 2.71   6 2.85
   3  0.539  0.464  0.617-   9 2.53   2 2.57  15 2.58   6 2.65   1 2.74   5 3.22
   4  0.458  0.580  0.455-  14 2.55  16 2.62   1 2.63  11 2.66  12 2.74  10 2.75   8 2.79
   5  0.569  0.434  0.489-  15 2.56   1 2.59  13 2.67   9 2.67  12 2.69  10 2.90   3 3.22
   6  0.440  0.513  0.616-   1 2.56  16 2.65   3 2.65   8 2.65   7 2.81   2 2.85
   7  0.398  0.433  0.541-   1 2.60   8 2.61   9 2.61  13 2.71  11 2.71   6 2.81
   8  0.376  0.539  0.528-  16 2.53  11 2.57   7 2.61   6 2.65   4 2.79   1 2.80
   9  0.496  0.386  0.559-   3 2.53  13 2.55   7 2.61   5 2.67   1 2.78
  10  0.568  0.555  0.478-  14 2.56  15 2.60   1 2.64  12 2.65   2 2.69   4 2.75   5 2.90
  11  0.403  0.484  0.439-  13 2.57   8 2.57  12 2.66   4 2.66   7 2.71   1 2.76
  12  0.511  0.489  0.409-  14 2.56  13 2.64  10 2.65  11 2.66   5 2.69   1 2.72   4 2.74
  13  0.467  0.399  0.457-   9 2.55  11 2.57  12 2.64   5 2.67   7 2.71   1 2.79
  14  0.535  0.590  0.382-   4 2.55  10 2.56  12 2.56
  15  0.621  0.499  0.555-   5 2.56   3 2.58   2 2.59  10 2.60   1 3.35
  16  0.449  0.609  0.561-   2 2.53   8 2.53   4 2.62   6 2.65   1 3.01
 

IMPORTANT INFORMATION: All symmetrisations will be switched off!
NOSYMM: (Re-)initialisation of all symmetry stuff for point group C_1.


----------------------------------------------------------------------------------------

                                     Primitive cell                                     

  volume of cell :   13615.4124

  direct lattice vectors                    reciprocal lattice vectors
    23.857200753  0.000000000  0.000000000     0.041916066  0.000000000  0.000000000
     0.000000000 23.923318161  0.000000000     0.000000000  0.041800222  0.000000000
     0.000000000  0.000000000 23.855575473     0.000000000  0.000000000  0.041918922

  length of vectors
    23.857200753 23.923318161 23.855575473     0.041916066  0.041800222  0.041918922

  position of ions in fractional coordinates (direct lattice)
     0.484990694  0.495322839  0.520251505
     0.542282192  0.567116563  0.586985225
     0.539100576  0.463726345  0.616728437
     0.457832387  0.579947873  0.455318021
     0.568536879  0.433903014  0.488577503
     0.439701061  0.513234652  0.615744834
     0.398378430  0.432789030  0.540596866
     0.376170387  0.538786406  0.528212546
     0.495571160  0.386394886  0.558977479
     0.567981749  0.554779348  0.477760310
     0.403394466  0.484175690  0.439290599
     0.510631838  0.489170039  0.409286491
     0.467076157  0.399235047  0.456608043
     0.535042321  0.589810211  0.382043493
     0.620730884  0.499445410  0.555414818
     0.448697463  0.608946177  0.560682214

  ion indices of the primitive-cell ions
   primitive index   ion index
                 1           1
                 2           2
                 3           3
                 4           4
                 5           5
                 6           6
                 7           7
                 8           8
                 9           9
                10          10
                11          11
                12          12
                13          13
                14          14
                15          15
                16          16

----------------------------------------------------------------------------------------

 
 
 KPOINTS: KPOINTS created by Atomic Simulation Env

Automatic generation of k-mesh.
Space group operators:
 irot       det(A)        alpha          n_x          n_y          n_z        tau_x        tau_y        tau_z
    1     1.000000     0.000000     1.000000     0.000000     0.000000     0.000000     0.000000     0.000000
 
 Subroutine IBZKPT returns following result:
 ===========================================
 
 Found      1 irreducible k-points:
 
 Following reciprocal coordinates:
            Coordinates               Weight
  0.000000  0.000000  0.000000      1.000000
 
 Following cartesian coordinates:
            Coordinates               Weight
  0.000000  0.000000  0.000000      1.000000
 


--------------------------------------------------------------------------------------------------------




 Dimension of arrays:
   k-points           NKPTS =      1   k-points in BZ     NKDIM =      1   number of bands    NBANDS=    104
   number of dos      NEDOS =    301   number of ions     NIONS =     16
   non local maximal  LDIM  =      6   non local SUM 2l+1 LMDIM =     18
   total plane-waves  NPLWV = ******
   max r-space proj   IRMAX =      1   max aug-charges    IRDMAX=   6355
   dimension x,y,z NGX =   120 NGY =  120 NGZ =  120
   dimension x,y,z NGXF=   240 NGYF=  240 NGZF=  240
   support grid    NGXF=   240 NGYF=  240 NGZF=  240
   ions per type =              16
   NGX,Y,Z   is equivalent  to a cutoff of   8.36,  8.34,  8.36 a.u.
   NGXF,Y,Z  is equivalent  to a cutoff of  16.72, 16.68, 16.73 a.u.

 SYSTEM =  unknown system                          
 POSCAR =  Pd                                      

 Startparameter for this run:
   NWRITE =      2    write-flag & timer
   PREC   = normal    normal or accurate (medium, high low for compatibility)
   ISTART =      0    job   : 0-new  1-cont  2-samecut
   ICHARG =      2    charge: 1-file 2-atom 10-const
   ISPIN  =      2    spin polarized calculation?
   LNONCOLLINEAR =      F non collinear calculations
   LSORBIT =      F    spin-orbit coupling
   INIWAV =      1    electr: 0-lowe 1-rand  2-diag
   LASPH  =      F    aspherical Exc in radial PAW
   METAGGA=      F    non-selfconsistent MetaGGA calc.

 Electronic Relaxation 1
   ENCUT  =  400.0 eV  29.40 Ry    5.42 a.u.  38.91 39.01 38.90*2*pi/ulx,y,z
   ENINI  =  400.0     initial cutoff
   ENAUG  =  416.2 eV  augmentation charge cutoff
   NELM   =     60;   NELMIN=  2; NELMDL=  0     # of ELM steps 
   EDIFF  = 0.1E-03   stopping-criterion for ELM
   LREAL  =      F    real-space projection
   NLSPLINE    = F    spline interpolate recip. space projectors
   LCOMPAT=      F    compatible to vasp.4.4
   GGA_COMPAT  = T    GGA compatible to vasp.4.4-vasp.4.6
   LMAXPAW     = -100 max onsite density
   LMAXMIX     =    2 max onsite mixed and CHGCAR
   VOSKOWN=      0    Vosko Wilk Nusair interpolation
   ROPT   =    0.00000
 Ionic relaxation
   EDIFFG = 0.1E-02   stopping-criterion for IOM
   NSW    =   1000    number of steps for IOM
   NBLOCK =      1;   KBLOCK =   1000    inner block; outer block 
   IBRION =      2    ionic relax: 0-MD 1-quasi-New 2-CG
   NFREE  =      1    steps in history (QN), initial steepest desc. (CG)
   ISIF   =      0    stress and relaxation
   IWAVPR =     11    prediction:  0-non 1-charg 2-wave 3-comb
   ISYM   =      0    0-nonsym 1-usesym 2-fastsym
   LCORR  =      T    Harris-Foulkes like correction to forces

   POTIM  = 0.5000    time-step for ionic-motion
   TEIN   =    0.0    initial temperature
   TEBEG  =    0.0;   TEEND  =   0.0 temperature during run
   SMASS  =  -3.00    Nose mass-parameter (am)
   estimated Nose-frequenzy (Omega)   =  0.10E-29 period in steps = 0.13E+47 mass=  -0.130E-25a.u.
   SCALEE = 1.0000    scale energy and forces
   NPACO  =    256;   APACO  = 16.0  distance and # of slots for P.C.
   PSTRESS=    0.0 pullay stress

  Mass of Ions in am
   POMASS = 106.42
  Ionic Valenz
   ZVAL   =  10.00
  Atomic Wigner-Seitz radii
   RWIGS  =  -1.00
  virtual crystal weights 
   VCA    =   1.00
   NELECT =     160.0000    total number of electrons
   NUPDOWN=      -1.0000    fix difference up-down

 DOS related values:
   EMIN   =  10.00;   EMAX   =-10.00  energy-range for DOS
   EFERMI =   0.00
   ISMEAR =     1;   SIGMA  =   0.20  broadening in eV -4-tet -1-fermi 0-gaus

 Electronic relaxation 2 (details)
   IALGO  =     38    algorithm
   LDIAG  =      T    sub-space diagonalisation (order eigenvalues)
   LSUBROT=      F    optimize rotation matrix (better conditioning)
   TURBO    =      0    0=normal 1=particle mesh
   IRESTART =      0    0=no restart 2=restart with 2 vectors
   NREBOOT  =      0    no. of reboots
   NMIN     =      0    reboot dimension
   EREF     =   0.00    reference energy to select bands
   IMIX   =      4    mixing-type and parameters
     AMIX     =   0.40;   BMIX     =  1.00
     AMIX_MAG =   1.60;   BMIX_MAG =  1.00
     AMIN     =   0.10
     WC   =   100.;   INIMIX=   1;  MIXPRE=   1;  MAXMIX= -45

 Intra band minimization:
   WEIMIN = 0.0010     energy-eigenvalue tresh-hold
   EBREAK =  0.24E-06  absolut break condition
   DEPER  =   0.30     relativ break condition  

   TIME   =   0.40     timestep for ELM

  volume/ion in A,a.u.               =     850.96      5742.58
  Fermi-wavevector in a.u.,A,eV,Ry     =   0.372196  0.703348  1.884809  0.138530
  Thomas-Fermi vector in A             =   1.300887
 
 Write flags
   LWAVE        =      F    write WAVECAR
   LDOWNSAMPLE  =      F    k-point downsampling of WAVECAR
   LCHARG       =      F    write CHGCAR
   LVTOT        =      F    write LOCPOT, total local potential
   LVHAR        =      F    write LOCPOT, Hartree potential only
   LELF         =      F    write electronic localiz. function (ELF)
   LORBIT       =      0    0 simple, 1 ext, 2 COOP (PROOUT), +10 PAW based schemes


 Dipole corrections
   LMONO  =      F    monopole corrections only (constant potential shift)
   LDIPOL =      F    correct potential (dipole corrections)
   IDIPOL =      0    1-x, 2-y, 3-z, 4-all directions 
   EPSILON=  1.0000000 bulk dielectric constant

 Exchange correlation treatment:
   GGA     =    PE    GGA type
   LEXCH   =     8    internal setting for exchange type
   VOSKOWN=      0    Vosko Wilk Nusair interpolation
   LHFCALC =     F    Hartree Fock is set to
   LHFONE  =     F    Hartree Fock one center treatment
   AEXX    =    0.0000 exact exchange contribution

 Linear response parameters
   LEPSILON=     F    determine dielectric tensor
   LRPA    =     F    only Hartree local field effects (RPA)
   LNABLA  =     F    use nabla operator in PAW spheres
   LVEL    =     F    velocity operator in full k-point grid
   LINTERFAST=   F  fast interpolation
   KINTER  =     0    interpolate to denser k-point grid
   CSHIFT  =0.1000    complex shift for real part using Kramers Kronig
   OMEGAMAX=  -1.0    maximum frequency
   DEG_THRESHOLD= 0.2000000E-02 threshold for treating states as degnerate
   RTIME   =   -0.100 relaxation time in fs
  (WPLASMAI=    0.000 imaginary part of plasma frequency in eV, 0.658/RTIME)
   DFIELD  = 0.0000000 0.0000000 0.0000000 field for delta impulse in time
 
 Orbital magnetization related:
   ORBITALMAG=     F  switch on orbital magnetization
   LCHIMAG   =     F  perturbation theory with respect to B field
   DQ        =  0.001000  dq finite difference perturbation B field
   LLRAUG    =     F  two centre corrections for induced B field



--------------------------------------------------------------------------------------------------------


 conjugate gradient relaxation of ions
 charge density and potential will be updated during run
 spin polarized calculation
 Variant of blocked Davidson
 Davidson routine will perform the subspace rotation
 perform sub-space diagonalisation
    after iterative eigenvector-optimisation
 modified Broyden-mixing scheme, WC =      100.0
 initial mixing is a Kerker type mixing with AMIX =  0.4000 and BMIX =      1.0000
 Hartree-type preconditioning will be used
 using additional bands            24
 reciprocal scheme for non local part
 use partial core corrections
 calculate Harris-corrections to forces 
   (improved forces if not selfconsistent)
 use gradient corrections 
 use of overlap-Matrix (Vanderbilt PP)
 Methfessel and Paxton  Order N= 1 SIGMA  =   0.20


--------------------------------------------------------------------------------------------------------


  energy-cutoff  :      400.00
  volume of cell :    13615.41
      direct lattice vectors                 reciprocal lattice vectors
    23.857200753  0.000000000  0.000000000     0.041916066  0.000000000  0.000000000
     0.000000000 23.923318161  0.000000000     0.000000000  0.041800222  0.000000000
     0.000000000  0.000000000 23.855575473     0.000000000  0.000000000  0.041918922

  length of vectors
    23.857200753 23.923318161 23.855575473     0.041916066  0.041800222  0.041918922


 
 k-points in units of 2pi/SCALE and weight: KPOINTS created by Atomic Simulation Env
   0.00000000  0.00000000  0.00000000       1.000
 
 k-points in reciprocal lattice and weights: KPOINTS created by Atomic Simulation Env
   0.00000000  0.00000000  0.00000000       1.000
 
 position of ions in fractional coordinates (direct lattice) 
   0.48499069  0.49532284  0.52025151
   0.54228219  0.56711656  0.58698522
   0.53910058  0.46372634  0.61672844
   0.45783239  0.57994787  0.45531802
   0.56853688  0.43390301  0.48857750
   0.43970106  0.51323465  0.61574483
   0.39837843  0.43278903  0.54059687
   0.37617039  0.53878641  0.52821255
   0.49557116  0.38639489  0.55897748
   0.56798175  0.55477935  0.47776031
   0.40339447  0.48417569  0.43929060
   0.51063184  0.48917004  0.40928649
   0.46707616  0.39923505  0.45660804
   0.53504232  0.58981021  0.38204349
   0.62073088  0.49944541  0.55541482
   0.44869746  0.60894618  0.56068221
 
 position of ions in cartesian coordinates  (Angst):
  11.57052034 11.84976588 12.41089905
  12.93733511 13.56730996 14.00287033
  12.86143067 11.09387289 14.71241177
  10.92259916 13.87427749 10.86187342
  13.56369846 10.38039985 11.65529749
  10.49003648 12.27827587 14.68894735
   9.50419418 10.35374966 12.89624933
   8.97437245 12.88955861 12.60081425
  11.82294066  9.24384779 13.33472944
  13.55045460 13.27216286 11.39724712
   9.62386276 11.58308908 10.47953004
  12.18224628 11.70257048  9.76376477
  11.14312965  9.55102705 10.89264762
  12.76461205 14.11021734  9.11386739
  14.80890132 11.94839146 13.24974011
  10.70466545 14.56801314 13.37539687
 


--------------------------------------------------------------------------------------------------------


 use parallel FFT for orbitals z direction half grid
 k-point   1 :   0.0000 0.0000 0.0000  plane waves:  123598

 maximum and minimum number of plane-waves per node :     15452    15448

 maximum number of plane-waves:    123598
 maximum index in each direction: 
   IXMAX=   38   IYMAX=   39   IZMAX=   38
   IXMIN=  -38   IYMIN=  -38   IZMIN=    0


 parallel 3D FFT for wavefunctions:
    minimum data exchange during FFTs selected (reduces bandwidth)
 parallel 3D FFT for charge:
    minimum data exchange during FFTs selected (reduces bandwidth)


 total amount of memory used by VASP MPI-rank0   175774. kBytes
=======================================================================

   base      :      30000. kBytes
   nonl-proj :       6180. kBytes
   fftplans  :      33873. kBytes
   grid      :      79948. kBytes
   one-center:         31. kBytes
   wavefun   :      25742. kBytes
 
     INWAV:  cpu time    0.0000: real time    0.0000
 Broyden mixing: mesh for mixing (old mesh)
   NGX = 77   NGY = 79   NGZ = 77
  (NGX  =240   NGY  =240   NGZ  =240)
  gives a total of 468391 points

 initial charge density was supplied:
 charge density of overlapping atoms calculated
 number of electron     160.0000000 magnetization      16.0000000
 keeping initial charge density in first step


--------------------------------------------------------------------------------------------------------


 Maximum index for augmentation-charges           399 (set IRDMAX)


--------------------------------------------------------------------------------------------------------


 First call to EWALD:  gamma=   0.074
 Maximum number of real-space cells 3x 3x 3
 Maximum number of reciprocal cells 3x 3x 3

    FEWALD:  cpu time    0.0022: real time    0.0022


--------------------------------------- Iteration      1(   1)  ---------------------------------------


    POTLOK:  cpu time    3.0730: real time    3.1136
    SETDIJ:  cpu time    0.0283: real time    0.0283
     EDDAV:  cpu time   23.2801: real time   23.4069
       DOS:  cpu time    0.0091: real time    0.0091
    --------------------------------------------
      LOOP:  cpu time   26.3904: real time   26.5578

 eigenvalue-minimisations  :   416
 total energy-change (2. order) : 0.1438000E+04  (-0.2770373E+04)
 number of electron     160.0000000 magnetization      16.0000000
 augmentation part      160.0000000 magnetization      16.0000000

 Free energy of the ion-electron system (eV)
  ---------------------------------------------------
  alpha Z        PSCENC =        12.25439022
  Ewald energy   TEWEN  =     27079.41362963
  -Hartree energ DENC   =    -39374.81232432
  -exchange      EXHF   =         0.00000000
  -V(xc)+E(xc)   XCENC  =      -478.94352735
  PAW double counting   =     12906.36685261   -11910.91650437
  entropy T*S    EENTRO =         0.03292245
  eigenvalues    EBANDS =       248.70262383
  atomic energy  EATOM  =     12955.90228127
  Solvation  Ediel_sol  =         0.00000000
  ---------------------------------------------------
  free energy    TOTEN  =      1438.00034396 eV

  energy without entropy =     1437.96742152  energy(sigma->0) =     1437.98936981


--------------------------------------------------------------------------------------------------------




--------------------------------------- Iteration      1(   2)  ---------------------------------------


     EDDAV:  cpu time   40.1385: real time   40.3381
       DOS:  cpu time    0.0013: real time    0.0013
    --------------------------------------------
      LOOP:  cpu time   40.1399: real time   40.3394

 eigenvalue-minimisations  :   800
 total energy-change (2. order) :-0.7173725E+03  (-0.6468981E+03)
 number of electron     160.0000000 magnetization      16.0000000
 augmentation part      160.0000000 magnetization      16.0000000

 Free energy of the ion-electron system (eV)
  ---------------------------------------------------
  alpha Z        PSCENC =        12.25439022
  Ewald energy   TEWEN  =     27079.41362963
  -Hartree energ DENC   =    -39374.81232432
  -exchange      EXHF   =         0.00000000
  -V(xc)+E(xc)   XCENC  =      -478.94352735
  PAW double counting   =     12906.36685261   -11910.91650437
  entropy T*S    EENTRO =        -0.04183914
  eigenvalues    EBANDS =      -468.59506613
  atomic energy  EATOM  =     12955.90228127
  Solvation  Ediel_sol  =         0.00000000
  ---------------------------------------------------
  free energy    TOTEN  =       720.62789243 eV

  energy without entropy =      720.66973156  energy(sigma->0) =      720.64183881


--------------------------------------------------------------------------------------------------------




--------------------------------------- Iteration      1(   3)  ---------------------------------------


     EDDAV:  cpu time   35.6003: real time   35.9137
       DOS:  cpu time    0.0048: real time    0.0048
    --------------------------------------------
      LOOP:  cpu time   35.6051: real time   35.9185

 eigenvalue-minimisations  :   688
 total energy-change (2. order) :-0.6039199E+03  (-0.5616451E+03)
 number of electron     160.0000000 magnetization      16.0000000
 augmentation part      160.0000000 magnetization      16.0000000

 Free energy of the ion-electron system (eV)
  ---------------------------------------------------
  alpha Z        PSCENC =        12.25439022
  Ewald energy   TEWEN  =     27079.41362963
  -Hartree energ DENC   =    -39374.81232432
  -exchange      EXHF   =         0.00000000
  -V(xc)+E(xc)   XCENC  =      -478.94352735
  PAW double counting   =     12906.36685261   -11910.91650437
  entropy T*S    EENTRO =        -0.04775820
  eigenvalues    EBANDS =     -1072.50906179
  atomic energy  EATOM  =     12955.90228127
  Solvation  Ediel_sol  =         0.00000000
  ---------------------------------------------------
  free energy    TOTEN  =       116.70797770 eV

  energy without entropy =      116.75573590  energy(sigma->0) =      116.72389710


--------------------------------------------------------------------------------------------------------




--------------------------------------- Iteration      1(   4)  ---------------------------------------


     EDDAV:  cpu time   28.7321: real time   29.8080
       DOS:  cpu time    0.0259: real time    0.0259
    --------------------------------------------
      LOOP:  cpu time   28.7580: real time   29.8339

 eigenvalue-minimisations  :   544
 total energy-change (2. order) :-0.1587421E+03  (-0.1442616E+03)
 number of electron     160.0000000 magnetization      16.0000000
 augmentation part      160.0000000 magnetization      16.0000000

 Free energy of the ion-electron system (eV)
  ---------------------------------------------------
  alpha Z        PSCENC =        12.25439022
  Ewald energy   TEWEN  =     27079.41362963
  -Hartree energ DENC   =    -39374.81232432
  -exchange      EXHF   =         0.00000000
  -V(xc)+E(xc)   XCENC  =      -478.94352735
  PAW double counting   =     12906.36685261   -11910.91650437
  entropy T*S    EENTRO =        -0.03930307
  eigenvalues    EBANDS =     -1231.25963642
  atomic energy  EATOM  =     12955.90228127
  Solvation  Ediel_sol  =         0.00000000
  ---------------------------------------------------
  free energy    TOTEN  =       -42.03414180 eV

  energy without entropy =      -41.99483873  energy(sigma->0) =      -42.02104078


--------------------------------------------------------------------------------------------------------




--------------------------------------- Iteration      1(   5)  ---------------------------------------


     EDDAV:  cpu time   30.1532: real time   30.2890
       DOS:  cpu time    0.0131: real time    0.0131
    CHARGE:  cpu time    1.4501: real time    1.4530
    MIXING:  cpu time    0.0680: real time    0.0682
    --------------------------------------------
      LOOP:  cpu time   31.6844: real time   31.8233

 eigenvalue-minimisations  :   552
 total energy-change (2. order) :-0.2204282E+02  (-0.1815919E+02)
 number of electron     160.0000028 magnetization      14.9753997
 augmentation part       67.6527936 magnetization      12.3528838

 Broyden mixing:
  rms(total) = 0.27041E+01    rms(broyden)= 0.27040E+01
  rms(prec ) = 0.27571E+01
  weight for this iteration     100.00

 Free energy of the ion-electron system (eV)
  ---------------------------------------------------
  alpha Z        PSCENC =        12.25439022
  Ewald energy   TEWEN  =     27079.41362963
  -Hartree energ DENC   =    -39374.81232432
  -exchange      EXHF   =         0.00000000
  -V(xc)+E(xc)   XCENC  =      -478.94352735
  PAW double counting   =     12906.36685261   -11910.91650437
  entropy T*S    EENTRO =        -0.00913755
  eigenvalues    EBANDS =     -1253.33261806
  atomic energy  EATOM  =     12955.90228127
  Solvation  Ediel_sol  =         0.00000000
  ---------------------------------------------------
  free energy    TOTEN  =       -64.07695793 eV

  energy without entropy =      -64.06782037  energy(sigma->0) =      -64.07391207


--------------------------------------------------------------------------------------------------------




--------------------------------------- Iteration      1(   6)  ---------------------------------------


    POTLOK:  cpu time    3.0785: real time    3.0951
    SETDIJ:  cpu time    0.0316: real time    0.0317
     EDDAV:  cpu time   23.5696: real time   23.9377
       DOS:  cpu time    0.0057: real time    0.0057
    CHARGE:  cpu time    1.4907: real time    1.4914
    MIXING:  cpu time    0.1005: real time    0.1006
    --------------------------------------------
      LOOP:  cpu time   28.2766: real time   28.6622

 eigenvalue-minimisations  :   448
 total energy-change (2. order) : 0.8782743E+01  (-0.4012834E+01)
 number of electron     160.0000030 magnetization      14.3182218
 augmentation part       68.6355589 magnetization       9.3044231

 Broyden mixing:
  rms(total) = 0.16310E+01    rms(broyden)= 0.16309E+01
  rms(prec ) = 0.17133E+01
  weight for this iteration     100.00

 eigenvalues of (default mixing * dielectric matrix)
  average eigenvalue GAMMA=   0.7704
  0.7704

 Free energy of the ion-electron system (eV)
  ---------------------------------------------------
  alpha Z        PSCENC =        12.25439022
  Ewald energy   TEWEN  =     27079.41362963
  -Hartree energ DENC   =    -39439.71365803
  -exchange      EXHF   =         0.00000000
  -V(xc)+E(xc)   XCENC  =      -474.57027842
  PAW double counting   =     13857.43014463   -12872.92816929
  entropy T*S    EENTRO =         0.01792308
  eigenvalues    EBANDS =     -1173.10047755
  atomic energy  EATOM  =     12955.90228127
  Solvation  Ediel_sol  =         0.00000000
  ---------------------------------------------------
  free energy    TOTEN  =       -55.29421446 eV

  energy without entropy =      -55.31213755  energy(sigma->0) =      -55.30018882


--------------------------------------------------------------------------------------------------------




--------------------------------------- Iteration      1(   7)  ---------------------------------------


    POTLOK:  cpu time    3.0746: real time    3.0915
    SETDIJ:  cpu time    0.0461: real time    0.0461
     EDDAV:  cpu time   24.9040: real time   27.1532
       DOS:  cpu time    0.0212: real time    0.0212
    CHARGE:  cpu time    1.5471: real time    1.5479
    MIXING:  cpu time    0.1055: real time    0.1068
    --------------------------------------------
      LOOP:  cpu time   29.6984: real time   31.9668

 eigenvalue-minimisations  :   456
 total energy-change (2. order) :-0.1821169E+01  (-0.2690574E+01)
 number of electron     160.0000016 magnetization      13.6411598
 augmentation part       67.8712820 magnetization      10.5256858

 Broyden mixing:
  rms(total) = 0.27024E+01    rms(broyden)= 0.27022E+01
  rms(prec ) = 0.30801E+01
  weight for this iteration     100.00

 eigenvalues of (default mixing * dielectric matrix)
  average eigenvalue GAMMA=   0.7669
  1.2157  0.3181

 Free energy of the ion-electron system (eV)
  ---------------------------------------------------
  alpha Z        PSCENC =        12.25439022
  Ewald energy   TEWEN  =     27079.41362963
  -Hartree energ DENC   =    -39500.81866930
  -exchange      EXHF   =         0.00000000
  -V(xc)+E(xc)   XCENC  =      -470.21709011
  PAW double counting   =     14370.01087837   -13389.50558883
  entropy T*S    EENTRO =         0.02224918
  eigenvalues    EBANDS =     -1114.17746378
  atomic energy  EATOM  =     12955.90228127
  Solvation  Ediel_sol  =         0.00000000
  ---------------------------------------------------
  free energy    TOTEN  =       -57.11538334 eV

  energy without entropy =      -57.13763253  energy(sigma->0) =      -57.12279974


--------------------------------------------------------------------------------------------------------




--------------------------------------- Iteration      1(   8)  ---------------------------------------


    POTLOK:  cpu time    3.0346: real time    3.0459
    SETDIJ:  cpu time    0.0473: real time    0.0473
     EDDAV:  cpu time   24.3342: real time   25.3729
       DOS:  cpu time    0.0020: real time    0.0020
    CHARGE:  cpu time    1.4869: real time    1.4904
    MIXING:  cpu time    0.0938: real time    0.0940
    --------------------------------------------
      LOOP:  cpu time   28.9988: real time   30.0525

 eigenvalue-minimisations  :   456
 total energy-change (2. order) : 0.5481757E+01  (-0.3120677E+01)
 number of electron     160.0000038 magnetization      13.2743196
 augmentation part       67.9489443 magnetization       9.3433784

 Broyden mixing:
  rms(total) = 0.18749E+01    rms(broyden)= 0.18746E+01
  rms(prec ) = 0.21169E+01
  weight for this iteration     100.00

 eigenvalues of (default mixing * dielectric matrix)
  average eigenvalue GAMMA=   0.6774
  1.4279  0.3946  0.2098

 Free energy of the ion-electron system (eV)
  ---------------------------------------------------
  alpha Z        PSCENC =        12.25439022
  Ewald energy   TEWEN  =     27079.41362963
  -Hartree energ DENC   =    -39538.02399305
  -exchange      EXHF   =         0.00000000
  -V(xc)+E(xc)   XCENC  =      -468.04594891
  PAW double counting   =     14714.57207023   -13737.64333340
  entropy T*S    EENTRO =         0.05431540
  eigenvalues    EBANDS =     -1070.11703814
  atomic energy  EATOM  =     12955.90228127
  Solvation  Ediel_sol  =         0.00000000
  ---------------------------------------------------
  free energy    TOTEN  =       -51.63362676 eV

  energy without entropy =      -51.68794216  energy(sigma->0) =      -51.65173189


--------------------------------------------------------------------------------------------------------




--------------------------------------- Iteration      1(   9)  ---------------------------------------


    POTLOK:  cpu time    3.1674: real time    3.1781
    SETDIJ:  cpu time    0.0275: real time    0.0275
     EDDAV:  cpu time   24.7709: real time   24.8917
       DOS:  cpu time    0.0028: real time    0.0028
    CHARGE:  cpu time    1.3836: real time    1.3869
    MIXING:  cpu time    0.0825: real time    0.0828
    --------------------------------------------
      LOOP:  cpu time   29.4347: real time   29.5698

 eigenvalue-minimisations  :   456
 total energy-change (2. order) : 0.2852285E+01  (-0.1331579E+01)
 number of electron     160.0000021 magnetization      13.0604432
 augmentation part       68.2366217 magnetization       8.7824779

 Broyden mixing:
  rms(total) = 0.13608E+01    rms(broyden)= 0.13605E+01
  rms(prec ) = 0.15462E+01
  weight for this iteration     100.00

 eigenvalues of (default mixing * dielectric matrix)
  average eigenvalue GAMMA=   0.6002
  1.5313  0.4510  0.2092  0.2092

 Free energy of the ion-electron system (eV)
  ---------------------------------------------------
  alpha Z        PSCENC =        12.25439022
  Ewald energy   TEWEN  =     27079.41362963
  -Hartree energ DENC   =    -39551.64078281
  -exchange      EXHF   =         0.00000000
  -V(xc)+E(xc)   XCENC  =      -467.75462154
  PAW double counting   =     14847.46422191   -13872.03284356
  entropy T*S    EENTRO =         0.00033321
  eigenvalues    EBANDS =     -1052.38795030
  atomic energy  EATOM  =     12955.90228127
  Solvation  Ediel_sol  =         0.00000000
  ---------------------------------------------------
  free energy    TOTEN  =       -48.78134196 eV

  energy without entropy =      -48.78167517  energy(sigma->0) =      -48.78145303


--------------------------------------------------------------------------------------------------------




--------------------------------------- Iteration      1(  10)  ---------------------------------------


    POTLOK:  cpu time    3.0895: real time    3.1190
    SETDIJ:  cpu time    0.0241: real time    0.0242
     EDDAV:  cpu time   25.9919: real time   26.1296
       DOS:  cpu time    0.0022: real time    0.0022
    CHARGE:  cpu time    1.4396: real time    1.4434
    MIXING:  cpu time    0.0920: real time    0.0923
    --------------------------------------------
      LOOP:  cpu time   30.6393: real time   30.8106

 eigenvalue-minimisations  :   456
 total energy-change (2. order) : 0.9269814E+00  (-0.6868319E+00)
 number of electron     160.0000028 magnetization      12.6842616
 augmentation part       68.3643122 magnetization       8.1276600

 Broyden mixing:
  rms(total) = 0.76691E+00    rms(broyden)= 0.76654E+00
  rms(prec ) = 0.85047E+00
  weight for this iteration     100.00

 eigenvalues of (default mixing * dielectric matrix)
  average eigenvalue GAMMA=   0.6001
  1.7157  0.5590  0.2880  0.2880  0.1499

 Free energy of the ion-electron system (eV)
  ---------------------------------------------------
  alpha Z        PSCENC =        12.25439022
  Ewald energy   TEWEN  =     27079.41362963
  -Hartree energ DENC   =    -39556.85870542
  -exchange      EXHF   =         0.00000000
  -V(xc)+E(xc)   XCENC  =      -467.81532143
  PAW double counting   =     14899.31284397   -13924.30598279
  entropy T*S    EENTRO =        -0.00987038
  eigenvalues    EBANDS =     -1045.74762562
  atomic energy  EATOM  =     12955.90228127
  Solvation  Ediel_sol  =         0.00000000
  ---------------------------------------------------
  free energy    TOTEN  =       -47.85436055 eV

  energy without entropy =      -47.84449018  energy(sigma->0) =      -47.85107043


--------------------------------------------------------------------------------------------------------




--------------------------------------- Iteration      1(  11)  ---------------------------------------


    POTLOK:  cpu time    3.1122: real time    3.2750
    SETDIJ:  cpu time    0.0298: real time    0.0299
     EDDAV:  cpu time   23.6667: real time   23.8570
       DOS:  cpu time    0.0033: real time    0.0033
    CHARGE:  cpu time    1.5656: real time    1.5751
    MIXING:  cpu time    0.1002: real time    0.1006
    --------------------------------------------
      LOOP:  cpu time   28.4778: real time   28.8410

 eigenvalue-minimisations  :   448
 total energy-change (2. order) :-0.1036115E+01  (-0.2546239E+00)
 number of electron     160.0000030 magnetization      12.4530853
 augmentation part       68.3110340 magnetization       7.9285606

 Broyden mixing:
  rms(total) = 0.58457E+00    rms(broyden)= 0.58443E+00
  rms(prec ) = 0.62223E+00
  weight for this iteration     100.00

 eigenvalues of (default mixing * dielectric matrix)
  average eigenvalue GAMMA=   0.5551
  1.7542  0.5032  0.4260  0.2437  0.2437  0.1601

 Free energy of the ion-electron system (eV)
  ---------------------------------------------------
  alpha Z        PSCENC =        12.25439022
  Ewald energy   TEWEN  =     27079.41362963
  -Hartree energ DENC   =    -39570.00839415
  -exchange      EXHF   =         0.00000000
  -V(xc)+E(xc)   XCENC  =      -468.53606636
  PAW double counting   =     14973.55584038   -13998.93267637
  entropy T*S    EENTRO =         0.01519495
  eigenvalues    EBANDS =     -1032.55467484
  atomic energy  EATOM  =     12955.90228127
  Solvation  Ediel_sol  =         0.00000000
  ---------------------------------------------------
  free energy    TOTEN  =       -48.89047527 eV

  energy without entropy =      -48.90567022  energy(sigma->0) =      -48.89554025


--------------------------------------------------------------------------------------------------------




--------------------------------------- Iteration      1(  12)  ---------------------------------------


    POTLOK:  cpu time    3.4776: real time    3.5009
    SETDIJ:  cpu time    0.0303: real time    0.0304
     EDDAV:  cpu time   23.6025: real time   23.7335
       DOS:  cpu time    0.0011: real time    0.0012
    CHARGE:  cpu time    1.4497: real time    1.4623
    MIXING:  cpu time    0.1080: real time    0.1083
    --------------------------------------------
      LOOP:  cpu time   28.6693: real time   28.8365

 eigenvalue-minimisations  :   432
 total energy-change (2. order) :-0.9997195E+00  (-0.8949512E-01)
 number of electron     160.0000028 magnetization      12.2309129
 augmentation part       68.2091600 magnetization       7.8218351

 Broyden mixing:
  rms(total) = 0.42877E+00    rms(broyden)= 0.42869E+00
  rms(prec ) = 0.45995E+00
  weight for this iteration     100.00

 eigenvalues of (default mixing * dielectric matrix)
  average eigenvalue GAMMA=   0.5482
  1.6751  0.6259  0.6259  0.2794  0.2794  0.1969  0.1546

 Free energy of the ion-electron system (eV)
  ---------------------------------------------------
  alpha Z        PSCENC =        12.25439022
  Ewald energy   TEWEN  =     27079.41362963
  -Hartree energ DENC   =    -39579.58478431
  -exchange      EXHF   =         0.00000000
  -V(xc)+E(xc)   XCENC  =      -469.29695653
  PAW double counting   =     15004.22970839   -14029.73614502
  entropy T*S    EENTRO =         0.00135448
  eigenvalues    EBANDS =     -1023.07367288
  atomic energy  EATOM  =     12955.90228127
  Solvation  Ediel_sol  =         0.00000000
  ---------------------------------------------------
  free energy    TOTEN  =       -49.89019476 eV

  energy without entropy =      -49.89154924  energy(sigma->0) =      -49.89064625


--------------------------------------------------------------------------------------------------------




--------------------------------------- Iteration      1(  13)  ---------------------------------------


    POTLOK:  cpu time    3.4265: real time    3.4703
    SETDIJ:  cpu time    0.0397: real time    0.0399
     EDDAV:  cpu time   24.1399: real time   24.2239
       DOS:  cpu time    0.0110: real time    0.0110
    CHARGE:  cpu time    1.4556: real time    1.4660
    MIXING:  cpu time    0.1269: real time    0.1272
    --------------------------------------------
      LOOP:  cpu time   29.1997: real time   29.3383

 eigenvalue-minimisations  :   448
 total energy-change (2. order) :-0.1316410E+01  (-0.5358306E-01)
 number of electron     160.0000027 magnetization      11.7667149
 augmentation part       68.2014605 magnetization       7.4879324

 Broyden mixing:
  rms(total) = 0.34398E+00    rms(broyden)= 0.34394E+00
  rms(prec ) = 0.36355E+00
  weight for this iteration     100.00

 eigenvalues of (default mixing * dielectric matrix)
  average eigenvalue GAMMA=   0.6030
  1.5019  0.9857  0.9857  0.4253  0.2818  0.2818  0.1540  0.2080

 Free energy of the ion-electron system (eV)
  ---------------------------------------------------
  alpha Z        PSCENC =        12.25439022
  Ewald energy   TEWEN  =     27079.41362963
  -Hartree energ DENC   =    -39584.53444514
  -exchange      EXHF   =         0.00000000
  -V(xc)+E(xc)   XCENC  =      -470.22027738
  PAW double counting   =     15000.71526507   -14026.13924758
  entropy T*S    EENTRO =        -0.00475580
  eigenvalues    EBANDS =     -1018.59344496
  atomic energy  EATOM  =     12955.90228127
  Solvation  Ediel_sol  =         0.00000000
  ---------------------------------------------------
  free energy    TOTEN  =       -51.20660467 eV

  energy without entropy =      -51.20184887  energy(sigma->0) =      -51.20501940


--------------------------------------------------------------------------------------------------------




--------------------------------------- Iteration      1(  14)  ---------------------------------------


    POTLOK:  cpu time    4.3755: real time    4.3898
    SETDIJ:  cpu time    0.0348: real time    0.0349
     EDDAV:  cpu time   23.0736: real time   23.1828
       DOS:  cpu time    0.0021: real time    0.0021
    CHARGE:  cpu time    1.4842: real time    1.4880
    MIXING:  cpu time    0.1286: real time    0.1291
    --------------------------------------------
      LOOP:  cpu time   29.0989: real time   29.2267

 eigenvalue-minimisations  :   448
 total energy-change (2. order) :-0.2182823E+01  (-0.7533840E-01)
 number of electron     160.0000027 magnetization      11.4122725
 augmentation part       68.1109830 magnetization       7.2576305

 Broyden mixing:
  rms(total) = 0.28487E+00    rms(broyden)= 0.28481E+00
  rms(prec ) = 0.30580E+00
  weight for this iteration     100.00

 eigenvalues of (default mixing * dielectric matrix)
  average eigenvalue GAMMA=   0.6445
  1.8064  1.0332  1.0332  0.7400  0.2883  0.2883  0.2577  0.1554  0.1980

 Free energy of the ion-electron system (eV)
  ---------------------------------------------------
  alpha Z        PSCENC =        12.25439022
  Ewald energy   TEWEN  =     27079.41362963
  -Hartree energ DENC   =    -39595.94296289
  -exchange      EXHF   =         0.00000000
  -V(xc)+E(xc)   XCENC  =      -471.82983647
  PAW double counting   =     15006.91836108   -14032.45674674
  entropy T*S    EENTRO =        -0.01586132
  eigenvalues    EBANDS =     -1007.63268262
  atomic energy  EATOM  =     12955.90228127
  Solvation  Ediel_sol  =         0.00000000
  ---------------------------------------------------
  free energy    TOTEN  =       -53.38942785 eV

  energy without entropy =      -53.37356652  energy(sigma->0) =      -53.38414074


--------------------------------------------------------------------------------------------------------




--------------------------------------- Iteration      1(  15)  ---------------------------------------


    POTLOK:  cpu time    3.3279: real time    3.3453
    SETDIJ:  cpu time    0.0346: real time    0.0347
     EDDAV:  cpu time   23.9538: real time   24.1118
       DOS:  cpu time    0.0011: real time    0.0061
    CHARGE:  cpu time    1.4643: real time    1.4688
    MIXING:  cpu time    0.1581: real time    0.1586
    --------------------------------------------
      LOOP:  cpu time   28.9399: real time   29.1253

 eigenvalue-minimisations  :   456
 total energy-change (2. order) :-0.1155935E+01  (-0.3392916E-01)
 number of electron     160.0000025 magnetization      11.1981520
 augmentation part       68.1297547 magnetization       7.2206035

 Broyden mixing:
  rms(total) = 0.26640E+00    rms(broyden)= 0.26636E+00
  rms(prec ) = 0.29352E+00
  weight for this iteration     100.00

 eigenvalues of (default mixing * dielectric matrix)
  average eigenvalue GAMMA=   0.6316
  1.9168  1.0752  1.0752  0.7736  0.3065  0.3065  0.1546  0.2504  0.2504  0.2064

 Free energy of the ion-electron system (eV)
  ---------------------------------------------------
  alpha Z        PSCENC =        12.25439022
  Ewald energy   TEWEN  =     27079.41362963
  -Hartree energ DENC   =    -39600.21481281
  -exchange      EXHF   =         0.00000000
  -V(xc)+E(xc)   XCENC  =      -472.76985842
  PAW double counting   =     15017.33529922   -14043.33102344
  entropy T*S    EENTRO =        -0.03023633
  eigenvalues    EBANDS =     -1003.10503178
  atomic energy  EATOM  =     12955.90228127
  Solvation  Ediel_sol  =         0.00000000
  ---------------------------------------------------
  free energy    TOTEN  =       -54.54536244 eV

  energy without entropy =      -54.51512612  energy(sigma->0) =      -54.53528367


--------------------------------------------------------------------------------------------------------




--------------------------------------- Iteration      1(  16)  ---------------------------------------


    POTLOK:  cpu time    3.6334: real time    3.7024
    SETDIJ:  cpu time    0.2560: real time    0.2801
     EDDAV:  cpu time   23.9717: real time   24.5139
       DOS:  cpu time    0.0142: real time    0.0143
    CHARGE:  cpu time    1.3987: real time    1.4021
    MIXING:  cpu time    0.1510: real time    0.1514
    --------------------------------------------
      LOOP:  cpu time   29.4251: real time   30.0642

 eigenvalue-minimisations  :   456
 total energy-change (2. order) :-0.5971618E+00  (-0.1789857E-01)
 number of electron     160.0000027 magnetization      10.8762131
 augmentation part       68.1262414 magnetization       6.9661988

 Broyden mixing:
  rms(total) = 0.20873E+00    rms(broyden)= 0.20869E+00
  rms(prec ) = 0.22995E+00
  weight for this iteration     100.00

 eigenvalues of (default mixing * dielectric matrix)
  average eigenvalue GAMMA=   0.6195
  1.9766  1.0293  1.0293  0.8683  0.4962  0.3234  0.2807  0.2807  0.2007  0.1549
  0.1742

 Free energy of the ion-electron system (eV)
  ---------------------------------------------------
  alpha Z        PSCENC =        12.25439022
  Ewald energy   TEWEN  =     27079.41362963
  -Hartree energ DENC   =    -39602.86304913
  -exchange      EXHF   =         0.00000000
  -V(xc)+E(xc)   XCENC  =      -473.25097538
  PAW double counting   =     15019.90626946   -14046.12331825
  entropy T*S    EENTRO =        -0.02047297
  eigenvalues    EBANDS =     -1000.36127913
  atomic energy  EATOM  =     12955.90228127
  Solvation  Ediel_sol  =         0.00000000
  ---------------------------------------------------
  free energy    TOTEN  =       -55.14252428 eV

  energy without entropy =      -55.12205131  energy(sigma->0) =      -55.13569996


--------------------------------------------------------------------------------------------------------




--------------------------------------- Iteration      1(  17)  ---------------------------------------


    POTLOK:  cpu time    4.1159: real time    4.1249
    SETDIJ:  cpu time    0.0306: real time    0.0307
     EDDAV:  cpu time   21.4377: real time   22.4788
       DOS:  cpu time    0.0070: real time    0.0070
    CHARGE:  cpu time    1.4950: real time    1.4982
    MIXING:  cpu time    0.1840: real time    0.1847
    --------------------------------------------
      LOOP:  cpu time   27.2702: real time   28.3242

 eigenvalue-minimisations  :   448
 total energy-change (2. order) :-0.9379413E+00  (-0.1969231E-01)
 number of electron     160.0000026 magnetization      10.5461113
 augmentation part       68.1136315 magnetization       6.7324256

 Broyden mixing:
  rms(total) = 0.14804E+00    rms(broyden)= 0.14801E+00
  rms(prec ) = 0.15937E+00
  weight for this iteration     100.00

 eigenvalues of (default mixing * dielectric matrix)
  average eigenvalue GAMMA=   0.6380
  1.8981  1.7059  0.7688  0.7688  0.6532  0.5251  0.2857  0.2857  0.2365  0.2057
  0.1549  0.1668

 Free energy of the ion-electron system (eV)
  ---------------------------------------------------
  alpha Z        PSCENC =        12.25439022
  Ewald energy   TEWEN  =     27079.41362963
  -Hartree energ DENC   =    -39607.17479463
  -exchange      EXHF   =         0.00000000
  -V(xc)+E(xc)   XCENC  =      -473.95920179
  PAW double counting   =     15015.50938222   -14041.91019781
  entropy T*S    EENTRO =        -0.02173925
  eigenvalues    EBANDS =      -996.09421546
  atomic energy  EATOM  =     12955.90228127
  Solvation  Ediel_sol  =         0.00000000
  ---------------------------------------------------
  free energy    TOTEN  =       -56.08046560 eV

  energy without entropy =      -56.05872635  energy(sigma->0) =      -56.07321918


--------------------------------------------------------------------------------------------------------




--------------------------------------- Iteration      1(  18)  ---------------------------------------


    POTLOK:  cpu time    3.1408: real time    3.1588
    SETDIJ:  cpu time    0.0342: real time    0.0343
     EDDAV:  cpu time   22.9462: real time   23.4206
       DOS:  cpu time    0.0022: real time    0.0022
    CHARGE:  cpu time    1.4213: real time    1.4238
    MIXING:  cpu time    0.1848: real time    0.1851
    --------------------------------------------
      LOOP:  cpu time   27.7295: real time   28.2250

 eigenvalue-minimisations  :   456
 total energy-change (2. order) :-0.9314496E+00  (-0.1815881E-01)
 number of electron     160.0000027 magnetization      10.1432800
 augmentation part       68.1018590 magnetization       6.4227931

 Broyden mixing:
  rms(total) = 0.12794E+00    rms(broyden)= 0.12792E+00
  rms(prec ) = 0.13615E+00
  weight for this iteration     100.00

 eigenvalues of (default mixing * dielectric matrix)
  average eigenvalue GAMMA=   0.6945
  2.0909  2.0909  0.9020  0.9020  0.7141  0.7141  0.2903  0.2903  0.2571  0.2571
  0.2002  0.1547  0.1655

 Free energy of the ion-electron system (eV)
  ---------------------------------------------------
  alpha Z        PSCENC =        12.25439022
  Ewald energy   TEWEN  =     27079.41362963
  -Hartree energ DENC   =    -39610.94909663
  -exchange      EXHF   =         0.00000000
  -V(xc)+E(xc)   XCENC  =      -474.65307860
  PAW double counting   =     15005.42326687   -14031.94775870
  entropy T*S    EENTRO =        -0.01852037
  eigenvalues    EBANDS =      -992.43702891
  atomic energy  EATOM  =     12955.90228127
  Solvation  Ediel_sol  =         0.00000000
  ---------------------------------------------------
  free energy    TOTEN  =       -57.01191521 eV

  energy without entropy =      -56.99339484  energy(sigma->0) =      -57.00574175


--------------------------------------------------------------------------------------------------------




--------------------------------------- Iteration      1(  19)  ---------------------------------------


    POTLOK:  cpu time    3.1621: real time    3.1711
    SETDIJ:  cpu time    0.0324: real time    0.0324
     EDDAV:  cpu time   22.6746: real time   22.8134
       DOS:  cpu time    0.0044: real time    0.0044
    CHARGE:  cpu time    1.2900: real time    1.4139
    MIXING:  cpu time    0.1367: real time    0.1828
    --------------------------------------------
      LOOP:  cpu time   27.3002: real time   27.6181

 eigenvalue-minimisations  :   440
 total energy-change (2. order) :-0.9859497E+00  (-0.1830183E-01)
 number of electron     160.0000027 magnetization       9.9237477
 augmentation part       68.0956178 magnetization       6.3258568

 Broyden mixing:
  rms(total) = 0.10865E+00    rms(broyden)= 0.10863E+00
  rms(prec ) = 0.11588E+00
  weight for this iteration     100.00

 eigenvalues of (default mixing * dielectric matrix)
  average eigenvalue GAMMA=   0.6951
  2.3521  1.9114  0.8959  0.8959  0.8096  0.8096  0.4201  0.2908  0.2908  0.2943
  0.2396  0.2023  0.1548  0.1639

 Free energy of the ion-electron system (eV)
  ---------------------------------------------------
  alpha Z        PSCENC =        12.25439022
  Ewald energy   TEWEN  =     27079.41362963
  -Hartree energ DENC   =    -39613.72227461
  -exchange      EXHF   =         0.00000000
  -V(xc)+E(xc)   XCENC  =      -475.43923043
  PAW double counting   =     14991.81622168   -14018.54883069
  entropy T*S    EENTRO =        -0.01589626
  eigenvalues    EBANDS =      -989.65815573
  atomic energy  EATOM  =     12955.90228127
  Solvation  Ediel_sol  =         0.00000000
  ---------------------------------------------------
  free energy    TOTEN  =       -57.99786493 eV

  energy without entropy =      -57.98196866  energy(sigma->0) =      -57.99256617


--------------------------------------------------------------------------------------------------------




--------------------------------------- Iteration      1(  20)  ---------------------------------------


    POTLOK:  cpu time    3.0267: real time    3.1694
    SETDIJ:  cpu time    0.0323: real time    0.0323
     EDDAV:  cpu time   22.3383: real time   22.8247
       DOS:  cpu time    0.0027: real time    0.0027
    CHARGE:  cpu time    1.4221: real time    1.4250
    MIXING:  cpu time    0.1988: real time    0.1994
    --------------------------------------------
      LOOP:  cpu time   27.0209: real time   27.6535

 eigenvalue-minimisations  :   456
 total energy-change (2. order) :-0.4830492E+00  (-0.5594217E-02)
 number of electron     160.0000027 magnetization       9.5529752
 augmentation part       68.0883400 magnetization       6.0209873

 Broyden mixing:
  rms(total) = 0.76800E-01    rms(broyden)= 0.76791E-01
  rms(prec ) = 0.81333E-01
  weight for this iteration     100.00

 eigenvalues of (default mixing * dielectric matrix)
  average eigenvalue GAMMA=   0.7293
  2.6949  1.9644  0.8829  0.8829  0.9656  0.9656  0.6616  0.2901  0.2901  0.3209
  0.2545  0.2450  0.2020  0.1548  0.1641

 Free energy of the ion-electron system (eV)
  ---------------------------------------------------
  alpha Z        PSCENC =        12.25439022
  Ewald energy   TEWEN  =     27079.41362963
  -Hartree energ DENC   =    -39614.01253561
  -exchange      EXHF   =         0.00000000
  -V(xc)+E(xc)   XCENC  =      -475.86613085
  PAW double counting   =     14983.71868939   -14010.58057884
  entropy T*S    EENTRO =        -0.01487956
  eigenvalues    EBANDS =      -989.29577980
  atomic energy  EATOM  =     12955.90228127
  Solvation  Ediel_sol  =         0.00000000
  ---------------------------------------------------
  free energy    TOTEN  =       -58.48091415 eV

  energy without entropy =      -58.46603459  energy(sigma->0) =      -58.47595430


--------------------------------------------------------------------------------------------------------




--------------------------------------- Iteration      1(  21)  ---------------------------------------


    POTLOK:  cpu time    3.1440: real time    3.1700
    SETDIJ:  cpu time    0.0321: real time    0.0321
     EDDAV:  cpu time   24.8112: real time   25.2541
       DOS:  cpu time    0.0034: real time    0.0034
    CHARGE:  cpu time    1.8367: real time    1.9495
    MIXING:  cpu time    0.1699: real time    0.2190
    --------------------------------------------
      LOOP:  cpu time   29.9973: real time   30.6282

 eigenvalue-minimisations  :   424
 total energy-change (2. order) :-0.7647568E+00  (-0.9376455E-02)
 number of electron     160.0000027 magnetization       9.2227964
 augmentation part       68.0982559 magnetization       5.7708249

 Broyden mixing:
  rms(total) = 0.62435E-01    rms(broyden)= 0.62421E-01
  rms(prec ) = 0.66002E-01
  weight for this iteration     100.00

 eigenvalues of (default mixing * dielectric matrix)
  average eigenvalue GAMMA=   0.7531
  3.0929  2.0209  1.1388  0.9203  0.9203  0.7131  0.7131  0.6172  0.2905  0.2905
  0.3093  0.2617  0.2407  0.2017  0.1548  0.1641

 Free energy of the ion-electron system (eV)
  ---------------------------------------------------
  alpha Z        PSCENC =        12.25439022
  Ewald energy   TEWEN  =     27079.41362963
  -Hartree energ DENC   =    -39613.84355138
  -exchange      EXHF   =         0.00000000
  -V(xc)+E(xc)   XCENC  =      -476.55303288
  PAW double counting   =     14968.25074610   -13995.27680176
  entropy T*S    EENTRO =        -0.00726644
  eigenvalues    EBANDS =      -989.38606572
  atomic energy  EATOM  =     12955.90228127
  Solvation  Ediel_sol  =         0.00000000
  ---------------------------------------------------
  free energy    TOTEN  =       -59.24567096 eV

  energy without entropy =      -59.23840452  energy(sigma->0) =      -59.24324881


--------------------------------------------------------------------------------------------------------




--------------------------------------- Iteration      1(  22)  ---------------------------------------


    POTLOK:  cpu time    3.5146: real time    3.7824
    SETDIJ:  cpu time    0.0552: real time    0.0552
     EDDAV:  cpu time   23.4511: real time   23.8029
       DOS:  cpu time    0.0086: real time    0.0086
    CHARGE:  cpu time    1.4875: real time    1.4901
    MIXING:  cpu time    0.2163: real time    0.2167
    --------------------------------------------
      LOOP:  cpu time   28.7332: real time   29.3559

 eigenvalue-minimisations  :   440
 total energy-change (2. order) :-0.6231145E+00  (-0.6902592E-02)
 number of electron     160.0000027 magnetization       8.8742914
 augmentation part       68.0937807 magnetization       5.4887262

 Broyden mixing:
  rms(total) = 0.64948E-01    rms(broyden)= 0.64941E-01
  rms(prec ) = 0.70174E-01
  weight for this iteration     100.00

 eigenvalues of (default mixing * dielectric matrix)
  average eigenvalue GAMMA=   0.8022
  3.7388  2.0610  1.3535  0.9030  0.9030  0.8640  0.8640  0.7155  0.2902  0.2902
  0.3448  0.2953  0.2465  0.2465  0.2018  0.1548  0.1641

 Free energy of the ion-electron system (eV)
  ---------------------------------------------------
  alpha Z        PSCENC =        12.25439022
  Ewald energy   TEWEN  =     27079.41362963
  -Hartree energ DENC   =    -39613.81387523
  -exchange      EXHF   =         0.00000000
  -V(xc)+E(xc)   XCENC  =      -477.11911166
  PAW double counting   =     14956.90292643   -13984.03804196
  entropy T*S    EENTRO =        -0.00464969
  eigenvalues    EBANDS =      -989.36633445
  atomic energy  EATOM  =     12955.90228127
  Solvation  Ediel_sol  =         0.00000000
  ---------------------------------------------------
  free energy    TOTEN  =       -59.86878544 eV

  energy without entropy =      -59.86413575  energy(sigma->0) =      -59.86723555


--------------------------------------------------------------------------------------------------------




--------------------------------------- Iteration      1(  23)  ---------------------------------------


    POTLOK:  cpu time    3.1560: real time    3.1640
    SETDIJ:  cpu time    0.0357: real time    0.0357
     EDDAV:  cpu time   23.5027: real time   23.5605
       DOS:  cpu time    0.0076: real time    0.0076
    CHARGE:  cpu time    1.4841: real time    1.4876
    MIXING:  cpu time    0.2668: real time    0.2674
    --------------------------------------------
      LOOP:  cpu time   28.4529: real time   28.5228

 eigenvalue-minimisations  :   432
 total energy-change (2. order) :-0.5826144E+00  (-0.5980237E-02)
 number of electron     160.0000027 magnetization       8.6604115
 augmentation part       68.0957671 magnetization       5.3098274

 Broyden mixing:
  rms(total) = 0.45137E-01    rms(broyden)= 0.45128E-01
  rms(prec ) = 0.48311E-01
  weight for this iteration     100.00

 eigenvalues of (default mixing * dielectric matrix)
  average eigenvalue GAMMA=   0.8311
  4.1620  2.0371  1.8198  0.8969  0.8969  0.8272  0.8272  0.7678  0.5341  0.2902
  0.2902  0.3324  0.2605  0.2605  0.2368  0.2018  0.1548  0.1641

 Free energy of the ion-electron system (eV)
  ---------------------------------------------------
  alpha Z        PSCENC =        12.25439022
  Ewald energy   TEWEN  =     27079.41362963
  -Hartree energ DENC   =    -39613.18758980
  -exchange      EXHF   =         0.00000000
  -V(xc)+E(xc)   XCENC  =      -477.66986002
  PAW double counting   =     14947.07527431   -13974.29187934
  entropy T*S    EENTRO =        -0.00026048
  eigenvalues    EBANDS =      -989.94738557
  atomic energy  EATOM  =     12955.90228127
  Solvation  Ediel_sol  =         0.00000000
  ---------------------------------------------------
  free energy    TOTEN  =       -60.45139979 eV

  energy without entropy =      -60.45113931  energy(sigma->0) =      -60.45131297


--------------------------------------------------------------------------------------------------------




--------------------------------------- Iteration      1(  24)  ---------------------------------------


    POTLOK:  cpu time    3.4661: real time    3.6397
    SETDIJ:  cpu time    0.0279: real time    0.0279
     EDDAV:  cpu time   22.4398: real time   22.4963
       DOS:  cpu time    0.0020: real time    0.0020
    CHARGE:  cpu time    1.4254: real time    1.4363
    MIXING:  cpu time    0.2822: real time    0.2830
    --------------------------------------------
      LOOP:  cpu time   27.6433: real time   27.8852

 eigenvalue-minimisations  :   440
 total energy-change (2. order) :-0.3153252E+00  (-0.2256642E-02)
 number of electron     160.0000027 magnetization       8.4426285
 augmentation part       68.0980862 magnetization       5.1164204

 Broyden mixing:
  rms(total) = 0.33988E-01    rms(broyden)= 0.33983E-01
  rms(prec ) = 0.35878E-01
  weight for this iteration     100.00

 eigenvalues of (default mixing * dielectric matrix)
  average eigenvalue GAMMA=   0.8557
  4.6108  2.0620  2.0620  0.9061  0.9061  0.9190  0.8271  0.8271  0.6137  0.3693
  0.2903  0.2903  0.3035  0.1548  0.1641  0.2018  0.2637  0.2366  0.2502

 Free energy of the ion-electron system (eV)
  ---------------------------------------------------
  alpha Z        PSCENC =        12.25439022
  Ewald energy   TEWEN  =     27079.41362963
  -Hartree energ DENC   =    -39612.34413577
  -exchange      EXHF   =         0.00000000
  -V(xc)+E(xc)   XCENC  =      -477.98227168
  PAW double counting   =     14943.16781467   -13970.41793545
  entropy T*S    EENTRO =        -0.00051264
  eigenvalues    EBANDS =      -990.75998526
  atomic energy  EATOM  =     12955.90228127
  Solvation  Ediel_sol  =         0.00000000
  ---------------------------------------------------
  free energy    TOTEN  =       -60.76672501 eV

  energy without entropy =      -60.76621236  energy(sigma->0) =      -60.76655413


--------------------------------------------------------------------------------------------------------




--------------------------------------- Iteration      1(  25)  ---------------------------------------


    POTLOK:  cpu time    3.0839: real time    3.0943
    SETDIJ:  cpu time    0.0355: real time    0.0356
     EDDAV:  cpu time   23.0889: real time   23.1413
       DOS:  cpu time    0.0028: real time    0.0028
    CHARGE:  cpu time    1.3871: real time    1.3907
    MIXING:  cpu time    0.4481: real time    0.4490
    --------------------------------------------
      LOOP:  cpu time   28.0462: real time   28.1137

 eigenvalue-minimisations  :   440
 total energy-change (2. order) :-0.3029873E+00  (-0.1860635E-02)
 number of electron     160.0000027 magnetization       8.2488278
 augmentation part       68.0979359 magnetization       4.9437120

 Broyden mixing:
  rms(total) = 0.29633E-01    rms(broyden)= 0.29626E-01
  rms(prec ) = 0.31915E-01
  weight for this iteration     100.00

 eigenvalues of (default mixing * dielectric matrix)
  average eigenvalue GAMMA=   0.8884
  5.2313  2.1413  2.1413  0.9822  0.8898  0.8898  0.8904  0.8904  0.6581  0.5805
  0.2902  0.2902  0.3495  0.1548  0.1641  0.2908  0.2018  0.2526  0.2487  0.2303

 Free energy of the ion-electron system (eV)
  ---------------------------------------------------
  alpha Z        PSCENC =        12.25439022
  Ewald energy   TEWEN  =     27079.41362963
  -Hartree energ DENC   =    -39611.41618404
  -exchange      EXHF   =         0.00000000
  -V(xc)+E(xc)   XCENC  =      -478.29014024
  PAW double counting   =     14941.60688965   -13968.87682190
  entropy T*S    EENTRO =         0.00247750
  eigenvalues    EBANDS =      -991.66623442
  atomic energy  EATOM  =     12955.90228127
  Solvation  Ediel_sol  =         0.00000000
  ---------------------------------------------------
  free energy    TOTEN  =       -61.06971233 eV

  energy without entropy =      -61.07218983  energy(sigma->0) =      -61.07053816


--------------------------------------------------------------------------------------------------------




--------------------------------------- Iteration      1(  26)  ---------------------------------------


    POTLOK:  cpu time    3.0660: real time    3.0922
    SETDIJ:  cpu time    0.0325: real time    0.0326
     EDDAV:  cpu time   21.5305: real time   21.9052
       DOS:  cpu time    0.0147: real time    0.0147
    CHARGE:  cpu time    1.5072: real time    1.5141
    MIXING:  cpu time    0.3124: real time    0.3545
    --------------------------------------------
      LOOP:  cpu time   26.4633: real time   26.9133

 eigenvalue-minimisations  :   432
 total energy-change (2. order) :-0.3115118E+00  (-0.1390145E-02)
 number of electron     160.0000027 magnetization       8.0948712
 augmentation part       68.0971365 magnetization       4.8127054

 Broyden mixing:
  rms(total) = 0.29217E-01    rms(broyden)= 0.29213E-01
  rms(prec ) = 0.31823E-01
  weight for this iteration     100.00

 eigenvalues of (default mixing * dielectric matrix)
  average eigenvalue GAMMA=   0.9106
  5.7953  2.1789  2.1789  1.2930  0.9073  0.9073  0.8333  0.8333  0.7014  0.7014
  0.3786  0.2902  0.2902  0.3137  0.1548  0.1641  0.2019  0.2733  0.2516  0.2465
  0.2269

 Free energy of the ion-electron system (eV)
  ---------------------------------------------------
  alpha Z        PSCENC =        12.25439022
  Ewald energy   TEWEN  =     27079.41362963
  -Hartree energ DENC   =    -39610.28866599
  -exchange      EXHF   =         0.00000000
  -V(xc)+E(xc)   XCENC  =      -478.61200686
  PAW double counting   =     14941.20462670   -13968.47158105
  entropy T*S    EENTRO =         0.00298425
  eigenvalues    EBANDS =      -992.78688228
  atomic energy  EATOM  =     12955.90228127
  Solvation  Ediel_sol  =         0.00000000
  ---------------------------------------------------
  free energy    TOTEN  =       -61.38122411 eV

  energy without entropy =      -61.38420836  energy(sigma->0) =      -61.38221886


--------------------------------------------------------------------------------------------------------




--------------------------------------- Iteration      1(  27)  ---------------------------------------


    POTLOK:  cpu time    3.1373: real time    3.1604
    SETDIJ:  cpu time    0.0354: real time    0.0355
     EDDAV:  cpu time   21.8650: real time   22.8829
       DOS:  cpu time    0.0118: real time    0.0161
    CHARGE:  cpu time    1.4168: real time    1.4490
    MIXING:  cpu time    0.5306: real time    0.5763
    --------------------------------------------
      LOOP:  cpu time   26.9968: real time   28.1201

 eigenvalue-minimisations  :   456
 total energy-change (2. order) :-0.2416543E+00  (-0.8443330E-03)
 number of electron     160.0000027 magnetization       7.9767682
 augmentation part       68.0947638 magnetization       4.7038796

 Broyden mixing:
  rms(total) = 0.14179E-01    rms(broyden)= 0.14173E-01
  rms(prec ) = 0.15112E-01
  weight for this iteration     100.00

 eigenvalues of (default mixing * dielectric matrix)
  average eigenvalue GAMMA=   0.9377
  6.2520  2.2914  2.2914  1.3856  0.9008  0.9008  0.8322  0.8322  0.7862  0.7862
  0.6221  0.2902  0.2902  0.3613  0.1548  0.1641  0.2956  0.2019  0.2741  0.2453
  0.2453  0.2258

 Free energy of the ion-electron system (eV)
  ---------------------------------------------------
  alpha Z        PSCENC =        12.25439022
  Ewald energy   TEWEN  =     27079.41362963
  -Hartree energ DENC   =    -39609.38700343
  -exchange      EXHF   =         0.00000000
  -V(xc)+E(xc)   XCENC  =      -478.86086177
  PAW double counting   =     14942.29192476   -13969.54096404
  entropy T*S    EENTRO =         0.00397611
  eigenvalues    EBANDS =      -993.70025111
  atomic energy  EATOM  =     12955.90228127
  Solvation  Ediel_sol  =         0.00000000
  ---------------------------------------------------
  free energy    TOTEN  =       -61.62287836 eV

  energy without entropy =      -61.62685447  energy(sigma->0) =      -61.62420373


--------------------------------------------------------------------------------------------------------




--------------------------------------- Iteration      1(  28)  ---------------------------------------


    POTLOK:  cpu time    3.6450: real time    3.7435
    SETDIJ:  cpu time    0.0373: real time    0.0374
     EDDAV:  cpu time   22.3690: real time   22.4140
       DOS:  cpu time    0.0050: real time    0.0050
    CHARGE:  cpu time    1.5030: real time    1.5060
    MIXING:  cpu time    0.4407: real time    0.4414
    --------------------------------------------
      LOOP:  cpu time   28.0000: real time   28.1473

 eigenvalue-minimisations  :   448
 total energy-change (2. order) :-0.1534344E+00  (-0.3971684E-03)
 number of electron     160.0000027 magnetization       7.8974480
 augmentation part       68.0957043 magnetization       4.6323380

 Broyden mixing:
  rms(total) = 0.14580E-01    rms(broyden)= 0.14577E-01
  rms(prec ) = 0.15787E-01
  weight for this iteration     100.00

 eigenvalues of (default mixing * dielectric matrix)
  average eigenvalue GAMMA=   0.9405
  6.4767  2.3864  2.3864  1.2759  1.1836  0.8951  0.8951  0.8046  0.8046  0.7262
  0.6755  0.3921  0.2903  0.2903  0.3426  0.1548  0.1641  0.2974  0.2019  0.2694
  0.2468  0.2468  0.2251

 Free energy of the ion-electron system (eV)
  ---------------------------------------------------
  alpha Z        PSCENC =        12.25439022
  Ewald energy   TEWEN  =     27079.41362963
  -Hartree energ DENC   =    -39608.35011978
  -exchange      EXHF   =         0.00000000
  -V(xc)+E(xc)   XCENC  =      -479.02528096
  PAW double counting   =     14943.75232710   -13970.98813445
  entropy T*S    EENTRO =         0.00444614
  eigenvalues    EBANDS =      -994.73985191
  atomic energy  EATOM  =     12955.90228127
  Solvation  Ediel_sol  =         0.00000000
  ---------------------------------------------------
  free energy    TOTEN  =       -61.77631274 eV

  energy without entropy =      -61.78075888  energy(sigma->0) =      -61.77779479


--------------------------------------------------------------------------------------------------------




--------------------------------------- Iteration      1(  29)  ---------------------------------------


    POTLOK:  cpu time    3.1043: real time    3.1217
    SETDIJ:  cpu time    0.0341: real time    0.0369
     EDDAV:  cpu time   21.9874: real time   22.0260
       DOS:  cpu time    0.0055: real time    0.0056
    CHARGE:  cpu time    1.4453: real time    1.4481
    MIXING:  cpu time    0.3862: real time    0.3875
    --------------------------------------------
      LOOP:  cpu time   26.9629: real time   27.0257

 eigenvalue-minimisations  :   456
 total energy-change (2. order) :-0.8967318E-01  (-0.1718779E-03)
 number of electron     160.0000027 magnetization       7.7879093
 augmentation part       68.0963964 magnetization       4.5264152

 Broyden mixing:
  rms(total) = 0.10621E-01    rms(broyden)= 0.10619E-01
  rms(prec ) = 0.11735E-01
  weight for this iteration     100.00

 eigenvalues of (default mixing * dielectric matrix)
  average eigenvalue GAMMA=   0.9838
  6.9492  2.8125  2.3148  1.6960  0.8986  0.8986  1.0580  0.8168  0.8168  0.8427
  0.8427  0.6295  0.3682  0.2902  0.2902  0.1548  0.1641  0.3010  0.2019  0.2870
  0.2607  0.2455  0.2455  0.2251

 Free energy of the ion-electron system (eV)
  ---------------------------------------------------
  alpha Z        PSCENC =        12.25439022
  Ewald energy   TEWEN  =     27079.41362963
  -Hartree energ DENC   =    -39607.39424693
  -exchange      EXHF   =         0.00000000
  -V(xc)+E(xc)   XCENC  =      -479.12503619
  PAW double counting   =     14945.05980899   -13972.28121304
  entropy T*S    EENTRO =         0.00452337
  eigenvalues    EBANDS =      -995.70012324
  atomic energy  EATOM  =     12955.90228127
  Solvation  Ediel_sol  =         0.00000000
  ---------------------------------------------------
  free energy    TOTEN  =       -61.86598592 eV

  energy without entropy =      -61.87050929  energy(sigma->0) =      -61.86749371


--------------------------------------------------------------------------------------------------------




--------------------------------------- Iteration      1(  30)  ---------------------------------------


    POTLOK:  cpu time    3.1565: real time    3.1619
    SETDIJ:  cpu time    0.0424: real time    0.0425
     EDDAV:  cpu time   21.2868: real time   21.3356
       DOS:  cpu time    0.0051: real time    0.0051
    CHARGE:  cpu time    1.4913: real time    1.4945
    MIXING:  cpu time    0.4015: real time    0.4023
    --------------------------------------------
      LOOP:  cpu time   26.3836: real time   26.4418

 eigenvalue-minimisations  :   424
 total energy-change (2. order) :-0.1017632E+00  (-0.2502283E-03)
 number of electron     160.0000027 magnetization       7.7307770
 augmentation part       68.0964692 magnetization       4.4730127

 Broyden mixing:
  rms(total) = 0.78702E-02    rms(broyden)= 0.78679E-02
  rms(prec ) = 0.87535E-02
  weight for this iteration     100.00

 eigenvalues of (default mixing * dielectric matrix)
  average eigenvalue GAMMA=   1.0295
  7.6997  3.1579  2.2145  2.2145  1.0446  1.0446  0.8885  0.8885  0.7747  0.7747
  0.7984  0.5996  0.5996  0.3702  0.2902  0.2902  0.1548  0.1641  0.3098  0.2019
[...]
     69      -4.8946      1.00016
     70      -4.8266      1.00088
     71      -4.7853      1.00217
     72      -4.7662      1.00318
     73      -4.7513      1.00423
     74      -4.7319      1.00598
     75      -4.7176      1.00761
     76      -4.7064      1.00910
     77      -4.6877      1.01205
     78      -4.6729      1.01476
     79      -4.6309      1.02391
     80      -4.6017      1.03040
     81      -4.5825      1.03373
     82      -4.4951      1.01183
     83      -4.4807      0.99751
     84      -4.4259      0.89966
     85      -3.6613     -0.00002
     86      -3.4198     -0.00000
     87      -3.3455     -0.00000
     88      -3.0683     -0.00000
     89      -2.9192     -0.00000
     90      -2.6612     -0.00000
     91      -1.6610     -0.00000
     92      -1.5255     -0.00000
     93      -1.4090     -0.00000
     94      -1.2535     -0.00000
     95      -1.0696     -0.00000
     96      -1.0397     -0.00000
     97      -0.9306     -0.00000
     98      -0.9153     -0.00000
     99      -0.8352     -0.00000
    100      -0.7638     -0.00000
    101      -0.0003     -0.00000
    102       0.1701     -0.00000
    103       0.2865     -0.00000
    104       0.3197     -0.00000

 spin component 2

 k-point     1 :       0.0000    0.0000    0.0000
  band No.  band energies     occupation 
      1      -9.1412      1.00000
      2      -8.5626      1.00000
      3      -8.3684      1.00000
      4      -8.3301      1.00000
      5      -8.2529      1.00000
      6      -8.1477      1.00000
      7      -7.8535      1.00000
      8      -7.6704      1.00000
      9      -7.6048      1.00000
     10      -7.5967      1.00000
     11      -7.5643      1.00000
     12      -7.4764      1.00000
     13      -7.4452      1.00000
     14      -7.3836      1.00000
     15      -7.3536      1.00000
     16      -7.2201      1.00000
     17      -7.1704      1.00000
     18      -7.1602      1.00000
     19      -7.0884      1.00000
     20      -7.0286      1.00000
     21      -6.9941      1.00000
     22      -6.9229      1.00000
     23      -6.8615      1.00000
     24      -6.8270      1.00000
     25      -6.7712      1.00000
     26      -6.7562      1.00000
     27      -6.6172      1.00000
     28      -6.5660      1.00000
     29      -6.4693      1.00000
     30      -6.4098      1.00000
     31      -6.3645      1.00000
     32      -6.3482      1.00000
     33      -6.3034      1.00000
     34      -6.1937      1.00000
     35      -6.1424      1.00000
     36      -6.0711      1.00000
     37      -6.0570      1.00000
     38      -5.9592      1.00000
     39      -5.8615      1.00000
     40      -5.8229      1.00000
     41      -5.7697      1.00000
     42      -5.7164      1.00000
     43      -5.6763      1.00000
     44      -5.5822      1.00000
     45      -5.5578      1.00000
     46      -5.5342      1.00000
     47      -5.4204      1.00000
     48      -5.3552      1.00000
     49      -5.3355      1.00000
     50      -5.2837      1.00000
     51      -5.2488      1.00000
     52      -5.1900      1.00000
     53      -5.1133      1.00000
     54      -5.1025      1.00000
     55      -5.0309      1.00000
     56      -4.9756      1.00002
     57      -4.9711      1.00002
     58      -4.9327      1.00006
     59      -4.9167      1.00009
     60      -4.8780      1.00025
     61      -4.8577      1.00042
     62      -4.8362      1.00070
     63      -4.7949      1.00178
     64      -4.7512      1.00424
     65      -4.7192      1.00741
     66      -4.6549      1.01848
     67      -4.6236      1.02560
     68      -4.5927      1.03211
     69      -4.5748      1.03465
     70      -4.5262      1.03014
     71      -4.4904      1.00762
     72      -4.4347      0.92017
     73      -4.4153      0.87210
     74      -4.4032      0.83728
     75      -4.3718      0.73140
     76      -4.3576      0.67748
     77      -4.3180      0.51428
     78      -4.2390      0.20392
     79      -4.2003      0.09311
     80      -4.1646      0.02391
     81      -4.0989     -0.03148
     82      -4.0188     -0.02857
     83      -3.9836     -0.02055
     84      -3.9520     -0.01394
     85      -3.4568     -0.00000
     86      -3.2348     -0.00000
     87      -3.1635     -0.00000
     88      -2.9070     -0.00000
     89      -2.7704     -0.00000
     90      -2.5125     -0.00000
     91      -1.5166     -0.00000
     92      -1.4035     -0.00000
     93      -1.2859     -0.00000
     94      -1.1283     -0.00000
     95      -0.9566     -0.00000
     96      -0.9232     -0.00000
     97      -0.8526     -0.00000
     98      -0.8367     -0.00000
     99      -0.7625     -0.00000
    100      -0.6797     -0.00000
    101       0.0763     -0.00000
    102       0.2402     -0.00000
    103       0.3527     -0.00000
    104       0.3968     -0.00000


--------------------------------------------------------------------------------------------------------


 soft charge-density along one line, spin component            1
         0         1         2         3         4         5         6         7         8         9
 total charge-density along one line
 
 soft charge-density along one line, spin component            2
         0         1         2         3         4         5         6         7         8         9
 total charge-density along one line
 
 pseudopotential strength for first ion, spin component:            1
 -9.258  -0.012  -0.015   0.018  -0.034  -9.193  -0.011  -0.015
 -0.012  -9.200  -0.002   0.011  -0.031  -0.011  -9.138  -0.002
 -0.015  -0.002  -9.171  -0.044   0.024  -0.015  -0.002  -9.109
  0.018   0.011  -0.044  -9.219   0.007   0.017   0.010  -0.042
 -0.034  -0.031   0.024   0.007  -9.149  -0.033  -0.030   0.023
 -9.193  -0.011  -0.015   0.017  -0.033  -9.108  -0.011  -0.014
 -0.011  -9.138  -0.002   0.010  -0.030  -0.011  -9.055  -0.001
 -0.015  -0.002  -9.109  -0.042   0.023  -0.014  -0.001  -9.027
  0.017   0.010  -0.042  -9.156   0.007   0.016   0.010  -0.041
 -0.033  -0.030   0.023   0.007  -9.088  -0.032  -0.028   0.022
 -0.006  -0.010  -0.003   0.006   0.009  -0.006  -0.010  -0.003
 -0.011  -0.017  -0.005   0.010   0.015  -0.010  -0.016  -0.005
 -0.001   0.000  -0.000   0.002  -0.000  -0.001   0.000  -0.000
  0.002   0.001  -0.000   0.000  -0.001   0.002   0.001  -0.000
  0.001   0.002  -0.000  -0.002   0.001   0.001   0.002  -0.000
 -0.001   0.000  -0.000   0.003  -0.001  -0.001   0.000  -0.000
  0.003   0.002  -0.000   0.000  -0.001   0.002   0.002  -0.000
  0.001   0.003  -0.000  -0.002   0.002   0.001   0.002  -0.000
 pseudopotential strength for first ion, spin component:            2
 -8.957  -0.011  -0.012   0.013   0.000  -8.905  -0.010  -0.011
 -0.011  -8.954   0.005   0.007  -0.008  -0.010  -8.902   0.005
 -0.012   0.005  -8.964   0.004   0.017  -0.011   0.005  -8.912
  0.013   0.007   0.004  -8.973  -0.014   0.012   0.007   0.004
  0.000  -0.008   0.017  -0.014  -8.978   0.000  -0.008   0.017
 -8.905  -0.010  -0.011   0.012   0.000  -8.832  -0.010  -0.011
 -0.010  -8.902   0.005   0.007  -0.008  -0.010  -8.829   0.005
 -0.011   0.005  -8.912   0.004   0.017  -0.011   0.005  -8.838
  0.012   0.007   0.004  -8.920  -0.013   0.012   0.007   0.003
  0.000  -0.008   0.017  -0.013  -8.925   0.000  -0.008   0.016
 -0.004  -0.003   0.000   0.004   0.006  -0.004  -0.003   0.000
 -0.007  -0.005   0.001   0.006   0.011  -0.007  -0.005   0.001
 -0.001  -0.000   0.000   0.001  -0.001  -0.001  -0.000   0.000
  0.001   0.001  -0.000   0.000  -0.001   0.001   0.001  -0.000
  0.000   0.001   0.000  -0.001   0.001   0.000   0.001   0.000
 -0.001  -0.000  -0.000   0.002  -0.001  -0.001  -0.000   0.000
  0.002   0.001  -0.000   0.000  -0.001   0.002   0.001  -0.000
  0.000   0.002   0.000  -0.002   0.001   0.000   0.002   0.000
 total augmentation occupancy for first ion, spin component:            1
  3.160  -0.051  -0.068   0.112  -0.427  -2.048   0.010   0.026  -0.067   0.183   0.157  -0.048   0.020  -0.029   0.046  -0.002
 -0.051   3.468  -0.177  -0.007  -0.168   0.008  -2.163   0.094   0.024   0.078   0.083  -0.037  -0.053   0.017  -0.022   0.001
 -0.068  -0.177   4.040  -0.376   0.096   0.025   0.094  -2.499   0.168   0.023  -0.035   0.000  -0.020   0.007  -0.006   0.003
  0.112  -0.007  -0.376   3.753   0.150  -0.065   0.022   0.169  -2.424  -0.065  -0.110   0.036  -0.034  -0.022   0.014   0.002
 -0.427  -0.168   0.096   0.150   4.298   0.184   0.077   0.024  -0.068  -2.580  -0.308   0.082  -0.041   0.044  -0.053   0.005
 -2.048   0.008   0.025  -0.065   0.184   2.628   0.026   0.000   0.029  -0.003  -0.091   0.019  -0.028   0.046  -0.035   0.003
  0.010  -2.163   0.094   0.022   0.077   0.026   2.602  -0.029  -0.036  -0.017  -0.023  -0.004   0.060  -0.012   0.041  -0.003
  0.026   0.094  -2.499   0.169   0.024   0.000  -0.029   2.772  -0.018  -0.112   0.042  -0.011   0.013   0.001   0.006  -0.000
 -0.067   0.024   0.168  -2.424  -0.068   0.029  -0.036  -0.018   2.849   0.002   0.062  -0.007   0.049   0.019  -0.026  -0.001
  0.183   0.078   0.023  -0.065  -2.580  -0.003  -0.017  -0.112   0.002   2.723   0.229  -0.042   0.024  -0.050   0.053  -0.002
  0.157   0.083  -0.035  -0.110  -0.308  -0.091  -0.023   0.042   0.062   0.229   2.114  -0.326   0.005   0.009   0.002   0.000
 -0.048  -0.037   0.000   0.036   0.082   0.019  -0.004  -0.011  -0.007  -0.042  -0.326   0.053   0.003  -0.004   0.002  -0.000
  0.020  -0.053  -0.020  -0.034  -0.041  -0.028   0.060   0.013   0.049   0.024   0.005   0.003   0.268  -0.001  -0.005  -0.014
 -0.029   0.017   0.007  -0.022   0.044   0.046  -0.012   0.001   0.019  -0.050   0.009  -0.004  -0.001   0.294   0.004  -0.000
  0.046  -0.022  -0.006   0.014  -0.053  -0.035   0.041   0.006  -0.026   0.053   0.002   0.002  -0.005   0.004   0.304   0.001
 -0.002   0.001   0.003   0.002   0.005   0.003  -0.003  -0.000  -0.001  -0.002   0.000  -0.000  -0.014  -0.000   0.001   0.001
  0.002  -0.003   0.001   0.001  -0.002  -0.001   0.002  -0.001   0.001   0.002  -0.002   0.000  -0.000  -0.016  -0.000   0.000
 -0.004   0.002   0.000  -0.001   0.003   0.001  -0.001  -0.001   0.000  -0.000   0.002  -0.000   0.001  -0.000  -0.016  -0.000
 total augmentation occupancy for first ion, spin component:            2
  1.792   0.051   0.020  -0.122   0.403  -1.103  -0.039  -0.010   0.088  -0.260   0.016  -0.015   0.005  -0.013  -0.014   0.000
  0.051   1.123   0.055  -0.055   0.284  -0.038  -0.672  -0.033   0.036  -0.182   0.045  -0.024  -0.007   0.001  -0.018   0.000
  0.020   0.055   0.692   0.576  -0.097  -0.007  -0.033  -0.401  -0.372   0.065   0.012  -0.008  -0.008  -0.001   0.010   0.001
 -0.122  -0.055   0.576   1.166  -0.237   0.085   0.037  -0.372  -0.706   0.153  -0.020   0.013  -0.013  -0.005   0.010   0.001
  0.403   0.284  -0.097  -0.237   0.331  -0.258  -0.182   0.063   0.154  -0.174  -0.007   0.003  -0.005  -0.005  -0.010   0.000
 -1.103  -0.038  -0.007   0.085  -0.258   0.624   0.028   0.002  -0.059   0.161  -0.006   0.006  -0.003   0.007   0.009  -0.000
 -0.039  -0.672  -0.033   0.037  -0.182   0.028   0.355   0.019  -0.024   0.114  -0.010   0.005   0.004  -0.001   0.010  -0.000
 -0.010  -0.033  -0.401  -0.372   0.063   0.002   0.019   0.190   0.234  -0.040   0.003  -0.000   0.005  -0.000  -0.006  -0.001
  0.088   0.036  -0.372  -0.706   0.154  -0.059  -0.024   0.234   0.380  -0.097   0.006  -0.005   0.007   0.003  -0.005  -0.001
 -0.260  -0.182   0.065   0.153  -0.174   0.161   0.114  -0.040  -0.097   0.051  -0.002   0.002   0.004   0.004   0.006  -0.000
  0.016   0.045   0.012  -0.020  -0.007  -0.006  -0.010   0.003   0.006  -0.002  -0.062   0.017   0.000   0.001  -0.002  -0.000
 -0.015  -0.024  -0.008   0.013   0.003   0.006   0.005  -0.000  -0.005   0.002   0.017  -0.003   0.000   0.000  -0.000   0.000
  0.005  -0.007  -0.008  -0.013  -0.005  -0.003   0.004   0.005   0.007   0.004   0.000   0.000  -0.007   0.001  -0.000   0.001
 -0.013   0.001  -0.001  -0.005  -0.005   0.007  -0.001  -0.000   0.003   0.004   0.001   0.000   0.001  -0.006  -0.000   0.000
 -0.014  -0.018   0.010   0.010  -0.010   0.009   0.010  -0.006  -0.005   0.006  -0.002  -0.000  -0.000  -0.000  -0.006  -0.000
  0.000   0.000   0.001   0.001   0.000  -0.000  -0.000  -0.001  -0.001  -0.000  -0.000   0.000   0.001   0.000  -0.000  -0.000
  0.001  -0.001   0.000   0.000   0.000  -0.001   0.000  -0.000  -0.000  -0.000   0.000  -0.000   0.000   0.001   0.000  -0.000
 -0.001   0.001  -0.000  -0.001   0.000   0.000  -0.001   0.001   0.001  -0.000  -0.000   0.000  -0.000   0.000   0.001   0.000


------------------------ aborting loop because EDIFF is reached ----------------------------------------


    CHARGE:  cpu time    1.4532: real time    1.4637
    FORLOC:  cpu time    0.1074: real time    0.1075
    FORNL :  cpu time    4.2936: real time    4.3263
    FORCOR:  cpu time    4.0123: real time    4.0336
    FORHAR:  cpu time    0.4212: real time    0.4300
    MIXING:  cpu time    0.2230: real time    0.2276
    OFIELD:  cpu time    0.0000: real time    0.0000

 VOLUME and BASIS-vectors are now :
 -----------------------------------------------------------------------------
  energy-cutoff  :      400.00
  volume of cell :    13615.41
      direct lattice vectors                 reciprocal lattice vectors
    23.857200753  0.000000000  0.000000000     0.041916066  0.000000000  0.000000000
     0.000000000 23.923318161  0.000000000     0.000000000  0.041800222  0.000000000
     0.000000000  0.000000000 23.855575473     0.000000000  0.000000000  0.041918922

  length of vectors
    23.857200753 23.923318161 23.855575473     0.041916066  0.041800222  0.041918922


 FORCES acting on ions
    electron-ion (+dipol)            ewald-force                    non-local-force                 convergence-correction
 -----------------------------------------------------------------------------------------------
   0.235E+02 -.160E+03 0.196E+02   -.235E+02 0.160E+03 -.196E+02   0.765E-01 -.548E+00 -.672E-01   0.374E-03 0.183E-03 -.812E-03
   -.499E+03 -.684E+03 -.689E+03   0.497E+03 0.680E+03 0.686E+03   0.203E+01 0.382E+01 0.281E+01   0.397E-04 0.133E-03 -.546E-03
   -.291E+03 0.420E+03 -.922E+03   0.290E+03 -.419E+03 0.918E+03   0.655E+00 -.151E+01 0.361E+01   0.387E-03 0.102E-03 -.183E-03
   0.458E+03 -.783E+03 0.561E+03   -.456E+03 0.779E+03 -.559E+03   -.249E+01 0.351E+01 -.236E+01   -.196E-04 -.166E-03 -.423E-03
   -.761E+03 0.631E+03 0.273E+03   0.758E+03 -.629E+03 -.271E+03   0.273E+01 -.204E+01 -.154E+01   -.462E-04 0.395E-03 -.466E-03
   0.449E+03 -.151E+03 -.101E+04   -.448E+03 0.151E+03 0.101E+04   -.171E+01 0.593E-01 0.557E+01   -.226E-03 0.192E-03 -.199E-03
   0.758E+03 0.637E+03 -.391E+03   -.754E+03 -.635E+03 0.389E+03   -.315E+01 -.223E+01 0.155E+01   -.366E-03 0.146E-03 -.722E-03
   0.108E+04 -.263E+03 -.152E+03   -.107E+04 0.261E+03 0.152E+03   -.587E+01 0.117E+01 0.361E+00   0.821E-04 0.192E-03 -.592E-03
   -.106E+03 0.103E+04 -.337E+03   0.105E+03 -.103E+04 0.334E+03   0.104E+01 -.655E+01 0.276E+01   0.178E-03 -.720E-04 -.635E-03
   -.867E+03 -.486E+03 0.310E+03   0.864E+03 0.484E+03 -.309E+03   0.337E+01 0.250E+01 -.101E+01   -.238E-03 -.767E-04 -.368E-03
   0.840E+03 0.214E+03 0.692E+03   -.836E+03 -.213E+03 -.688E+03   -.420E+01 -.105E+01 -.324E+01   0.264E-03 0.320E-03 -.322E-03
   -.221E+03 0.238E+03 0.101E+04   0.220E+03 -.237E+03 -.101E+04   0.133E+01 -.158E+01 -.390E+01   -.301E-03 0.474E-03 0.357E-03
   0.220E+03 0.913E+03 0.563E+03   -.218E+03 -.908E+03 -.560E+03   -.129E+01 -.429E+01 -.331E+01   0.116E-03 0.771E-04 -.401E-03
   -.307E+03 -.608E+03 0.793E+03   0.305E+03 0.604E+03 -.789E+03   0.214E+01 0.448E+01 -.479E+01   0.127E-03 -.934E-04 0.323E-04
   -.103E+04 0.664E+02 -.382E+03   0.102E+04 -.654E+02 0.380E+03   0.653E+01 -.945E+00 0.239E+01   0.156E-03 0.513E-04 -.804E-03
   0.252E+03 -.102E+04 -.335E+03   -.252E+03 0.101E+04 0.334E+03   -.125E+00 0.634E+01 0.956E+00   -.119E-03 0.357E-03 -.456E-03
 -----------------------------------------------------------------------------------------------
   -.107E+01 -.116E+01 0.231E+00   -.313E-12 0.227E-12 -.227E-12   0.107E+01 0.116E+01 -.222E+00   0.407E-03 0.221E-02 -.654E-02
 
 
 POSITION                                       TOTAL-FORCE (eV/Angst)
 -----------------------------------------------------------------------------------
     11.57958     12.34771     12.22214         0.027264     -0.005573     -0.008729
     12.98964     13.56676     14.04564         0.012843      0.008494     -0.005304
     12.50283     10.94347     14.33090        -0.001007      0.019246     -0.034566
     10.46811     14.08405     10.67670        -0.009696      0.021562      0.014655
     13.39132     10.47184     11.81898         0.000170     -0.001522      0.005915
     10.45835     12.58763     14.81040         0.017070      0.014306      0.004456
     10.04357     10.44422     13.10612         0.020891     -0.002342      0.005758
      8.86982     12.88129     12.66262        -0.024301      0.007619     -0.002058
     12.01472      8.63818     13.18943        -0.008482     -0.009269     -0.000523
     13.90293     13.14745     11.42734        -0.013964     -0.015623      0.016497
      9.63187     11.53520     10.50717        -0.002098     -0.006733     -0.002368
     12.14822     11.58152      9.69864         0.023222     -0.020702     -0.019524
     11.12592      9.37166     10.84232        -0.001538      0.006586     -0.018481
     12.66833     14.07931      9.34029        -0.035789     -0.009061      0.010936
     14.90332     11.83767     13.49308        -0.011594      0.003388      0.038005
     10.72646     14.74856     13.26451         0.007009     -0.010377     -0.004669
 -----------------------------------------------------------------------------------
    total drift:                                0.001276     -0.001159      0.002798


--------------------------------------------------------------------------------------------------------



  FREE ENERGIE OF THE ION-ELECTRON SYSTEM (eV)
  ---------------------------------------------------
  free  energy   TOTEN  =       -62.70702334 eV

  energy  without entropy=      -62.74842844  energy(sigma->0) =      -62.72082504
 
 d Force = 0.1522743E-03[ 0.144E-03, 0.160E-03]  d Energy = 0.3868677E-02-0.372E-02
 d Force = 0.6146741E+00[ 0.615E+00, 0.615E+00]  d Ewald  = 0.6146742E+00-0.205E-07


--------------------------------------------------------------------------------------------------------


    POTLOK:  cpu time    3.0296: real time    3.0467


--------------------------------------------------------------------------------------------------------




--------------------------------------------------------------------------------------------------------


  
 reached required accuracy - stopping structural energy minimisation
     LOOP+:  cpu time  493.5153: real time  494.9376
    4ORBIT:  cpu time    0.0000: real time    0.0000

 total amount of memory used by VASP MPI-rank0   175774. kBytes
=======================================================================

   base      :      30000. kBytes
   nonl-proj :       6180. kBytes
   fftplans  :      33873. kBytes
   grid      :      79948. kBytes
   one-center:         31. kBytes
   wavefun   :      25742. kBytes
 
  
  
 General timing and accounting informations for this job:
 ========================================================
  
                  Total CPU time used (sec):    19157.943
                            User time (sec):    18914.791
                          System time (sec):      243.152
                         Elapsed time (sec):    19542.024
  
                   Maximum memory used (kb):      329852.
                   Average memory used (kb):           0.
  
                          Minor page faults:     17830475
                          Major page faults:       249814
                 Voluntary context switches:         9827
