<?xml version="1.0" encoding="ISO-8859-1"?>
<modeling>
 <generator>
  <i name="program" type="string">vasp </i>
  <i name="version" type="string">6.1.2  </i>
  <i name="subversion" type="string">22Jul20 (build Aug  2 2021 21:04:21) gamma-only                       parallel </i>
  <i name="platform" type="string">LinuxPGI </i>
  <i name="date" type="string">2021 12 16 </i>
  <i name="time" type="string">03:00:36 </i>
 </generator>
 <incar>
  <i type="int" name="ISPIN">     2</i>
  <i type="int" name="IBRION">     2</i>
  <i type="int" name="NSW">  1000</i>
  <i type="int" name="ISIF">     0</i>
  <i type="int" name="ISYM">     0</i>
  <i name="ENCUT">    400.00000000</i>
  <i type="logical" name="LREAL"> F  </i>
  <i type="int" name="ISMEAR">     1</i>
  <i name="SIGMA">      0.20000000</i>
  <i type="logical" name="LWAVE"> F  </i>
  <i type="logical" name="LCHARG"> F  </i>
  <i type="int" name="KPAR">     1</i>
  <i type="int" name="NCORE">     8</i>
  <i type="string" name="GGA"> PE</i>
  <i type="int" name="ISPIN">     2</i>
 </incar>
 <structure name="primitive_cell" >
  <crystal>
   <varray name="basis" >
    <v>      23.85720075       0.00000000       0.00000000 </v>
    <v>       0.00000000      23.92331816       0.00000000 </v>
    <v>       0.00000000       0.00000000      23.85557547 </v>
   </varray>
   <i name="volume">  13615.41235065 </i>
   <varray name="rec_basis" >
    <v>       0.04191607       0.00000000       0.00000000 </v>
    <v>       0.00000000       0.04180022       0.00000000 </v>
    <v>       0.00000000       0.00000000       0.04191892 </v>
   </varray>
  </crystal>
  <varray name="positions" >
   <v>       0.48499069       0.49532284       0.52025151 </v>
   <v>       0.54228219       0.56711656       0.58698522 </v>
   <v>       0.53910058       0.46372634       0.61672844 </v>
   <v>       0.45783239       0.57994787       0.45531802 </v>
   <v>       0.56853688       0.43390301       0.48857750 </v>
   <v>       0.43970106       0.51323465       0.61574483 </v>
   <v>       0.39837843       0.43278903       0.54059687 </v>
   <v>       0.37617039       0.53878641       0.52821255 </v>
   <v>       0.49557116       0.38639489       0.55897748 </v>
   <v>       0.56798175       0.55477935       0.47776031 </v>
   <v>       0.40339447       0.48417569       0.43929060 </v>
   <v>       0.51063184       0.48917004       0.40928649 </v>
   <v>       0.46707616       0.39923505       0.45660804 </v>
   <v>       0.53504232       0.58981021       0.38204349 </v>
   <v>       0.62073088       0.49944541       0.55541482 </v>
   <v>       0.44869746       0.60894618       0.56068221 </v>
  </varray>
 </structure>
 <varray name="primitive_index" >
  <v type="int" >        1 </v>
  <v type="int" >        2 </v>
  <v type="int" >        3 </v>
  <v type="int" >        4 </v>
  <v type="int" >        5 </v>
  <v type="int" >        6 </v>
  <v type="int" >        7 </v>
  <v type="int" >        8 </v>
  <v type="int" >        9 </v>
  <v type="int" >       10 </v>
  <v type="int" >       11 </v>
  <v type="int" >       12 </v>
  <v type="int" >       13 </v>
  <v type="int" >       14 </v>
  <v type="int" >       15 </v>
  <v type="int" >       16 </v>
 </varray>
 <kpoints>
  <generation param="Gamma">
   <v type="int" name="divisions">       1        1        1 </v>
   <v name="usershift">      0.00000000       0.00000000       0.00000000 </v>
   <v name="genvec1">      1.00000000       0.00000000       0.00000000 </v>
   <v name="genvec2">      0.00000000       1.00000000       0.00000000 </v>
   <v name="genvec3">      0.00000000       0.00000000       1.00000000 </v>
   <v name="shift">      0.00000000       0.00000000       0.00000000 </v>
  </generation>
  <varray name="kpointlist" >
   <v>       0.00000000       0.00000000       0.00000000 </v>
  </varray>
  <varray name="weights" >
   <v>       1.00000000 </v>
  </varray>
 </kpoints>
 <parameters>
  <separator name="general" >
   <i type="string" name="SYSTEM">unknown system</i>
   <i type="logical" name="LCOMPAT"> F  </i>
  </separator>
  <separator name="electronic" >
   <i type="string" name="PREC">normal</i>
   <i name="ENMAX">    400.00000000</i>
   <i name="ENAUG">    416.23000000</i>
   <i name="EDIFF">      0.00010000</i>
   <i type="int" name="IALGO">    38</i>
   <i type="int" name="IWAVPR">    11</i>
   <i type="int" name="NBANDS">   104</i>
   <i type="int" name="NBANDSLOW">    -1</i>
   <i type="int" name="NBANDSHIGH">    -1</i>
   <i name="NELECT">    160.00000000</i>
   <i type="int" name="TURBO">     0</i>
   <i type="int" name="IRESTART">     0</i>
   <i type="int" name="NREBOOT">     0</i>
   <i type="int" name="NMIN">     0</i>
   <i name="EREF">      0.00000000</i>
   <separator name="electronic smearing" >
    <i type="int" name="ISMEAR">     1</i>
    <i name="SIGMA">      0.20000000</i>
    <i name="KSPACING">      0.50000000</i>
    <i type="logical" name="KGAMMA"> T  </i>
    <i type="logical" name="KBLOWUP"> T  </i>
   </separator>
   <separator name="electronic projectors" >
    <i type="logical" name="LREAL"> F  </i>
    <v name="ROPT">      0.00000000</v>
    <i type="int" name="LMAXPAW">  -100</i>
    <i type="int" name="LMAXMIX">     2</i>
    <i type="logical" name="NLSPLINE"> F  </i>
   </separator>
   <separator name="electronic startup" >
    <i type="int" name="ISTART">     0</i>
    <i type="int" name="ICHARG">     2</i>
    <i type="int" name="INIWAV">     1</i>
   </separator>
   <separator name="electronic spin" >
    <i type="int" name="ISPIN">     2</i>
    <i type="logical" name="LNONCOLLINEAR"> F  </i>
    <v name="MAGMOM">      1.00000000      1.00000000      1.00000000      1.00000000      1.00000000      1.00000000      1.00000000      1.00000000      1.00000000      1.00000000      1.00000000      1.00000000      1.00000000      1.00000000      1.00000000      1.00000000</v>
    <i name="NUPDOWN">     -1.00000000</i>
    <i type="logical" name="LSORBIT"> F  </i>
    <v name="SAXIS">      0.00000000      0.00000000      1.00000000</v>
    <i type="logical" name="LSPIRAL"> F  </i>
    <v name="QSPIRAL">      0.00000000      0.00000000      0.00000000</v>
    <i type="logical" name="LZEROZ"> F  </i>
   </separator>
   <separator name="electronic exchange-correlation" >
    <i type="logical" name="LASPH"> F  </i>
    <i type="logical" name="LMETAGGA"> F  </i>
   </separator>
   <separator name="electronic convergence" >
    <i type="int" name="NELM">    60</i>
    <i type="int" name="NELMDL">     0</i>
    <i type="int" name="NELMIN">     2</i>
    <i name="ENINI">    400.00000000</i>
    <separator name="electronic convergence detail" >
     <i type="logical" name="LDIAG"> T  </i>
     <i type="logical" name="LSUBROT"> F  </i>
     <i name="WEIMIN">      0.00100000</i>
     <i name="EBREAK">      0.00000024</i>
     <i name="DEPER">      0.30000000</i>
     <i type="int" name="NRMM">     4</i>
     <i name="TIME">      0.40000000</i>
    </separator>
   </separator>
   <separator name="electronic mixer" >
    <i name="AMIX">      0.40000000</i>
    <i name="BMIX">      1.00000000</i>
    <i name="AMIN">      0.10000000</i>
    <i name="AMIX_MAG">      1.60000000</i>
    <i name="BMIX_MAG">      1.00000000</i>
    <separator name="electronic mixer details" >
     <i type="int" name="IMIX">     4</i>
     <i type="logical" name="MIXFIRST"> F  </i>
     <i type="int" name="MAXMIX">   -45</i>
     <i name="WC">    100.00000000</i>
     <i type="int" name="INIMIX">     1</i>
     <i type="int" name="MIXPRE">     1</i>
     <i type="int" name="MREMOVE">     5</i>
    </separator>
   </separator>
   <separator name="electronic dipolcorrection" >
    <i type="logical" name="LDIPOL"> F  </i>
    <i type="logical" name="LMONO"> F  </i>
    <i type="int" name="IDIPOL">     0</i>
    <i name="EPSILON">      1.00000000</i>
    <v name="DIPOL">   -100.00000000   -100.00000000   -100.00000000</v>
    <i name="EFIELD">      0.00000000</i>
   </separator>
  </separator>
  <separator name="grids" >
   <i type="int" name="NGX">   120</i>
   <i type="int" name="NGY">   120</i>
   <i type="int" name="NGZ">   120</i>
   <i type="int" name="NGXF">   240</i>
   <i type="int" name="NGYF">   240</i>
   <i type="int" name="NGZF">   240</i>
   <i type="logical" name="ADDGRID"> F  </i>
  </separator>
  <separator name="ionic" >
   <i type="int" name="NSW">  1000</i>
   <i type="int" name="IBRION">     2</i>
   <i type="int" name="MDALGO">     0</i>
   <i type="int" name="ISIF">     0</i>
   <i name="PSTRESS">      0.00000000</i>
   <i name="EDIFFG">      0.00100000</i>
   <i type="int" name="NFREE">     1</i>
   <i name="POTIM">      0.50000000</i>
   <i name="SMASS">     -3.00000000</i>
   <i name="SCALEE">      1.00000000</i>
  </separator>
  <separator name="ionic md" >
   <i name="TEBEG">      0.00010000</i>
   <i name="TEEND">      0.00010000</i>
   <i type="int" name="NBLOCK">     1</i>
   <i type="int" name="KBLOCK">  1000</i>
   <i type="int" name="NPACO">   256</i>
   <i name="APACO">     16.00000000</i>
  </separator>
  <separator name="symmetry" >
   <i type="int" name="ISYM">     0</i>
   <i name="SYMPREC">      0.00001000</i>
  </separator>
  <separator name="dos" >
   <i type="int" name="LORBIT">     0</i>
   <v name="RWIGS">     -1.00000000</v>
   <i type="int" name="NEDOS">   301</i>
   <i name="EMIN">     10.00000000</i>
   <i name="EMAX">    -10.00000000</i>
   <i name="EFERMI">      0.00000000</i>
  </separator>
  <separator name="writing" >
   <i type="int" name="NWRITE">     2</i>
   <i type="logical" name="LWAVE"> F  </i>
   <i type="logical" name="LDOWNSAMPLE"> F  </i>
   <i type="logical" name="LCHARG"> F  </i>
   <i type="logical" name="LPARD"> F  </i>
   <i type="logical" name="LVTOT"> F  </i>
   <i type="logical" name="LVHAR"> F  </i>
   <i type="logical" name="LELF"> F  </i>
   <i type="logical" name="LOPTICS"> F  </i>
   <v name="STM">      0.00000000      0.00000000      0.00000000      0.00000000      0.00000000      0.00000000      0.00000000</v>
  </separator>
  <separator name="performance" >
   <i type="int" name="NPAR">     2</i>
   <i type="int" name="NSIM">     4</i>
   <i type="int" name="NBLK">    -1</i>
   <i type="logical" name="LPLANE"> T  </i>
   <i type="logical" name="LSCALAPACK"> T  </i>
   <i type="logical" name="LSCAAWARE"> F  </i>
   <i type="logical" name="LSCALU"> F  </i>
   <i type="logical" name="LASYNC"> F  </i>
   <i type="logical" name="LORBITALREAL"> F  </i>
  </separator>
  <separator name="miscellaneous" >
   <i type="int" name="IDIOT">     3</i>
   <i type="int" name="PHON_NSTRUCT">    -1</i>
   <i type="logical" name="LMUSIC"> F  </i>
   <v name="POMASS">    106.42000000</v>
   <v name="DARWINR">      0.00000000</v>
   <v name="DARWINV">      1.00000000</v>
   <i type="logical" name="LCORR"> T  </i>
  </separator>
  <i type="logical" name="GGA_COMPAT"> T  </i>
  <i type="logical" name="LBERRY"> F  </i>
  <i type="int" name="ICORELEVEL">     0</i>
  <i type="logical" name="LDAU"> F  </i>
  <i type="int" name="I_CONSTRAINED_M">     0</i>
  <separator name="electronic exchange-correlation" >
   <i type="string" name="GGA">PE</i>
   <i type="int" name="VOSKOWN">     0</i>
   <i type="logical" name="LHFCALC"> F  </i>
   <i type="string" name="PRECFOCK"></i>
   <i type="logical" name="LSYMGRAD"> F  </i>
   <i type="logical" name="LHFONE"> F  </i>
   <i type="logical" name="LRHFCALC"> F  </i>
   <i type="logical" name="LTHOMAS"> F  </i>
   <i type="logical" name="LMODELHF"> F  </i>
   <i type="logical" name="LFOCKACE"> F  </i>
   <i name="ENCUT4O">     -1.00000000</i>
   <i type="int" name="EXXOEP">     0</i>
   <i type="int" name="FOURORBIT">     0</i>
   <i name="AEXX">      0.00000000</i>
   <i name="HFALPHA">      0.00000000</i>
   <i name="MCALPHA">      0.00000000</i>
   <i name="ALDAX">      1.00000000</i>
   <i name="AGGAX">      1.00000000</i>
   <i name="ALDAC">      1.00000000</i>
   <i name="AGGAC">      1.00000000</i>
   <i type="int" name="NKREDX">     1</i>
   <i type="int" name="NKREDY">     1</i>
   <i type="int" name="NKREDZ">     1</i>
   <i type="logical" name="SHIFTRED"> F  </i>
   <i type="logical" name="ODDONLY"> F  </i>
   <i type="logical" name="EVENONLY"> F  </i>
   <i type="int" name="LMAXFOCK">     0</i>
   <i type="int" name="NMAXFOCKAE">     0</i>
   <i type="logical" name="LFOCKAEDFT"> F  </i>
   <i name="HFSCREEN">      0.00000000</i>
   <i name="HFSCREENC">      0.00000000</i>
   <i type="int" name="NBANDSGWLOW">     0</i>
  </separator>
  <separator name="vdW DFT" >
   <i type="logical" name="LUSE_VDW"> F  </i>
   <i name="Zab_VDW">     -0.84910000</i>
   <i name="PARAM1">      0.12340000</i>
   <i name="PARAM2">      1.00000000</i>
   <i name="PARAM3">      0.00000000</i>
  </separator>
  <separator name="model GW" >
   <i type="int" name="MODEL_GW">     0</i>
   <i name="MODEL_EPS0">    510.57796315</i>
   <i name="MODEL_ALPHA">      1.00000000</i>
  </separator>
  <separator name="linear response parameters" >
   <i type="logical" name="LEPSILON"> F  </i>
   <i type="logical" name="LRPA"> F  </i>
   <i type="logical" name="LNABLA"> F  </i>
   <i type="logical" name="LVEL"> F  </i>
   <i type="int" name="KINTER">     0</i>
   <i name="CSHIFT">      0.10000000</i>
   <i name="OMEGAMAX">     -1.00000000</i>
   <i name="DEG_THRESHOLD">      0.00200000</i>
   <i name="RTIME">     -0.10000000</i>
   <i name="WPLASMAI">      0.00000000</i>
   <v name="DFIELD">      0.00000000      0.00000000      0.00000000</v>
   <v name="WPLASMA">      0.00000000      0.00000000      0.00000000      0.00000000      0.00000000      0.00000000      0.00000000      0.00000000      0.00000000</v>
  </separator>
  <separator name="orbital magnetization" >
   <i type="logical" name="NUCIND"> F  </i>
   <v name="MAGPOS">      0.00000000      0.00000000      0.00000000</v>
   <i type="logical" name="LNICSALL"> T  </i>
   <i type="logical" name="ORBITALMAG"> F  </i>
   <i type="logical" name="LMAGBLOCH"> F  </i>
   <i type="logical" name="LCHIMAG"> F  </i>
   <i type="logical" name="LGAUGE"> T  </i>
   <i type="int" name="MAGATOM">     0</i>
   <v name="MAGDIPOL">      0.00000000      0.00000000      0.00000000</v>
   <v name="AVECCONST">      0.00000000      0.00000000      0.00000000</v>
  </separator>
  <separator name="response functions" >
   <i type="logical" name="LFINITE_TEMPERATURE"> F  </i>
   <i type="logical" name="LADDER"> F  </i>
   <i type="logical" name="LRPAFORCE"> F  </i>
   <i type="logical" name="LFXC"> F  </i>
   <i type="logical" name="LHARTREE"> T  </i>
   <i type="int" name="IBSE">     0</i>
   <v type="int" name="KPOINT">    -1     0     0     0</v>
   <i type="logical" name="LTCTC"> F  </i>
   <i type="logical" name="LTCTE"> F  </i>
   <i type="logical" name="LTETE"> F  </i>
   <i type="logical" name="LTRIPLET"> F  </i>
   <i type="logical" name="LFXCEPS"> F  </i>
   <i type="logical" name="LFXHEG"> F  </i>
   <i type="int" name="NATURALO">     2</i>
   <i type="logical" name="LHOLEGF"> F  </i>
   <i type="logical" name="L2ORDER"> F  </i>
   <i type="logical" name="LDMP1"> F  </i>
   <i type="logical" name="LMP2LT"> F  </i>
   <i type="logical" name="LSMP2LT"> F  </i>
   <i type="logical" name="LGWLF"> F  </i>
   <i name="ENCUTGW">     -2.00000000</i>
   <i name="ENCUTGWSOFT">     -2.00000000</i>
   <i name="ENCUTLF">     -1.00000000</i>
   <i type="logical" name="LESF_SPLINES"> F  </i>
   <i type="int" name="LMAXMP2">    -1</i>
   <i name="SCISSOR">      0.00000000</i>
   <i type="int" name="NOMEGA">     0</i>
   <i type="int" name="NOMEGAR">     0</i>
   <i type="int" name="NBANDSGW">    -1</i>
   <i type="int" name="NBANDSO">    -1</i>
   <i type="int" name="NBANDSV">    -1</i>
   <i type="int" name="NELM">     1</i>
   <i type="int" name="NELMHF">     1</i>
   <i type="int" name="DIM">     3</i>
   <i type="int" name="IESPILON">     4</i>
   <i type="int" name="ANTIRES">     0</i>
   <i name="OMEGAMAX">    -30.00000000</i>
   <i name="OMEGAMIN">    -30.00000000</i>
   <i name="OMEGATL">   -200.00000000</i>
   <i type="int" name="OMEGAGRID">     0</i>
   <i name="CSHIFT">     -0.10000000</i>
   <i type="logical" name="LSELFENERGY"> F  </i>
   <i type="logical" name="LSPECTRAL"> F  </i>
   <i type="logical" name="LSPECTRALGW"> F  </i>
   <i type="logical" name="LSINGLES"> F  </i>
   <i type="logical" name="LFERMIGW"> F  </i>
   <i type="logical" name="ODDONLYGW"> F  </i>
   <i type="logical" name="EVENONLYGW"> F  </i>
   <i type="int" name="NKREDLFX">     1</i>
   <i type="int" name="NKREDLFY">     1</i>
   <i type="int" name="NKREDLFZ">     1</i>
   <i type="int" name="MAXMEM">  2800</i>
   <i type="int" name="TELESCOPE">     0</i>
   <i type="int" name="NTAUPAR">    -1</i>
   <i type="int" name="NOMEGAPAR">    -1</i>
   <i name="LAMBDA">      1.00000000</i>
  </separator>
  <separator name="External order field" >
   <i name="OFIELD_KAPPA">      0.00000000</i>
   <v name="OFIELD_K">      0.00000000      0.00000000      0.00000000</v>
   <i name="OFIELD_Q6_NEAR">      0.00000000</i>
   <i name="OFIELD_Q6_FAR">      0.00000000</i>
   <i name="OFIELD_A">      0.00000000</i>
  </separator>
 </parameters>
 <atominfo>
  <atoms>      16 </atoms>
  <types>       1 </types>
  <array name="atoms" >
   <dimension dim="1">ion</dimension>
   <field type="string">element</field>
   <field type="int">atomtype</field>
   <set>
    <rc><c>Pd</c><c>   1</c></rc>
    <rc><c>Pd</c><c>   1</c></rc>
    <rc><c>Pd</c><c>   1</c></rc>
    <rc><c>Pd</c><c>   1</c></rc>
    <rc><c>Pd</c><c>   1</c></rc>
    <rc><c>Pd</c><c>   1</c></rc>
    <rc><c>Pd</c><c>   1</c></rc>
    <rc><c>Pd</c><c>   1</c></rc>
    <rc><c>Pd</c><c>   1</c></rc>
    <rc><c>Pd</c><c>   1</c></rc>
    <rc><c>Pd</c><c>   1</c></rc>
    <rc><c>Pd</c><c>   1</c></rc>
    <rc><c>Pd</c><c>   1</c></rc>
    <rc><c>Pd</c><c>   1</c></rc>
    <rc><c>Pd</c><c>   1</c></rc>
    <rc><c>Pd</c><c>   1</c></rc>
   </set>
  </array>
  <array name="atomtypes" >
   <dimension dim="1">type</dimension>
   <field type="int">atomspertype</field>
   <field type="string">element</field>
   <field>mass</field>
   <field>valence</field>
   <field type="string">pseudopotential</field>
   <set>
    <rc><c>  16</c><c>Pd</c><c>    106.42000000</c><c>     10.00000000</c><c>  PAW_PBE Pd 04Jan2005                  </c></rc>
   </set>
  </array>
 </atominfo>
 <structure name="initialpos" >
  <crystal>
   <varray name="basis" >
    <v>      23.85720075       0.00000000       0.00000000 </v>
    <v>       0.00000000      23.92331816       0.00000000 </v>
    <v>       0.00000000       0.00000000      23.85557547 </v>
   </varray>
   <i name="volume">  13615.41235065 </i>
   <varray name="rec_basis" >
    <v>       0.04191607       0.00000000       0.00000000 </v>
    <v>       0.00000000       0.04180022       0.00000000 </v>
    <v>       0.00000000       0.00000000       0.04191892 </v>
   </varray>
  </crystal>
  <varray name="positions" >
   <v>       0.48499069       0.49532284       0.52025151 </v>
   <v>       0.54228219       0.56711656       0.58698522 </v>
   <v>       0.53910058       0.46372634       0.61672844 </v>
   <v>       0.45783239       0.57994787       0.45531802 </v>
   <v>       0.56853688       0.43390301       0.48857750 </v>
   <v>       0.43970106       0.51323465       0.61574483 </v>
   <v>       0.39837843       0.43278903       0.54059687 </v>
   <v>       0.37617039       0.53878641       0.52821255 </v>
   <v>       0.49557116       0.38639489       0.55897748 </v>
   <v>       0.56798175       0.55477935       0.47776031 </v>
   <v>       0.40339447       0.48417569       0.43929060 </v>
   <v>       0.51063184       0.48917004       0.40928649 </v>
   <v>       0.46707616       0.39923505       0.45660804 </v>
   <v>       0.53504232       0.58981021       0.38204349 </v>
   <v>       0.62073088       0.49944541       0.55541482 </v>
   <v>       0.44869746       0.60894618       0.56068221 </v>
  </varray>
 </structure>
 <calculation>
  <scstep>
   <time name="dav">   23.28   23.41</time>
   <time name="total">   26.39   26.56</time>
   <energy>
    <i name="alphaZ">     12.25439022 </i>
    <i name="ewald">  27079.41362963 </i>
    <i name="hartreedc"> -39374.81232432 </i>
    <i name="XCdc">   -478.94352735 </i>
    <i name="pawpsdc">  12906.36685261 </i>
    <i name="pawaedc"> -11910.91650437 </i>
    <i name="eentropy">      0.03292245 </i>
    <i name="bandstr">    248.70262383 </i>
    <i name="atom">  12955.90228127 </i>
    <i name="e_fr_energy">   1438.00034396 </i>
    <i name="e_wo_entrp">   1437.96742152 </i>
    <i name="e_0_energy">   1437.98936981 </i>
   </energy>
  </scstep>
  <scstep>
   <time name="dav">   40.14   40.34</time>
   <time name="total">   40.14   40.34</time>
   <energy>
    <i name="e_fr_energy">    720.62789243 </i>
    <i name="e_wo_entrp">    720.66973156 </i>
    <i name="e_0_energy">    720.64183881 </i>
   </energy>
  </scstep>
  <scstep>
   <time name="dav">   35.60   35.91</time>
   <time name="total">   35.61   35.92</time>
   <energy>
    <i name="e_fr_energy">    116.70797770 </i>
    <i name="e_wo_entrp">    116.75573590 </i>
    <i name="e_0_energy">    116.72389710 </i>
   </energy>
  </scstep>
  <scstep>
   <time name="dav">   28.73   29.81</time>
   <time name="total">   28.76   29.83</time>
   <energy>
    <i name="e_fr_energy">    -42.03414180 </i>
    <i name="e_wo_entrp">    -41.99483873 </i>
    <i name="e_0_energy">    -42.02104078 </i>
   </energy>
  </scstep>
  <scstep>
   <time name="dav">   30.15   30.29</time>
   <time name="total">   31.68   31.82</time>
   <energy>
    <i name="e_fr_energy">    -64.07695793 </i>
    <i name="e_wo_entrp">    -64.06782037 </i>
    <i name="e_0_energy">    -64.07391207 </i>
   </energy>
  </scstep>
  <scstep>
   <time name="dav">   23.57   23.94</time>
   <time name="total">   28.28   28.66</time>
   <energy>
    <i name="e_fr_energy">    -55.29421446 </i>
    <i name="e_wo_entrp">    -55.31213755 </i>
    <i name="e_0_energy">    -55.30018882 </i>
   </energy>
  </scstep>
  <scstep>
   <time name="dav">   24.90   27.15</time>
   <time name="total">   29.70   31.97</time>
   <energy>
    <i name="e_fr_energy">    -57.11538334 </i>
    <i name="e_wo_entrp">    -57.13763253 </i>
    <i name="e_0_energy">    -57.12279974 </i>
   </energy>
  </scstep>
  <scstep>
   <time name="dav">   24.33   25.37</time>
   <time name="total">   29.00   30.05</time>
   <energy>
    <i name="e_fr_energy">    -51.63362676 </i>
    <i name="e_wo_entrp">    -51.68794216 </i>
    <i name="e_0_energy">    -51.65173189 </i>
   </energy>
  </scstep>
  <scstep>
   <time name="dav">   24.77   24.89</time>
   <time name="total">   29.43   29.57</time>
   <energy>
    <i name="e_fr_energy">    -48.78134196 </i>
    <i name="e_wo_entrp">    -48.78167517 </i>
    <i name="e_0_energy">    -48.78145303 </i>
   </energy>
  </scstep>
  <scstep>
   <time name="dav">   25.99   26.13</time>
   <time name="total">   30.64   30.81</time>
   <energy>
    <i name="e_fr_energy">    -47.85436055 </i>
    <i name="e_wo_entrp">    -47.84449018 </i>
    <i name="e_0_energy">    -47.85107043 </i>
   </energy>
  </scstep>
  <scstep>
   <time name="dav">   23.67   23.86</time>
   <time name="total">   28.48   28.84</time>
   <energy>
    <i name="e_fr_energy">    -48.89047527 </i>
    <i name="e_wo_entrp">    -48.90567022 </i>
    <i name="e_0_energy">    -48.89554025 </i>
   </energy>
  </scstep>
  <scstep>
   <time name="dav">   23.60   23.73</time>
   <time name="total">   28.67   28.84</time>
   <energy>
    <i name="e_fr_energy">    -49.89019476 </i>
    <i name="e_wo_entrp">    -49.89154924 </i>
    <i name="e_0_energy">    -49.89064625 </i>
   </energy>
  </scstep>
  <scstep>
   <time name="dav">   24.14   24.22</time>
   <time name="total">   29.20   29.34</time>
   <energy>
    <i name="e_fr_energy">    -51.20660467 </i>
    <i name="e_wo_entrp">    -51.20184887 </i>
    <i name="e_0_energy">    -51.20501940 </i>
   </energy>
  </scstep>
  <scstep>
   <time name="dav">   23.07   23.18</time>
   <time name="total">   29.10   29.23</time>
   <energy>
    <i name="e_fr_energy">    -53.38942785 </i>
    <i name="e_wo_entrp">    -53.37356652 </i>
    <i name="e_0_energy">    -53.38414074 </i>
   </energy>
  </scstep>
  <scstep>
   <time name="dav">   23.95   24.11</time>
   <time name="total">   28.94   29.13</time>
   <energy>
    <i name="e_fr_energy">    -54.54536244 </i>
    <i name="e_wo_entrp">    -54.51512612 </i>
    <i name="e_0_energy">    -54.53528367 </i>
   </energy>
  </scstep>
  <scstep>
   <time name="dav">   23.97   24.51</time>
   <time name="total">   29.43   30.06</time>
   <energy>
    <i name="e_fr_energy">    -55.14252428 </i>
    <i name="e_wo_entrp">    -55.12205131 </i>
    <i name="e_0_energy">    -55.13569996 </i>
   </energy>
  </scstep>
  <scstep>
   <time name="dav">   21.44   22.48</time>
   <time name="total">   27.27   28.32</time>
   <energy>
    <i name="e_fr_energy">    -56.08046560 </i>
    <i name="e_wo_entrp">    -56.05872635 </i>
    <i name="e_0_energy">    -56.07321918 </i>
   </energy>
  </scstep>
  <scstep>
   <time name="dav">   22.95   23.42</time>
   <time name="total">   27.73   28.22</time>
   <energy>
    <i name="e_fr_energy">    -57.01191521 </i>
    <i name="e_wo_entrp">    -56.99339484 </i>
    <i name="e_0_energy">    -57.00574175 </i>
   </energy>
  </scstep>
  <scstep>
   <time name="dav">   22.67   22.81</time>
   <time name="total">   27.30   27.62</time>
   <energy>
    <i name="e_fr_energy">    -57.99786493 </i>
    <i name="e_wo_entrp">    -57.98196866 </i>
    <i name="e_0_energy">    -57.99256617 </i>
   </energy>
  </scstep>
  <scstep>
   <time name="dav">   22.34   22.82</time>
   <time name="total">   27.02   27.65</time>
   <energy>
    <i name="e_fr_energy">    -58.48091415 </i>
    <i name="e_wo_entrp">    -58.46603459 </i>
    <i name="e_0_energy">    -58.47595430 </i>
   </energy>
  </scstep>
  <scstep>
   <time name="dav">   24.81   25.25</time>
   <time name="total">   30.00   30.63</time>
   <energy>
    <i name="e_fr_energy">    -59.24567096 </i>
    <i name="e_wo_entrp">    -59.23840452 </i>
    <i name="e_0_energy">    -59.24324881 </i>
   </energy>
  </scstep>
  <scstep>
   <time name="dav">   23.45   23.80</time>
   <time name="total">   28.73   29.36</time>
   <energy>
    <i name="e_fr_energy">    -59.86878544 </i>
    <i name="e_wo_entrp">    -59.86413575 </i>
    <i name="e_0_energy">    -59.86723555 </i>
   </energy>
  </scstep>
  <scstep>
   <time name="dav">   23.50   23.56</time>
   <time name="total">   28.45   28.52</time>
   <energy>
    <i name="e_fr_energy">    -60.45139979 </i>
    <i name="e_wo_entrp">    -60.45113931 </i>
    <i name="e_0_energy">    -60.45131297 </i>
   </energy>
  </scstep>
  <scstep>
   <time name="dav">   22.44   22.50</time>
   <time name="total">   27.64   27.89</time>
   <energy>
    <i name="e_fr_energy">    -60.76672501 </i>
    <i name="e_wo_entrp">    -60.76621236 </i>
    <i name="e_0_energy">    -60.76655413 </i>
   </energy>
  </scstep>
  <scstep>
   <time name="dav">   23.09   23.14</time>
   <time name="total">   28.05   28.11</time>
   <energy>
    <i name="e_fr_energy">    -61.06971233 </i>
    <i name="e_wo_entrp">    -61.07218983 </i>
    <i name="e_0_energy">    -61.07053816 </i>
   </energy>
  </scstep>
  <scstep>
   <time name="dav">   21.53   21.91</time>
   <time name="total">   26.46   26.91</time>
   <energy>
    <i name="e_fr_energy">    -61.38122411 </i>
    <i name="e_wo_entrp">    -61.38420836 </i>
    <i name="e_0_energy">    -61.38221886 </i>
   </energy>
  </scstep>
  <scstep>
   <time name="dav">   21.87   22.88</time>
   <time name="total">   27.00   28.12</time>
   <energy>
    <i name="e_fr_energy">    -61.62287836 </i>
    <i name="e_wo_entrp">    -61.62685447 </i>
    <i name="e_0_energy">    -61.62420373 </i>
   </energy>
  </scstep>
  <scstep>
   <time name="dav">   22.37   22.41</time>
   <time name="total">   28.00   28.15</time>
   <energy>
    <i name="e_fr_energy">    -61.77631274 </i>
    <i name="e_wo_entrp">    -61.78075888 </i>
    <i name="e_0_energy">    -61.77779479 </i>
   </energy>
  </scstep>
  <scstep>
   <time name="dav">   21.99   22.03</time>
   <time name="total">   26.96   27.03</time>
   <energy>
    <i name="e_fr_energy">    -61.86598592 </i>
    <i name="e_wo_entrp">    -61.87050929 </i>
    <i name="e_0_energy">    -61.86749371 </i>
   </energy>
  </scstep>
  <scstep>
   <time name="dav">   21.29   21.34</time>
   <time name="total">   26.38   26.44</time>
   <energy>
    <i name="e_fr_energy">    -61.96774908 </i>
    <i name="e_wo_entrp">    -61.97293585 </i>
    <i name="e_0_energy">    -61.96947800 </i>
   </energy>
  </scstep>
  <scstep>
   <time name="dav">   19.83   19.86</time>
   <time name="total">   24.76   24.81</time>
   <energy>
    <i name="e_fr_energy">    -62.01041801 </i>
    <i name="e_wo_entrp">    -62.01558960 </i>
    <i name="e_0_energy">    -62.01214188 </i>
   </energy>
  </scstep>
  <scstep>
   <time name="dav">   18.84   18.88</time>
   <time name="total">   24.12   24.18</time>
   <energy>
    <i name="e_fr_energy">    -62.03021062 </i>
    <i name="e_wo_entrp">    -62.03543722 </i>
    <i name="e_0_energy">    -62.03195282 </i>
   </energy>
  </scstep>
  <scstep>
   <time name="dav">   18.06   18.10</time>
   <time name="total">   23.17   23.23</time>
   <energy>
    <i name="e_fr_energy">    -62.04245726 </i>
    <i name="e_wo_entrp">    -62.04768843 </i>
    <i name="e_0_energy">    -62.04420098 </i>
   </energy>
  </scstep>
  <scstep>
   <time name="dav">   18.16   18.27</time>
   <time name="total">   23.26   23.60</time>
   <energy>
    <i name="e_fr_energy">    -62.04911724 </i>
    <i name="e_wo_entrp">    -62.05440049 </i>
    <i name="e_0_energy">    -62.05087833 </i>
   </energy>
  </scstep>
  <scstep>
   <time name="dav">   17.12   17.43</time>
   <time name="total">   22.93   23.44</time>
   <energy>
    <i name="e_fr_energy">    -62.05198344 </i>
    <i name="e_wo_entrp">    -62.05735843 </i>
    <i name="e_0_energy">    -62.05377511 </i>
   </energy>
  </scstep>
  <scstep>
   <time name="dav">   16.60   16.65</time>
   <time name="total">   21.82   22.00</time>
   <energy>
    <i name="e_fr_energy">    -62.05295098 </i>
    <i name="e_wo_entrp">    -62.05830976 </i>
    <i name="e_0_energy">    -62.05473724 </i>
   </energy>
  </scstep>
  <scstep>
   <time name="dav">   17.07   19.03</time>
   <time name="total">   22.32   24.45</time>
   <energy>
    <i name="e_fr_energy">    -62.05309264 </i>
    <i name="e_wo_entrp">    -62.05840621 </i>
    <i name="e_0_energy">    -62.05486383 </i>
   </energy>
  </scstep>
  <scstep>
   <time name="dav">   18.53   18.76</time>
   <time name="total">   21.83   22.39</time>
   <energy>
    <i name="alphaZ">     12.25439022 </i>
    <i name="ewald">  27079.41362963 </i>
    <i name="hartreedc"> -39602.28208969 </i>
    <i name="XCdc">   -479.34563101 </i>
    <i name="pawpsdc">  14947.65924578 </i>
    <i name="pawaedc"> -13974.85775829 </i>
    <i name="eentropy">      0.00534021 </i>
    <i name="bandstr">  -1000.80259716 </i>
    <i name="atom">  12955.90228127 </i>
    <i name="e_fr_energy">    -62.05318904 </i>
    <i name="e_wo_entrp">    -62.05852926 </i>
    <i name="e_0_energy">    -62.05496911 </i>
   </energy>
  </scstep>
  <structure>
   <crystal>
    <varray name="basis" >
     <v>      23.85720075       0.00000000       0.00000000 </v>
     <v>       0.00000000      23.92331816       0.00000000 </v>
     <v>       0.00000000       0.00000000      23.85557547 </v>
    </varray>
    <i name="volume">  13615.41235065 </i>
    <varray name="rec_basis" >
     <v>       0.04191607       0.00000000       0.00000000 </v>
     <v>       0.00000000       0.04180022       0.00000000 </v>
     <v>       0.00000000       0.00000000       0.04191892 </v>
    </varray>
   </crystal>
   <varray name="positions" >
    <v>       0.48499069       0.49532284       0.52025151 </v>
    <v>       0.54228219       0.56711656       0.58698522 </v>
    <v>       0.53910058       0.46372634       0.61672844 </v>
    <v>       0.45783239       0.57994787       0.45531802 </v>
    <v>       0.56853688       0.43390301       0.48857750 </v>
    <v>       0.43970106       0.51323465       0.61574483 </v>
    <v>       0.39837843       0.43278903       0.54059687 </v>
    <v>       0.37617039       0.53878641       0.52821255 </v>
    <v>       0.49557116       0.38639489       0.55897748 </v>
    <v>       0.56798175       0.55477935       0.47776031 </v>
    <v>       0.40339447       0.48417569       0.43929060 </v>
    <v>       0.51063184       0.48917004       0.40928649 </v>
    <v>       0.46707616       0.39923505       0.45660804 </v>
    <v>       0.53504232       0.58981021       0.38204349 </v>
    <v>       0.62073088       0.49944541       0.55541482 </v>
    <v>       0.44869746       0.60894618       0.56068221 </v>
   </varray>
  </structure>
  <varray name="forces" >
   <v>       0.36421398       0.24583409       0.07831310 </v>
   <v>       0.11288370       0.43498511       0.00909514 </v>
   <v>       0.08867250      -0.43926593       0.52190496 </v>
   <v>      -0.44721840       0.68349700       0.00879162 </v>
   <v>       0.26391605      -0.23809891       0.02116881 </v>
   <v>      -0.29189208      -0.09241529       0.60060981 </v>
   <v>      -0.53774304      -0.44695705       0.34226743 </v>
   <v>      -0.70709064       0.30697182      -0.10731205 </v>
   <v>       0.34616432      -0.62670112       0.40172809 </v>
   <v>       0.49312974       0.33188158       0.26468976 </v>
   <v>      -0.52852676      -0.05662260      -0.62790112 </v>
   <v>       0.00989459      -0.43518673      -0.76277029 </v>
   <v>      -0.04304776      -0.71596156      -0.67005167 </v>
   <v>       0.08070288       0.18971677      -0.31217805 </v>
   <v>       0.76929291      -0.07743012       0.08460233 </v>
   <v>       0.02664800       0.93575295       0.14704213 </v>
  </varray>
  <energy>
   <i name="e_fr_energy">    -62.05318904 </i>
   <i name="e_wo_entrp">    -62.05852926 </i>
   <i name="e_0_energy">    -62.05496911 </i>
  </energy>
  <time name="totalsc"> 1070.38 1088.49</time>
 </calculation>
 <calculation>
  <scstep>
   <time name="dav">   21.50   23.63</time>
   <time name="total">   25.96   28.19</time>
   <energy>
    <i name="alphaZ">     12.25439022 </i>
    <i name="ewald">  26541.81091631 </i>
    <i name="hartreedc"> -39071.68117179 </i>
    <i name="XCdc">   -480.58273637 </i>
    <i name="pawpsdc">  14947.74581408 </i>
    <i name="pawaedc"> -13974.94356908 </i>
    <i name="eentropy">      0.01356156 </i>
    <i name="bandstr">   -992.69921503 </i>
    <i name="atom">  12955.90228127 </i>
    <i name="e_fr_energy">    -62.17972882 </i>
    <i name="e_wo_entrp">    -62.19329038 </i>
    <i name="e_0_energy">    -62.18424934 </i>
   </energy>
  </scstep>
  <scstep>
   <time name="dav">   22.61   22.66</time>
   <time name="total">   27.31   27.39</time>
   <energy>
    <i name="e_fr_energy">    -62.40218424 </i>
    <i name="e_wo_entrp">    -62.42142665 </i>
    <i name="e_0_energy">    -62.40859838 </i>
   </energy>
  </scstep>
  <scstep>
   <time name="dav">   22.32   22.39</time>
   <time name="total">   28.10   28.18</time>
   <energy>
    <i name="e_fr_energy">    -62.36845651 </i>
    <i name="e_wo_entrp">    -62.38356921 </i>
    <i name="e_0_energy">    -62.37349407 </i>
   </energy>
  </scstep>
  <scstep>
   <time name="dav">   21.62   21.68</time>
   <time name="total">   26.42   26.50</time>
   <energy>
    <i name="e_fr_energy">    -62.34430093 </i>
    <i name="e_wo_entrp">    -62.35799186 </i>
    <i name="e_0_energy">    -62.34886458 </i>
   </energy>
  </scstep>
  <scstep>
   <time name="dav">   22.69   22.81</time>
   <time name="total">   27.35   27.49</time>
   <energy>
    <i name="e_fr_energy">    -62.30717710 </i>
    <i name="e_wo_entrp">    -62.32029429 </i>
    <i name="e_0_energy">    -62.31154950 </i>
   </energy>
  </scstep>
  <scstep>
   <time name="dav">   25.67   25.71</time>
   <time name="total">   30.33   30.38</time>
   <energy>
    <i name="e_fr_energy">    -62.31208377 </i>
    <i name="e_wo_entrp">    -62.32508080 </i>
    <i name="e_0_energy">    -62.31641611 </i>
   </energy>
  </scstep>
  <scstep>
   <time name="dav">   23.46   23.51</time>
   <time name="total">   28.19   28.26</time>
   <energy>
    <i name="e_fr_energy">    -62.29135014 </i>
    <i name="e_wo_entrp">    -62.30708371 </i>
    <i name="e_0_energy">    -62.29659466 </i>
   </energy>
  </scstep>
  <scstep>
   <time name="dav">   23.34   23.54</time>
   <time name="total">   28.15   28.94</time>
   <energy>
    <i name="e_fr_energy">    -62.28803043 </i>
    <i name="e_wo_entrp">    -62.30200131 </i>
    <i name="e_0_energy">    -62.29268739 </i>
   </energy>
  </scstep>
  <scstep>
   <time name="dav">   23.02   23.08</time>
   <time name="total">   27.85   27.93</time>
   <energy>
    <i name="e_fr_energy">    -62.28935417 </i>
    <i name="e_wo_entrp">    -62.30239110 </i>
    <i name="e_0_energy">    -62.29369982 </i>
   </energy>
  </scstep>
  <scstep>
   <time name="dav">   22.21   22.27</time>
   <time name="total">   27.50   27.57</time>
   <energy>
    <i name="e_fr_energy">    -62.29097646 </i>
    <i name="e_wo_entrp">    -62.30357275 </i>
    <i name="e_0_energy">    -62.29517522 </i>
   </energy>
  </scstep>
  <scstep>
   <time name="dav">   19.96   20.01</time>
   <time name="total">   25.35   25.42</time>
   <energy>
    <i name="e_fr_energy">    -62.29287832 </i>
    <i name="e_wo_entrp">    -62.30564609 </i>
    <i name="e_0_energy">    -62.29713425 </i>
   </energy>
  </scstep>
  <scstep>
   <time name="dav">   15.98   16.76</time>
   <time name="total">   20.75   21.78</time>
   <energy>
    <i name="e_fr_energy">    -62.29521987 </i>
    <i name="e_wo_entrp">    -62.30771481 </i>
    <i name="e_0_energy">    -62.29938485 </i>
   </energy>
  </scstep>
  <scstep>
   <time name="dav">   17.98   20.30</time>
   <time name="total">   23.18   25.85</time>
   <energy>
    <i name="e_fr_energy">    -62.29715752 </i>
    <i name="e_wo_entrp">    -62.30967424 </i>
    <i name="e_0_energy">    -62.30132976 </i>
   </energy>
  </scstep>
  <scstep>
   <time name="dav">   16.75   17.85</time>
   <time name="total">   22.00   23.64</time>
   <energy>
    <i name="e_fr_energy">    -62.30098311 </i>
    <i name="e_wo_entrp">    -62.31331876 </i>
    <i name="e_0_energy">    -62.30509499 </i>
   </energy>
  </scstep>
  <scstep>
   <time name="dav">   15.43   15.45</time>
   <time name="total">   21.41   21.51</time>
   <energy>
    <i name="e_fr_energy">    -62.30413275 </i>
    <i name="e_wo_entrp">    -62.31635177 </i>
    <i name="e_0_energy">    -62.30820576 </i>
   </energy>
  </scstep>
  <scstep>
   <time name="dav">   16.83   17.17</time>
   <time name="total">   21.81   22.26</time>
   <energy>
    <i name="e_fr_energy">    -62.30815028 </i>
    <i name="e_wo_entrp">    -62.32025436 </i>
    <i name="e_0_energy">    -62.31218497 </i>
   </energy>
  </scstep>
  <scstep>
   <time name="dav">   16.16   16.50</time>
   <time name="total">   21.21   21.69</time>
   <energy>
    <i name="e_fr_energy">    -62.31114801 </i>
    <i name="e_wo_entrp">    -62.32318735 </i>
    <i name="e_0_energy">    -62.31516112 </i>
   </energy>
  </scstep>
  <scstep>
   <time name="dav">   16.15   16.19</time>
   <time name="total">   21.46   22.20</time>
   <energy>
    <i name="e_fr_energy">    -62.31411938 </i>
    <i name="e_wo_entrp">    -62.32608620 </i>
    <i name="e_0_energy">    -62.31810832 </i>
   </energy>
  </scstep>
  <scstep>
   <time name="dav">   16.22   16.26</time>
   <time name="total">   22.11   22.17</time>
   <energy>
    <i name="e_fr_energy">    -62.31908334 </i>
    <i name="e_wo_entrp">    -62.33100155 </i>
    <i name="e_0_energy">    -62.32305608 </i>
   </energy>
  </scstep>
  <scstep>
   <time name="dav">   22.62   23.04</time>
   <time name="total">   27.48   28.05</time>
   <energy>
    <i name="e_fr_energy">    -62.32201564 </i>
    <i name="e_wo_entrp">    -62.33377557 </i>
    <i name="e_0_energy">    -62.32593562 </i>
   </energy>
  </scstep>
  <scstep>
   <time name="dav">   17.78   17.82</time>
   <time name="total">   22.67   22.75</time>
   <energy>
    <i name="e_fr_energy">    -62.32352685 </i>
    <i name="e_wo_entrp">    -62.33528959 </i>
    <i name="e_0_energy">    -62.32744777 </i>
   </energy>
  </scstep>
  <scstep>
   <time name="dav">   17.57   17.64</time>
   <time name="total">   22.47   22.57</time>
   <energy>
    <i name="e_fr_energy">    -62.32448248 </i>
    <i name="e_wo_entrp">    -62.33622378 </i>
    <i name="e_0_energy">    -62.32839625 </i>
   </energy>
  </scstep>
  <scstep>
   <time name="dav">   19.95   20.11</time>
   <time name="total">   25.24   25.43</time>
   <energy>
    <i name="e_fr_energy">    -62.32554071 </i>
    <i name="e_wo_entrp">    -62.33727591 </i>
    <i name="e_0_energy">    -62.32945245 </i>
   </energy>
  </scstep>
  <scstep>
   <time name="dav">   16.35   16.49</time>
   <time name="total">   22.35   22.52</time>
   <energy>
    <i name="e_fr_energy">    -62.32625970 </i>
    <i name="e_wo_entrp">    -62.33796404 </i>
    <i name="e_0_energy">    -62.33016115 </i>
   </energy>
  </scstep>
  <scstep>
   <time name="dav">   20.86   20.92</time>
   <time name="total">   25.83   25.92</time>
   <energy>
    <i name="e_fr_energy">    -62.32659010 </i>
    <i name="e_wo_entrp">    -62.33829951 </i>
    <i name="e_0_energy">    -62.33049324 </i>
   </energy>
  </scstep>
  <scstep>
   <time name="dav">   18.45   18.52</time>
   <time name="total">   26.25   26.35</time>
   <energy>
    <i name="e_fr_energy">    -62.32683390 </i>
    <i name="e_wo_entrp">    -62.33854491 </i>
    <i name="e_0_energy">    -62.33073757 </i>
   </energy>
  </scstep>
  <scstep>
   <time name="dav">   17.22   17.33</time>
   <time name="total">   22.78   22.92</time>
   <energy>
    <i name="e_fr_energy">    -62.32702830 </i>
    <i name="e_wo_entrp">    -62.33874350 </i>
    <i name="e_0_energy">    -62.33093336 </i>
   </energy>
  </scstep>
  <scstep>
   <time name="dav">   16.67   16.75</time>
   <time name="total">   20.86   21.80</time>
   <energy>
    <i name="alphaZ">     12.25439022 </i>
    <i name="ewald">  26541.81091631 </i>
    <i name="hartreedc"> -39079.87466510 </i>
    <i name="XCdc">   -480.36222131 </i>
    <i name="pawpsdc">  14746.39848058 </i>
    <i name="pawaedc"> -13770.78163275 </i>
    <i name="eentropy">      0.01171429 </i>
    <i name="bandstr">   -987.68638567 </i>
    <i name="atom">  12955.90228127 </i>
    <i name="e_fr_energy">    -62.32712217 </i>
    <i name="e_wo_entrp">    -62.33883646 </i>
    <i name="e_0_energy">    -62.33102693 </i>
   </energy>
  </scstep>
  <structure>
   <crystal>
    <varray name="basis" >
     <v>      23.85720075       0.00000000       0.00000000 </v>
     <v>       0.00000000      23.92331816       0.00000000 </v>
     <v>       0.00000000       0.00000000      23.85557547 </v>
    </varray>
    <i name="volume">  13615.41235065 </i>
    <varray name="rec_basis" >
     <v>       0.04191607       0.00000000       0.00000000 </v>
     <v>       0.00000000       0.04180022       0.00000000 </v>
     <v>       0.00000000       0.00000000       0.04191892 </v>
    </varray>
   </crystal>
   <varray name="positions" >
    <v>       0.48572719       0.49581858       0.52040988 </v>
    <v>       0.54251046       0.56799373       0.58700362 </v>
    <v>       0.53927988       0.46284054       0.61778387 </v>
    <v>       0.45692805       0.58132618       0.45533580 </v>
    <v>       0.56907055       0.43342287       0.48862031 </v>
    <v>       0.43911081       0.51304829       0.61695943 </v>
    <v>       0.39729104       0.43188772       0.54128903 </v>
    <v>       0.37474055       0.53940543       0.52799553 </v>
    <v>       0.49627115       0.38513111       0.55978989 </v>
    <v>       0.56897893       0.55544861       0.47829559 </v>
    <v>       0.40232571       0.48406151       0.43802081 </v>
    <v>       0.51065185       0.48829246       0.40774396 </v>
    <v>       0.46698911       0.39779127       0.45525301 </v>
    <v>       0.53520551       0.59019279       0.38141218 </v>
    <v>       0.62228650       0.49928927       0.55558591 </v>
    <v>       0.44875135       0.61083317       0.56097957 </v>
   </varray>
  </structure>
  <varray name="forces" >
   <v>      -0.02452632       0.03863370       0.00549244 </v>
   <v>       0.04846952       0.08520113      -0.05028609 </v>
   <v>       0.07161670      -0.14534865       0.20331165 </v>
   <v>      -0.22365424       0.26139720       0.05110400 </v>
   <v>       0.02833795      -0.05644295       0.07798011 </v>
   <v>      -0.12431626       0.01092047       0.12205185 </v>
   <v>      -0.04035338      -0.08921295       0.09167221 </v>
   <v>      -0.20665196       0.13412390      -0.07995422 </v>
   <v>       0.14543300      -0.30300607       0.06009737 </v>
   <v>       0.22040575       0.16976838       0.05925275 </v>
   <v>      -0.11765957      -0.04601575      -0.19646849 </v>
   <v>      -0.07149551      -0.14789784      -0.30764894 </v>
   <v>      -0.03421595      -0.30983464      -0.25012348 </v>
   <v>      -0.01408605      -0.02198237      -0.00717774 </v>
   <v>       0.39996313      -0.06124635       0.12034655 </v>
   <v>      -0.05726681       0.48094279       0.10035002 </v>
  </varray>
  <energy>
   <i name="e_fr_energy">    -62.32712217 </i>
   <i name="e_wo_entrp">    -62.33883646 </i>
   <i name="e_0_energy">    -62.33102693 </i>
  </energy>
  <time name="totalsc">  708.18  722.08</time>
 </calculation>
 <calculation>
  <scstep>
   <time name="dav">   25.50   25.53</time>
   <time name="total">   30.17   30.23</time>
   <energy>
    <i name="alphaZ">     12.25439022 </i>
    <i name="ewald">  26203.31824756 </i>
    <i name="hartreedc"> -38745.39567334 </i>
    <i name="XCdc">   -481.12226726 </i>
    <i name="pawpsdc">  14746.39434065 </i>
    <i name="pawaedc"> -13770.77754636 </i>
    <i name="eentropy">      0.01801383 </i>
    <i name="bandstr">   -982.90385635 </i>
    <i name="atom">  12955.90228127 </i>
    <i name="e_fr_energy">    -62.31206979 </i>
    <i name="e_wo_entrp">    -62.33008362 </i>
    <i name="e_0_energy">    -62.31807440 </i>
   </energy>
  </scstep>
  <scstep>
   <time name="dav">   22.50   22.53</time>
   <time name="total">   27.31   27.37</time>
   <energy>
    <i name="e_fr_energy">    -62.40614849 </i>
    <i name="e_wo_entrp">    -62.42912036 </i>
    <i name="e_0_energy">    -62.41380578 </i>
   </energy>
  </scstep>
  <scstep>
   <time name="dav">   23.83   24.03</time>
   <time name="total">   29.26   29.48</time>
   <energy>
    <i name="e_fr_energy">    -62.38619040 </i>
    <i name="e_wo_entrp">    -62.40450814 </i>
    <i name="e_0_energy">    -62.39229632 </i>
   </energy>
  </scstep>
  <scstep>
   <time name="dav">   23.07   25.09</time>
   <time name="total">   27.54   29.75</time>
   <energy>
    <i name="e_fr_energy">    -62.37919151 </i>
    <i name="e_wo_entrp">    -62.39792484 </i>
    <i name="e_0_energy">    -62.38543595 </i>
   </energy>
  </scstep>
  <scstep>
   <time name="dav">   24.30   26.59</time>
   <time name="total">   28.95   31.33</time>
   <energy>
    <i name="e_fr_energy">    -62.36576622 </i>
    <i name="e_wo_entrp">    -62.38361915 </i>
    <i name="e_0_energy">    -62.37171720 </i>
   </energy>
  </scstep>
  <scstep>
   <time name="dav">   20.51   21.26</time>
   <time name="total">   25.10   25.97</time>
   <energy>
    <i name="e_fr_energy">    -62.36724205 </i>
    <i name="e_wo_entrp">    -62.38543177 </i>
    <i name="e_0_energy">    -62.37330529 </i>
   </energy>
  </scstep>
  <scstep>
   <time name="dav">   20.55   21.29</time>
   <time name="total">   25.28   26.03</time>
   <energy>
    <i name="e_fr_energy">    -62.36056649 </i>
    <i name="e_wo_entrp">    -62.38001055 </i>
    <i name="e_0_energy">    -62.36704784 </i>
   </energy>
  </scstep>
  <scstep>
   <time name="dav">   26.36   26.96</time>
   <time name="total">   31.11   31.74</time>
   <energy>
    <i name="e_fr_energy">    -62.35925197 </i>
    <i name="e_wo_entrp">    -62.37806268 </i>
    <i name="e_0_energy">    -62.36552221 </i>
   </energy>
  </scstep>
  <scstep>
   <time name="dav">   24.97   25.07</time>
   <time name="total">   29.63   29.75</time>
   <energy>
    <i name="e_fr_energy">    -62.35984412 </i>
    <i name="e_wo_entrp">    -62.37813181 </i>
    <i name="e_0_energy">    -62.36594002 </i>
   </energy>
  </scstep>
  <scstep>
   <time name="dav">   18.46   18.53</time>
   <time name="total">   23.18   23.29</time>
   <energy>
    <i name="e_fr_energy">    -62.36043537 </i>
    <i name="e_wo_entrp">    -62.37838489 </i>
    <i name="e_0_energy">    -62.36641854 </i>
   </energy>
  </scstep>
  <scstep>
   <time name="dav">   16.73   16.77</time>
   <time name="total">   25.14   26.93</time>
   <energy>
    <i name="e_fr_energy">    -62.36118965 </i>
    <i name="e_wo_entrp">    -62.37928494 </i>
    <i name="e_0_energy">    -62.36722141 </i>
   </energy>
  </scstep>
  <scstep>
   <time name="dav">   17.84   17.90</time>
   <time name="total">   22.43   22.52</time>
   <energy>
    <i name="e_fr_energy">    -62.36221897 </i>
    <i name="e_wo_entrp">    -62.38017059 </i>
    <i name="e_0_energy">    -62.36820285 </i>
   </energy>
  </scstep>
  <scstep>
   <time name="dav">   16.93   17.58</time>
   <time name="total">   21.74   22.45</time>
   <energy>
    <i name="e_fr_energy">    -62.36288506 </i>
    <i name="e_wo_entrp">    -62.38085709 </i>
    <i name="e_0_energy">    -62.36887574 </i>
   </energy>
  </scstep>
  <scstep>
   <time name="dav">   16.44   16.67</time>
   <time name="total">   21.07   21.33</time>
   <energy>
    <i name="e_fr_energy">    -62.36405094 </i>
    <i name="e_wo_entrp">    -62.38195638 </i>
    <i name="e_0_energy">    -62.37001942 </i>
   </energy>
  </scstep>
  <scstep>
   <time name="dav">   19.00   20.25</time>
   <time name="total">   24.19   25.57</time>
   <energy>
    <i name="e_fr_energy">    -62.36513114 </i>
    <i name="e_wo_entrp">    -62.38297726 </i>
    <i name="e_0_energy">    -62.37107985 </i>
   </energy>
  </scstep>
  <scstep>
   <time name="dav">   18.74   18.80</time>
   <time name="total">   23.41   23.49</time>
   <energy>
    <i name="e_fr_energy">    -62.36657836 </i>
    <i name="e_wo_entrp">    -62.38437101 </i>
    <i name="e_0_energy">    -62.37250924 </i>
   </energy>
  </scstep>
  <scstep>
   <time name="dav">   17.70   17.85</time>
   <time name="total">   22.40   22.57</time>
   <energy>
    <i name="e_fr_energy">    -62.36763531 </i>
    <i name="e_wo_entrp">    -62.38539052 </i>
    <i name="e_0_energy">    -62.37355371 </i>
   </energy>
  </scstep>
  <scstep>
   <time name="dav">   16.95   17.12</time>
   <time name="total">   23.28   23.53</time>
   <energy>
    <i name="e_fr_energy">    -62.36853629 </i>
    <i name="e_wo_entrp">    -62.38626032 </i>
    <i name="e_0_energy">    -62.37444430 </i>
   </energy>
  </scstep>
  <scstep>
   <time name="dav">   17.21   17.88</time>
   <time name="total">   21.65   22.61</time>
   <energy>
    <i name="e_fr_energy">    -62.37022679 </i>
    <i name="e_wo_entrp">    -62.38792711 </i>
    <i name="e_0_energy">    -62.37612690 </i>
   </energy>
  </scstep>
  <scstep>
   <time name="dav">   21.62   21.95</time>
   <time name="total">   26.34   26.79</time>
   <energy>
    <i name="e_fr_energy">    -62.37142886 </i>
    <i name="e_wo_entrp">    -62.38904267 </i>
    <i name="e_0_energy">    -62.37730013 </i>
   </energy>
  </scstep>
  <scstep>
   <time name="dav">   20.53   22.76</time>
   <time name="total">   25.20   27.59</time>
   <energy>
    <i name="e_fr_energy">    -62.37202386 </i>
    <i name="e_wo_entrp">    -62.38964018 </i>
    <i name="e_0_energy">    -62.37789596 </i>
   </energy>
  </scstep>
  <scstep>
   <time name="dav">   16.94   17.36</time>
   <time name="total">   21.87   22.35</time>
   <energy>
    <i name="e_fr_energy">    -62.37243444 </i>
    <i name="e_wo_entrp">    -62.39003773 </i>
    <i name="e_0_energy">    -62.37830220 </i>
   </energy>
  </scstep>
  <scstep>
   <time name="dav">   19.89   19.93</time>
   <time name="total">   26.95   27.02</time>
   <energy>
    <i name="e_fr_energy">    -62.37280414 </i>
    <i name="e_wo_entrp">    -62.39040746 </i>
    <i name="e_0_energy">    -62.37867191 </i>
   </energy>
  </scstep>
  <scstep>
   <time name="dav">   17.98   18.02</time>
   <time name="total">   24.29   24.35</time>
   <energy>
    <i name="e_fr_energy">    -62.37321910 </i>
    <i name="e_wo_entrp">    -62.39081242 </i>
    <i name="e_0_energy">    -62.37908354 </i>
   </energy>
  </scstep>
  <scstep>
   <time name="dav">   22.19   22.23</time>
   <time name="total">   29.88   29.94</time>
   <energy>
    <i name="e_fr_energy">    -62.37334967 </i>
    <i name="e_wo_entrp">    -62.39094524 </i>
    <i name="e_0_energy">    -62.37921486 </i>
   </energy>
  </scstep>
  <scstep>
   <time name="dav">   18.04   18.87</time>
   <time name="total">   23.86   24.73</time>
   <energy>
    <i name="e_fr_energy">    -62.37346317 </i>
    <i name="e_wo_entrp">    -62.39105710 </i>
    <i name="e_0_energy">    -62.37932781 </i>
   </energy>
  </scstep>
  <scstep>
   <time name="dav">   16.72   17.55</time>
   <time name="total">   19.82   20.88</time>
   <energy>
    <i name="alphaZ">     12.25439022 </i>
    <i name="ewald">  26203.31824756 </i>
    <i name="hartreedc"> -38750.72394883 </i>
    <i name="XCdc">   -480.97868694 </i>
    <i name="pawpsdc">  14629.99254037 </i>
    <i name="pawaedc"> -13652.67901510 </i>
    <i name="eentropy">      0.01759576 </i>
    <i name="bandstr">   -979.47695118 </i>
    <i name="atom">  12955.90228127 </i>
    <i name="e_fr_energy">    -62.37354688 </i>
    <i name="e_wo_entrp">    -62.39114264 </i>
    <i name="e_0_energy">    -62.37941214 </i>
   </energy>
  </scstep>
  <structure>
   <crystal>
    <varray name="basis" >
     <v>      23.85720075       0.00000000       0.00000000 </v>
     <v>       0.00000000      23.92331816       0.00000000 </v>
     <v>       0.00000000       0.00000000      23.85557547 </v>
    </varray>
    <i name="volume">  13615.41235065 </i>
    <varray name="rec_basis" >
     <v>       0.04191607       0.00000000       0.00000000 </v>
     <v>       0.00000000       0.04180022       0.00000000 </v>
     <v>       0.00000000       0.00000000       0.04191892 </v>
    </varray>
   </crystal>
   <varray name="positions" >
    <v>       0.48620056       0.49613721       0.52051167 </v>
    <v>       0.54265718       0.56855753       0.58701544 </v>
    <v>       0.53939513       0.46227120       0.61846225 </v>
    <v>       0.45634679       0.58221208       0.45534723 </v>
    <v>       0.56941357       0.43311427       0.48864783 </v>
    <v>       0.43873144       0.51292851       0.61774011 </v>
    <v>       0.39659212       0.43130840       0.54173391 </v>
    <v>       0.37382153       0.53980331       0.52785605 </v>
    <v>       0.49672107       0.38431883       0.56031205 </v>
    <v>       0.56961986       0.55587877       0.47863963 </v>
    <v>       0.40163877       0.48398812       0.43720466 </v>
    <v>       0.51066471       0.48772840       0.40675250 </v>
    <v>       0.46693316       0.39686330       0.45438207 </v>
    <v>       0.53531040       0.59043868       0.38100641 </v>
    <v>       0.62328637       0.49918891       0.55569587 </v>
    <v>       0.44878598       0.61204603       0.56117070 </v>
   </varray>
  </structure>
  <varray name="forces" >
   <v>      -0.22276389      -0.06144729      -0.03057313 </v>
   <v>       0.01471554      -0.10269782      -0.08588700 </v>
   <v>       0.05338227       0.01641039       0.02542344 </v>
   <v>      -0.10476211       0.02790138       0.07990281 </v>
   <v>      -0.10895567       0.04544364       0.10949005 </v>
   <v>      -0.03066431       0.05478531      -0.14227674 </v>
   <v>       0.22377572       0.10484789      -0.03717852 </v>
   <v>       0.06866133       0.03870454      -0.06580473 </v>
   <v>       0.04264796      -0.12430671      -0.11988803 </v>
   <v>       0.07612107       0.08233614      -0.04565034 </v>
   <v>       0.10745801      -0.03517508       0.03773596 </v>
   <v>      -0.11642153       0.00138077      -0.05969803 </v>
   <v>      -0.02337479      -0.08411628      -0.02769762 </v>
   <v>      -0.06916093      -0.14269939       0.16641865 </v>
   <v>       0.18864197      -0.05112033       0.13096317 </v>
   <v>      -0.09930063       0.22975284       0.06472003 </v>
  </varray>
  <energy>
   <i name="e_fr_energy">    -62.37354688 </i>
   <i name="e_wo_entrp">    -62.39114264 </i>
   <i name="e_0_energy">    -62.37941214 </i>
  </energy>
  <time name="totalsc">  699.22  718.10</time>
 </calculation>
 <calculation>
  <scstep>
   <time name="dav">   33.88   35.43</time>
   <time name="total">   38.72   40.41</time>
   <energy>
    <i name="alphaZ">     12.25439022 </i>
    <i name="ewald">  26182.10827352 </i>
    <i name="hartreedc"> -38729.75498862 </i>
    <i name="XCdc">   -481.01903703 </i>
    <i name="pawpsdc">  14629.99040545 </i>
    <i name="pawaedc"> -13652.67686853 </i>
    <i name="eentropy">      0.02258949 </i>
    <i name="bandstr">   -979.21210404 </i>
    <i name="atom">  12955.90228127 </i>
    <i name="e_fr_energy">    -62.38505827 </i>
    <i name="e_wo_entrp">    -62.40764776 </i>
    <i name="e_0_energy">    -62.39258810 </i>
   </energy>
  </scstep>
  <scstep>
   <time name="dav">   26.77   26.84</time>
   <time name="total">   32.00   32.09</time>
   <energy>
    <i name="e_fr_energy">    -62.40560363 </i>
    <i name="e_wo_entrp">    -62.42966855 </i>
    <i name="e_0_energy">    -62.41362527 </i>
   </energy>
  </scstep>
  <scstep>
   <time name="dav">   24.03   24.15</time>
   <time name="total">   28.64   28.78</time>
   <energy>
    <i name="e_fr_energy">    -62.39564344 </i>
    <i name="e_wo_entrp">    -62.41788905 </i>
    <i name="e_0_energy">    -62.40305865 </i>
   </energy>
  </scstep>
  <scstep>
   <time name="dav">   24.06   24.31</time>
   <time name="total">   29.00   29.28</time>
   <energy>
    <i name="e_fr_energy">    -62.39633400 </i>
    <i name="e_wo_entrp">    -62.41882462 </i>
    <i name="e_0_energy">    -62.40383088 </i>
   </energy>
  </scstep>
  <scstep>
   <time name="dav">   26.61   26.69</time>
   <time name="total">   31.23   31.33</time>
   <energy>
    <i name="e_fr_energy">    -62.39535635 </i>
    <i name="e_wo_entrp">    -62.41831786 </i>
    <i name="e_0_energy">    -62.40301018 </i>
   </energy>
  </scstep>
  <scstep>
   <time name="dav">   24.41   24.53</time>
   <time name="total">   28.98   29.31</time>
   <energy>
    <i name="e_fr_energy">    -62.39529811 </i>
    <i name="e_wo_entrp">    -62.41747795 </i>
    <i name="e_0_energy">    -62.40269139 </i>
   </energy>
  </scstep>
  <scstep>
   <time name="dav">   25.28   25.57</time>
   <time name="total">   30.24   30.69</time>
   <energy>
    <i name="e_fr_energy">    -62.39522320 </i>
    <i name="e_wo_entrp">    -62.41723462 </i>
    <i name="e_0_energy">    -62.40256034 </i>
   </energy>
  </scstep>
  <scstep>
   <time name="dav">   25.51   25.58</time>
   <time name="total">   35.05   35.13</time>
   <energy>
    <i name="e_fr_energy">    -62.39505156 </i>
    <i name="e_wo_entrp">    -62.41733493 </i>
    <i name="e_0_energy">    -62.40247935 </i>
   </energy>
  </scstep>
  <scstep>
   <time name="dav">   23.03   23.06</time>
   <time name="total">   27.83   27.88</time>
   <energy>
    <i name="alphaZ">     12.25439022 </i>
    <i name="ewald">  26182.10827352 </i>
    <i name="hartreedc"> -38730.02476764 </i>
    <i name="XCdc">   -481.00840419 </i>
    <i name="pawpsdc">  14623.88335803 </i>
    <i name="pawaedc"> -13646.49121937 </i>
    <i name="eentropy">      0.02250061 </i>
    <i name="bandstr">   -979.04146233 </i>
    <i name="atom">  12955.90228127 </i>
    <i name="e_fr_energy">    -62.39504988 </i>
    <i name="e_wo_entrp">    -62.41755048 </i>
    <i name="e_0_energy">    -62.40255008 </i>
   </energy>
  </scstep>
  <structure>
   <crystal>
    <varray name="basis" >
     <v>      23.85720075       0.00000000       0.00000000 </v>
     <v>       0.00000000      23.92331816       0.00000000 </v>
     <v>       0.00000000       0.00000000      23.85557547 </v>
    </varray>
    <i name="volume">  13615.41235065 </i>
    <varray name="rec_basis" >
     <v>       0.04191607       0.00000000       0.00000000 </v>
     <v>       0.00000000       0.04180022       0.00000000 </v>
     <v>       0.00000000       0.00000000       0.04191892 </v>
    </varray>
   </crystal>
   <varray name="positions" >
    <v>       0.48573452       0.49602585       0.52045099 </v>
    <v>       0.54270387       0.56837422       0.58682048 </v>
    <v>       0.53952726       0.46225764       0.61858092 </v>
    <v>       0.45605575       0.58235478       0.45553061 </v>
    <v>       0.56919559       0.43319010       0.48890017 </v>
    <v>       0.43862754       0.51304248       0.61748520 </v>
    <v>       0.39704031       0.43149522       0.54168883 </v>
    <v>       0.37389606       0.53992696       0.52769339 </v>
    <v>       0.49685862       0.38396331       0.56008512 </v>
    <v>       0.56985087       0.55610460       0.47856621 </v>
    <v>       0.40182259       0.48390151       0.43721781 </v>
    <v>       0.51040017       0.48768112       0.40652762 </v>
    <v>       0.46687481       0.39658890       0.45424100 </v>
    <v>       0.53516195       0.59013591       0.38134994 </v>
    <v>       0.62380626       0.49906360       0.55600460 </v>
    <v>       0.44856247       0.61267733       0.56133549 </v>
   </varray>
  </structure>
  <varray name="forces" >
   <v>      -0.06261560       0.00938192      -0.05573154 </v>
   <v>      -0.03461301      -0.10552168      -0.12947048 </v>
   <v>       0.02163293      -0.00702421      -0.02574415 </v>
   <v>      -0.08800030       0.01807593       0.10009308 </v>
   <v>      -0.10590972       0.09990425       0.11147350 </v>
   <v>      -0.01087359       0.06557539      -0.12355332 </v>
   <v>       0.16772652       0.06040212      -0.01783492 </v>
   <v>       0.06190752       0.06232578      -0.06131347 </v>
   <v>       0.05839105      -0.09570535      -0.07717738 </v>
   <v>       0.04258001      -0.02031612       0.03069017 </v>
   <v>       0.07496943      -0.03013098       0.01162425 </v>
   <v>      -0.09835881      -0.02490582      -0.00180511 </v>
   <v>      -0.01155260      -0.08857006      -0.03984429 </v>
   <v>      -0.06668477      -0.08923083       0.11634423 </v>
   <v>       0.11277351      -0.03097192       0.09005254 </v>
   <v>      -0.06137258       0.17671157       0.07219689 </v>
  </varray>
  <energy>
   <i name="e_fr_energy">    -62.39504988 </i>
   <i name="e_wo_entrp">    -62.41755048 </i>
   <i name="e_0_energy">    -62.40255008 </i>
  </energy>
  <time name="totalsc">  297.65  301.46</time>
 </calculation>
 <calculation>
  <scstep>
   <time name="dav">   27.52   27.62</time>
   <time name="total">   32.63   33.01</time>
   <energy>
    <i name="alphaZ">     12.25439022 </i>
    <i name="ewald">  26132.58235887 </i>
    <i name="hartreedc"> -38680.94206508 </i>
    <i name="XCdc">   -481.09354895 </i>
    <i name="pawpsdc">  14623.84440213 </i>
    <i name="pawaedc"> -13646.45210255 </i>
    <i name="eentropy">      0.03356869 </i>
    <i name="bandstr">   -978.48467087 </i>
    <i name="atom">  12955.90228127 </i>
    <i name="e_fr_energy">    -62.35538627 </i>
    <i name="e_wo_entrp">    -62.38895496 </i>
    <i name="e_0_energy">    -62.36657583 </i>
   </energy>
  </scstep>
  <scstep>
   <time name="dav">   29.79   30.33</time>
   <time name="total">   34.46   35.04</time>
   <energy>
    <i name="e_fr_energy">    -62.47343650 </i>
    <i name="e_wo_entrp">    -62.51110403 </i>
    <i name="e_0_energy">    -62.48599234 </i>
   </energy>
  </scstep>
  <scstep>
   <time name="dav">   30.92   32.39</time>
   <time name="total">   35.45   36.94</time>
   <energy>
    <i name="e_fr_energy">    -62.41816432 </i>
    <i name="e_wo_entrp">    -62.45147296 </i>
    <i name="e_0_energy">    -62.42926720 </i>
   </energy>
  </scstep>
  <scstep>
   <time name="dav">   25.64   25.99</time>
   <time name="total">   31.48   31.84</time>
   <energy>
    <i name="e_fr_energy">    -62.41928646 </i>
    <i name="e_wo_entrp">    -62.45262187 </i>
    <i name="e_0_energy">    -62.43039826 </i>
   </energy>
  </scstep>
  <scstep>
   <time name="dav">   29.53   30.26</time>
   <time name="total">   34.77   35.67</time>
   <energy>
    <i name="e_fr_energy">    -62.41425041 </i>
    <i name="e_wo_entrp">    -62.44793296 </i>
    <i name="e_0_energy">    -62.42547793 </i>
   </energy>
  </scstep>
  <scstep>
   <time name="dav">   28.77   29.00</time>
   <time name="total">   33.86   34.14</time>
   <energy>
    <i name="e_fr_energy">    -62.41368645 </i>
    <i name="e_wo_entrp">    -62.44619937 </i>
    <i name="e_0_energy">    -62.42452409 </i>
   </energy>
  </scstep>
  <scstep>
   <time name="dav">   26.02   26.16</time>
   <time name="total">   32.03   32.23</time>
   <energy>
    <i name="e_fr_energy">    -62.41382299 </i>
    <i name="e_wo_entrp">    -62.44558642 </i>
    <i name="e_0_energy">    -62.42441080 </i>
   </energy>
  </scstep>
  <scstep>
   <time name="dav">   25.83   26.66</time>
   <time name="total">   31.74   32.64</time>
   <energy>
    <i name="e_fr_energy">    -62.41305029 </i>
    <i name="e_wo_entrp">    -62.44562986 </i>
    <i name="e_0_energy">    -62.42391014 </i>
   </energy>
  </scstep>
  <scstep>
   <time name="dav">   27.94   28.67</time>
   <time name="total">   32.56   33.47</time>
   <energy>
    <i name="e_fr_energy">    -62.41306076 </i>
    <i name="e_wo_entrp">    -62.44595920 </i>
    <i name="e_0_energy">    -62.42402691 </i>
   </energy>
  </scstep>
  <scstep>
   <time name="dav">   22.14   22.21</time>
   <time name="total">   26.48   26.60</time>
   <energy>
    <i name="alphaZ">     12.25439022 </i>
    <i name="ewald">  26132.58235887 </i>
    <i name="hartreedc"> -38681.59308984 </i>
    <i name="XCdc">   -481.06752750 </i>
    <i name="pawpsdc">  14612.55936738 </i>
    <i name="pawaedc"> -13635.00717569 </i>
    <i name="eentropy">      0.03233860 </i>
    <i name="bandstr">   -978.07595076 </i>
    <i name="atom">  12955.90228127 </i>
    <i name="e_fr_energy">    -62.41300744 </i>
    <i name="e_wo_entrp">    -62.44534604 </i>
    <i name="e_0_energy">    -62.42378697 </i>
   </energy>
  </scstep>
  <structure>
   <crystal>
    <varray name="basis" >
     <v>      23.85720075       0.00000000       0.00000000 </v>
     <v>       0.00000000      23.92331816       0.00000000 </v>
     <v>       0.00000000       0.00000000      23.85557547 </v>
    </varray>
    <i name="volume">  13615.41235065 </i>
    <varray name="rec_basis" >
     <v>       0.04191607       0.00000000       0.00000000 </v>
     <v>       0.00000000       0.04180022       0.00000000 </v>
     <v>       0.00000000       0.00000000       0.04191892 </v>
    </varray>
   </crystal>
   <varray name="positions" >
    <v>       0.48463017       0.49576199       0.52030722 </v>
    <v>       0.54281453       0.56793984       0.58635851 </v>
    <v>       0.53984035       0.46222553       0.61886212 </v>
    <v>       0.45536609       0.58269292       0.45596514 </v>
    <v>       0.56867906       0.43336978       0.48949812 </v>
    <v>       0.43838135       0.51331255       0.61688115 </v>
    <v>       0.39810235       0.43193791       0.54158202 </v>
    <v>       0.37407266       0.54021997       0.52730797 </v>
    <v>       0.49718456       0.38312088       0.55954739 </v>
    <v>       0.57039829       0.55663974       0.47839221 </v>
    <v>       0.40225816       0.48369627       0.43724899 </v>
    <v>       0.50977333       0.48756907       0.40599473 </v>
    <v>       0.46673656       0.39593870       0.45390670 </v>
    <v>       0.53481017       0.58941847       0.38216398 </v>
    <v>       0.62503818       0.49876666       0.55673614 </v>
    <v>       0.44803282       0.61417326       0.56172599 </v>
   </varray>
  </structure>
  <varray name="forces" >
   <v>       0.33434221       0.19040873      -0.11736019 </v>
   <v>      -0.13033782      -0.10666738      -0.22233976 </v>
   <v>      -0.04531224      -0.05868702      -0.14417873 </v>
   <v>      -0.03441281      -0.00818185       0.13283530 </v>
   <v>      -0.09036120       0.21943489       0.10379818 </v>
   <v>       0.03171135       0.08859839      -0.05234545 </v>
   <v>       0.01572613      -0.07648175       0.02927156 </v>
   <v>       0.01500389       0.12205964      -0.04853701 </v>
   <v>       0.08780091      -0.03196975       0.01983831 </v>
   <v>      -0.03873524      -0.25460710       0.20411062 </v>
   <v>       0.00236107      -0.01955042      -0.05513295 </v>
   <v>      -0.05369535      -0.08863472       0.13753026 </v>
   <v>       0.01441291      -0.09140359      -0.06373137 </v>
   <v>      -0.06278337       0.03824279      -0.00520412 </v>
   <v>      -0.06946284       0.01290369      -0.00202049 </v>
   <v>       0.02374240       0.06453547       0.08346583 </v>
  </varray>
  <energy>
   <i name="e_fr_energy">    -62.41300744 </i>
   <i name="e_wo_entrp">    -62.44534604 </i>
   <i name="e_0_energy">    -62.42378697 </i>
  </energy>
  <time name="totalsc">  340.11  347.00</time>
 </calculation>
 <calculation>
  <scstep>
   <time name="dav">   29.79   30.05</time>
   <time name="total">   34.45   34.74</time>
   <energy>
    <i name="alphaZ">     12.25439022 </i>
    <i name="ewald">  26144.58080426 </i>
    <i name="hartreedc"> -38693.43063198 </i>
    <i name="XCdc">   -481.04202766 </i>
    <i name="pawpsdc">  14612.45871981 </i>
    <i name="pawaedc"> -13634.90633324 </i>
    <i name="eentropy">      0.03756939 </i>
    <i name="bandstr">   -978.27385011 </i>
    <i name="atom">  12955.90228127 </i>
    <i name="e_fr_energy">    -62.41907803 </i>
    <i name="e_wo_entrp">    -62.45664742 </i>
    <i name="e_0_energy">    -62.43160116 </i>
   </energy>
  </scstep>
  <scstep>
   <time name="dav">   30.46   31.19</time>
   <time name="total">   38.40   39.31</time>
   <energy>
    <i name="e_fr_energy">    -62.43510785 </i>
    <i name="e_wo_entrp">    -62.47142562 </i>
    <i name="e_0_energy">    -62.44721377 </i>
   </energy>
  </scstep>
  <scstep>
   <time name="dav">   24.88   26.60</time>
   <time name="total">   32.43   34.16</time>
   <energy>
    <i name="e_fr_energy">    -62.42844457 </i>
    <i name="e_wo_entrp">    -62.46580554 </i>
    <i name="e_0_energy">    -62.44089822 </i>
   </energy>
  </scstep>
  <scstep>
   <time name="dav">   29.44   29.52</time>
   <time name="total">   33.97   34.08</time>
   <energy>
    <i name="e_fr_energy">    -62.42912627 </i>
    <i name="e_wo_entrp">    -62.46669622 </i>
    <i name="e_0_energy">    -62.44164959 </i>
   </energy>
  </scstep>
  <scstep>
   <time name="dav">   29.00   29.85</time>
   <time name="total">   34.42   35.33</time>
   <energy>
    <i name="e_fr_energy">    -62.42866401 </i>
    <i name="e_wo_entrp">    -62.46579655 </i>
    <i name="e_0_energy">    -62.44104153 </i>
   </energy>
  </scstep>
  <scstep>
   <time name="dav">   29.20   30.24</time>
   <time name="total">   35.03   36.27</time>
   <energy>
    <i name="e_fr_energy">    -62.42864156 </i>
    <i name="e_wo_entrp">    -62.46585570 </i>
    <i name="e_0_energy">    -62.44104628 </i>
   </energy>
  </scstep>
  <scstep>
   <time name="dav">   33.54   33.65</time>
   <time name="total">   38.71   38.85</time>
   <energy>
    <i name="e_fr_energy">    -62.42880167 </i>
    <i name="e_wo_entrp">    -62.46591025 </i>
    <i name="e_0_energy">    -62.44117120 </i>
   </energy>
  </scstep>
  <scstep>
   <time name="dav">   22.10   23.49</time>
   <time name="total">   27.20   28.61</time>
   <energy>
    <i name="e_fr_energy">    -62.42863360 </i>
    <i name="e_wo_entrp">    -62.46581074 </i>
    <i name="e_0_energy">    -62.44102598 </i>
   </energy>
  </scstep>
  <scstep>
   <time name="dav">   17.82   17.88</time>
   <time name="total">   21.17   21.24</time>
   <energy>
    <i name="alphaZ">     12.25439022 </i>
    <i name="ewald">  26144.58080426 </i>
    <i name="hartreedc"> -38693.32986642 </i>
    <i name="XCdc">   -481.03955725 </i>
    <i name="pawpsdc">  14616.18855812 </i>
    <i name="pawaedc"> -13638.70540067 </i>
    <i name="eentropy">      0.03719036 </i>
    <i name="bandstr">   -978.31709411 </i>
    <i name="atom">  12955.90228127 </i>
    <i name="e_fr_energy">    -62.42869421 </i>
    <i name="e_wo_entrp">    -62.46588457 </i>
    <i name="e_0_energy">    -62.44109100 </i>
   </energy>
  </scstep>
  <structure>
   <crystal>
    <varray name="basis" >
     <v>      23.85720075       0.00000000       0.00000000 </v>
     <v>       0.00000000      23.92331816       0.00000000 </v>
     <v>       0.00000000       0.00000000      23.85557547 </v>
    </varray>
    <i name="volume">  13615.41235065 </i>
    <varray name="rec_basis" >
     <v>       0.04191607       0.00000000       0.00000000 </v>
     <v>       0.00000000       0.04180022       0.00000000 </v>
     <v>       0.00000000       0.00000000       0.04191892 </v>
    </varray>
   </crystal>
   <varray name="positions" >
    <v>       0.48473452       0.49592938       0.52011242 </v>
    <v>       0.54267866       0.56767280       0.58593305 </v>
    <v>       0.53987484       0.46214017       0.61875907 </v>
    <v>       0.45511628       0.58278298       0.45626651 </v>
    <v>       0.56840832       0.43370667       0.48981052 </v>
    <v>       0.43834915       0.51350735       0.61663358 </v>
    <v>       0.39843879       0.43197088       0.54158814 </v>
    <v>       0.37414465       0.54046482       0.52713040 </v>
    <v>       0.49739527       0.38282888       0.55941305 </v>
    <v>       0.57051103       0.55647017       0.47860480 </v>
    <v>       0.40239084       0.48360994       0.43718686 </v>
    <v>       0.50951724       0.48742125       0.40601427 </v>
    <v>       0.46671408       0.39562714       0.45372467 </v>
    <v>       0.53462417       0.58925435       0.38239949 </v>
    <v>       0.62531485       0.49869496       0.55695124 </v>
    <v>       0.44790595       0.61470180       0.56195031 </v>
   </varray>
  </structure>
  <varray name="forces" >
   <v>       0.26115149       0.16630919      -0.08788794 </v>
   <v>      -0.13391068      -0.06615357      -0.18619455 </v>
   <v>      -0.06207911      -0.07164458      -0.14864416 </v>
   <v>      -0.02040321       0.00212018       0.12099702 </v>
   <v>      -0.04820734       0.18920405       0.07854672 </v>
   <v>       0.04139343       0.08409404      -0.05425099 </v>
   <v>       0.02323271      -0.06329856       0.02619834 </v>
   <v>       0.02021445       0.10800402      -0.03810537 </v>
   <v>       0.07070533      -0.02609059       0.02823314 </v>
   <v>      -0.00807043      -0.24176452       0.14806075 </v>
   <v>      -0.02027463      -0.01997281      -0.04757370 </v>
   <v>      -0.03544764      -0.08652943       0.12277093 </v>
   <v>       0.01992536      -0.08299812      -0.04800289 </v>
   <v>      -0.06112800       0.04534379       0.00336490 </v>
   <v>      -0.07424104       0.02009118       0.00148340 </v>
   <v>       0.02713930       0.04328573       0.08100439 </v>
  </varray>
  <energy>
   <i name="e_fr_energy">    -62.42869421 </i>
   <i name="e_wo_entrp">    -62.46588457 </i>
   <i name="e_0_energy">    -62.44109100 </i>
  </energy>
  <time name="totalsc">  315.83  322.92</time>
 </calculation>
 <calculation>
  <scstep>
   <time name="dav">   24.83   24.92</time>
   <time name="total">   30.08   30.22</time>
   <energy>
    <i name="alphaZ">     12.25439022 </i>
    <i name="ewald">  26180.62726476 </i>
    <i name="hartreedc"> -38728.82054352 </i>
    <i name="XCdc">   -480.95549012 </i>
    <i name="pawpsdc">  14616.20462240 </i>
    <i name="pawaedc"> -13638.72205636 </i>
    <i name="eentropy">      0.04992809 </i>
    <i name="bandstr">   -978.91032314 </i>
    <i name="atom">  12955.90228127 </i>
    <i name="e_fr_energy">    -62.36992640 </i>
    <i name="e_wo_entrp">    -62.41985449 </i>
    <i name="e_0_energy">    -62.38656910 </i>
   </energy>
  </scstep>
  <scstep>
   <time name="dav">   26.73   26.79</time>
   <time name="total">   33.50   33.58</time>
   <energy>
    <i name="e_fr_energy">    -62.51598273 </i>
    <i name="e_wo_entrp">    -62.56073183 </i>
    <i name="e_0_energy">    -62.53089910 </i>
   </energy>
  </scstep>
  <scstep>
   <time name="dav">   24.02   24.99</time>
   <time name="total">   30.17   31.15</time>
   <energy>
    <i name="e_fr_energy">    -62.45541563 </i>
    <i name="e_wo_entrp">    -62.50548367 </i>
    <i name="e_0_energy">    -62.47210497 </i>
   </energy>
  </scstep>
  <scstep>
   <time name="dav">   24.17   26.89</time>
   <time name="total">   31.19   34.30</time>
   <energy>
    <i name="e_fr_energy">    -62.45795060 </i>
    <i name="e_wo_entrp">    -62.50624380 </i>
    <i name="e_0_energy">    -62.47404833 </i>
   </energy>
  </scstep>
  <scstep>
   <time name="dav">   33.75   33.90</time>
   <time name="total">   45.35   45.51</time>
   <energy>
    <i name="e_fr_energy">    -62.45412443 </i>
    <i name="e_wo_entrp">    -62.50205247 </i>
    <i name="e_0_energy">    -62.47010044 </i>
   </energy>
  </scstep>
  <scstep>
   <time name="dav">   26.09   27.20</time>
   <time name="total">   31.08   32.22</time>
   <energy>
    <i name="e_fr_energy">    -62.45330753 </i>
    <i name="e_wo_entrp">    -62.50194739 </i>
    <i name="e_0_energy">    -62.46952082 </i>
   </energy>
  </scstep>
  <scstep>
   <time name="dav">   24.43   24.53</time>
   <time name="total">   30.26   30.40</time>
   <energy>
    <i name="e_fr_energy">    -62.45432287 </i>
    <i name="e_wo_entrp">    -62.50242094 </i>
    <i name="e_0_energy">    -62.47035556 </i>
   </energy>
  </scstep>
  <scstep>
   <time name="dav">   25.45   26.33</time>
   <time name="total">   30.22   31.17</time>
   <energy>
    <i name="e_fr_energy">    -62.45167333 </i>
    <i name="e_wo_entrp">    -62.50010126 </i>
    <i name="e_0_energy">    -62.46781597 </i>
   </energy>
  </scstep>
  <scstep>
   <time name="dav">   28.65   28.78</time>
   <time name="total">   33.37   33.67</time>
   <energy>
    <i name="e_fr_energy">    -62.45182302 </i>
    <i name="e_wo_entrp">    -62.50010717 </i>
    <i name="e_0_energy">    -62.46791773 </i>
   </energy>
  </scstep>
  <scstep>
   <time name="dav">   19.46   19.50</time>
   <time name="total">   24.52   24.58</time>
   <energy>
    <i name="alphaZ">     12.25439022 </i>
    <i name="ewald">  26180.62726476 </i>
    <i name="hartreedc"> -38728.29427191 </i>
    <i name="XCdc">   -480.95027632 </i>
    <i name="pawpsdc">  14630.53097170 </i>
    <i name="pawaedc"> -13653.27855836 </i>
    <i name="eentropy">      0.04810479 </i>
    <i name="bandstr">   -979.29168677 </i>
    <i name="atom">  12955.90228127 </i>
    <i name="e_fr_energy">    -62.45178061 </i>
    <i name="e_wo_entrp">    -62.49988541 </i>
    <i name="e_0_energy">    -62.46781554 </i>
   </energy>
  </scstep>
  <structure>
   <crystal>
    <varray name="basis" >
     <v>      23.85720075       0.00000000       0.00000000 </v>
     <v>       0.00000000      23.92331816       0.00000000 </v>
[...]
       <r>    -0.7772    12.1659    99.1804 </r>
       <r>    -0.7319     9.1697    99.5962 </r>
       <r>    -0.6866     6.0705    99.8714 </r>
       <r>    -0.6412     3.3469   100.0232 </r>
       <r>    -0.5959     1.3261   100.0833 </r>
       <r>    -0.5505     0.1001   100.0879 </r>
       <r>    -0.5052    -0.4546   100.0672 </r>
       <r>    -0.4598    -0.5784   100.0410 </r>
       <r>    -0.4145    -0.5130   100.0178 </r>
       <r>    -0.3691    -0.4248    99.9985 </r>
       <r>    -0.3238    -0.3772    99.9814 </r>
       <r>    -0.2785    -0.3367    99.9661 </r>
       <r>    -0.2331    -0.1975    99.9572 </r>
       <r>    -0.1878     0.1731    99.9650 </r>
       <r>    -0.1424     0.8655   100.0043 </r>
       <r>    -0.0971     1.8615   100.0887 </r>
       <r>    -0.0517     3.0237   100.2258 </r>
       <r>    -0.0064     4.1750   100.4151 </r>
       <r>     0.0389     5.2251   100.6520 </r>
       <r>     0.0843     6.2381   100.9349 </r>
       <r>     0.1296     7.3584   101.2685 </r>
       <r>     0.1750     8.6284   101.6598 </r>
       <r>     0.2203     9.8387   102.1059 </r>
       <r>     0.2657    10.5527   102.5844 </r>
       <r>     0.3110    10.3271   103.0527 </r>
       <r>     0.3564     8.9907   103.4603 </r>
       <r>     0.4017     6.7887   103.7682 </r>
       <r>     0.4470     4.2823   103.9623 </r>
       <r>     0.4924     2.0737   104.0564 </r>
       <r>     0.5377     0.5416   104.0809 </r>
       <r>     0.5831    -0.2563   104.0693 </r>
       <r>     0.6284    -0.5001   104.0466 </r>
       <r>     0.6738    -0.4454   104.0264 </r>
       <r>     0.7191    -0.2966   104.0130 </r>
       <r>     0.7644    -0.1628   104.0056 </r>
       <r>     0.8098    -0.0764   104.0021 </r>
       <r>     0.8551    -0.0312   104.0007 </r>
       <r>     0.9005    -0.0112   104.0002 </r>
       <r>     0.9458    -0.0036   104.0001 </r>
       <r>     0.9912    -0.0010   104.0000 </r>
       <r>     1.0365    -0.0003   104.0000 </r>
       <r>     1.0819    -0.0001   104.0000 </r>
       <r>     1.1272    -0.0000   104.0000 </r>
       <r>     1.1725    -0.0000   104.0000 </r>
       <r>     1.2179    -0.0000   104.0000 </r>
       <r>     1.2632    -0.0000   104.0000 </r>
       <r>     1.3086    -0.0000   104.0000 </r>
       <r>     1.3539    -0.0000   104.0000 </r>
       <r>     1.3993    -0.0000   104.0000 </r>
       <r>     1.4446    -0.0000   104.0000 </r>
       <r>     1.4900    -0.0000   104.0000 </r>
       <r>     1.5353    -0.0000   104.0000 </r>
       <r>     1.5806    -0.0000   104.0000 </r>
       <r>     1.6260     0.0000   104.0000 </r>
       <r>     1.6713     0.0000   104.0000 </r>
       <r>     1.7167     0.0000   104.0000 </r>
       <r>     1.7620     0.0000   104.0000 </r>
       <r>     1.8074     0.0000   104.0000 </r>
       <r>     1.8527     0.0000   104.0000 </r>
       <r>     1.8980     0.0000   104.0000 </r>
       <r>     1.9434     0.0000   104.0000 </r>
       <r>     1.9887     0.0000   104.0000 </r>
       <r>     2.0341     0.0000   104.0000 </r>
       <r>     2.0794     0.0000   104.0000 </r>
       <r>     2.1248     0.0000   104.0000 </r>
       <r>     2.1701     0.0000   104.0000 </r>
       <r>     2.2155     0.0000   104.0000 </r>
       <r>     2.2608     0.0000   104.0000 </r>
       <r>     2.3061     0.0000   104.0000 </r>
       <r>     2.3515     0.0000   104.0000 </r>
       <r>     2.3968     0.0000   104.0000 </r>
      </set>
      <set comment="spin 2">
       <r>   -11.2063     0.0000     0.0000 </r>
       <r>   -11.1610     0.0000     0.0000 </r>
       <r>   -11.1156     0.0000     0.0000 </r>
       <r>   -11.0703     0.0000     0.0000 </r>
       <r>   -11.0250     0.0000     0.0000 </r>
       <r>   -10.9796     0.0000     0.0000 </r>
       <r>   -10.9343     0.0000     0.0000 </r>
       <r>   -10.8889     0.0000     0.0000 </r>
       <r>   -10.8436     0.0000     0.0000 </r>
       <r>   -10.7982     0.0000     0.0000 </r>
       <r>   -10.7529    -0.0000    -0.0000 </r>
       <r>   -10.7076    -0.0000    -0.0000 </r>
       <r>   -10.6622    -0.0000    -0.0000 </r>
       <r>   -10.6169    -0.0000    -0.0000 </r>
       <r>   -10.5715    -0.0000    -0.0000 </r>
       <r>   -10.5262    -0.0000    -0.0000 </r>
       <r>   -10.4808    -0.0000    -0.0000 </r>
       <r>   -10.4355    -0.0000    -0.0000 </r>
       <r>   -10.3901    -0.0000    -0.0000 </r>
       <r>   -10.3448    -0.0000    -0.0000 </r>
       <r>   -10.2995    -0.0000    -0.0000 </r>
       <r>   -10.2541    -0.0000    -0.0000 </r>
       <r>   -10.2088    -0.0000    -0.0000 </r>
       <r>   -10.1634    -0.0000    -0.0000 </r>
       <r>   -10.1181    -0.0000    -0.0000 </r>
       <r>   -10.0727    -0.0000    -0.0000 </r>
       <r>   -10.0274    -0.0000    -0.0000 </r>
       <r>    -9.9821    -0.0000    -0.0000 </r>
       <r>    -9.9367    -0.0000    -0.0000 </r>
       <r>    -9.8914    -0.0000    -0.0000 </r>
       <r>    -9.8460    -0.0001    -0.0000 </r>
       <r>    -9.8007    -0.0003    -0.0000 </r>
       <r>    -9.7553    -0.0010    -0.0001 </r>
       <r>    -9.7100    -0.0034    -0.0002 </r>
       <r>    -9.6646    -0.0101    -0.0007 </r>
       <r>    -9.6193    -0.0262    -0.0019 </r>
       <r>    -9.5740    -0.0592    -0.0045 </r>
       <r>    -9.5286    -0.1146    -0.0097 </r>
       <r>    -9.4833    -0.1842    -0.0181 </r>
       <r>    -9.4379    -0.2266    -0.0284 </r>
       <r>    -9.3926    -0.1529    -0.0353 </r>
       <r>    -9.3472     0.1613    -0.0280 </r>
       <r>    -9.3019     0.8169     0.0090 </r>
       <r>    -9.2565     1.7996     0.0907 </r>
       <r>    -9.2112     2.9158     0.2229 </r>
       <r>    -9.1659     3.8265     0.3964 </r>
       <r>    -9.1205     4.1962     0.5866 </r>
       <r>    -9.0752     3.8736     0.7623 </r>
       <r>    -9.0298     2.9780     0.8973 </r>
       <r>    -8.9845     1.8256     0.9801 </r>
       <r>    -8.9391     0.7567     1.0144 </r>
       <r>    -8.8938    -0.0087     1.0140 </r>
       <r>    -8.8485    -0.3988     0.9959 </r>
       <r>    -8.8031    -0.4227     0.9768 </r>
       <r>    -8.7578    -0.0973     0.9724 </r>
       <r>    -8.7124     0.5615     0.9978 </r>
       <r>    -8.6671     1.4945     1.0656 </r>
       <r>    -8.6217     2.5811     1.1826 </r>
       <r>    -8.5764     3.7018     1.3505 </r>
       <r>    -8.5310     4.8437     1.5701 </r>
       <r>    -8.4857     6.1306     1.8481 </r>
       <r>    -8.4404     7.7018     2.1973 </r>
       <r>    -8.3950     9.5133     2.6287 </r>
       <r>    -8.3497    11.2410     3.1384 </r>
       <r>    -8.3043    12.3929     3.7003 </r>
       <r>    -8.2590    12.5585     4.2698 </r>
       <r>    -8.2136    11.6121     4.7963 </r>
       <r>    -8.1683     9.7531     5.2386 </r>
       <r>    -8.1230     7.4092     5.5745 </r>
       <r>    -8.0776     5.0948     5.8056 </r>
       <r>    -8.0323     3.2730     5.9540 </r>
       <r>    -7.9869     2.2330     6.0552 </r>
       <r>    -7.9416     2.0185     6.1468 </r>
       <r>    -7.8962     2.4745     6.2590 </r>
       <r>    -7.8509     3.4223     6.4141 </r>
       <r>    -7.8055     4.8417     6.6337 </r>
       <r>    -7.7602     6.8860     6.9459 </r>
       <r>    -7.7149     9.6770     7.3847 </r>
       <r>    -7.6695    13.0425     7.9761 </r>
       <r>    -7.6242    16.4427     8.7217 </r>
       <r>    -7.5788    19.1783     9.5913 </r>
       <r>    -7.5335    20.7217    10.5309 </r>
       <r>    -7.4881    20.9264    11.4798 </r>
       <r>    -7.4428    20.0161    12.3874 </r>
       <r>    -7.3974    18.4542    13.2242 </r>
       <r>    -7.3521    16.8154    13.9867 </r>
       <r>    -7.3068    15.6628    14.6969 </r>
       <r>    -7.2614    15.3774    15.3941 </r>
       <r>    -7.2161    15.9862    16.1190 </r>
       <r>    -7.1707    17.1353    16.8960 </r>
       <r>    -7.1254    18.2913    17.7254 </r>
       <r>    -7.0800    19.0528    18.5893 </r>
       <r>    -7.0347    19.3516    19.4668 </r>
       <r>    -6.9894    19.4040    20.3467 </r>
       <r>    -6.9440    19.4704    21.2295 </r>
       <r>    -6.8987    19.6065    22.1186 </r>
       <r>    -6.8533    19.5858    23.0067 </r>
       <r>    -6.8080    19.0526    23.8706 </r>
       <r>    -6.7626    17.8037    24.6779 </r>
       <r>    -6.7173    15.9962    25.4032 </r>
       <r>    -6.6719    14.1267    26.0437 </r>
       <r>    -6.6266    12.8011    26.6242 </r>
       <r>    -6.5813    12.4607    27.1892 </r>
       <r>    -6.5359    13.2188    27.7886 </r>
       <r>    -6.4906    14.8353    28.4613 </r>
       <r>    -6.4452    16.7864    29.2225 </r>
       <r>    -6.3999    18.4219    30.0578 </r>
       <r>    -6.3545    19.2137    30.9290 </r>
       <r>    -6.3092    19.0118    31.7911 </r>
       <r>    -6.2639    18.1242    32.6129 </r>
       <r>    -6.2185    17.1081    33.3886 </r>
       <r>    -6.1732    16.3955    34.1321 </r>
       <r>    -6.1278    16.0411    34.8594 </r>
       <r>    -6.0825    15.7927    35.5755 </r>
       <r>    -6.0371    15.4038    36.2740 </r>
       <r>    -5.9918    14.9030    36.9498 </r>
       <r>    -5.9464    14.5935    37.6115 </r>
       <r>    -5.9011    14.8019    38.2827 </r>
       <r>    -5.8558    15.6068    38.9903 </r>
       <r>    -5.8104    16.7694    39.7507 </r>
       <r>    -5.7651    17.8957    40.5622 </r>
       <r>    -5.7197    18.6679    41.4087 </r>
       <r>    -5.6744    18.9619    42.2685 </r>
       <r>    -5.6290    18.8135    43.1216 </r>
       <r>    -5.5837    18.3407    43.9532 </r>
       <r>    -5.5384    17.7292    44.7571 </r>
       <r>    -5.4930    17.2515    45.5394 </r>
       <r>    -5.4477    17.2019    46.3194 </r>
       <r>    -5.4023    17.7195    47.1228 </r>
       <r>    -5.3570    18.6402    47.9680 </r>
       <r>    -5.3116    19.5550    48.8547 </r>
       <r>    -5.2663    20.0824    49.7654 </r>
       <r>    -5.2209    20.1604    50.6795 </r>
       <r>    -5.1756    20.1336    51.5924 </r>
       <r>    -5.1303    20.5751    52.5254 </r>
       <r>    -5.0849    21.9601    53.5212 </r>
       <r>    -5.0396    24.3767    54.6265 </r>
       <r>    -4.9942    27.4128    55.8695 </r>
       <r>    -4.9489    30.2793    57.2425 </r>
       <r>    -4.9035    32.1357    58.6996 </r>
       <r>    -4.8582    32.4784    60.1723 </r>
       <r>    -4.8128    31.3896    61.5957 </r>
       <r>    -4.7675    29.4920    62.9329 </r>
       <r>    -4.7222    27.6330    64.1859 </r>
       <r>    -4.6768    26.4949    65.3873 </r>
       <r>    -4.6315    26.3637    66.5827 </r>
       <r>    -4.5861    27.1423    67.8135 </r>
       <r>    -4.5408    28.4994    69.1058 </r>
       <r>    -4.4954    29.9908    70.4656 </r>
       <r>    -4.4501    31.1051    71.8761 </r>
       <r>    -4.4048    31.3386    73.2971 </r>
       <r>    -4.3594    30.3748    74.6744 </r>
       <r>    -4.3141    28.2820    75.9568 </r>
       <r>    -4.2687    25.5396    77.1149 </r>
       <r>    -4.2234    22.8242    78.1498 </r>
       <r>    -4.1780    20.6877    79.0879 </r>
       <r>    -4.1327    19.3257    79.9642 </r>
       <r>    -4.0873    18.5286    80.8043 </r>
       <r>    -4.0420    17.7879    81.6109 </r>
       <r>    -3.9967    16.5099    82.3595 </r>
       <r>    -3.9513    14.2867    83.0073 </r>
       <r>    -3.9060    11.1209    83.5116 </r>
       <r>    -3.8606     7.4611    83.8499 </r>
       <r>    -3.8153     3.9960    84.0311 </r>
       <r>    -3.7699     1.3324    84.0915 </r>
       <r>    -3.7246    -0.2286    84.0812 </r>
       <r>    -3.6793    -0.7080    84.0491 </r>
       <r>    -3.6339    -0.3245    84.0343 </r>
       <r>    -3.5886     0.6279    84.0628 </r>
       <r>    -3.5432     1.8326    84.1459 </r>
       <r>    -3.4979     2.9868    84.2814 </r>
       <r>    -3.4525     3.8857    84.4575 </r>
       <r>    -3.4072     4.5235    84.6627 </r>
       <r>    -3.3618     5.0913    84.8935 </r>
       <r>    -3.3165     5.8070    85.1568 </r>
       <r>    -3.2712     6.6802    85.4597 </r>
       <r>    -3.2258     7.4229    85.7963 </r>
       <r>    -3.1805     7.6244    86.1420 </r>
       <r>    -3.1351     7.0758    86.4629 </r>
       <r>    -3.0898     5.9821    86.7341 </r>
       <r>    -3.0444     4.8766    86.9553 </r>
       <r>    -2.9991     4.2963    87.1501 </r>
       <r>    -2.9537     4.4596    87.3523 </r>
       <r>    -2.9084     5.1630    87.5864 </r>
       <r>    -2.8631     5.9357    87.8555 </r>
       <r>    -2.8177     6.3200    88.1421 </r>
       <r>    -2.7724     6.1057    88.4190 </r>
       <r>    -2.7270     5.4115    88.6644 </r>
       <r>    -2.6817     4.5913    88.8725 </r>
       <r>    -2.6363     4.0183    89.0547 </r>
       <r>    -2.5910     3.8586    89.2297 </r>
       <r>    -2.5457     3.9729    89.4099 </r>
       <r>    -2.5003     4.0216    89.5922 </r>
       <r>    -2.4550     3.7013    89.7600 </r>
       <r>    -2.4096     2.9432    89.8935 </r>
       <r>    -2.3643     1.9324    89.9811 </r>
       <r>    -2.3189     0.9634    90.0248 </r>
       <r>    -2.2736     0.2600    90.0366 </r>
       <r>    -2.2282    -0.1145    90.0314 </r>
       <r>    -2.1829    -0.2298    90.0210 </r>
       <r>    -2.1376    -0.2044    90.0117 </r>
       <r>    -2.0922    -0.1369    90.0055 </r>
       <r>    -2.0469    -0.0814    90.0018 </r>
       <r>    -2.0015    -0.0578    89.9992 </r>
       <r>    -1.9562    -0.0715    89.9959 </r>
       <r>    -1.9108    -0.1248    89.9903 </r>
       <r>    -1.8655    -0.2137    89.9806 </r>
       <r>    -1.8202    -0.3096    89.9666 </r>
       <r>    -1.7748    -0.3366    89.9513 </r>
       <r>    -1.7295    -0.1624    89.9439 </r>
       <r>    -1.6841     0.3722    89.9608 </r>
       <r>    -1.6388     1.3812    90.0234 </r>
       <r>    -1.5934     2.8491    90.1526 </r>
       <r>    -1.5481     4.5913    90.3608 </r>
       <r>    -1.5027     6.2998    90.6465 </r>
       <r>    -1.4574     7.6570    90.9937 </r>
       <r>    -1.4121     8.4521    91.3769 </r>
       <r>    -1.3667     8.6361    91.7685 </r>
       <r>    -1.3214     8.3030    92.1450 </r>
       <r>    -1.2760     7.6329    92.4911 </r>
       <r>    -1.2307     6.8437    92.8014 </r>
       <r>    -1.1853     6.1757    93.0815 </r>
       <r>    -1.1400     5.8996    93.3490 </r>
       <r>    -1.0947     6.3060    93.6349 </r>
       <r>    -1.0493     7.6241    93.9806 </r>
       <r>    -1.0040     9.8720    94.4283 </r>
       <r>    -0.9586    12.7255    95.0053 </r>
       <r>    -0.9133    15.5347    95.7097 </r>
       <r>    -0.8679    17.5347    96.5048 </r>
       <r>    -0.8226    18.1461    97.3276 </r>
       <r>    -0.7772    17.1861    98.1069 </r>
       <r>    -0.7319    14.8848    98.7818 </r>
       <r>    -0.6866    11.7411    99.3142 </r>
       <r>    -0.6412     8.3351    99.6921 </r>
       <r>    -0.5959     5.1820    99.9271 </r>
       <r>    -0.5505     2.6458   100.0471 </r>
       <r>    -0.5052     0.8955   100.0877 </r>
       <r>    -0.4598    -0.0961   100.0833 </r>
       <r>    -0.4145    -0.5036   100.0605 </r>
       <r>    -0.3691    -0.5641   100.0349 </r>
       <r>    -0.3238    -0.4909   100.0127 </r>
       <r>    -0.2785    -0.4176    99.9937 </r>
       <r>    -0.2331    -0.3800    99.9765 </r>
       <r>    -0.1878    -0.3232    99.9618 </r>
       <r>    -0.1424    -0.1283    99.9560 </r>
       <r>    -0.0971     0.3348    99.9712 </r>
       <r>    -0.0517     1.1351   100.0227 </r>
       <r>    -0.0064     2.2245   100.1235 </r>
       <r>     0.0389     3.4501   100.2800 </r>
       <r>     0.0843     4.6496   100.4908 </r>
       <r>     0.1296     5.7644   100.7522 </r>
       <r>     0.1750     6.8671   101.0636 </r>
       <r>     0.2203     8.0542   101.4288 </r>
       <r>     0.2657     9.2746   101.8493 </r>
       <r>     0.3110    10.2401   102.3136 </r>
       <r>     0.3564    10.5216   102.7907 </r>
       <r>     0.4017     9.7922   103.2348 </r>
       <r>     0.4470     8.0559   103.6000 </r>
       <r>     0.4924     5.6953   103.8583 </r>
       <r>     0.5377     3.2962   104.0078 </r>
       <r>     0.5831     1.3710   104.0699 </r>
       <r>     0.6284     0.1607   104.0772 </r>
       <r>     0.6738    -0.3853   104.0597 </r>
       <r>     0.7191    -0.4872   104.0376 </r>
       <r>     0.7644    -0.3831   104.0203 </r>
       <r>     0.8098    -0.2369   104.0095 </r>
       <r>     0.8551    -0.1229   104.0040 </r>
       <r>     0.9005    -0.0550   104.0015 </r>
       <r>     0.9458    -0.0216   104.0005 </r>
       <r>     0.9912    -0.0075   104.0001 </r>
       <r>     1.0365    -0.0023   104.0000 </r>
       <r>     1.0819    -0.0006   104.0000 </r>
       <r>     1.1272    -0.0002   104.0000 </r>
       <r>     1.1725    -0.0000   104.0000 </r>
       <r>     1.2179    -0.0000   104.0000 </r>
       <r>     1.2632    -0.0000   104.0000 </r>
       <r>     1.3086    -0.0000   104.0000 </r>
       <r>     1.3539    -0.0000   104.0000 </r>
       <r>     1.3993    -0.0000   104.0000 </r>
       <r>     1.4446    -0.0000   104.0000 </r>
       <r>     1.4900    -0.0000   104.0000 </r>
       <r>     1.5353    -0.0000   104.0000 </r>
       <r>     1.5806    -0.0000   104.0000 </r>
       <r>     1.6260    -0.0000   104.0000 </r>
       <r>     1.6713     0.0000   104.0000 </r>
       <r>     1.7167     0.0000   104.0000 </r>
       <r>     1.7620     0.0000   104.0000 </r>
       <r>     1.8074     0.0000   104.0000 </r>
       <r>     1.8527     0.0000   104.0000 </r>
       <r>     1.8980     0.0000   104.0000 </r>
       <r>     1.9434     0.0000   104.0000 </r>
       <r>     1.9887     0.0000   104.0000 </r>
       <r>     2.0341     0.0000   104.0000 </r>
       <r>     2.0794     0.0000   104.0000 </r>
       <r>     2.1248     0.0000   104.0000 </r>
       <r>     2.1701     0.0000   104.0000 </r>
       <r>     2.2155     0.0000   104.0000 </r>
       <r>     2.2608     0.0000   104.0000 </r>
       <r>     2.3061     0.0000   104.0000 </r>
       <r>     2.3515     0.0000   104.0000 </r>
       <r>     2.3968     0.0000   104.0000 </r>
      </set>
     </set>
    </array>
   </total>
  </dos>
 </calculation>
 <structure name="finalpos" >
  <crystal>
   <varray name="basis" >
    <v>      23.85720075       0.00000000       0.00000000 </v>
    <v>       0.00000000      23.92331816       0.00000000 </v>
    <v>       0.00000000       0.00000000      23.85557547 </v>
   </varray>
   <i name="volume">  13615.41235065 </i>
   <varray name="rec_basis" >
    <v>       0.04191607       0.00000000       0.00000000 </v>
    <v>       0.00000000       0.04180022       0.00000000 </v>
    <v>       0.00000000       0.00000000       0.04191892 </v>
   </varray>
  </crystal>
  <varray name="positions" >
   <v>       0.48537060       0.51613721       0.51233889 </v>
   <v>       0.54447474       0.56709371       0.58877825 </v>
   <v>       0.52406937       0.45743952       0.60073568 </v>
   <v>       0.43878188       0.58871659       0.44755567 </v>
   <v>       0.56131165       0.43772523       0.49543905 </v>
   <v>       0.43837295       0.52616584       0.62083604 </v>
   <v>       0.42098674       0.43657051       0.54939440 </v>
   <v>       0.37178790       0.53844079       0.53080351 </v>
   <v>       0.50361000       0.36107766       0.55288667 </v>
   <v>       0.58275610       0.54956625       0.47902179 </v>
   <v>       0.40373021       0.48217411       0.44044936 </v>
   <v>       0.50920576       0.48410998       0.40655666 </v>
   <v>       0.46635467       0.39173745       0.45449826 </v>
   <v>       0.53100661       0.58851847       0.39153493 </v>
   <v>       0.62468858       0.49481722       0.56561536 </v>
   <v>       0.44961088       0.61649300       0.55603387 </v>
  </varray>
 </structure>
</modeling>
