unknown system                          
            1
    23.857201    0.000000    0.000000
     0.000000   23.923318    0.000000
     0.000000    0.000000   23.855575
   Pd
    16
Direct configuration=     1
   0.48499069  0.49532284  0.52025151
   0.54228219  0.56711656  0.58698522
   0.53910058  0.46372634  0.61672844
   0.45783239  0.57994787  0.45531802
   0.56853688  0.43390301  0.48857750
   0.43970106  0.51323465  0.61574483
   0.39837843  0.43278903  0.54059687
   0.37617039  0.53878641  0.52821255
   0.49557116  0.38639489  0.55897748
   0.56798175  0.55477935  0.47776031
   0.40339447  0.48417569  0.43929060
   0.51063184  0.48917004  0.40928649
   0.46707616  0.39923505  0.45660804
   0.53504232  0.58981021  0.38204349
   0.62073088  0.49944541  0.55541482
   0.44869746  0.60894618  0.56068221
Direct configuration=     2
   0.48572719  0.49581858  0.52040988
   0.54251046  0.56799373  0.58700362
   0.53927988  0.46284054  0.61778387
   0.45692805  0.58132618  0.45533580
   0.56907055  0.43342287  0.48862031
   0.43911081  0.51304829  0.61695943
   0.39729104  0.43188772  0.54128903
   0.37474055  0.53940543  0.52799553
   0.49627115  0.38513111  0.55978989
   0.56897893  0.55544861  0.47829559
   0.40232571  0.48406151  0.43802081
   0.51065185  0.48829246  0.40774396
   0.46698911  0.39779127  0.45525301
   0.53520551  0.59019279  0.38141218
   0.62228650  0.49928927  0.55558591
   0.44875135  0.61083317  0.56097957
Direct configuration=     3
   0.48620056  0.49613721  0.52051167
   0.54265718  0.56855753  0.58701544
   0.53939513  0.46227120  0.61846225
   0.45634679  0.58221208  0.45534723
   0.56941357  0.43311427  0.48864783
   0.43873144  0.51292851  0.61774011
   0.39659212  0.43130840  0.54173391
   0.37382153  0.53980331  0.52785605
   0.49672107  0.38431883  0.56031205
   0.56961986  0.55587877  0.47863963
   0.40163877  0.48398812  0.43720466
   0.51066471  0.48772840  0.40675250
   0.46693316  0.39686330  0.45438207
   0.53531040  0.59043868  0.38100641
   0.62328637  0.49918891  0.55569587
   0.44878598  0.61204603  0.56117070
Direct configuration=     4
   0.48573452  0.49602585  0.52045099
   0.54270387  0.56837422  0.58682048
   0.53952726  0.46225764  0.61858092
   0.45605575  0.58235478  0.45553061
   0.56919559  0.43319010  0.48890017
   0.43862754  0.51304248  0.61748520
   0.39704031  0.43149522  0.54168883
   0.37389606  0.53992696  0.52769339
   0.49685862  0.38396331  0.56008512
   0.56985087  0.55610460  0.47856621
   0.40182259  0.48390151  0.43721781
   0.51040017  0.48768112  0.40652762
   0.46687481  0.39658890  0.45424100
   0.53516195  0.59013591  0.38134994
   0.62380626  0.49906360  0.55600460
   0.44856247  0.61267733  0.56133549
Direct configuration=     5
   0.48463017  0.49576199  0.52030722
   0.54281453  0.56793984  0.58635851
   0.53984035  0.46222553  0.61886212
   0.45536609  0.58269292  0.45596514
   0.56867906  0.43336978  0.48949812
   0.43838135  0.51331255  0.61688115
   0.39810235  0.43193791  0.54158202
   0.37407266  0.54021997  0.52730797
   0.49718456  0.38312088  0.55954739
   0.57039829  0.55663974  0.47839221
   0.40225816  0.48369627  0.43724899
   0.50977333  0.48756907  0.40599473
   0.46673656  0.39593870  0.45390670
   0.53481017  0.58941847  0.38216398
   0.62503818  0.49876666  0.55673614
   0.44803282  0.61417326  0.56172599
Direct configuration=     6
   0.48473452  0.49592938  0.52011242
   0.54267866  0.56767280  0.58593305
   0.53987484  0.46214017  0.61875907
   0.45511628  0.58278298  0.45626651
   0.56840832  0.43370667  0.48981052
   0.43834915  0.51350735  0.61663358
   0.39843879  0.43197088  0.54158814
   0.37414465  0.54046482  0.52713040
   0.49739527  0.38282888  0.55941305
   0.57051103  0.55647017  0.47860480
   0.40239084  0.48360994  0.43718686
   0.50951724  0.48742125  0.40601427
   0.46671408  0.39562714  0.45372467
   0.53462417  0.58925435  0.38239949
   0.62531485  0.49869496  0.55695124
   0.44790595  0.61470180  0.56195031
Direct configuration=     7
   0.48504759  0.49643156  0.51952804
   0.54227105  0.56687168  0.58465666
   0.53997832  0.46188411  0.61844991
   0.45436684  0.58305318  0.45717062
   0.56759607  0.43471732  0.49074770
   0.43825256  0.51409175  0.61589088
   0.39944809  0.43206978  0.54160651
   0.37436062  0.54119935  0.52659769
   0.49802741  0.38195288  0.55901003
   0.57084927  0.55596145  0.47924255
   0.40278890  0.48335095  0.43700047
   0.50874896  0.48697779  0.40607290
   0.46664664  0.39469248  0.45317857
   0.53406616  0.58876198  0.38310605
   0.62614484  0.49847984  0.55759652
   0.44752532  0.61628744  0.56262327
Direct configuration=     8
   0.48512501  0.49655575  0.51938352
   0.54217025  0.56667357  0.58434101
   0.54000390  0.46182078  0.61837345
   0.45418150  0.58311999  0.45739421
   0.56739520  0.43496725  0.49097946
   0.43822867  0.51423627  0.61570721
   0.39969769  0.43209424  0.54161106
   0.37441403  0.54138100  0.52646596
   0.49818374  0.38173624  0.55891037
   0.57093292  0.55583564  0.47940026
   0.40288734  0.48328690  0.43695438
   0.50855896  0.48686812  0.40608739
   0.46662996  0.39446134  0.45304352
   0.53392817  0.58864022  0.38328079
   0.62635010  0.49842665  0.55775610
   0.44743119  0.61667956  0.56278969
Direct configuration=     9
   0.48503196  0.49684387  0.51931957
   0.54180641  0.56680312  0.58413757
   0.53974837  0.46151552  0.61794943
   0.45419514  0.58326977  0.45763705
   0.56760643  0.43520703  0.49103556
   0.43836289  0.51446419  0.61551063
   0.39997978  0.43205856  0.54162765
   0.37443856  0.54161075  0.52641730
   0.49828389  0.38157076  0.55899678
   0.57124624  0.55536479  0.47927926
   0.40271970  0.48320025  0.43690795
   0.50853999  0.48663288  0.40623619
   0.46670171  0.39419209  0.45298007
   0.53371068  0.58869529  0.38350748
   0.62627242  0.49850868  0.55788853
   0.44747448  0.61684595  0.56304736
Direct configuration=    10
   0.48476582  0.49766804  0.51913663
   0.54076569  0.56717370  0.58355562
   0.53901745  0.46064236  0.61673657
   0.45423414  0.58369818  0.45833170
   0.56821065  0.43589289  0.49119603
   0.43874682  0.51511612  0.61494833
   0.40078669  0.43195652  0.54167513
   0.37450870  0.54226793  0.52627811
   0.49857035  0.38109742  0.55924394
   0.57214245  0.55401796  0.47893313
   0.40224017  0.48295240  0.43677515
   0.50848572  0.48596002  0.40666179
   0.46690692  0.39342194  0.45279859
   0.53308859  0.58885282  0.38415592
   0.62605020  0.49874335  0.55826735
   0.44759830  0.61732190  0.56378439
Direct configuration=    11
   0.48463814  0.49763385  0.51876804
   0.54069916  0.56732199  0.58348826
   0.53873829  0.46053395  0.61622476
   0.45424408  0.58393029  0.45854396
   0.56834003  0.43593185  0.49121001
   0.43882852  0.51533751  0.61496783
   0.40113117  0.43195105  0.54165598
   0.37445973  0.54243736  0.52626694
   0.49856259  0.38071465  0.55906543
   0.57269313  0.55352530  0.47852699
   0.40209601  0.48284681  0.43682445
   0.50845563  0.48581264  0.40684290
   0.46704625  0.39329677  0.45295711
   0.53284169  0.58885139  0.38447553
   0.62592253  0.49899547  0.55864035
   0.44742169  0.61766266  0.56401983
Direct configuration=    12
   0.48438362  0.49756569  0.51803331
   0.54056657  0.56761758  0.58335398
   0.53818185  0.46031785  0.61520457
   0.45426391  0.58439297  0.45896706
   0.56859791  0.43600950  0.49123788
   0.43899138  0.51577881  0.61500670
   0.40181783  0.43194014  0.54161780
   0.37436212  0.54277510  0.52624468
   0.49854713  0.37995167  0.55870962
   0.57379081  0.55254326  0.47771742
   0.40180865  0.48263635  0.43692271
   0.50839564  0.48551889  0.40720391
   0.46732399  0.39304727  0.45327308
   0.53234955  0.58884853  0.38511263
   0.62566805  0.49949803  0.55938388
   0.44706964  0.61834189  0.56448914
Direct configuration=    13
   0.48461981  0.49770718  0.51791105
   0.54072362  0.56757203  0.58303423
   0.53799513  0.46056522  0.61490042
   0.45409919  0.58451302  0.45921123
   0.56864583  0.43570411  0.49142722
   0.43902296  0.51586213  0.61497836
   0.40178465  0.43196241  0.54172867
   0.37440283  0.54269650  0.52634497
   0.49852716  0.37932564  0.55840302
   0.57419405  0.55229669  0.47761055
   0.40178541  0.48265031  0.43697119
   0.50828905  0.48565194  0.40709536
   0.46737004  0.39314167  0.45340757
   0.53227636  0.58880388  0.38515025
   0.62568144  0.49973454  0.55979641
   0.44670110  0.61859624  0.56450787
Direct configuration=    14
   0.48500780  0.49793960  0.51771021
   0.54098162  0.56749719  0.58250898
   0.53768841  0.46097159  0.61440079
   0.45382862  0.58471024  0.45961232
   0.56872455  0.43520245  0.49173825
   0.43907483  0.51599902  0.61493180
   0.40173015  0.43199900  0.54191080
   0.37446972  0.54256739  0.52650973
   0.49849435  0.37829725  0.55789938
   0.57485646  0.55189164  0.47743500
   0.40174723  0.48267325  0.43705082
   0.50811395  0.48587052  0.40691704
   0.46744570  0.39329674  0.45362850
   0.53215615  0.58873054  0.38521206
   0.62570343  0.50012306  0.56047407
   0.44609568  0.61901407  0.56453864
Direct configuration=    15
   0.48514489  0.49798103  0.51765095
   0.54088642  0.56794599  0.58198985
   0.53727964  0.46082080  0.61395052
   0.45372369  0.58474426  0.45976654
   0.56880141  0.43488538  0.49216982
   0.43909266  0.51610295  0.61476747
   0.40184106  0.43216052  0.54211005
   0.37449261  0.54232055  0.52673307
   0.49854200  0.37771577  0.55780962
   0.57534192  0.55166310  0.47723249
   0.40177189  0.48276358  0.43712439
   0.50799679  0.48601283  0.40677229
   0.46739821  0.39359248  0.45361549
   0.53207284  0.58872368  0.38533443
   0.62594466  0.50021768  0.56083863
   0.44578795  0.61913292  0.56461279
Direct configuration=    16
   0.48547467  0.49808068  0.51750839
   0.54065741  0.56902560  0.58074106
   0.53629633  0.46045807  0.61286736
   0.45347128  0.58482609  0.46013752
   0.56898630  0.43412265  0.49320798
   0.43913554  0.51635297  0.61437215
   0.40210786  0.43254908  0.54258937
   0.37454765  0.54172677  0.52727032
   0.49865665  0.37631700  0.55759369
   0.57650974  0.55111333  0.47674534
   0.40183121  0.48298089  0.43730138
   0.50771494  0.48635518  0.40642408
   0.46728399  0.39430390  0.45358418
   0.53187246  0.58870718  0.38562880
   0.62652494  0.50044529  0.56171561
   0.44504769  0.61941885  0.56479114
Direct configuration=    17
   0.48574590  0.49810464  0.51720994
   0.54059313  0.56949075  0.57999315
   0.53596179  0.46027054  0.61216376
   0.45348547  0.58473380  0.46019890
   0.56906533  0.43415462  0.49376019
   0.43921060  0.51650558  0.61436606
   0.40248861  0.43256561  0.54288185
   0.37430531  0.54156313  0.52746135
   0.49856284  0.37563701  0.55762989
   0.57698753  0.55060703  0.47660420
   0.40174494  0.48321820  0.43732043
   0.50776174  0.48636479  0.40649604
   0.46725639  0.39461414  0.45360871
   0.53180377  0.58892317  0.38583860
   0.62642202  0.50047121  0.56197977
   0.44472326  0.61955929  0.56496552
Direct configuration=    18
   0.48628869  0.49815257  0.51661266
   0.54046449  0.57042164  0.57849638
   0.53529228  0.45989525  0.61075568
   0.45351388  0.58454912  0.46032172
   0.56922348  0.43421861  0.49486533
   0.43936081  0.51681099  0.61435387
   0.40325060  0.43259869  0.54346719
   0.37382033  0.54123563  0.52784367
   0.49837512  0.37427618  0.55770234
   0.57794373  0.54959380  0.47632174
   0.40157230  0.48369312  0.43735856
   0.50785540  0.48638403  0.40664005
   0.46720116  0.39523501  0.45365780
   0.53166632  0.58935543  0.38625847
   0.62621605  0.50052309  0.56250844
   0.44407399  0.61984036  0.56531449
Direct configuration=    19
   0.48544216  0.49843984  0.51680663
   0.54055023  0.57016699  0.57861060
   0.53543641  0.46009903  0.61082801
   0.45334400  0.58451435  0.46052224
   0.56933899  0.43402295  0.49454435
   0.43952069  0.51686460  0.61426880
   0.40367705  0.43255457  0.54349931
   0.37380319  0.54146713  0.52773867
   0.49815184  0.37405218  0.55761237
   0.57802516  0.54966403  0.47590795
   0.40138762  0.48380007  0.43729519
   0.50817954  0.48640130  0.40654260
   0.46733615  0.39497605  0.45398507
   0.53187877  0.58940070  0.38647925
   0.62608571  0.50059532  0.56259584
   0.44396113  0.61976444  0.56524150
Direct configuration=    20
   0.48548639  0.49842483  0.51679650
   0.54054575  0.57018030  0.57860463
   0.53542888  0.46008838  0.61082423
   0.45335287  0.58451617  0.46051176
   0.56933296  0.43403317  0.49456113
   0.43951234  0.51686180  0.61427324
   0.40365477  0.43255688  0.54349763
   0.37380409  0.54145504  0.52774416
   0.49816350  0.37406388  0.55761707
   0.57802091  0.54966036  0.47592957
   0.40139727  0.48379448  0.43729850
   0.50816260  0.48640039  0.40654769
   0.46732910  0.39498958  0.45396797
   0.53186767  0.58939833  0.38646771
   0.62609252  0.50059155  0.56259127
   0.44396703  0.61976840  0.56524531
Direct configuration=    21
   0.48549463  0.49854142  0.51668466
   0.54057847  0.56996871  0.57861002
   0.53550153  0.46007523  0.61074205
   0.45322648  0.58464696  0.46047113
   0.56910083  0.43413977  0.49440551
   0.43958617  0.51696158  0.61439461
   0.40388048  0.43240084  0.54361581
   0.37360016  0.54165464  0.52765479
   0.49810427  0.37394581  0.55766362
   0.57802777  0.54949992  0.47579728
   0.40134299  0.48380426  0.43716124
   0.50836864  0.48628870  0.40670215
   0.46745286  0.39488190  0.45414470
   0.53199891  0.58954964  0.38664789
   0.62593308  0.50065220  0.56252796
   0.44392138  0.61977194  0.56525496
Direct configuration=    22
   0.48549673  0.49857124  0.51665605
   0.54058683  0.56991459  0.57861140
   0.53552011  0.46007187  0.61072103
   0.45319416  0.58468040  0.46046074
   0.56904146  0.43416704  0.49436571
   0.43960505  0.51698710  0.61442565
   0.40393820  0.43236093  0.54364603
   0.37354801  0.54170569  0.52763194
   0.49808913  0.37391561  0.55767552
   0.57802952  0.54945888  0.47576345
   0.40132911  0.48380677  0.43712614
   0.50842133  0.48626014  0.40674165
   0.46748451  0.39485436  0.45418989
   0.53203247  0.58958833  0.38669397
   0.62589230  0.50066772  0.56251177
   0.44390971  0.61977285  0.56525743
Direct configuration=    23
   0.48541484  0.49871710  0.51656440
   0.54050011  0.56991187  0.57860590
   0.53546670  0.45988811  0.61061035
   0.45307677  0.58480615  0.46034027
   0.56885909  0.43421929  0.49436680
   0.43960654  0.51707593  0.61440038
   0.40407770  0.43242302  0.54376828
   0.37348874  0.54170141  0.52758949
   0.49818413  0.37378784  0.55786221
   0.57810673  0.54932083  0.47577347
   0.40144820  0.48378058  0.43710963
   0.50848387  0.48620690  0.40682089
   0.46749138  0.39483748  0.45416474
   0.53205266  0.58970222  0.38683256
   0.62592306  0.50065913  0.56238711
   0.44393812  0.61974567  0.56528189
Direct configuration=    24
   0.48532887  0.49887024  0.51646818
   0.54040906  0.56990901  0.57860012
   0.53541062  0.45969518  0.61049415
   0.45295351  0.58493817  0.46021379
   0.56866762  0.43427415  0.49436794
   0.43960811  0.51716919  0.61437385
   0.40422415  0.43248821  0.54389663
   0.37342651  0.54169691  0.52754492
   0.49828389  0.37365369  0.55805822
   0.57818779  0.54917588  0.47578399
   0.40157323  0.48375310  0.43709230
   0.50854953  0.48615100  0.40690408
   0.46749859  0.39481976  0.45413833
   0.53207386  0.58982179  0.38697807
   0.62595536  0.50065011  0.56225623
   0.44396796  0.61971714  0.56530758
Direct configuration=    25
   0.48521822  0.49909916  0.51643189
   0.54041956  0.56987219  0.57860925
   0.53537064  0.45965631  0.61036274
   0.45280244  0.58506529  0.46012325
   0.56853270  0.43423756  0.49446023
   0.43960803  0.51721199  0.61435088
   0.40439487  0.43256419  0.54401217
   0.37339977  0.54166031  0.52751170
   0.49832743  0.37344411  0.55810937
   0.57826837  0.54912755  0.47577261
   0.40165980  0.48373571  0.43709278
   0.50861669  0.48620977  0.40684220
   0.46748675  0.39474772  0.45419235
   0.53207880  0.58985044  0.38712536
   0.62598149  0.50059044  0.56220983
   0.44395310  0.61971079  0.56527176
Direct configuration=    26
   0.48492056  0.49971497  0.51633429
   0.54044779  0.56977316  0.57863382
   0.53526307  0.45955173  0.61000925
   0.45239605  0.58540725  0.45987968
   0.56816975  0.43413915  0.49470850
   0.43960781  0.51732713  0.61428908
   0.40485411  0.43276855  0.54432298
   0.37332784  0.54156184  0.52742234
   0.49844456  0.37288032  0.55824697
   0.57848515  0.54899755  0.47574198
   0.40189267  0.48368892  0.43709407
   0.50879735  0.48636788  0.40667575
   0.46745491  0.39455393  0.45433767
   0.53209208  0.58992749  0.38752158
   0.62605178  0.50042992  0.56208502
   0.44391314  0.61969373  0.56517541
Direct configuration=    27
   0.48492717  0.49984615  0.51626608
   0.54049559  0.56975809  0.57865085
   0.53522473  0.45955179  0.60990585
   0.45228130  0.58549688  0.45982196
   0.56805422  0.43412835  0.49478339
   0.43960241  0.51735141  0.61431912
   0.40497688  0.43278272  0.54439700
   0.37328871  0.54154792  0.52740731
   0.49845041  0.37273275  0.55824357
   0.57853284  0.54896689  0.47575154
   0.40194213  0.48367532  0.43708555
   0.50881871  0.48637062  0.40665726
   0.46745939  0.39452405  0.45438651
   0.53210115  0.58996837  0.38758151
   0.62606481  0.50038383  0.56208043
   0.44389820  0.61969841  0.56514047
Direct configuration=    28
   0.48494698  0.50023967  0.51606144
   0.54063898  0.56971288  0.57870192
   0.53510969  0.45955195  0.60959565
   0.45193705  0.58576577  0.45964880
   0.56770764  0.43409594  0.49500807
   0.43958618  0.51742428  0.61440924
   0.40534519  0.43282520  0.54461905
   0.37317131  0.54150616  0.52736222
   0.49846796  0.37229001  0.55823338
   0.57867591  0.54887489  0.47578021
   0.40209049  0.48363453  0.43705999
   0.50888277  0.48637883  0.40660180
   0.46747285  0.39443438  0.45453304
   0.53212837  0.59009101  0.38776129
   0.62610388  0.50024556  0.56206664
   0.44385339  0.61971246  0.56503564
Direct configuration=    29
   0.48498661  0.50102673  0.51565215
   0.54092575  0.56962245  0.57880408
   0.53487960  0.45955227  0.60897524
   0.45124854  0.58630356  0.45930248
   0.56701448  0.43403112  0.49545743
   0.43955373  0.51757002  0.61458946
   0.40608181  0.43291017  0.54506316
   0.37293653  0.54142265  0.52727205
   0.49850306  0.37140455  0.55821300
   0.57896204  0.54869090  0.47583757
   0.40238722  0.48355294  0.43700886
   0.50901091  0.48639527  0.40649088
   0.46749976  0.39425505  0.45482610
   0.53218281  0.59033630  0.38812085
   0.62618204  0.49996901  0.56203906
   0.44376377  0.61974056  0.56482599
Direct configuration=    30
   0.48490563  0.50109032  0.51564113
   0.54096328  0.56976636  0.57888809
   0.53471742  0.45950166  0.60892820
   0.45122848  0.58626214  0.45925276
   0.56706059  0.43403896  0.49542246
   0.43956631  0.51761895  0.61459203
   0.40623988  0.43292247  0.54502492
   0.37295755  0.54140049  0.52733951
   0.49845734  0.37134923  0.55823160
   0.57897630  0.54871048  0.47582439
   0.40234764  0.48356407  0.43702815
   0.50896830  0.48630138  0.40653959
   0.46749978  0.39431066  0.45474716
   0.53215062  0.59034145  0.38808342
   0.62625263  0.49995604  0.56213038
   0.44382690  0.61964886  0.56480459
Direct configuration=    31
   0.48478668  0.50118372  0.51562495
   0.54101841  0.56997773  0.57901149
   0.53447919  0.45942733  0.60885911
   0.45119901  0.58620131  0.45917972
   0.56712833  0.43405048  0.49537109
   0.43958480  0.51769084  0.61459581
   0.40647206  0.43294053  0.54496874
   0.37298841  0.54136794  0.52743860
   0.49839019  0.37126798  0.55825892
   0.57899725  0.54873924  0.47580503
   0.40228951  0.48358042  0.43705648
   0.50890573  0.48616349  0.40661113
   0.46749981  0.39439235  0.45463122
   0.53210332  0.59034903  0.38802844
   0.62635631  0.49993698  0.56226450
   0.44391963  0.61951417  0.56477315
Direct configuration=    32
   0.48488255  0.50129837  0.51562972
   0.54111436  0.57003248  0.57906839
   0.53433831  0.45943176  0.60875424
   0.45115560  0.58618392  0.45908916
   0.56713364  0.43410973  0.49538616
   0.43959751  0.51774382  0.61466201
   0.40661279  0.43292192  0.54494228
   0.37297109  0.54134288  0.52750478
   0.49836037  0.37117516  0.55822589
   0.57898335  0.54872599  0.47585373
   0.40220327  0.48359262  0.43705370
   0.50889199  0.48612983  0.40665011
   0.46750887  0.39440581  0.45456816
   0.53206125  0.59029984  0.38799493
   0.62632009  0.49992652  0.56235568
   0.44398361  0.61946288  0.56473944
Direct configuration=    33
   0.48517014  0.50164234  0.51564402
   0.54140220  0.57019672  0.57923908
   0.53391566  0.45944505  0.60843963
   0.45102536  0.58613175  0.45881749
   0.56714956  0.43428749  0.49543137
   0.43963563  0.51790276  0.61486062
   0.40703499  0.43286606  0.54486292
   0.37291913  0.54126772  0.52770332
   0.49827091  0.37089670  0.55812682
   0.57894167  0.54868624  0.47599983
   0.40194454  0.48362922  0.43704535
   0.50885080  0.48602887  0.40676705
   0.46753603  0.39444619  0.45437899
   0.53193501  0.59015226  0.38789440
   0.62621145  0.49989515  0.56262921
   0.44417555  0.61930901  0.56463831
Direct configuration=    34
   0.48508136  0.50175947  0.51564742
   0.54147151  0.57017056  0.57932429
   0.53391214  0.45945289  0.60839135
   0.45087657  0.58611580  0.45878832
   0.56708435  0.43423498  0.49548449
   0.43959671  0.51792687  0.61492379
   0.40712498  0.43297208  0.54484915
   0.37294066  0.54122684  0.52770229
   0.49834420  0.37077761  0.55800041
   0.57899546  0.54874415  0.47597877
   0.40196732  0.48362877  0.43708673
   0.50883086  0.48610101  0.40673093
   0.46754541  0.39441497  0.45442245
   0.53196234  0.59004603  0.38791286
   0.62617587  0.49987599  0.56267477
   0.44420891  0.61933549  0.56456034
Direct configuration=    35
   0.48495055  0.50193203  0.51565244
   0.54157363  0.57013202  0.57944983
   0.53390695  0.45946445  0.60832021
   0.45065736  0.58609231  0.45874536
   0.56698826  0.43415762  0.49556276
   0.43953935  0.51796240  0.61501687
   0.40725757  0.43312828  0.54482888
   0.37297238  0.54116660  0.52770077
   0.49845218  0.37060216  0.55781417
   0.57907470  0.54882948  0.47594775
   0.40200088  0.48362810  0.43714770
   0.50880147  0.48620729  0.40667773
   0.46755924  0.39436897  0.45448648
   0.53200262  0.58988953  0.38794006
   0.62612345  0.49984777  0.56274191
   0.44425805  0.61937452  0.56444547
Direct configuration=    36
   0.48500275  0.50205904  0.51565244
   0.54160911  0.57011228  0.57951943
   0.53385407  0.45944150  0.60825224
   0.45054205  0.58612606  0.45864454
   0.56690153  0.43418676  0.49560360
   0.43952252  0.51800836  0.61508423
   0.40734512  0.43316075  0.54484989
   0.37294762  0.54115346  0.52773181
   0.49851839  0.37049015  0.55773557
   0.57911135  0.54883111  0.47599184
   0.40200494  0.48360534  0.43714589
   0.50877484  0.48619978  0.40669789
   0.46756636  0.39434976  0.45448252
   0.53200612  0.58985109  0.38794190
   0.62610310  0.49982642  0.56276174
   0.44430879  0.61938166  0.56438284
Direct configuration=    37
   0.48515932  0.50244008  0.51565242
   0.54171555  0.57005304  0.57972822
   0.53369541  0.45937264  0.60804833
   0.45019613  0.58622731  0.45834211
   0.56664134  0.43427416  0.49572610
   0.43947201  0.51814624  0.61528632
   0.40760774  0.43325817  0.54491294
   0.37287333  0.54111403  0.52782493
   0.49871702  0.37015413  0.55749977
   0.57922132  0.54883603  0.47612413
   0.40201712  0.48353708  0.43714047
   0.50869497  0.48617725  0.40675837
   0.46758774  0.39429212  0.45447064
   0.53201661  0.58973577  0.38794744
   0.62604205  0.49976238  0.56282124
   0.44446098  0.61940310  0.56419495
Direct configuration=    38
   0.48547246  0.50320214  0.51565238
   0.54192842  0.56993456  0.58014581
   0.53337809  0.45923492  0.60764051
   0.44950429  0.58642982  0.45773723
   0.56612095  0.43444897  0.49597112
   0.43937099  0.51842201  0.61569049
   0.40813300  0.43345300  0.54503903
   0.37272476  0.54103516  0.52801116
   0.49911429  0.36948208  0.55702817
   0.57944126  0.54884586  0.47638871
   0.40204148  0.48340056  0.43712961
   0.50853523  0.48613220  0.40687934
   0.46763049  0.39417685  0.45444688
   0.53203759  0.58950513  0.38795852
   0.62591996  0.49963430  0.56294024
   0.44476538  0.61944597  0.56381918
Direct configuration=    39
   0.48505704  0.50337141  0.51559081
   0.54193021  0.57007309  0.58029807
   0.53319308  0.45913548  0.60765901
   0.44953340  0.58636706  0.45767355
   0.56625401  0.43447596  0.49584311
   0.43940293  0.51849509  0.61561375
   0.40842295  0.43348839  0.54504862
   0.37279842  0.54103478  0.52803917
   0.49904988  0.36939967  0.55714349
   0.57944489  0.54888548  0.47629882
   0.40203370  0.48341447  0.43722401
   0.50856435  0.48606133  0.40690055
   0.46755454  0.39415954  0.45436157
   0.53200063  0.58954773  0.38804025
   0.62607428  0.49957677  0.56299622
   0.44480435  0.61929729  0.56374740
Direct configuration=    40
   0.48495539  0.50341283  0.51557575
   0.54193065  0.57010699  0.58033532
   0.53314781  0.45911114  0.60766353
   0.44954052  0.58635170  0.45765797
   0.56628657  0.43448256  0.49581179
   0.43941074  0.51851298  0.61559497
   0.40849389  0.43349705  0.54505096
   0.37281644  0.54103469  0.52804602
   0.49903412  0.36937950  0.55717171
   0.57944578  0.54889518  0.47627683
   0.40203179  0.48341787  0.43724711
   0.50857148  0.48604399  0.40690574
   0.46753595  0.39415531  0.45434069
   0.53199159  0.58955815  0.38806024
   0.62611204  0.49956270  0.56300992
   0.44481388  0.61926091  0.56372983
Direct configuration=    41
   0.48501402  0.50354140  0.51554350
   0.54198084  0.57008609  0.58041189
   0.53301765  0.45909514  0.60757595
   0.44950587  0.58640659  0.45753454
   0.56625088  0.43460719  0.49577867
   0.43943825  0.51858346  0.61561575
   0.40869366  0.43343591  0.54510714
   0.37279847  0.54104159  0.52806453
   0.49900349  0.36930225  0.55721513
   0.57941146  0.54885892  0.47632697
   0.40198132  0.48341064  0.43727825
   0.50861228  0.48598607  0.40694744
   0.46749581  0.39411036  0.45429506
   0.53196433  0.58960528  0.38809307
   0.62610705  0.49952495  0.56303684
   0.44484325  0.61918768  0.56365366
Direct configuration=    42
   0.48518992  0.50392712  0.51544678
   0.54213143  0.57002341  0.58064158
   0.53262717  0.45904714  0.60731321
   0.44940192  0.58657127  0.45716426
   0.56614382  0.43498107  0.49567931
   0.43952077  0.51879492  0.61567810
   0.40929298  0.43325251  0.54527568
   0.37274455  0.54106229  0.52812005
   0.49891160  0.36907048  0.55734540
   0.57930851  0.54875015  0.47647739
   0.40182989  0.48338896  0.43737166
   0.50873470  0.48581233  0.40707255
   0.46737540  0.39397550  0.45415815
   0.53188253  0.58974668  0.38819154
   0.62609208  0.49941171  0.56311759
   0.44493137  0.61896798  0.56342513
Direct configuration=    43
   0.48515420  0.50403251  0.51541686
   0.54218141  0.57001829  0.58072727
   0.53254940  0.45903301  0.60724436
   0.44933326  0.58659838  0.45708739
   0.56609746  0.43501159  0.49567494
   0.43952356  0.51884777  0.61571107
   0.40944412  0.43325689  0.54530994
   0.37273815  0.54104574  0.52812682
   0.49892326  0.36899674  0.55733741
   0.57931741  0.54876378  0.47649283
   0.40181908  0.48337924  0.43740323
   0.50874477  0.48579234  0.40707742
   0.46735792  0.39394564  0.45414772
   0.53188258  0.58975310  0.38821549
   0.62608532  0.49937818  0.56314971
   0.44496676  0.61893034  0.56335593
Direct configuration=    44
   0.48504704  0.50434867  0.51532711
   0.54233133  0.57000291  0.58098434
   0.53231610  0.45899060  0.60703779
   0.44912728  0.58667971  0.45685679
   0.56595835  0.43510315  0.49566184
   0.43953191  0.51900634  0.61580995
   0.40989756  0.43327005  0.54541271
   0.37271894  0.54099607  0.52814713
   0.49895826  0.36877551  0.55731344
   0.57934413  0.54880467  0.47653914
   0.40178664  0.48335007  0.43749793
   0.50877495  0.48573237  0.40709201
   0.46730549  0.39385607  0.45411643
   0.53188273  0.58977235  0.38828734
   0.62606504  0.49927760  0.56324607
   0.44507290  0.61881739  0.56314835
Direct configuration=    45
   0.48483272  0.50498100  0.51514762
   0.54263119  0.56997217  0.58149848
   0.53184950  0.45890579  0.60662466
   0.44871532  0.58684236  0.45639557
   0.56568013  0.43528628  0.49563564
   0.43954862  0.51932347  0.61600771
   0.41080444  0.43329636  0.54561826
   0.37268051  0.54089673  0.52818774
   0.49902824  0.36833306  0.55726551
   0.57939755  0.54888644  0.47663178
   0.40172176  0.48329173  0.43768733
   0.50883533  0.48561243  0.40712121
   0.46720063  0.39367693  0.45405385
   0.53188302  0.58981084  0.38843105
   0.62602447  0.49907644  0.56343880
   0.44528520  0.61859150  0.56273318
Direct configuration=    46
   0.48440408  0.50624565  0.51478862
   0.54323090  0.56991069  0.58252676
   0.53091630  0.45873617  0.60579839
   0.44789140  0.58716767  0.45547314
   0.56512370  0.43565253  0.49558324
   0.43958205  0.51995773  0.61640324
   0.41261819  0.43334899  0.54602937
   0.37260367  0.54069805  0.52826897
   0.49916822  0.36744815  0.55716964
   0.57950440  0.54904999  0.47681706
   0.40159200  0.48317504  0.43806612
   0.50895607  0.48537254  0.40717960
   0.46699091  0.39331865  0.45392869
   0.53188360  0.58988784  0.38871846
   0.62594334  0.49867413  0.56382425
   0.44570979  0.61813972  0.56190283
Direct configuration=    47
   0.48354681  0.50877496  0.51407063
   0.54443033  0.56978771  0.58458332
   0.52904990  0.45839693  0.60414586
   0.44624356  0.58781828  0.45362828
   0.56401083  0.43638504  0.49547843
   0.43964889  0.52122624  0.61719430
   0.41624570  0.43345424  0.54685158
   0.37244998  0.54030070  0.52843143
   0.49944816  0.36567833  0.55697790
   0.57971811  0.54937708  0.47718760
   0.40133248  0.48294168  0.43882372
   0.50919757  0.48489277  0.40729639
   0.46657147  0.39260209  0.45367837
   0.53188477  0.59004182  0.38929329