  10  10   0   0
  0.1213273E+04  0.2386530E-08  0.2231731E-08  0.2277981E-08  0.5000000E-15
   1.0000000000000000E-004
  CAR 
 unknown system                          
      1.95663890    -11.87734929  301     -4.13570960      1.00000000
    -11.877  0.0000E+00  0.0000E+00  0.0000E+00  0.0000E+00
    -11.831  0.0000E+00  0.0000E+00  0.0000E+00  0.0000E+00
    -11.785  0.0000E+00  0.0000E+00  0.0000E+00  0.0000E+00
    -11.739  0.0000E+00  0.0000E+00  0.0000E+00  0.0000E+00
    -11.693  0.0000E+00  0.0000E+00  0.0000E+00  0.0000E+00
    -11.647  0.0000E+00  0.0000E+00  0.0000E+00  0.0000E+00
    -11.601  0.0000E+00  0.0000E+00  0.0000E+00  0.0000E+00
    -11.555  0.0000E+00  0.0000E+00  0.0000E+00  0.0000E+00
    -11.508 -0.6492E-30  0.0000E+00 -0.2994E-31  0.0000E+00
    -11.462 -0.2506E-28  0.0000E+00 -0.1186E-29  0.0000E+00
    -11.416 -0.8890E-27 -0.1298E-29 -0.4218E-28 -0.5985E-31
    -11.370 -0.2832E-25 -0.4909E-28 -0.1348E-26 -0.2324E-29
    -11.324 -0.8101E-24 -0.1707E-26 -0.3871E-25 -0.8104E-28
    -11.278 -0.2081E-22 -0.5330E-25 -0.9982E-24 -0.2539E-26
    -11.232 -0.4797E-21 -0.1494E-23 -0.2312E-22 -0.7145E-25
    -11.186 -0.9928E-20 -0.3762E-22 -0.4809E-21 -0.1806E-23
    -11.140 -0.1844E-18 -0.8500E-21 -0.8983E-20 -0.4100E-22
    -11.093 -0.3073E-17 -0.1724E-19 -0.1507E-18 -0.8360E-21
    -11.047 -0.4474E-16 -0.3138E-18 -0.2214E-17 -0.1531E-19
    -11.001 -0.5969E-15 -0.5126E-17 -0.2974E-16 -0.2517E-18
    -10.955 -0.7156E-14 -0.7269E-16 -0.3597E-15 -0.3604E-17
    -10.909 -0.7690E-13 -0.9556E-15 -0.3906E-14 -0.4767E-16
    -10.863 -0.7401E-12 -0.1123E-13 -0.3803E-13 -0.5653E-15
    -10.817 -0.6378E-11 -0.1182E-12 -0.3321E-12 -0.6015E-14
    -10.771 -0.4917E-10 -0.1114E-11 -0.2600E-11 -0.5740E-13
    -10.725 -0.3390E-09 -0.9406E-11 -0.1823E-10 -0.4912E-12
    -10.678 -0.2088E-08 -0.7103E-10 -0.1145E-09 -0.3767E-11
    -10.632 -0.1148E-07 -0.4796E-09 -0.6438E-09 -0.2588E-10
    -10.586 -0.5623E-07 -0.2892E-08 -0.3237E-08 -0.1592E-09
    -10.540 -0.2451E-06 -0.1556E-07 -0.1454E-07 -0.8769E-09
    -10.494 -0.9485E-06 -0.7461E-07 -0.5828E-07 -0.4317E-08
    -10.448 -0.3249E-05 -0.3182E-06 -0.2081E-06 -0.1899E-07
    -10.402 -0.9807E-05 -0.1204E-05 -0.6603E-06 -0.7451E-07
    -10.356 -0.2593E-04 -0.4029E-05 -0.1856E-05 -0.2603E-06
    -10.309 -0.5944E-04 -0.1187E-04 -0.4597E-05 -0.8079E-06
    -10.263 -0.1161E-03 -0.3060E-04 -0.9952E-05 -0.2219E-05
    -10.217 -0.1868E-03 -0.6820E-04 -0.1856E-04 -0.5364E-05
    -10.171 -0.2265E-03 -0.1289E-03 -0.2901E-04 -0.1131E-04
    -10.125 -0.1393E-03 -0.1986E-03 -0.3543E-04 -0.2047E-04
    -10.079  0.2060E-03 -0.2235E-03 -0.2593E-04 -0.3078E-04
    -10.033  0.9088E-03 -0.9851E-04  0.1598E-04 -0.3532E-04
     -9.987  0.1937E-02  0.3083E-03  0.1053E-03 -0.2110E-04
     -9.941  0.3065E-02  0.1080E-02  0.2467E-03  0.2868E-04
     -9.894  0.3929E-02  0.2149E-02  0.4278E-03  0.1278E-03
     -9.848  0.4194E-02  0.3258E-02  0.6212E-03  0.2780E-03
     -9.802  0.3753E-02  0.4030E-02  0.7943E-03  0.4639E-03
     -9.756  0.2785E-02  0.4164E-02  0.9227E-03  0.6559E-03
     -9.710  0.1651E-02  0.3603E-02  0.9988E-03  0.8221E-03
     -9.664  0.6925E-03  0.2575E-02  0.1031E-02  0.9408E-03
     -9.618  0.8560E-04  0.1451E-02  0.1035E-02  0.1008E-02
     -9.572 -0.1809E-03  0.5511E-03  0.1026E-02  0.1033E-02
     -9.526 -0.2236E-03  0.1290E-04  0.1016E-02  0.1034E-02
     -9.479 -0.1689E-03 -0.2017E-03  0.1008E-02  0.1024E-02
     -9.433 -0.9941E-04 -0.2176E-03  0.1004E-02  0.1014E-02
     -9.387 -0.4872E-04 -0.1555E-03  0.1001E-02  0.1007E-02
     -9.341 -0.2046E-04 -0.8816E-04  0.1000E-02  0.1003E-02
     -9.295 -0.7475E-05 -0.4192E-04  0.1000E-02  0.1001E-02
     -9.249 -0.2400E-05 -0.1714E-04  0.1000E-02  0.1000E-02
     -9.203 -0.7005E-06 -0.6107E-05  0.1000E-02  0.1000E-02
     -9.157 -0.2769E-06 -0.1912E-05  0.1000E-02  0.1000E-02
     -9.111 -0.4827E-06 -0.5284E-06  0.1000E-02  0.1000E-02
     -9.064 -0.1646E-05 -0.1295E-06  0.9999E-03  0.1000E-02
     -9.018 -0.5342E-05 -0.2836E-07  0.9997E-03  0.1000E-02
     -8.972 -0.1533E-04 -0.6499E-08  0.9989E-03  0.1000E-02
     -8.926 -0.3854E-04 -0.6866E-08  0.9972E-03  0.1000E-02
     -8.880 -0.8394E-04 -0.3051E-07  0.9933E-03  0.1000E-02
     -8.834 -0.1557E-03 -0.1387E-06  0.9861E-03  0.1000E-02
     -8.788 -0.2373E-03 -0.5628E-06  0.9752E-03  0.1000E-02
     -8.742 -0.2707E-03 -0.2025E-05  0.9627E-03  0.9999E-03
     -8.696 -0.1461E-03 -0.6432E-05  0.9559E-03  0.9996E-03
     -8.649  0.2740E-03 -0.1795E-04  0.9686E-03  0.9987E-03
     -8.603  0.1089E-02 -0.4367E-04  0.1019E-02  0.9967E-03
     -8.557  0.2279E-02 -0.9140E-04  0.1124E-02  0.9925E-03
     -8.511  0.3674E-02 -0.1607E-03  0.1293E-02  0.9851E-03
     -8.465  0.4992E-02 -0.2251E-03  0.1524E-02  0.9747E-03
     -8.419  0.5937E-02 -0.2134E-03  0.1797E-02  0.9649E-03
     -8.373  0.6292E-02 -0.9954E-05  0.2087E-02  0.9644E-03
     -8.327  0.5971E-02  0.5005E-03  0.2363E-02  0.9875E-03
     -8.281  0.5049E-02  0.1349E-02  0.2596E-02  0.1050E-02
     -8.234  0.3781E-02  0.2412E-02  0.2770E-02  0.1161E-02
     -8.188  0.2590E-02  0.3435E-02  0.2889E-02  0.1319E-02
     -8.142  0.1958E-02  0.4165E-02  0.2980E-02  0.1511E-02
     -8.096  0.2242E-02  0.4510E-02  0.3083E-02  0.1719E-02
     -8.050  0.3509E-02  0.4582E-02  0.3245E-02  0.1931E-02
     -8.004  0.5475E-02  0.4557E-02  0.3497E-02  0.2141E-02
     -7.958  0.7590E-02  0.4490E-02  0.3847E-02  0.2348E-02
     -7.912  0.9230E-02  0.4261E-02  0.4273E-02  0.2544E-02
     -7.865  0.9921E-02  0.3718E-02  0.4731E-02  0.2716E-02
     -7.819  0.9535E-02  0.2890E-02  0.5170E-02  0.2849E-02
     -7.773  0.8353E-02  0.2058E-02  0.5555E-02  0.2944E-02
     -7.727  0.6955E-02  0.1601E-02  0.5876E-02  0.3018E-02
     -7.681  0.5943E-02  0.1743E-02  0.6150E-02  0.3098E-02
     -7.635  0.5666E-02  0.2392E-02  0.6411E-02  0.3209E-02
     -7.589  0.6091E-02  0.3197E-02  0.6692E-02  0.3356E-02
     -7.543  0.6895E-02  0.3794E-02  0.7010E-02  0.3531E-02
     -7.497  0.7681E-02  0.4063E-02  0.7364E-02  0.3718E-02
     -7.450  0.8205E-02  0.4184E-02  0.7743E-02  0.3911E-02
     -7.404  0.8511E-02  0.4469E-02  0.8135E-02  0.4117E-02
     -7.358  0.8909E-02  0.5085E-02  0.8546E-02  0.4352E-02
     -7.312  0.9774E-02  0.5908E-02  0.8997E-02  0.4624E-02
     -7.266  0.1125E-01  0.6609E-02  0.9516E-02  0.4929E-02
     -7.220  0.1308E-01  0.6886E-02  0.1012E-01  0.5247E-02
     -7.174  0.1470E-01  0.6669E-02  0.1080E-01  0.5554E-02
     -7.128  0.1557E-01  0.6137E-02  0.1151E-01  0.5837E-02
     -7.082  0.1554E-01  0.5594E-02  0.1223E-01  0.6095E-02
     -7.035  0.1492E-01  0.5317E-02  0.1292E-01  0.6340E-02
     -6.989  0.1421E-01  0.5476E-02  0.1357E-01  0.6593E-02
     -6.943  0.1379E-01  0.6138E-02  0.1421E-01  0.6876E-02
     -6.897  0.1368E-01  0.7271E-02  0.1484E-01  0.7211E-02
     -6.851  0.1362E-01  0.8727E-02  0.1547E-01  0.7614E-02
     -6.805  0.1325E-01  0.1024E-01  0.1608E-01  0.8086E-02
     -6.759  0.1248E-01  0.1146E-01  0.1666E-01  0.8614E-02
     -6.713  0.1153E-01  0.1213E-01  0.1719E-01  0.9173E-02
     -6.667  0.1088E-01  0.1211E-01  0.1769E-01  0.9732E-02
     -6.620  0.1087E-01  0.1154E-01  0.1819E-01  0.1026E-01
     -6.574  0.1143E-01  0.1081E-01  0.1872E-01  0.1076E-01
     -6.528  0.1195E-01  0.1043E-01  0.1927E-01  0.1124E-01
     -6.482  0.1168E-01  0.1079E-01  0.1981E-01  0.1174E-01
     -6.436  0.1017E-01  0.1195E-01  0.2028E-01  0.1229E-01
     -6.390  0.7728E-02  0.1361E-01  0.2063E-01  0.1292E-01
     -6.344  0.5225E-02  0.1527E-01  0.2087E-01  0.1362E-01
     -6.298  0.3667E-02  0.1653E-01  0.2104E-01  0.1439E-01
     -6.252  0.3646E-02  0.1724E-01  0.2121E-01  0.1518E-01
     -6.205  0.5113E-02  0.1744E-01  0.2145E-01  0.1599E-01
     -6.159  0.7521E-02  0.1717E-01  0.2179E-01  0.1678E-01
     -6.113  0.1020E-01  0.1636E-01  0.2226E-01  0.1753E-01
     -6.067  0.1267E-01  0.1494E-01  0.2285E-01  0.1822E-01
     -6.021  0.1473E-01  0.1301E-01  0.2353E-01  0.1882E-01
     -5.975  0.1635E-01  0.1085E-01  0.2428E-01  0.1932E-01
     -5.929  0.1750E-01  0.8890E-02  0.2509E-01  0.1973E-01
     -5.883  0.1811E-01  0.7502E-02  0.2592E-01  0.2008E-01
     -5.837  0.1814E-01  0.6914E-02  0.2676E-01  0.2040E-01
     -5.790  0.1778E-01  0.7159E-02  0.2758E-01  0.2073E-01
     -5.744  0.1743E-01  0.8069E-02  0.2838E-01  0.2110E-01
     -5.698  0.1751E-01  0.9296E-02  0.2919E-01  0.2153E-01
     -5.652  0.1819E-01  0.1040E-01  0.3003E-01  0.2201E-01
     -5.606  0.1930E-01  0.1101E-01  0.3092E-01  0.2251E-01
     -5.560  0.2043E-01  0.1100E-01  0.3186E-01  0.2302E-01
     -5.514  0.2126E-01  0.1059E-01  0.3284E-01  0.2351E-01
     -5.468  0.2173E-01  0.1019E-01  0.3384E-01  0.2398E-01
     -5.421  0.2211E-01  0.1019E-01  0.3486E-01  0.2445E-01
     -5.375  0.2266E-01  0.1075E-01  0.3591E-01  0.2494E-01
     -5.329  0.2353E-01  0.1176E-01  0.3699E-01  0.2549E-01
     -5.283  0.2458E-01  0.1300E-01  0.3813E-01  0.2609E-01
     -5.237  0.2554E-01  0.1419E-01  0.3930E-01  0.2674E-01
     -5.191  0.2610E-01  0.1513E-01  0.4051E-01  0.2744E-01
     -5.145  0.2603E-01  0.1569E-01  0.4171E-01  0.2816E-01
     -5.099  0.2530E-01  0.1588E-01  0.4288E-01  0.2889E-01
     -5.053  0.2411E-01  0.1585E-01  0.4399E-01  0.2963E-01
     -5.006  0.2288E-01  0.1584E-01  0.4504E-01  0.3036E-01
     -4.960  0.2201E-01  0.1603E-01  0.4606E-01  0.3109E-01
     -4.914  0.2171E-01  0.1641E-01  0.4706E-01  0.3185E-01
     -4.868  0.2183E-01  0.1675E-01  0.4807E-01  0.3262E-01
     -4.822  0.2195E-01  0.1675E-01  0.4908E-01  0.3340E-01
     -4.776  0.2152E-01  0.1625E-01  0.5007E-01  0.3415E-01
     -4.730  0.2009E-01  0.1538E-01  0.5100E-01  0.3486E-01
     -4.684  0.1755E-01  0.1453E-01  0.5181E-01  0.3553E-01
     -4.638  0.1423E-01  0.1420E-01  0.5246E-01  0.3618E-01
     -4.591  0.1077E-01  0.1473E-01  0.5296E-01  0.3686E-01
     -4.545  0.7795E-02  0.1619E-01  0.5332E-01  0.3761E-01
     -4.499  0.5602E-02  0.1828E-01  0.5358E-01  0.3845E-01
     -4.453  0.4078E-02  0.2047E-01  0.5376E-01  0.3939E-01
     -4.407  0.2915E-02  0.2215E-01  0.5390E-01  0.4041E-01
     -4.361  0.1894E-02  0.2283E-01  0.5399E-01  0.4147E-01
     -4.315  0.9896E-03  0.2235E-01  0.5403E-01  0.4250E-01
     -4.269  0.2977E-03  0.2103E-01  0.5405E-01  0.4347E-01
     -4.223 -0.1116E-03  0.1955E-01  0.5404E-01  0.4437E-01
     -4.176 -0.2632E-03  0.1862E-01  0.5403E-01  0.4523E-01
     -4.130 -0.2511E-03  0.1858E-01  0.5402E-01  0.4608E-01
     -4.084 -0.1750E-03  0.1924E-01  0.5401E-01  0.4697E-01
     -4.038 -0.9926E-04  0.2004E-01  0.5400E-01  0.4790E-01
     -3.992 -0.4764E-04  0.2048E-01  0.5400E-01  0.4884E-01
     -3.946 -0.1973E-04  0.2036E-01  0.5400E-01  0.4978E-01
     -3.900 -0.7136E-05  0.1968E-01  0.5400E-01  0.5069E-01
     -3.854 -0.2269E-05  0.1849E-01  0.5400E-01  0.5154E-01
     -3.808 -0.6405E-06  0.1669E-01  0.5400E-01  0.5231E-01
     -3.761 -0.1761E-06  0.1414E-01  0.5400E-01  0.5296E-01
     -3.715 -0.1184E-06  0.1095E-01  0.5400E-01  0.5347E-01
     -3.669 -0.3594E-06  0.7479E-02  0.5400E-01  0.5381E-01
     -3.623 -0.1325E-05  0.4280E-02  0.5400E-01  0.5401E-01
     -3.577 -0.4401E-05  0.1809E-02  0.5400E-01  0.5409E-01
     -3.531 -0.1289E-04  0.2608E-03  0.5400E-01  0.5410E-01
     -3.485 -0.3307E-04 -0.4610E-03  0.5400E-01  0.5408E-01
     -3.439 -0.7359E-04 -0.6229E-03  0.5399E-01  0.5405E-01
     -3.393 -0.1397E-03 -0.5104E-03  0.5399E-01  0.5403E-01
     -3.346 -0.2190E-03 -0.3284E-03  0.5398E-01  0.5401E-01
     -3.300 -0.2608E-03 -0.1782E-03  0.5397E-01  0.5401E-01
     -3.254 -0.1646E-03 -0.8612E-04  0.5396E-01  0.5400E-01
     -3.208  0.2000E-03 -0.4466E-04  0.5397E-01  0.5400E-01
     -3.162  0.9309E-03 -0.4180E-04  0.5401E-01  0.5400E-01
     -3.116  0.2015E-02 -0.7384E-04  0.5410E-01  0.5399E-01
     -3.070  0.3294E-02 -0.1435E-03  0.5426E-01  0.5399E-01
     -3.024  0.4508E-02 -0.2450E-03  0.5446E-01  0.5398E-01
     -2.977  0.5406E-02 -0.3367E-03  0.5471E-01  0.5396E-01
     -2.931  0.5833E-02 -0.3140E-03  0.5498E-01  0.5395E-01
     -2.885  0.5755E-02 -0.5760E-05  0.5525E-01  0.5395E-01
     -2.839  0.5255E-02  0.7723E-03  0.5549E-01  0.5398E-01
     -2.793  0.4530E-02  0.2105E-02  0.5570E-01  0.5408E-01
     -2.747  0.3871E-02  0.3859E-02  0.5588E-01  0.5426E-01
     -2.701  0.3584E-02  0.5642E-02  0.5604E-01  0.5452E-01
     -2.655  0.3848E-02  0.6931E-02  0.5622E-01  0.5484E-01
     -2.609  0.4621E-02  0.7317E-02  0.5643E-01  0.5517E-01
     -2.562  0.5675E-02  0.6743E-02  0.5669E-01  0.5549E-01
     -2.516  0.6726E-02  0.5567E-02  0.5700E-01  0.5574E-01
     -2.470  0.7535E-02  0.4389E-02  0.5735E-01  0.5594E-01
     -2.424  0.7936E-02  0.3735E-02  0.5772E-01  0.5612E-01
     -2.378  0.7806E-02  0.3819E-02  0.5808E-01  0.5629E-01
     -2.332  0.7071E-02  0.4512E-02  0.5840E-01  0.5650E-01
     -2.286  0.5771E-02  0.5512E-02  0.5867E-01  0.5676E-01
     -2.240  0.4100E-02  0.6528E-02  0.5886E-01  0.5706E-01
     -2.194  0.2381E-02  0.7352E-02  0.5897E-01  0.5740E-01
     -2.147  0.9598E-03  0.7815E-02  0.5901E-01  0.5776E-01
     -2.101  0.1036E-03  0.7745E-02  0.5902E-01  0.5811E-01
     -2.055 -0.5698E-04  0.7024E-02  0.5901E-01  0.5844E-01
     -2.009  0.4640E-03  0.5682E-02  0.5904E-01  0.5870E-01
     -1.963  0.1500E-02  0.3954E-02  0.5911E-01  0.5888E-01
     -1.917  0.2731E-02  0.2206E-02  0.5923E-01  0.5898E-01
     -1.871  0.3738E-02  0.7992E-03  0.5940E-01  0.5902E-01
     -1.825  0.4156E-02 -0.1900E-04  0.5960E-01  0.5902E-01
     -1.779  0.3838E-02 -0.1492E-03  0.5977E-01  0.5901E-01
     -1.732  0.2937E-02  0.3788E-03  0.5991E-01  0.5903E-01
     -1.686  0.1807E-02  0.1408E-02  0.5999E-01  0.5909E-01
     -1.640  0.8098E-03  0.2643E-02  0.6003E-01  0.5922E-01
     -1.594  0.1497E-03  0.3683E-02  0.6004E-01  0.5939E-01
     -1.548 -0.1601E-03  0.4157E-02  0.6003E-01  0.5958E-01
     -1.502 -0.2278E-03  0.3900E-02  0.6002E-01  0.5976E-01
     -1.456 -0.1848E-03  0.3037E-02  0.6001E-01  0.5990E-01
     -1.410 -0.1254E-03  0.1910E-02  0.6000E-01  0.5999E-01
     -1.364 -0.9780E-04  0.8881E-03  0.6000E-01  0.6003E-01
     -1.317 -0.1206E-03  0.1917E-03  0.5999E-01  0.6004E-01
     -1.271 -0.1960E-03 -0.1529E-03  0.5998E-01  0.6003E-01
     -1.225 -0.3030E-03 -0.2528E-03  0.5997E-01  0.6002E-01
     -1.179 -0.3717E-03 -0.2499E-03  0.5995E-01  0.6000E-01
     -1.133 -0.2593E-03 -0.2520E-03  0.5994E-01  0.5999E-01
     -1.087  0.2338E-03 -0.3062E-03  0.5995E-01  0.5998E-01
     -1.041  0.1279E-02 -0.3881E-03  0.6001E-01  0.5996E-01
     -0.995  0.2884E-02 -0.3886E-03  0.6014E-01  0.5994E-01
     -0.948  0.4782E-02 -0.1135E-03  0.6036E-01  0.5994E-01
     -0.902  0.6469E-02  0.6626E-03  0.6066E-01  0.5997E-01
     -0.856  0.7421E-02  0.2067E-02  0.6100E-01  0.6006E-01
     -0.810  0.7380E-02  0.3974E-02  0.6134E-01  0.6025E-01
     -0.764  0.6531E-02  0.5939E-02  0.6165E-01  0.6052E-01
     -0.718  0.5410E-02  0.7334E-02  0.6190E-01  0.6086E-01
     -0.672  0.4601E-02  0.7665E-02  0.6211E-01  0.6121E-01
     -0.626  0.4428E-02  0.6882E-02  0.6231E-01  0.6153E-01
     -0.580  0.4860E-02  0.5451E-02  0.6254E-01  0.6178E-01
     -0.533  0.5640E-02  0.4118E-02  0.6280E-01  0.6197E-01
     -0.487  0.6500E-02  0.3503E-02  0.6310E-01  0.6213E-01
     -0.441  0.7282E-02  0.3792E-02  0.6343E-01  0.6231E-01
     -0.395  0.7925E-02  0.4725E-02  0.6380E-01  0.6253E-01
     -0.349  0.8384E-02  0.5839E-02  0.6418E-01  0.6280E-01
     -0.303  0.8567E-02  0.6783E-02  0.6458E-01  0.6311E-01
     -0.257  0.8343E-02  0.7482E-02  0.6496E-01  0.6345E-01
     -0.211  0.7602E-02  0.8060E-02  0.6531E-01  0.6382E-01
     -0.165  0.6342E-02  0.8609E-02  0.6561E-01  0.6422E-01
     -0.118  0.4714E-02  0.9007E-02  0.6582E-01  0.6464E-01
     -0.072  0.3003E-02  0.8930E-02  0.6596E-01  0.6505E-01
     -0.026  0.1516E-02  0.8083E-02  0.6603E-01  0.6542E-01
      0.020  0.4631E-03  0.6451E-02  0.6605E-01  0.6572E-01
      0.066 -0.1151E-03  0.4369E-02  0.6605E-01  0.6592E-01
      0.112 -0.3182E-03  0.2353E-02  0.6603E-01  0.6603E-01
      0.158 -0.3045E-03  0.8241E-03  0.6602E-01  0.6607E-01
      0.204 -0.2116E-03 -0.6011E-04  0.6601E-01  0.6606E-01
      0.250 -0.1199E-03 -0.3977E-03  0.6600E-01  0.6605E-01
      0.297 -0.5771E-04 -0.4066E-03  0.6600E-01  0.6603E-01
      0.343 -0.2406E-04 -0.2885E-03  0.6600E-01  0.6601E-01
      0.389 -0.8777E-05 -0.1648E-03  0.6600E-01  0.6601E-01
      0.435 -0.2822E-05 -0.7955E-04  0.6600E-01  0.6600E-01
      0.481 -0.8026E-06 -0.3319E-04  0.6600E-01  0.6600E-01
      0.527 -0.2026E-06 -0.1211E-04  0.6600E-01  0.6600E-01
      0.573 -0.4550E-07 -0.3896E-05  0.6600E-01  0.6600E-01
      0.619 -0.9103E-08 -0.1110E-05  0.6600E-01  0.6600E-01
      0.665 -0.1625E-08 -0.2807E-06  0.6600E-01  0.6600E-01
      0.712 -0.2591E-09 -0.6325E-07  0.6600E-01  0.6600E-01
      0.758 -0.3693E-10 -0.1271E-07  0.6600E-01  0.6600E-01
      0.804 -0.4708E-11 -0.2282E-08  0.6600E-01  0.6600E-01
      0.850 -0.5372E-12 -0.3662E-09  0.6600E-01  0.6600E-01
      0.896 -0.5490E-13 -0.5258E-10  0.6600E-01  0.6600E-01
      0.942 -0.5027E-14 -0.6761E-11  0.6600E-01  0.6600E-01
      0.988 -0.4093E-15 -0.7786E-12  0.6600E-01  0.6600E-01
      1.034 -0.3371E-16 -0.8037E-13  0.6600E-01  0.6600E-01
      1.080  0.0000E+00 -0.7435E-14  0.6600E-01  0.6600E-01
      1.127  0.0000E+00 -0.6212E-15  0.6600E-01  0.6600E-01
      1.173  0.0000E+00 -0.4334E-16  0.6600E-01  0.6600E-01
      1.219  0.0000E+00 -0.4815E-17  0.6600E-01  0.6600E-01
      1.265  0.0000E+00  0.0000E+00  0.6600E-01  0.6600E-01
      1.311  0.0000E+00  0.0000E+00  0.6600E-01  0.6600E-01
      1.357  0.0000E+00  0.0000E+00  0.6600E-01  0.6600E-01
      1.403  0.0000E+00  0.0000E+00  0.6600E-01  0.6600E-01
      1.449  0.0000E+00  0.0000E+00  0.6600E-01  0.6600E-01
      1.496  0.0000E+00  0.0000E+00  0.6600E-01  0.6600E-01
      1.542  0.0000E+00  0.0000E+00  0.6600E-01  0.6600E-01
      1.588  0.0000E+00  0.0000E+00  0.6600E-01  0.6600E-01
      1.634  0.0000E+00  0.0000E+00  0.6600E-01  0.6600E-01
      1.680  0.0000E+00  0.0000E+00  0.6600E-01  0.6600E-01
      1.726  0.0000E+00  0.0000E+00  0.6600E-01  0.6600E-01
      1.772  0.0000E+00  0.0000E+00  0.6600E-01  0.6600E-01
      1.818  0.0000E+00  0.0000E+00  0.6600E-01  0.6600E-01
      1.864  0.0000E+00  0.0000E+00  0.6600E-01  0.6600E-01
      1.911  0.0000E+00  0.0000E+00  0.6600E-01  0.6600E-01
      1.957  0.0000E+00  0.0000E+00  0.6600E-01  0.6600E-01
