   10   10 1000    2
  0.1213273E+04  0.2386530E-08  0.2231731E-08  0.2277980E-08  0.5000000E-15
   1.0000000000000000E-004
  CAR 
 unknown system                          
    100      1     66
 
  0.1262379E-14  0.1262379E-14  0.1262379E-14  0.1000000E+01
    1       -9.877349     -9.793705   1.000000   1.000000
    2       -8.467499     -8.152874   1.000000   1.000000
    3       -8.308639     -7.917542   1.000000   1.000000
    4       -7.987016     -7.559488   1.000000   1.000000
    5       -7.877048     -7.318208   1.000000   1.000000
    6       -7.816778     -7.197749   1.000000   1.000000
    7       -7.607449     -7.010749   1.000000   1.000000
    8       -7.474840     -6.836980   1.000000   1.000000
    9       -7.387263     -6.783188   1.000000   1.000000
   10       -7.227577     -6.666303   1.000000   1.000000
   11       -7.173607     -6.636401   1.000000   1.000000
   12       -7.167573     -6.501205   1.000000   1.000000
   13       -7.065744     -6.385789   1.000000   1.000000
   14       -7.006076     -6.342651   1.000000   1.000000
   15       -6.892958     -6.328072   1.000000   1.000000
   16       -6.861663     -6.210557   1.000000   1.000000
   17       -6.774319     -6.177748   1.000000   1.000000
   18       -6.705179     -6.114486   1.000000   1.000000
   19       -6.538559     -6.065513   1.000000   1.000000
   20       -6.513842     -5.964084   1.000000   1.000000
   21       -6.459179     -5.817066   1.000000   1.000000
   22       -6.167851     -5.672827   1.000000   1.000000
   23       -6.105793     -5.621425   1.000000   1.000000
   24       -6.013101     -5.533804   1.000000   1.000000
   25       -5.962918     -5.401827   1.000000   1.000000
   26       -5.902914     -5.328581   1.000000   1.000000
   27       -5.849663     -5.252800   1.000000   1.000000
   28       -5.812565     -5.171705   1.000000   1.000000
   29       -5.753990     -5.138045   1.000000   1.000000
   30       -5.650171     -5.067917   1.000000   1.000000
   31       -5.630687     -4.997611   1.000000   1.000000
   32       -5.568594     -4.926142   1.000000   1.000000
   33       -5.538702     -4.850376   1.000000   1.000003
   34       -5.481023     -4.845545   1.000000   1.000003
   35       -5.465193     -4.750178   1.000000   1.000062
   36       -5.361738     -4.709333   1.000000   1.000192
   37       -5.353833     -4.601855   1.000000   1.002385
   38       -5.298896     -4.543984   1.000000   1.006978
   39       -5.284881     -4.487353   1.000000   1.016088
   40       -5.231022     -4.444994   1.000000   1.025543
   41       -5.168762     -4.385744   1.000000   1.035362
   42       -5.155617     -4.370343   1.000000   1.035018
   43       -5.111067     -4.318092   1.000000   1.013406
   44       -5.092681     -4.287970   1.000000   0.979475
   45       -5.056275     -4.238735   1.000000   0.878293
   46       -4.958137     -4.133383   1.000000   0.490156
   47       -4.935718     -4.087952   1.000000   0.304167
   48       -4.894789     -4.056115   1.000001   0.190959
   49       -4.855632     -4.018301   1.000002   0.085884
   50       -4.774494     -3.978455   1.000030   0.013548
   51       -4.756926     -3.880434   1.000051  -0.035075
   52       -4.700867     -3.858516   1.000239  -0.032273
   53       -4.682672     -3.802337   1.000381  -0.020013
   54       -4.484287     -3.732474   1.016719  -0.007585
   55       -3.018379     -2.685344  -0.000000  -0.000000
   56       -2.844590     -2.587233  -0.000000  -0.000000
   57       -2.588500     -2.326343  -0.000000  -0.000000
   58       -2.444940     -2.168637  -0.000000  -0.000000
   59       -2.323692     -2.055086  -0.000000  -0.000000
   60       -1.847017     -1.566114  -0.000000  -0.000000
   61       -0.904196     -0.737980  -0.000000  -0.000000
   62       -0.819135     -0.668780  -0.000000  -0.000000
   63       -0.579536     -0.388557  -0.000000  -0.000000
   64       -0.427901     -0.259675  -0.000000  -0.000000
   65       -0.308093     -0.103123  -0.000000  -0.000000
   66       -0.188410     -0.043361  -0.000000  -0.000000
