       N       E                     dE             d eps       ncg     rms          rms(c)
DAV:   1     0.691362908817E+03    0.69136E+03   -0.16245E+04   280   0.688E+02
DAV:   2     0.242231373689E+03   -0.44913E+03   -0.41695E+03   470   0.122E+02
DAV:   3     0.186798813522E+02   -0.22355E+03   -0.20703E+03   368   0.122E+02
DAV:   4    -0.378665559647E+02   -0.56546E+02   -0.47797E+02   384   0.553E+01
DAV:   5    -0.440036482200E+02   -0.61371E+01   -0.55342E+01   308   0.245E+01    0.266E+01
DAV:   6    -0.557008672278E+02   -0.11697E+02   -0.94579E+01   284   0.166E+02    0.513E+01
DAV:   7    -0.394255856147E+02    0.16275E+02   -0.53270E+01   340   0.776E+01    0.310E+01
DAV:   8    -0.394257604732E+02   -0.17486E-03   -0.32300E+01   336   0.789E+01    0.287E+01
DAV:   9    -0.430117255031E+02   -0.35860E+01   -0.26532E+01   340   0.722E+01    0.518E+01
DAV:  10    -0.388656532144E+02    0.41461E+01   -0.44611E+01   348   0.513E+01    0.327E+01
DAV:  11    -0.368759775574E+02    0.19897E+01   -0.68053E+00   332   0.454E+01    0.286E+01
DAV:  12    -0.360146365503E+02    0.86134E+00   -0.90314E+00   332   0.365E+01    0.225E+01
DAV:  13    -0.356536113372E+02    0.36103E+00   -0.46473E+00   350   0.337E+01    0.195E+01
DAV:  14    -0.357436074990E+02   -0.89996E-01   -0.28240E+00   336   0.244E+01    0.231E+01
DAV:  15    -0.351824607465E+02    0.56115E+00   -0.19374E+00   342   0.188E+01    0.106E+01
DAV:  16    -0.354414673641E+02   -0.25901E+00   -0.54480E-01   382   0.875E+00    0.555E+00
DAV:  17    -0.357630405004E+02   -0.32157E+00   -0.30874E-01   336   0.439E+00    0.475E+00
DAV:  18    -0.359576952727E+02   -0.19465E+00   -0.61408E-02   334   0.258E+00    0.408E+00
DAV:  19    -0.365061709545E+02   -0.54848E+00   -0.20176E-01   348   0.481E+00    0.213E+00
DAV:  20    -0.368739432004E+02   -0.36777E+00   -0.11724E-01   364   0.340E+00    0.296E+00
DAV:  21    -0.370595153364E+02   -0.18557E+00   -0.35247E-02   332   0.218E+00    0.213E+00
DAV:  22    -0.372876338486E+02   -0.22812E+00   -0.44269E-02   368   0.225E+00    0.144E+00
DAV:  23    -0.373654961589E+02   -0.77862E-01   -0.18601E-02   372   0.191E+00    0.587E-01
DAV:  24    -0.374520097342E+02   -0.86514E-01   -0.55989E-03   336   0.669E-01    0.669E-01
DAV:  25    -0.375364831545E+02   -0.84473E-01   -0.30872E-03   340   0.659E-01    0.362E-01
DAV:  26    -0.376349918789E+02   -0.98509E-01   -0.25584E-03   330   0.354E-01    0.217E-01
DAV:  27    -0.377182725740E+02   -0.83281E-01   -0.17154E-03   268   0.306E-01    0.177E-01
DAV:  28    -0.377944000737E+02   -0.76127E-01   -0.20054E-03   292   0.283E-01    0.110E-01
DAV:  29    -0.378384786675E+02   -0.44079E-01   -0.79795E-04   252   0.156E-01    0.593E-02
DAV:  30    -0.378714619429E+02   -0.32983E-01   -0.58472E-04   252   0.930E-02    0.876E-02
DAV:  31    -0.378945204768E+02   -0.23059E-01   -0.30112E-04   230   0.117E-01    0.421E-02
DAV:  32    -0.379151750088E+02   -0.20655E-01   -0.41761E-04   220   0.850E-02    0.478E-02
DAV:  33    -0.379291181083E+02   -0.13943E-01   -0.35110E-04   236   0.726E-02    0.390E-02
DAV:  34    -0.379355330640E+02   -0.64150E-02   -0.99607E-05   190   0.487E-02    0.328E-02
DAV:  35    -0.379386961508E+02   -0.31631E-02   -0.61100E-05   176   0.432E-02    0.208E-02
DAV:  36    -0.379408751896E+02   -0.21790E-02   -0.49688E-05   188   0.388E-02    0.138E-02
DAV:  37    -0.379423212133E+02   -0.14460E-02   -0.42032E-05   180   0.272E-02    0.111E-02
DAV:  38    -0.379435453865E+02   -0.12242E-02   -0.35310E-05   186   0.224E-02    0.863E-03
DAV:  39    -0.379442920275E+02   -0.74664E-03   -0.25788E-05   184   0.188E-02    0.103E-02
DAV:  40    -0.379446488758E+02   -0.35685E-03   -0.16157E-05   176   0.150E-02    0.532E-03
DAV:  41    -0.379448806650E+02   -0.23179E-03   -0.10238E-05   176   0.110E-02    0.680E-03
DAV:  42    -0.379450393448E+02   -0.15868E-03   -0.59370E-06   168   0.973E-03    0.374E-03
DAV:  43    -0.379452106914E+02   -0.17135E-03   -0.62283E-06   170   0.851E-03    0.332E-03
DAV:  44    -0.379453610221E+02   -0.15033E-03   -0.47992E-06   174   0.812E-03    0.241E-03
DAV:  45    -0.379454307165E+02   -0.69694E-04   -0.28892E-06   172   0.677E-03
   1 F= -.37945431E+02 E0= -.37951717E+02  d E =-.379454E+02  mag=     8.0368
       N       E                     dE             d eps       ncg     rms          rms(c)
DAV:   1    -0.379456909239E+02   -0.32990E-03   -0.10297E-01   264   0.115E+00    0.116E-01
DAV:   2    -0.379466376996E+02   -0.94678E-03   -0.50598E-03   396   0.921E-01    0.733E-01
DAV:   3    -0.379449725944E+02    0.16651E-02   -0.41212E-03   298   0.977E-01    0.192E-01
DAV:   4    -0.379459393838E+02   -0.96679E-03   -0.15522E-03   234   0.467E-01    0.324E-01
DAV:   5    -0.379456216914E+02    0.31769E-03   -0.95589E-04   178   0.381E-01    0.771E-02
DAV:   6    -0.379458588023E+02   -0.23711E-03   -0.14011E-04   162   0.184E-01    0.102E-01
DAV:   7    -0.379458241913E+02    0.34611E-04   -0.11427E-04   154   0.147E-01
   2 F= -.37945824E+02 E0= -.37952024E+02  d E =-.393475E-03  mag=     8.0362
       N       E                     dE             d eps       ncg     rms          rms(c)
DAV:   1    -0.379456535446E+02    0.20526E-03   -0.26908E-01   264   0.186E+00    0.190E-01
DAV:   2    -0.379482784271E+02   -0.26249E-02   -0.11351E-02   396   0.149E+00    0.119E+00
DAV:   3    -0.379445889703E+02    0.36895E-02   -0.93981E-03   332   0.158E+00    0.314E-01
DAV:   4    -0.379462516589E+02   -0.16627E-02   -0.40679E-03   346   0.732E-01    0.484E-01
DAV:   5    -0.379456699366E+02    0.58172E-03   -0.26371E-03   262   0.604E-01    0.149E-01
DAV:   6    -0.379460734525E+02   -0.40352E-03   -0.55402E-04   188   0.360E-01    0.234E-01
DAV:   7    -0.379459062217E+02    0.16723E-03   -0.39772E-04   172   0.283E-01    0.789E-02
DAV:   8    -0.379461038219E+02   -0.19760E-03   -0.21980E-04   172   0.213E-01    0.149E-01
DAV:   9    -0.379460525210E+02    0.51301E-04   -0.15574E-04   174   0.215E-01
   3 F= -.37946053E+02 E0= -.37952265E+02  d E =-.621804E-03  mag=     8.0357
