 vasp.6.1.2 22Jul20 (build Aug  2 2021 21:04:21) gamma-only                      
 executed on             LinuxPGI date 2021.12.23  06:17:21
 running on   16 total cores
 distrk:  each k-point on   16 cores,    1 groups
 distr:  one band on NCORE=   8 cores,    2 groups


--------------------------------------------------------------------------------------------------------


 INCAR:
 POTCAR:    PAW_PBE Ni 02Aug2007                  
 POTCAR:    PAW_PBE Pd 04Jan2005                  
 -----------------------------------------------------------------------------
|                                                                             |
|           W    W    AA    RRRRR   N    N  II  N    N   GGGG   !!!           |
|           W    W   A  A   R    R  NN   N  II  NN   N  G    G  !!!           |
|           W    W  A    A  R    R  N N  N  II  N N  N  G       !!!           |
|           W WW W  AAAAAA  RRRRR   N  N N  II  N  N N  G  GGG   !            |
|           WW  WW  A    A  R   R   N   NN  II  N   NN  G    G                |
|           W    W  A    A  R    R  N    N  II  N    N   GGGG   !!!           |
|                                                                             |
|     You use a magnetic or noncollinear calculation, but did not specify     |
|     the initial magnetic moment with the MAGMOM tag. Note that a            |
|     default of 1 will be used for all atoms. This ferromagnetic setup       |
|     may break the symmetry of the crystal, in particular it may rule        |
|     out finding an antiferromagnetic solution. Thence, we recommend         |
|     setting the initial magnetic moment manually or verifying carefully     |
|     that this magnetic setup is desired.                                    |
|                                                                             |
 -----------------------------------------------------------------------------

 POTCAR:    PAW_PBE Ni 02Aug2007                  
   SHA256 =  0534bc51ca8003dfef23f56753fef9fdd3e22eac8d719fccacb59f3e6b7a69c7 Ni/POTCAR             
   COPYR  = (c) Copyright 02Aug2007 Georg Kresse                                                    
   COPYR  = This file is part of the software VASP. Any use, copying, and all other rights are regul
   COPYR  = If you do not have a valid VASP license, you may not use, copy or distribute this file. 
   VRHFIN =Ni:                                                                                      
   LEXCH  = PE                                                                                      
   EATOM  =  1077.6739 eV,   79.2068 Ry                                                             
                                                                                                    
   TITEL  = PAW_PBE Ni 02Aug2007                                                                    
   LULTRA =        F    use ultrasoft PP ?                                                          
   IUNSCR =        1    unscreen: 0-lin 1-nonlin 2-no                                               
   RPACOR =    2.000    partial core radius                                                         
   POMASS =   58.690; ZVAL   =   10.000    mass and valenz                                          
   RCORE  =    2.300    outmost cutoff radius                                                       
   RWIGS  =    2.430; RWIGS  =    1.286    wigner-seitz radius (au A)                               
   ENMAX  =  269.532; ENMIN  =  202.149 eV                                                          
   RCLOC  =    1.201    cutoff for local pot                                                        
   LCOR   =        T    correct aug charges                                                         
   LPAW   =        T    paw PP                                                                      
   EAUG   =  544.565                                                                                
   DEXC   =    0.000                                                                                
   RMAX   =    2.357    core radius for proj-oper                                                   
   RAUG   =    1.300    factor for augmentation sphere                                              
   RDEP   =    2.390    radius for radial grids                                                     
   RDEPT  =    1.838    core radius for aug-charge                                                  
                                                                                                    
   Atomic configuration                                                                             
    9 entries                                                                                       
     n  l   j            E        occ.                                                              
     1  0  0.50     -8206.4253   2.0000                                                             
     2  0  0.50      -976.1748   2.0000                                                             
     2  1  1.50      -839.0571   6.0000                                                             
     3  0  0.50      -105.9991   2.0000                                                             
     3  1  1.50       -66.4603   6.0000                                                             
     3  2  2.50        -4.6458   9.0000                                                             
     4  0  0.50        -4.4926   1.0000                                                             
     4  1  1.50        -4.0817   0.0000                                                             
     4  3  2.50        -1.3606   0.0000                                                             
   Description                                                                                      
     l       E           TYP  RCUT    TYP  RCUT                                                     
     2     -4.6457903     23  2.300                                                                 
     2     -6.0063729     23  2.300                                                                 
     0     -4.4925590     23  2.300                                                                 
     0      5.0102601     23  2.300                                                                 
     1     -2.7211652     23  2.300                                                                 
     1     16.5183231     23  2.300                                                                 
  local pseudopotential read in
  partial core-charges read in
  partial kinetic energy density read in
  atomic valenz-charges read in
  non local Contribution for L=            2  read in
    real space projection operators read in
  non local Contribution for L=            2  read in
    real space projection operators read in
  non local Contribution for L=            0  read in
    real space projection operators read in
  non local Contribution for L=            0  read in
    real space projection operators read in
  non local Contribution for L=            1  read in
    real space projection operators read in
  non local Contribution for L=            1  read in
    real space projection operators read in
    PAW grid and wavefunctions read in
 
   number of l-projection  operators is LMAX  =            6
   number of lm-projection operators is LMMAX =           18
 
 POTCAR:    PAW_PBE Pd 04Jan2005                  
   SHA256 =  dd6f6f02930356371984e2b707ff5e456046761dc76b07c1eba30abd15eb3c39 Pd/POTCAR             
   COPYR  = (c) Copyright 04Jan2005 Georg Kresse                                                    
   COPYR  = This file is part of the software VASP. Any use, copying, and all other rights are regul
   COPYR  = If you do not have a valid VASP license, you may not use, copy or distribute this file. 
   VRHFIN =Pd : s1 d9                                                                               
   LEXCH  = PE                                                                                      
   EATOM  =   809.7530 eV,   59.5152 Ry                                                             
                                                                                                    
   TITEL  = PAW_PBE Pd 04Jan2005                                                                    
   LULTRA =        F    use ultrasoft PP ?                                                          
   IUNSCR =        1    unscreen: 0-lin 1-nonlin 2-no                                               
   RPACOR =    2.000    partial core radius                                                         
   POMASS =  106.420; ZVAL   =   10.000    mass and valenz                                          
   RCORE  =    2.600    outmost cutoff radius                                                       
   RWIGS  =    2.710; RWIGS  =    1.434    wigner-seitz radius (au A)                               
   ENMAX  =  250.925; ENMIN  =  188.194 eV                                                          
   ICORE  =        3    local potential                                                             
   LCOR   =        T    correct aug charges                                                         
   LPAW   =        T    paw PP                                                                      
   EAUG   =  416.230                                                                                
   DEXC   =    0.000                                                                                
   RMAX   =    2.653    core radius for proj-oper                                                   
   RAUG   =    1.300    factor for augmentation sphere                                              
   RDEP   =    2.734    radius for radial grids                                                     
   RDEPT  =    2.103    core radius for aug-charge                                                  
                                                                                                    
   Atomic configuration                                                                             
   12 entries                                                                                       
     n  l   j            E        occ.                                                              
     1  0  0.50    -24164.6631   2.0000                                                             
     2  0  0.50     -3530.9218   2.0000                                                             
     2  1  1.50     -3165.6822   6.0000                                                             
     3  0  0.50      -639.4577   2.0000                                                             
     3  1  1.50      -519.4532   6.0000                                                             
     3  2  2.50      -328.9757  10.0000                                                             
     4  0  0.50       -88.7014   2.0000                                                             
     4  1  1.50       -54.4540   6.0000                                                             
     4  2  2.50        -6.6878   9.0000                                                             
     5  0  0.50        -4.3543   1.0000                                                             
     5  1  0.50        -1.3606   0.0000                                                             
     4  3  2.50        -1.3606   0.0000                                                             
   Description                                                                                      
     l       E           TYP  RCUT    TYP  RCUT                                                     
     2     -6.6878251     23  2.400                                                                 
     2     -8.0484077     23  2.400                                                                 
     0     -4.3542939     23  2.400                                                                 
     0      4.3406793     23  2.400                                                                 
     1     -4.0817478     23  2.600                                                                 
     1     15.8380318     23  2.600                                                                 
     3     -4.0817478     23  2.400                                                                 
  local pseudopotential read in
  partial core-charges read in
  partial kinetic energy density read in
  atomic valenz-charges read in
  non local Contribution for L=            2  read in
    real space projection operators read in
  non local Contribution for L=            2  read in
    real space projection operators read in
  non local Contribution for L=            0  read in
    real space projection operators read in
  non local Contribution for L=            0  read in
    real space projection operators read in
  non local Contribution for L=            1  read in
    real space projection operators read in
  non local Contribution for L=            1  read in
    real space projection operators read in
    PAW grid and wavefunctions read in
 
   number of l-projection  operators is LMAX  =            6
   number of lm-projection operators is LMMAX =           18
 
  PAW_PBE Ni 02Aug2007                  :
 energy of atom  1       EATOM=-1077.6739
 kinetic energy error for atom=    0.0101 (will be added to EATOM!!)
  PAW_PBE Pd 04Jan2005                  :
 energy of atom  2       EATOM= -809.7530
 kinetic energy error for atom=    0.0091 (will be added to EATOM!!)
 
 
 POSCAR: Ni Pd
  positions in cartesian coordinates
  No initial velocities read in
 exchange correlation table for  LEXCH =        8
   RHO(1)=    0.500       N(1)  =     2000
   RHO(2)=  100.500       N(2)  =     4000
 


--------------------------------------------------------------------------------------------------------


 ion  position               nearest neighbor table
   1  0.450  0.660  0.552-   6 2.30   8 2.41   5 2.42   2 2.47   3 2.52  10 2.53
   2  0.478  0.561  0.513-   4 2.30   6 2.32   9 2.47   1 2.47  10 2.49   5 2.50   3 2.54   7 2.62

   3  0.552  0.636  0.543-   6 2.33   8 2.43   5 2.43   9 2.46   1 2.52   2 2.54   7 2.61
   4  0.473  0.565  0.412-   2 2.30   5 2.32   7 2.43  10 2.45
   5  0.495  0.656  0.457-   4 2.32   1 2.42   3 2.43   8 2.44   2 2.50  10 2.53   7 2.56
   6  0.493  0.589  0.610-   1 2.30   2 2.32   3 2.33   9 2.44
   7  0.568  0.572  0.449-   4 2.43   5 2.56   3 2.61   2 2.62   9 2.76
   8  0.516  0.736  0.525-   1 2.41   3 2.43   5 2.44
   9  0.565  0.529  0.562-   6 2.44   3 2.46   2 2.47   7 2.76
  10  0.397  0.614  0.467-   4 2.45   2 2.49   5 2.53   1 2.53
 

IMPORTANT INFORMATION: All symmetrisations will be switched off!
NOSYMM: (Re-)initialisation of all symmetry stuff for point group C_1.


----------------------------------------------------------------------------------------

                                     Primitive cell                                     

  volume of cell :   12132.7339

  direct lattice vectors                    reciprocal lattice vectors
    23.865299258  0.000000000  0.000000000     0.041901842  0.000000000  0.000000000
     0.000000000 22.317307000  0.000000000     0.000000000  0.044808274  0.000000000
     0.000000000  0.000000000 22.779804850     0.000000000  0.000000000  0.043898532

  length of vectors
    23.865299258 22.317307000 22.779804850     0.041901842  0.044808274  0.043898532

  position of ions in fractional coordinates (direct lattice)
     0.449631366  0.660111833  0.552010251
     0.477733142  0.561206800  0.512855808
     0.552361569  0.636380585  0.542812578
     0.472532907  0.565458772  0.412182293
     0.494675954  0.655603871  0.456915376
     0.492968249  0.589323738  0.609590046
     0.568175751  0.572265688  0.448599049
     0.516181585  0.736491767  0.525089460
     0.564889897  0.528879588  0.562066268
     0.396778347  0.613857988  0.466795474

  ion indices of the primitive-cell ions
   primitive index   ion index
                 1           1
                 2           2
                 3           3
                 4           4
                 5           5
                 6           6
                 7           7
                 8           8
                 9           9
                10          10

----------------------------------------------------------------------------------------

 
 
 KPOINTS: KPOINTS created by Atomic Simulation Env

Automatic generation of k-mesh.
Space group operators:
 irot       det(A)        alpha          n_x          n_y          n_z        tau_x        tau_y        tau_z
    1     1.000000     0.000000     1.000000     0.000000     0.000000     0.000000     0.000000     0.000000
 
 Subroutine IBZKPT returns following result:
 ===========================================
 
 Found      1 irreducible k-points:
 
 Following reciprocal coordinates:
            Coordinates               Weight
  0.000000  0.000000  0.000000      1.000000
 
 Following cartesian coordinates:
            Coordinates               Weight
  0.000000  0.000000  0.000000      1.000000
 


--------------------------------------------------------------------------------------------------------




 Dimension of arrays:
   k-points           NKPTS =      1   k-points in BZ     NKDIM =      1   number of bands    NBANDS=     66
   number of dos      NEDOS =    301   number of ions     NIONS =     10
   non local maximal  LDIM  =      6   non local SUM 2l+1 LMDIM =     18
   total plane-waves  NPLWV = ******
   max r-space proj   IRMAX =      1   max aug-charges    IRDMAX=   6217
   dimension x,y,z NGX =   120 NGY =  112 NGZ =  112
   dimension x,y,z NGXF=   240 NGYF=  224 NGZF=  224
   support grid    NGXF=   240 NGYF=  224 NGZF=  224
   ions per type =               6   4
   NGX,Y,Z   is equivalent  to a cutoff of   8.36,  8.34,  8.17 a.u.
   NGXF,Y,Z  is equivalent  to a cutoff of  16.72, 16.69, 16.35 a.u.

 SYSTEM =  unknown system                          
 POSCAR =  Ni Pd                                   

 Startparameter for this run:
   NWRITE =      2    write-flag & timer
   PREC   = normal    normal or accurate (medium, high low for compatibility)
   ISTART =      0    job   : 0-new  1-cont  2-samecut
   ICHARG =      2    charge: 1-file 2-atom 10-const
   ISPIN  =      2    spin polarized calculation?
   LNONCOLLINEAR =      F non collinear calculations
   LSORBIT =      F    spin-orbit coupling
   INIWAV =      1    electr: 0-lowe 1-rand  2-diag
   LASPH  =      F    aspherical Exc in radial PAW
   METAGGA=      F    non-selfconsistent MetaGGA calc.

 Electronic Relaxation 1
   ENCUT  =  400.0 eV  29.40 Ry    5.42 a.u.  38.92 36.39 37.15*2*pi/ulx,y,z
   ENINI  =  400.0     initial cutoff
   ENAUG  =  544.6 eV  augmentation charge cutoff
   NELM   =     60;   NELMIN=  2; NELMDL=  0     # of ELM steps 
   EDIFF  = 0.1E-03   stopping-criterion for ELM
   LREAL  =      F    real-space projection
   NLSPLINE    = F    spline interpolate recip. space projectors
   LCOMPAT=      F    compatible to vasp.4.4
   GGA_COMPAT  = T    GGA compatible to vasp.4.4-vasp.4.6
   LMAXPAW     = -100 max onsite density
   LMAXMIX     =    2 max onsite mixed and CHGCAR
   VOSKOWN=      0    Vosko Wilk Nusair interpolation
   ROPT   =    0.00000   0.00000
 Ionic relaxation
   EDIFFG = 0.1E-02   stopping-criterion for IOM
   NSW    =   1000    number of steps for IOM
   NBLOCK =      1;   KBLOCK =   1000    inner block; outer block 
   IBRION =      2    ionic relax: 0-MD 1-quasi-New 2-CG
   NFREE  =      1    steps in history (QN), initial steepest desc. (CG)
   ISIF   =      0    stress and relaxation
   IWAVPR =     11    prediction:  0-non 1-charg 2-wave 3-comb
   ISYM   =      0    0-nonsym 1-usesym 2-fastsym
   LCORR  =      T    Harris-Foulkes like correction to forces

   POTIM  = 0.5000    time-step for ionic-motion
   TEIN   =    0.0    initial temperature
   TEBEG  =    0.0;   TEEND  =   0.0 temperature during run
   SMASS  =  -3.00    Nose mass-parameter (am)
   estimated Nose-frequenzy (Omega)   =  0.10E-29 period in steps = 0.13E+47 mass=  -0.130E-25a.u.
   SCALEE = 1.0000    scale energy and forces
   NPACO  =    256;   APACO  = 16.0  distance and # of slots for P.C.
   PSTRESS=    0.0 pullay stress

  Mass of Ions in am
   POMASS =  58.69106.42
  Ionic Valenz
   ZVAL   =  10.00 10.00
  Atomic Wigner-Seitz radii
   RWIGS  =  -1.00 -1.00
  virtual crystal weights 
   VCA    =   1.00  1.00
   NELECT =     100.0000    total number of electrons
   NUPDOWN=      -1.0000    fix difference up-down

 DOS related values:
   EMIN   =  10.00;   EMAX   =-10.00  energy-range for DOS
   EFERMI =   0.00
   ISMEAR =     1;   SIGMA  =   0.20  broadening in eV -4-tet -1-fermi 0-gaus

 Electronic relaxation 2 (details)
   IALGO  =     38    algorithm
   LDIAG  =      T    sub-space diagonalisation (order eigenvalues)
   LSUBROT=      F    optimize rotation matrix (better conditioning)
   TURBO    =      0    0=normal 1=particle mesh
   IRESTART =      0    0=no restart 2=restart with 2 vectors
   NREBOOT  =      0    no. of reboots
   NMIN     =      0    reboot dimension
   EREF     =   0.00    reference energy to select bands
   IMIX   =      4    mixing-type and parameters
     AMIX     =   0.40;   BMIX     =  1.00
     AMIX_MAG =   1.60;   BMIX_MAG =  1.00
     AMIN     =   0.10
     WC   =   100.;   INIMIX=   1;  MIXPRE=   1;  MAXMIX= -45

 Intra band minimization:
   WEIMIN = 0.0010     energy-eigenvalue tresh-hold
   EBREAK =  0.38E-06  absolut break condition
   DEPER  =   0.30     relativ break condition  

   TIME   =   0.40     timestep for ELM

  volume/ion in A,a.u.               =    1213.27      8187.57
  Fermi-wavevector in a.u.,A,eV,Ry     =   0.330691  0.624915  1.487883  0.109356
  Thomas-Fermi vector in A             =   1.226210
 
 Write flags
   LWAVE        =      F    write WAVECAR
   LDOWNSAMPLE  =      F    k-point downsampling of WAVECAR
   LCHARG       =      F    write CHGCAR
   LVTOT        =      F    write LOCPOT, total local potential
   LVHAR        =      F    write LOCPOT, Hartree potential only
   LELF         =      F    write electronic localiz. function (ELF)
   LORBIT       =      0    0 simple, 1 ext, 2 COOP (PROOUT), +10 PAW based schemes


 Dipole corrections
   LMONO  =      F    monopole corrections only (constant potential shift)
   LDIPOL =      F    correct potential (dipole corrections)
   IDIPOL =      0    1-x, 2-y, 3-z, 4-all directions 
   EPSILON=  1.0000000 bulk dielectric constant

 Exchange correlation treatment:
   GGA     =    PE    GGA type
   LEXCH   =     8    internal setting for exchange type
   VOSKOWN=      0    Vosko Wilk Nusair interpolation
   LHFCALC =     F    Hartree Fock is set to
   LHFONE  =     F    Hartree Fock one center treatment
   AEXX    =    0.0000 exact exchange contribution

 Linear response parameters
   LEPSILON=     F    determine dielectric tensor
   LRPA    =     F    only Hartree local field effects (RPA)
   LNABLA  =     F    use nabla operator in PAW spheres
   LVEL    =     F    velocity operator in full k-point grid
   LINTERFAST=   F  fast interpolation
   KINTER  =     0    interpolate to denser k-point grid
   CSHIFT  =0.1000    complex shift for real part using Kramers Kronig
   OMEGAMAX=  -1.0    maximum frequency
   DEG_THRESHOLD= 0.2000000E-02 threshold for treating states as degnerate
   RTIME   =   -0.100 relaxation time in fs
  (WPLASMAI=    0.000 imaginary part of plasma frequency in eV, 0.658/RTIME)
   DFIELD  = 0.0000000 0.0000000 0.0000000 field for delta impulse in time
 
 Orbital magnetization related:
   ORBITALMAG=     F  switch on orbital magnetization
   LCHIMAG   =     F  perturbation theory with respect to B field
   DQ        =  0.001000  dq finite difference perturbation B field
   LLRAUG    =     F  two centre corrections for induced B field



--------------------------------------------------------------------------------------------------------


 conjugate gradient relaxation of ions
 charge density and potential will be updated during run
 spin polarized calculation
 Variant of blocked Davidson
 Davidson routine will perform the subspace rotation
 perform sub-space diagonalisation
    after iterative eigenvector-optimisation
 modified Broyden-mixing scheme, WC =      100.0
 initial mixing is a Kerker type mixing with AMIX =  0.4000 and BMIX =      1.0000
 Hartree-type preconditioning will be used
 using additional bands            16
 reciprocal scheme for non local part
 use partial core corrections
 calculate Harris-corrections to forces 
   (improved forces if not selfconsistent)
 use gradient corrections 
 use of overlap-Matrix (Vanderbilt PP)
 Methfessel and Paxton  Order N= 1 SIGMA  =   0.20


--------------------------------------------------------------------------------------------------------


  energy-cutoff  :      400.00
  volume of cell :    12132.73
      direct lattice vectors                 reciprocal lattice vectors
    23.865299258  0.000000000  0.000000000     0.041901842  0.000000000  0.000000000
     0.000000000 22.317307000  0.000000000     0.000000000  0.044808274  0.000000000
     0.000000000  0.000000000 22.779804850     0.000000000  0.000000000  0.043898532

  length of vectors
    23.865299258 22.317307000 22.779804850     0.041901842  0.044808274  0.043898532


 
 k-points in units of 2pi/SCALE and weight: KPOINTS created by Atomic Simulation Env
   0.00000000  0.00000000  0.00000000       1.000
 
 k-points in reciprocal lattice and weights: KPOINTS created by Atomic Simulation Env
   0.00000000  0.00000000  0.00000000       1.000
 
 position of ions in fractional coordinates (direct lattice) 
   0.44963137  0.66011183  0.55201025
   0.47773314  0.56120680  0.51285581
   0.55236157  0.63638058  0.54281258
   0.47253291  0.56545877  0.41218229
   0.49467595  0.65560387  0.45691538
   0.49296825  0.58932374  0.60959005
   0.56817575  0.57226569  0.44859905
   0.51618158  0.73649177  0.52508946
   0.56488990  0.52887959  0.56206627
   0.39677835  0.61385799  0.46679547
 
 position of ions in cartesian coordinates  (Angst):
  10.73058711 14.73191843 12.57468578
  11.40124440 12.52462445 11.68275523
  13.18227414 14.20230088 12.36516459
  11.27713923 12.61951700  9.38943220
  11.80558968 14.63131285 10.40844310
  11.76483478 13.15211879 13.88634229
  13.55968434 12.77142903 10.21899879
  12.31882799 16.43651286 11.96143542
  13.48126645 11.80316814 12.80375989
   9.46923399 13.69965718 10.63350980
 


--------------------------------------------------------------------------------------------------------


 use parallel FFT for orbitals z direction half grid
 k-point   1 :   0.0000 0.0000 0.0000  plane waves:  110222

 maximum and minimum number of plane-waves per node :     13783    13773

 maximum number of plane-waves:    110222
 maximum index in each direction: 
   IXMAX=   38   IYMAX=   36   IZMAX=   37
   IXMIN=  -38   IYMIN=  -36   IZMIN=    0


 parallel 3D FFT for wavefunctions:
    minimum data exchange during FFTs selected (reduces bandwidth)
 parallel 3D FFT for charge:
    minimum data exchange during FFTs selected (reduces bandwidth)


 total amount of memory used by VASP MPI-rank0   156079. kBytes
=======================================================================

   base      :      30000. kBytes
   nonl-proj :       6175. kBytes
   fftplans  :      29552. kBytes
   grid      :      75747. kBytes
   one-center:         31. kBytes
   wavefun   :      14574. kBytes
 
     INWAV:  cpu time    0.0000: real time    0.0000
 Broyden mixing: mesh for mixing (old mesh)
   NGX = 77   NGY = 73   NGZ = 75
  (NGX  =240   NGY  =224   NGZ  =224)
  gives a total of 421575 points

 initial charge density was supplied:
 charge density of overlapping atoms calculated
 number of electron     100.0000000 magnetization      10.0000000
 keeping initial charge density in first step


--------------------------------------------------------------------------------------------------------


 Maximum index for augmentation-charges           389 (set IRDMAX)


--------------------------------------------------------------------------------------------------------


 First call to EWALD:  gamma=   0.077
 Maximum number of real-space cells 3x 3x 3
 Maximum number of reciprocal cells 3x 3x 3

    FEWALD:  cpu time    0.0012: real time    0.0012


--------------------------------------- Iteration      1(   1)  ---------------------------------------


    POTLOK:  cpu time    2.4820: real time    2.4928
    SETDIJ:  cpu time    0.0240: real time    0.0240
     EDDAV:  cpu time    6.3020: real time    6.3102
       DOS:  cpu time    0.0009: real time    0.0008
    --------------------------------------------
      LOOP:  cpu time    8.8089: real time    8.8279

 eigenvalue-minimisations  :   280
 total energy-change (2. order) : 0.6913629E+03  (-0.1624461E+04)
 number of electron     100.0000000 magnetization      10.0000000
 augmentation part      100.0000000 magnetization      10.0000000

 Free energy of the ion-electron system (eV)
  ---------------------------------------------------
  alpha Z        PSCENC =         4.67081296
  Ewald energy   TEWEN  =     13023.40248028
  -Hartree energ DENC   =    -21994.33341418
  -exchange      EXHF   =         0.00000000
  -V(xc)+E(xc)   XCENC  =        63.17664091
  PAW double counting   =      9003.59075477    -9155.75339974
  entropy T*S    EENTRO =         0.01490104
  eigenvalues    EBANDS =        41.63553968
  atomic energy  EATOM  =      9704.95859309
  Solvation  Ediel_sol  =         0.00000000
  ---------------------------------------------------
  free energy    TOTEN  =       691.36290882 eV

  energy without entropy =      691.34800778  energy(sigma->0) =      691.35794180


--------------------------------------------------------------------------------------------------------




--------------------------------------- Iteration      1(   2)  ---------------------------------------


     EDDAV:  cpu time    9.4535: real time    9.4674
       DOS:  cpu time    0.0010: real time    0.0010
    --------------------------------------------
      LOOP:  cpu time    9.4545: real time    9.4685

 eigenvalue-minimisations  :   470
 total energy-change (2. order) :-0.4491315E+03  (-0.4169505E+03)
 number of electron     100.0000000 magnetization      10.0000000
 augmentation part      100.0000000 magnetization      10.0000000

 Free energy of the ion-electron system (eV)
  ---------------------------------------------------
  alpha Z        PSCENC =         4.67081296
  Ewald energy   TEWEN  =     13023.40248028
  -Hartree energ DENC   =    -21994.33341418
  -exchange      EXHF   =         0.00000000
  -V(xc)+E(xc)   XCENC  =        63.17664091
  PAW double counting   =      9003.59075477    -9155.75339974
  entropy T*S    EENTRO =        -0.00066192
  eigenvalues    EBANDS =      -407.48043249
  atomic energy  EATOM  =      9704.95859309
  Solvation  Ediel_sol  =         0.00000000
  ---------------------------------------------------
  free energy    TOTEN  =       242.23137369 eV

  energy without entropy =      242.23203561  energy(sigma->0) =      242.23159433


--------------------------------------------------------------------------------------------------------




--------------------------------------- Iteration      1(   3)  ---------------------------------------


     EDDAV:  cpu time    7.7838: real time    7.7964
       DOS:  cpu time    0.0010: real time    0.0010
    --------------------------------------------
      LOOP:  cpu time    7.7849: real time    7.7975

 eigenvalue-minimisations  :   368
 total energy-change (2. order) :-0.2235515E+03  (-0.2070275E+03)
 number of electron     100.0000000 magnetization      10.0000000
 augmentation part      100.0000000 magnetization      10.0000000

 Free energy of the ion-electron system (eV)
  ---------------------------------------------------
  alpha Z        PSCENC =         4.67081296
  Ewald energy   TEWEN  =     13023.40248028
  -Hartree energ DENC   =    -21994.33341418
  -exchange      EXHF   =         0.00000000
  -V(xc)+E(xc)   XCENC  =        63.17664091
  PAW double counting   =      9003.59075477    -9155.75339974
  entropy T*S    EENTRO =        -0.01510148
  eigenvalues    EBANDS =      -631.01748527
  atomic energy  EATOM  =      9704.95859309
  Solvation  Ediel_sol  =         0.00000000
  ---------------------------------------------------
  free energy    TOTEN  =        18.67988135 eV

  energy without entropy =       18.69498283  energy(sigma->0) =       18.68491518


--------------------------------------------------------------------------------------------------------




--------------------------------------- Iteration      1(   4)  ---------------------------------------


     EDDAV:  cpu time    8.0008: real time    8.0086
       DOS:  cpu time    0.0010: real time    0.0010
    --------------------------------------------
      LOOP:  cpu time    8.0018: real time    8.0096

 eigenvalue-minimisations  :   384
 total energy-change (2. order) :-0.5654644E+02  (-0.4779735E+02)
 number of electron     100.0000000 magnetization      10.0000000
 augmentation part      100.0000000 magnetization      10.0000000

 Free energy of the ion-electron system (eV)
  ---------------------------------------------------
  alpha Z        PSCENC =         4.67081296
  Ewald energy   TEWEN  =     13023.40248028
  -Hartree energ DENC   =    -21994.33341418
  -exchange      EXHF   =         0.00000000
  -V(xc)+E(xc)   XCENC  =        63.17664091
  PAW double counting   =      9003.59075477    -9155.75339974
  entropy T*S    EENTRO =        -0.02486637
  eigenvalues    EBANDS =      -687.55415769
  atomic energy  EATOM  =      9704.95859309
  Solvation  Ediel_sol  =         0.00000000
  ---------------------------------------------------
  free energy    TOTEN  =       -37.86655596 eV

  energy without entropy =      -37.84168959  energy(sigma->0) =      -37.85826717


--------------------------------------------------------------------------------------------------------




--------------------------------------- Iteration      1(   5)  ---------------------------------------


     EDDAV:  cpu time    6.7718: real time    6.7802
       DOS:  cpu time    0.0011: real time    0.0011
    CHARGE:  cpu time    0.6427: real time    0.6455
    MIXING:  cpu time    0.0395: real time    0.0395
    --------------------------------------------
      LOOP:  cpu time    7.4552: real time    7.4664

 eigenvalue-minimisations  :   308
 total energy-change (2. order) :-0.6137092E+01  (-0.5534188E+01)
 number of electron     100.0000151 magnetization       9.7953733
 augmentation part       52.1798517 magnetization       7.8777465

 Broyden mixing:
  rms(total) = 0.26643E+01    rms(broyden)= 0.26636E+01
  rms(prec ) = 0.27814E+01
  weight for this iteration     100.00

 Free energy of the ion-electron system (eV)
  ---------------------------------------------------
  alpha Z        PSCENC =         4.67081296
  Ewald energy   TEWEN  =     13023.40248028
  -Hartree energ DENC   =    -21994.33341418
  -exchange      EXHF   =         0.00000000
  -V(xc)+E(xc)   XCENC  =        63.17664091
  PAW double counting   =      9003.59075477    -9155.75339974
  entropy T*S    EENTRO =        -0.00623394
  eigenvalues    EBANDS =      -693.70988238
  atomic energy  EATOM  =      9704.95859309
  Solvation  Ediel_sol  =         0.00000000
  ---------------------------------------------------
  free energy    TOTEN  =       -44.00364822 eV

  energy without entropy =      -43.99741428  energy(sigma->0) =      -44.00157024


--------------------------------------------------------------------------------------------------------




--------------------------------------- Iteration      1(   6)  ---------------------------------------


    POTLOK:  cpu time    2.4631: real time    2.4699
    SETDIJ:  cpu time    0.0233: real time    0.0233
     EDDAV:  cpu time    6.3969: real time    6.4072
       DOS:  cpu time    0.0030: real time    0.0030
    CHARGE:  cpu time    0.6515: real time    0.6543
    MIXING:  cpu time    0.0473: real time    0.0473
    --------------------------------------------
      LOOP:  cpu time    9.5851: real time    9.6051

 eigenvalue-minimisations  :   284
 total energy-change (2. order) :-0.1169722E+02  (-0.9457854E+01)
 number of electron     100.0000192 magnetization       9.5950404
 augmentation part       56.2486110 magnetization       8.5074817

 Broyden mixing:
  rms(total) = 0.51348E+01    rms(broyden)= 0.51344E+01
  rms(prec ) = 0.54000E+01
  weight for this iteration     100.00

 eigenvalues of (default mixing * dielectric matrix)
  average eigenvalue GAMMA=   0.3010
  0.3010

 Free energy of the ion-electron system (eV)
  ---------------------------------------------------
  alpha Z        PSCENC =         4.67081296
  Ewald energy   TEWEN  =     13023.40248028
  -Hartree energ DENC   =    -21920.11128724
  -exchange      EXHF   =         0.00000000
  -V(xc)+E(xc)   XCENC  =        59.69784187
  PAW double counting   =      9481.77066272    -9610.13153991
  entropy T*S    EENTRO =        -0.02365994
  eigenvalues    EBANDS =      -799.93477107
  atomic energy  EATOM  =      9704.95859309
  Solvation  Ediel_sol  =         0.00000000
  ---------------------------------------------------
  free energy    TOTEN  =       -55.70086723 eV

  energy without entropy =      -55.67720729  energy(sigma->0) =      -55.69298058


--------------------------------------------------------------------------------------------------------




--------------------------------------- Iteration      1(   7)  ---------------------------------------


    POTLOK:  cpu time    2.4610: real time    2.4630
    SETDIJ:  cpu time    0.0248: real time    0.0248
     EDDAV:  cpu time    7.3815: real time    7.3882
       DOS:  cpu time    0.0027: real time    0.0027
    CHARGE:  cpu time    0.6391: real time    0.6397
    MIXING:  cpu time    0.0449: real time    0.0450
    --------------------------------------------
      LOOP:  cpu time   10.5541: real time   10.5634

 eigenvalue-minimisations  :   340
 total energy-change (2. order) : 0.1627528E+02  (-0.5327009E+01)
 number of electron     100.0000162 magnetization       9.5700116
 augmentation part       54.7722171 magnetization       7.0457666

 Broyden mixing:
  rms(total) = 0.30980E+01    rms(broyden)= 0.30973E+01
  rms(prec ) = 0.32579E+01
  weight for this iteration     100.00

 eigenvalues of (default mixing * dielectric matrix)
  average eigenvalue GAMMA=   0.2339
  0.2339  0.2339

 Free energy of the ion-electron system (eV)
  ---------------------------------------------------
  alpha Z        PSCENC =         4.67081296
  Ewald energy   TEWEN  =     13023.40248028
  -Hartree energ DENC   =    -21972.17361452
  -exchange      EXHF   =         0.00000000
  -V(xc)+E(xc)   XCENC  =        60.64736369
  PAW double counting   =      9633.59803514    -9782.64971488
  entropy T*S    EENTRO =        -0.02049910
  eigenvalues    EBANDS =      -711.85904228
  atomic energy  EATOM  =      9704.95859309
  Solvation  Ediel_sol  =         0.00000000
  ---------------------------------------------------
  free energy    TOTEN  =       -39.42558561 eV

  energy without entropy =      -39.40508651  energy(sigma->0) =      -39.41875258


--------------------------------------------------------------------------------------------------------




--------------------------------------- Iteration      1(   8)  ---------------------------------------


    POTLOK:  cpu time    2.4641: real time    2.4685
    SETDIJ:  cpu time    0.0236: real time    0.0236
     EDDAV:  cpu time    7.2533: real time    7.2602
       DOS:  cpu time    0.0053: real time    0.0053
    CHARGE:  cpu time    0.6334: real time    0.6340
    MIXING:  cpu time    0.0518: real time    0.0518
    --------------------------------------------
      LOOP:  cpu time   10.4315: real time   10.4435

 eigenvalue-minimisations  :   336
 total energy-change (2. order) :-0.1748586E-03  (-0.3229993E+01)
 number of electron     100.0000172 magnetization       9.4942063
 augmentation part       55.1677449 magnetization       7.0814985

 Broyden mixing:
  rms(total) = 0.28679E+01    rms(broyden)= 0.28670E+01
  rms(prec ) = 0.30196E+01
  weight for this iteration     100.00

 eigenvalues of (default mixing * dielectric matrix)
  average eigenvalue GAMMA=   0.2908
  0.3598  0.3598  0.1529

 Free energy of the ion-electron system (eV)
  ---------------------------------------------------
  alpha Z        PSCENC =         4.67081296
  Ewald energy   TEWEN  =     13023.40248028
  -Hartree energ DENC   =    -21973.60166781
  -exchange      EXHF   =         0.00000000
  -V(xc)+E(xc)   XCENC  =        60.75645247
  PAW double counting   =      9690.54595702    -9839.82233596
  entropy T*S    EENTRO =        -0.03802653
  eigenvalues    EBANDS =      -710.29802601
  atomic energy  EATOM  =      9704.95859309
  Solvation  Ediel_sol  =         0.00000000
  ---------------------------------------------------
  free energy    TOTEN  =       -39.42576047 eV

  energy without entropy =      -39.38773394  energy(sigma->0) =      -39.41308496


--------------------------------------------------------------------------------------------------------




--------------------------------------- Iteration      1(   9)  ---------------------------------------


    POTLOK:  cpu time    2.4637: real time    2.4661
    SETDIJ:  cpu time    0.0230: real time    0.0230
     EDDAV:  cpu time    7.3338: real time    7.3453
       DOS:  cpu time    0.0072: real time    0.0072
    CHARGE:  cpu time    0.6397: real time    0.6403
    MIXING:  cpu time    0.0536: real time    0.0558
    --------------------------------------------
      LOOP:  cpu time   10.5209: real time   10.5376

 eigenvalue-minimisations  :   340
 total energy-change (2. order) :-0.3585965E+01  (-0.2653177E+01)
 number of electron     100.0000180 magnetization       9.3589272
 augmentation part       54.5455874 magnetization       9.2002929

 Broyden mixing:
  rms(total) = 0.51753E+01    rms(broyden)= 0.51749E+01
  rms(prec ) = 0.56567E+01
  weight for this iteration     100.00

 eigenvalues of (default mixing * dielectric matrix)
  average eigenvalue GAMMA=   0.3043
  0.6153  0.3347  0.1336  0.1336

 Free energy of the ion-electron system (eV)
  ---------------------------------------------------
  alpha Z        PSCENC =         4.67081296
  Ewald energy   TEWEN  =     13023.40248028
  -Hartree energ DENC   =    -21997.32544858
  -exchange      EXHF   =         0.00000000
  -V(xc)+E(xc)   XCENC  =        61.51344194
  PAW double counting   =      9824.25262991    -9978.68704459
  entropy T*S    EENTRO =        -0.02388559
  eigenvalues    EBANDS =      -685.77330493
  atomic energy  EATOM  =      9704.95859309
  Solvation  Ediel_sol  =         0.00000000
  ---------------------------------------------------
  free energy    TOTEN  =       -43.01172550 eV

  energy without entropy =      -42.98783991  energy(sigma->0) =      -43.00376364


--------------------------------------------------------------------------------------------------------




--------------------------------------- Iteration      1(  10)  ---------------------------------------


    POTLOK:  cpu time    2.4621: real time    2.4665
    SETDIJ:  cpu time    0.0237: real time    0.0237
     EDDAV:  cpu time    7.4391: real time    7.4485
       DOS:  cpu time    0.0052: real time    0.0052
    CHARGE:  cpu time    0.6335: real time    0.6341
    MIXING:  cpu time    0.0561: real time    0.0562
    --------------------------------------------
      LOOP:  cpu time   10.6197: real time   10.6341

 eigenvalue-minimisations  :   348
 total energy-change (2. order) : 0.4146072E+01  (-0.4461123E+01)
 number of electron     100.0000159 magnetization       9.2852172
 augmentation part       54.7145906 magnetization       6.7397658

 Broyden mixing:
  rms(total) = 0.32680E+01    rms(broyden)= 0.32672E+01
  rms(prec ) = 0.34754E+01
  weight for this iteration     100.00

 eigenvalues of (default mixing * dielectric matrix)
  average eigenvalue GAMMA=   0.2894
  0.7322  0.3231  0.1653  0.1653  0.0613

 Free energy of the ion-electron system (eV)
  ---------------------------------------------------
  alpha Z        PSCENC =         4.67081296
  Ewald energy   TEWEN  =     13023.40248028
  -Hartree energ DENC   =    -22010.26090130
  -exchange      EXHF   =         0.00000000
  -V(xc)+E(xc)   XCENC  =        62.13071110
  PAW double counting   =      9901.52213779   -10059.14841691
  entropy T*S    EENTRO =         0.02508671
  eigenvalues    EBANDS =      -666.16615695
  atomic energy  EATOM  =      9704.95859309
  Solvation  Ediel_sol  =         0.00000000
  ---------------------------------------------------
  free energy    TOTEN  =       -38.86565321 eV

  energy without entropy =      -38.89073992  energy(sigma->0) =      -38.87401545


--------------------------------------------------------------------------------------------------------




--------------------------------------- Iteration      1(  11)  ---------------------------------------


    POTLOK:  cpu time    2.4658: real time    2.4727
    SETDIJ:  cpu time    0.0238: real time    0.0238
     EDDAV:  cpu time    7.1447: real time    7.1582
       DOS:  cpu time    0.0017: real time    0.0017
    CHARGE:  cpu time    0.6364: real time    0.6371
    MIXING:  cpu time    0.0793: real time    0.0794
    --------------------------------------------
      LOOP:  cpu time   10.3517: real time   10.3730

 eigenvalue-minimisations  :   332
 total energy-change (2. order) : 0.1989676E+01  (-0.6805332E+00)
 number of electron     100.0000159 magnetization       9.1885441
 augmentation part       54.4055656 magnetization       6.7013501

 Broyden mixing:
  rms(total) = 0.28613E+01    rms(broyden)= 0.28609E+01
  rms(prec ) = 0.30324E+01
  weight for this iteration     100.00

 eigenvalues of (default mixing * dielectric matrix)
  average eigenvalue GAMMA=   0.3008
  0.7143  0.5399  0.1942  0.1942  0.0811  0.0811

 Free energy of the ion-electron system (eV)
  ---------------------------------------------------
  alpha Z        PSCENC =         4.67081296
  Ewald energy   TEWEN  =     13023.40248028
  -Hartree energ DENC   =    -22021.60439365
  -exchange      EXHF   =         0.00000000
  -V(xc)+E(xc)   XCENC  =        62.49471927
  PAW double counting   =      9963.24647311   -10123.99186710
  entropy T*S    EENTRO =         0.01616218
  eigenvalues    EBANDS =      -650.06895771
  atomic energy  EATOM  =      9704.95859309
  Solvation  Ediel_sol  =         0.00000000
  ---------------------------------------------------
  free energy    TOTEN  =       -36.87597756 eV

  energy without entropy =      -36.89213974  energy(sigma->0) =      -36.88136495


--------------------------------------------------------------------------------------------------------




--------------------------------------- Iteration      1(  12)  ---------------------------------------


    POTLOK:  cpu time    2.4656: real time    2.4677
    SETDIJ:  cpu time    0.0240: real time    0.0240
     EDDAV:  cpu time    7.1209: real time    7.1323
       DOS:  cpu time    0.0030: real time    0.0030
    CHARGE:  cpu time    0.6315: real time    0.6320
    MIXING:  cpu time    0.0669: real time    0.0670
    --------------------------------------------
      LOOP:  cpu time   10.3119: real time   10.3259

 eigenvalue-minimisations  :   332
 total energy-change (2. order) : 0.8613410E+00  (-0.9031428E+00)
 number of electron     100.0000160 magnetization       9.0992871
 augmentation part       54.4660780 magnetization       6.6077082

 Broyden mixing:
  rms(total) = 0.22544E+01    rms(broyden)= 0.22536E+01
  rms(prec ) = 0.24058E+01
  weight for this iteration     100.00

 eigenvalues of (default mixing * dielectric matrix)
  average eigenvalue GAMMA=   0.3318
  0.8189  0.8189  0.2139  0.1501  0.1501  0.0986  0.0726

 Free energy of the ion-electron system (eV)
  ---------------------------------------------------
  alpha Z        PSCENC =         4.67081296
  Ewald energy   TEWEN  =     13023.40248028
  -Hartree energ DENC   =    -22024.27952056
  -exchange      EXHF   =         0.00000000
  -V(xc)+E(xc)   XCENC  =        62.66581054
  PAW double counting   =     10021.83170414   -10183.57803888
  entropy T*S    EENTRO =         0.00980064
  eigenvalues    EBANDS =      -645.69627876
  atomic energy  EATOM  =      9704.95859309
  Solvation  Ediel_sol  =         0.00000000
  ---------------------------------------------------
  free energy    TOTEN  =       -36.01463655 eV

  energy without entropy =      -36.02443719  energy(sigma->0) =      -36.01790343


--------------------------------------------------------------------------------------------------------




--------------------------------------- Iteration      1(  13)  ---------------------------------------


    POTLOK:  cpu time    2.4591: real time    2.4668
    SETDIJ:  cpu time    0.0238: real time    0.0238
     EDDAV:  cpu time    7.4192: real time    7.4267
       DOS:  cpu time    0.0027: real time    0.0027
    CHARGE:  cpu time    0.6221: real time    0.6226
    MIXING:  cpu time    0.0727: real time    0.0728
    --------------------------------------------
      LOOP:  cpu time   10.5996: real time   10.6154

 eigenvalue-minimisations  :   350
 total energy-change (2. order) : 0.3610252E+00  (-0.4647288E+00)
 number of electron     100.0000156 magnetization       9.0259106
 augmentation part       54.5884173 magnetization       6.4920763

 Broyden mixing:
  rms(total) = 0.19527E+01    rms(broyden)= 0.19519E+01
  rms(prec ) = 0.20664E+01
  weight for this iteration     100.00

 eigenvalues of (default mixing * dielectric matrix)
  average eigenvalue GAMMA=   0.3456
  0.9955  0.8423  0.2741  0.2023  0.2023  0.0868  0.0868  0.0749

 Free energy of the ion-electron system (eV)
  ---------------------------------------------------
  alpha Z        PSCENC =         4.67081296
  Ewald energy   TEWEN  =     13023.40248028
  -Hartree energ DENC   =    -22026.82080392
  -exchange      EXHF   =         0.00000000
  -V(xc)+E(xc)   XCENC  =        62.73433892
  PAW double counting   =     10069.39678615   -10232.00223413
  entropy T*S    EENTRO =         0.00079923
  eigenvalues    EBANDS =      -641.99438392
  atomic energy  EATOM  =      9704.95859309
  Solvation  Ediel_sol  =         0.00000000
  ---------------------------------------------------
  free energy    TOTEN  =       -35.65361134 eV

  energy without entropy =      -35.65441057  energy(sigma->0) =      -35.65387775


--------------------------------------------------------------------------------------------------------




--------------------------------------- Iteration      1(  14)  ---------------------------------------


    POTLOK:  cpu time    2.4567: real time    2.4631
    SETDIJ:  cpu time    0.0241: real time    0.0242
     EDDAV:  cpu time    7.2214: real time    7.2307
       DOS:  cpu time    0.0033: real time    0.0033
    CHARGE:  cpu time    0.6528: real time    0.6533
    MIXING:  cpu time    0.0792: real time    0.0793
    --------------------------------------------
      LOOP:  cpu time   10.4375: real time   10.4538

 eigenvalue-minimisations  :   336
 total energy-change (2. order) :-0.8999616E-01  (-0.2823954E+00)
 number of electron     100.0000169 magnetization       8.9874817
 augmentation part       54.3905504 magnetization       6.5993632

 Broyden mixing:
  rms(total) = 0.23114E+01    rms(broyden)= 0.23110E+01
  rms(prec ) = 0.24371E+01
  weight for this iteration     100.00

 eigenvalues of (default mixing * dielectric matrix)
  average eigenvalue GAMMA=   0.3303
  1.1797  0.7126  0.3455  0.2042  0.2042  0.0967  0.0794  0.0794  0.0712

 Free energy of the ion-electron system (eV)
  ---------------------------------------------------
  alpha Z        PSCENC =         4.67081296
  Ewald energy   TEWEN  =     13023.40248028
  -Hartree energ DENC   =    -22033.70941100
  -exchange      EXHF   =         0.00000000
  -V(xc)+E(xc)   XCENC  =        62.61265320
  PAW double counting   =     10106.88053607   -10271.31824486
  entropy T*S    EENTRO =         0.04375038
  eigenvalues    EBANDS =      -633.28477762
  atomic energy  EATOM  =      9704.95859309
  Solvation  Ediel_sol  =         0.00000000
  ---------------------------------------------------
  free energy    TOTEN  =       -35.74360750 eV

  energy without entropy =      -35.78735788  energy(sigma->0) =      -35.75819096


--------------------------------------------------------------------------------------------------------




--------------------------------------- Iteration      1(  15)  ---------------------------------------


    POTLOK:  cpu time    2.4595: real time    2.4637
    SETDIJ:  cpu time    0.0246: real time    0.0247
     EDDAV:  cpu time    7.3341: real time    7.3436
       DOS:  cpu time    0.0038: real time    0.0038
    CHARGE:  cpu time    0.6424: real time    0.6429
    MIXING:  cpu time    0.0884: real time    0.0884
    --------------------------------------------
      LOOP:  cpu time   10.5529: real time   10.5671

 eigenvalue-minimisations  :   342
 total energy-change (2. order) : 0.5611468E+00  (-0.1937406E+00)
 number of electron     100.0000156 magnetization       8.9140340
 augmentation part       54.3888567 magnetization       6.5357059

 Broyden mixing:
  rms(total) = 0.10625E+01    rms(broyden)= 0.10618E+01
  rms(prec ) = 0.11182E+01
  weight for this iteration     100.00

 eigenvalues of (default mixing * dielectric matrix)
  average eigenvalue GAMMA=   0.3753
  1.3641  0.6697  0.6697  0.3076  0.2110  0.2110  0.0903  0.0903  0.0698  0.0698

 Free energy of the ion-electron system (eV)
  ---------------------------------------------------
  alpha Z        PSCENC =         4.67081296
  Ewald energy   TEWEN  =     13023.40248028
  -Hartree energ DENC   =    -22036.92645402
  -exchange      EXHF   =         0.00000000
  -V(xc)+E(xc)   XCENC  =        62.54645889
  PAW double counting   =     10124.09408631   -10289.44374456
  entropy T*S    EENTRO =         0.03330425
  eigenvalues    EBANDS =      -628.51799796
  atomic energy  EATOM  =      9704.95859309
  Solvation  Ediel_sol  =         0.00000000
  ---------------------------------------------------
  free energy    TOTEN  =       -35.18246075 eV

  energy without entropy =      -35.21576499  energy(sigma->0) =      -35.19356216


--------------------------------------------------------------------------------------------------------




--------------------------------------- Iteration      1(  16)  ---------------------------------------


    POTLOK:  cpu time    2.4478: real time    2.4589
    SETDIJ:  cpu time    0.0237: real time    0.0237
     EDDAV:  cpu time    8.0398: real time    8.0493
       DOS:  cpu time    0.0008: real time    0.0008
    CHARGE:  cpu time    0.6372: real time    0.6399
    MIXING:  cpu time    0.0936: real time    0.0937
    --------------------------------------------
      LOOP:  cpu time   11.2428: real time   11.2662

 eigenvalue-minimisations  :   382
 total energy-change (2. order) :-0.2590066E+00  (-0.5448031E-01)
 number of electron     100.0000156 magnetization       8.8849015
 augmentation part       54.3481925 magnetization       6.5963765

 Broyden mixing:
  rms(total) = 0.55531E+00    rms(broyden)= 0.55474E+00
  rms(prec ) = 0.57069E+00
  weight for this iteration     100.00

 eigenvalues of (default mixing * dielectric matrix)
  average eigenvalue GAMMA=   0.3962
  1.3824  0.7746  0.7746  0.3482  0.3482  0.2048  0.2048  0.0899  0.0899  0.0701
  0.0701

 Free energy of the ion-electron system (eV)
  ---------------------------------------------------
  alpha Z        PSCENC =         4.67081296
  Ewald energy   TEWEN  =     13023.40248028
  -Hartree energ DENC   =    -22041.18465060
  -exchange      EXHF   =         0.00000000
  -V(xc)+E(xc)   XCENC  =        62.24102825
  PAW double counting   =     10145.51169178   -10310.87920352
  entropy T*S    EENTRO =         0.02181896
  eigenvalues    EBANDS =      -624.18403856
  atomic energy  EATOM  =      9704.95859309
  Solvation  Ediel_sol  =         0.00000000
  ---------------------------------------------------
  free energy    TOTEN  =       -35.44146736 eV

  energy without entropy =      -35.46328632  energy(sigma->0) =      -35.44874035


--------------------------------------------------------------------------------------------------------




--------------------------------------- Iteration      1(  17)  ---------------------------------------


    POTLOK:  cpu time    2.4580: real time    2.4605
    SETDIJ:  cpu time    0.0234: real time    0.0234
     EDDAV:  cpu time    7.2327: real time    7.2396
       DOS:  cpu time    0.0008: real time    0.0008
    CHARGE:  cpu time    0.6396: real time    0.6423
    MIXING:  cpu time    0.1042: real time    0.1043
    --------------------------------------------
      LOOP:  cpu time   10.4586: real time   10.4708

 eigenvalue-minimisations  :   336
 total energy-change (2. order) :-0.3215731E+00  (-0.3087353E-01)
 number of electron     100.0000155 magnetization       8.8583757
 augmentation part       54.3267945 magnetization       6.6485108

 Broyden mixing:
  rms(total) = 0.47535E+00    rms(broyden)= 0.47467E+00
  rms(prec ) = 0.49340E+00
  weight for this iteration     100.00

 eigenvalues of (default mixing * dielectric matrix)
  average eigenvalue GAMMA=   0.4059
  1.3871  0.7715  0.7715  0.4470  0.4470  0.3088  0.2091  0.2091  0.0899  0.0899
  0.0701  0.0701

 Free energy of the ion-electron system (eV)
  ---------------------------------------------------
  alpha Z        PSCENC =         4.67081296
  Ewald energy   TEWEN  =     13023.40248028
  -Hartree energ DENC   =    -22043.21080035
  -exchange      EXHF   =         0.00000000
  -V(xc)+E(xc)   XCENC  =        62.02849436
  PAW double counting   =     10148.79670540   -10313.90688617
  entropy T*S    EENTRO =         0.01923105
  eigenvalues    EBANDS =      -622.52167113
  atomic energy  EATOM  =      9704.95859309
  Solvation  Ediel_sol  =         0.00000000
  ---------------------------------------------------
  free energy    TOTEN  =       -35.76304050 eV

  energy without entropy =      -35.78227155  energy(sigma->0) =      -35.76945085


--------------------------------------------------------------------------------------------------------




--------------------------------------- Iteration      1(  18)  ---------------------------------------


    POTLOK:  cpu time    2.4672: real time    2.4715
    SETDIJ:  cpu time    0.0240: real time    0.0240
     EDDAV:  cpu time    7.2482: real time    7.2572
       DOS:  cpu time    0.0008: real time    0.0008
    CHARGE:  cpu time    0.6442: real time    0.6449
    MIXING:  cpu time    0.1130: real time    0.1131
    --------------------------------------------
      LOOP:  cpu time   10.4974: real time   10.5115

 eigenvalue-minimisations  :   334
 total energy-change (2. order) :-0.1946548E+00  (-0.6140833E-02)
 number of electron     100.0000155 magnetization       8.7517567
 augmentation part       54.3391135 magnetization       6.5785499

 Broyden mixing:
  rms(total) = 0.40763E+00    rms(broyden)= 0.40750E+00
  rms(prec ) = 0.42421E+00
  weight for this iteration     100.00

 eigenvalues of (default mixing * dielectric matrix)
  average eigenvalue GAMMA=   0.5107
  1.4877  1.1023  1.1023  0.7315  0.7315  0.4136  0.3343  0.2078  0.2078  0.0899
  0.0899  0.0701  0.0701

 Free energy of the ion-electron system (eV)
  ---------------------------------------------------
  alpha Z        PSCENC =         4.67081296
  Ewald energy   TEWEN  =     13023.40248028
  -Hartree energ DENC   =    -22044.46112963
  -exchange      EXHF   =         0.00000000
  -V(xc)+E(xc)   XCENC  =        61.89361456
  PAW double counting   =     10151.97517243   -10317.05993559
  entropy T*S    EENTRO =         0.02183774
  eigenvalues    EBANDS =      -621.35914112
  atomic energy  EATOM  =      9704.95859309
  Solvation  Ediel_sol  =         0.00000000
  ---------------------------------------------------
  free energy    TOTEN  =       -35.95769527 eV

  energy without entropy =      -35.97953301  energy(sigma->0) =      -35.96497452


--------------------------------------------------------------------------------------------------------




--------------------------------------- Iteration      1(  19)  ---------------------------------------


    POTLOK:  cpu time    2.4535: real time    2.4578
    SETDIJ:  cpu time    0.0237: real time    0.0237
     EDDAV:  cpu time    7.4552: real time    7.4646
       DOS:  cpu time    0.0019: real time    0.0019
    CHARGE:  cpu time    0.6386: real time    0.6392
    MIXING:  cpu time    0.1172: real time    0.1174
    --------------------------------------------
      LOOP:  cpu time   10.6902: real time   10.7047

 eigenvalue-minimisations  :   348
 total energy-change (2. order) :-0.5484757E+00  (-0.2017594E-01)
 number of electron     100.0000156 magnetization       8.6552941
 augmentation part       54.3734742 magnetization       6.5501387

 Broyden mixing:
  rms(total) = 0.21251E+00    rms(broyden)= 0.21211E+00
  rms(prec ) = 0.22160E+00
  weight for this iteration     100.00

 eigenvalues of (default mixing * dielectric matrix)
  average eigenvalue GAMMA=   0.5373
  1.4923  1.0030  1.0030  0.9302  0.9302  0.6436  0.4555  0.3290  0.2078  0.2078
  0.0899  0.0899  0.0701  0.0701

 Free energy of the ion-electron system (eV)
  ---------------------------------------------------
  alpha Z        PSCENC =         4.67081296
  Ewald energy   TEWEN  =     13023.40248028
  -Hartree energ DENC   =    -22049.00284891
  -exchange      EXHF   =         0.00000000
  -V(xc)+E(xc)   XCENC  =        61.50899885
  PAW double counting   =     10163.15546223   -10328.08281800
  entropy T*S    EENTRO =         0.02576485
  eigenvalues    EBANDS =      -617.14261631
  atomic energy  EATOM  =      9704.95859309
  Solvation  Ediel_sol  =         0.00000000
  ---------------------------------------------------
  free energy    TOTEN  =       -36.50617095 eV

  energy without entropy =      -36.53193580  energy(sigma->0) =      -36.51475924


--------------------------------------------------------------------------------------------------------




--------------------------------------- Iteration      1(  20)  ---------------------------------------


    POTLOK:  cpu time    2.4577: real time    2.4654
    SETDIJ:  cpu time    0.0245: real time    0.0245
     EDDAV:  cpu time    7.7205: real time    7.7313
       DOS:  cpu time    0.0007: real time    0.0008
    CHARGE:  cpu time    0.6168: real time    0.6196
    MIXING:  cpu time    0.1260: real time    0.1262
    --------------------------------------------
      LOOP:  cpu time   10.9463: real time   10.9677

 eigenvalue-minimisations  :   364
 total energy-change (2. order) :-0.3677722E+00  (-0.1172403E-01)
 number of electron     100.0000157 magnetization       8.5832156
 augmentation part       54.4165092 magnetization       6.5173501

 Broyden mixing:
  rms(total) = 0.29628E+00    rms(broyden)= 0.29614E+00
  rms(prec ) = 0.30998E+00
  weight for this iteration     100.00

 eigenvalues of (default mixing * dielectric matrix)
  average eigenvalue GAMMA=   0.5752
  1.8419  1.3116  0.9881  0.9881  0.7204  0.7204  0.5468  0.4474  0.3283  0.2078
  0.2078  0.0899  0.0899  0.0701  0.0701

 Free energy of the ion-electron system (eV)
  ---------------------------------------------------
  alpha Z        PSCENC =         4.67081296
  Ewald energy   TEWEN  =     13023.40248028
  -Hartree energ DENC   =    -22052.64113068
  -exchange      EXHF   =         0.00000000
  -V(xc)+E(xc)   XCENC  =        61.22649743
  PAW double counting   =     10166.74840641   -10331.40025480
  entropy T*S    EENTRO =         0.02251379
  eigenvalues    EBANDS =      -613.86186170
  atomic energy  EATOM  =      9704.95859309
  Solvation  Ediel_sol  =         0.00000000
  ---------------------------------------------------
  free energy    TOTEN  =       -36.87394320 eV

  energy without entropy =      -36.89645699  energy(sigma->0) =      -36.88144780


--------------------------------------------------------------------------------------------------------




--------------------------------------- Iteration      1(  21)  ---------------------------------------


    POTLOK:  cpu time    2.4501: real time    2.4543
    SETDIJ:  cpu time    0.0255: real time    0.0255
     EDDAV:  cpu time    7.1714: real time    7.1822
       DOS:  cpu time    0.0083: real time    0.0083
    CHARGE:  cpu time    0.6345: real time    0.6351
    MIXING:  cpu time    0.1457: real time    0.1458
    --------------------------------------------
      LOOP:  cpu time   10.4355: real time   10.4512

 eigenvalue-minimisations  :   332
 total energy-change (2. order) :-0.1855721E+00  (-0.3524662E-02)
 number of electron     100.0000158 magnetization       8.4988645
 augmentation part       54.4096584 magnetization       6.4528092

 Broyden mixing:
  rms(total) = 0.21295E+00    rms(broyden)= 0.21292E+00
  rms(prec ) = 0.22418E+00
  weight for this iteration     100.00

 eigenvalues of (default mixing * dielectric matrix)
  average eigenvalue GAMMA=   0.6198
  2.2548  1.5518  1.0346  1.0346  0.7213  0.7213  0.5334  0.5334  0.4670  0.3283
  0.2078  0.2078  0.0899  0.0899  0.0701  0.0701

 Free energy of the ion-electron system (eV)
  ---------------------------------------------------
  alpha Z        PSCENC =         4.67081296
  Ewald energy   TEWEN  =     13023.40248028
  -Hartree energ DENC   =    -22055.82208060
  -exchange      EXHF   =         0.00000000
  -V(xc)+E(xc)   XCENC  =        61.08934473
  PAW double counting   =     10169.70203669   -10334.56185663
  entropy T*S    EENTRO =         0.02499189
  eigenvalues    EBANDS =      -610.52383776
  atomic energy  EATOM  =      9704.95859309
  Solvation  Ediel_sol  =         0.00000000
  ---------------------------------------------------
  free energy    TOTEN  =       -37.05951534 eV

  energy without entropy =      -37.08450723  energy(sigma->0) =      -37.06784597


--------------------------------------------------------------------------------------------------------




--------------------------------------- Iteration      1(  22)  ---------------------------------------


    POTLOK:  cpu time    2.4486: real time    2.4550
    SETDIJ:  cpu time    0.0238: real time    0.0238
     EDDAV:  cpu time    7.7525: real time    7.7599
       DOS:  cpu time    0.0081: real time    0.0081
    CHARGE:  cpu time    0.6316: real time    0.6322
    MIXING:  cpu time    0.1492: real time    0.1493
    --------------------------------------------
      LOOP:  cpu time   11.0136: real time   11.0282

 eigenvalue-minimisations  :   368
 total energy-change (2. order) :-0.2281185E+00  (-0.4426903E-02)
 number of electron     100.0000158 magnetization       8.4842769
 augmentation part       54.3936693 magnetization       6.4706560

 Broyden mixing:
  rms(total) = 0.14433E+00    rms(broyden)= 0.14406E+00
  rms(prec ) = 0.15381E+00
  weight for this iteration     100.00

 eigenvalues of (default mixing * dielectric matrix)
  average eigenvalue GAMMA=   0.6167
  2.0922  1.5650  1.0125  1.0125  0.7242  0.7242  0.6220  0.6220  0.6087  0.4355
  0.3286  0.2078  0.2078  0.0899  0.0899  0.0701  0.0701

 Free energy of the ion-electron system (eV)
  ---------------------------------------------------
  alpha Z        PSCENC =         4.67081296
  Ewald energy   TEWEN  =     13023.40248028
  -Hartree energ DENC   =    -22059.55624307
  -exchange      EXHF   =         0.00000000
  -V(xc)+E(xc)   XCENC  =        60.94436245
  PAW double counting   =     10168.59326285   -10333.66563394
  entropy T*S    EENTRO =         0.02083943
  eigenvalues    EBANDS =      -606.65610790
  atomic energy  EATOM  =      9704.95859309
  Solvation  Ediel_sol  =         0.00000000
  ---------------------------------------------------
  free energy    TOTEN  =       -37.28763385 eV

  energy without entropy =      -37.30847328  energy(sigma->0) =      -37.29458033


--------------------------------------------------------------------------------------------------------




--------------------------------------- Iteration      1(  23)  ---------------------------------------


    POTLOK:  cpu time    2.4402: real time    2.4468
    SETDIJ:  cpu time    0.0235: real time    0.0235
     EDDAV:  cpu time    7.8516: real time    7.8612
       DOS:  cpu time    0.0082: real time    0.0082
    CHARGE:  cpu time    0.6318: real time    0.6324
    MIXING:  cpu time    0.1570: real time    0.1593
    --------------------------------------------
      LOOP:  cpu time   11.1123: real time   11.1315

 eigenvalue-minimisations  :   372
 total energy-change (2. order) :-0.7786231E-01  (-0.1860100E-02)
 number of electron     100.0000158 magnetization       8.4500997
 augmentation part       54.4037378 magnetization       6.4241058

 Broyden mixing:
  rms(total) = 0.58732E-01    rms(broyden)= 0.58551E-01
  rms(prec ) = 0.61232E-01
  weight for this iteration     100.00

 eigenvalues of (default mixing * dielectric matrix)
  average eigenvalue GAMMA=   0.6254
  2.2806  1.4528  1.0319  1.0319  0.7973  0.7973  0.6588  0.6588  0.5292  0.5292
  0.4256  0.3286  0.2078  0.2078  0.0899  0.0899  0.0701  0.0701

 Free energy of the ion-electron system (eV)
  ---------------------------------------------------
  alpha Z        PSCENC =         4.67081296
  Ewald energy   TEWEN  =     13023.40248028
  -Hartree energ DENC   =    -22059.93139070
  -exchange      EXHF   =         0.00000000
  -V(xc)+E(xc)   XCENC  =        60.85768527
  PAW double counting   =     10166.05653155   -10331.12988623
  entropy T*S    EENTRO =         0.01879382
  eigenvalues    EBANDS =      -606.26911620
  atomic energy  EATOM  =      9704.95859309
  Solvation  Ediel_sol  =         0.00000000
  ---------------------------------------------------
  free energy    TOTEN  =       -37.36549616 eV

  energy without entropy =      -37.38428998  energy(sigma->0) =      -37.37176076


--------------------------------------------------------------------------------------------------------




--------------------------------------- Iteration      1(  24)  ---------------------------------------


    POTLOK:  cpu time    2.4434: real time    2.4457
    SETDIJ:  cpu time    0.0234: real time    0.0234
     EDDAV:  cpu time    7.2195: real time    7.2336
       DOS:  cpu time    0.0083: real time    0.0083
    CHARGE:  cpu time    0.6301: real time    0.6308
    MIXING:  cpu time    0.1626: real time    0.1627
    --------------------------------------------
      LOOP:  cpu time   10.4872: real time   10.5045

 eigenvalue-minimisations  :   336
 total energy-change (2. order) :-0.8651358E-01  (-0.5598942E-03)
 number of electron     100.0000158 magnetization       8.4086902
 augmentation part       54.4049370 magnetization       6.3800309

 Broyden mixing:
  rms(total) = 0.66936E-01    rms(broyden)= 0.66858E-01
  rms(prec ) = 0.70340E-01
  weight for this iteration     100.00

 eigenvalues of (default mixing * dielectric matrix)
  average eigenvalue GAMMA=   0.6468
  2.4650  1.4614  1.0594  1.0594  0.9068  0.9068  0.6687  0.6687  0.5714  0.5714
  0.4492  0.4370  0.3286  0.2078  0.2078  0.0899  0.0899  0.0701  0.0701

 Free energy of the ion-electron system (eV)
  ---------------------------------------------------
  alpha Z        PSCENC =         4.67081296
  Ewald energy   TEWEN  =     13023.40248028
  -Hartree energ DENC   =    -22060.96141338
  -exchange      EXHF   =         0.00000000
  -V(xc)+E(xc)   XCENC  =        60.77541411
  PAW double counting   =     10164.68354419   -10329.77856645
  entropy T*S    EENTRO =         0.01859033
  eigenvalues    EBANDS =      -605.22146488
  atomic energy  EATOM  =      9704.95859309
  Solvation  Ediel_sol  =         0.00000000
  ---------------------------------------------------
  free energy    TOTEN  =       -37.45200973 eV

  energy without entropy =      -37.47060007  energy(sigma->0) =      -37.45820651


--------------------------------------------------------------------------------------------------------




--------------------------------------- Iteration      1(  25)  ---------------------------------------


    POTLOK:  cpu time    2.4311: real time    2.4348
    SETDIJ:  cpu time    0.0234: real time    0.0235
     EDDAV:  cpu time    7.2920: real time    7.2989
       DOS:  cpu time    0.0082: real time    0.0082
    CHARGE:  cpu time    0.6305: real time    0.6333
    MIXING:  cpu time    0.1806: real time    0.1808
    --------------------------------------------
      LOOP:  cpu time   10.5658: real time   10.5794

 eigenvalue-minimisations  :   340
 total energy-change (2. order) :-0.8447342E-01  (-0.3087171E-03)
 number of electron     100.0000158 magnetization       8.3589598
 augmentation part       54.4050452 magnetization       6.3318843

 Broyden mixing:
  rms(total) = 0.36203E-01    rms(broyden)= 0.36168E-01
  rms(prec ) = 0.38724E-01
  weight for this iteration     100.00

 eigenvalues of (default mixing * dielectric matrix)
  average eigenvalue GAMMA=   0.6763
  2.5641  1.7045  1.0400  1.0400  1.0179  1.0179  0.6892  0.6892  0.6196  0.6196
  0.5576  0.4771  0.4256  0.3286  0.2078  0.2078  0.0899  0.0899  0.0701  0.0701

 Free energy of the ion-electron system (eV)
  ---------------------------------------------------
  alpha Z        PSCENC =         4.67081296
  Ewald energy   TEWEN  =     13023.40248028
  -Hartree energ DENC   =    -22062.23199266
  -exchange      EXHF   =         0.00000000
  -V(xc)+E(xc)   XCENC  =        60.70252197
  PAW double counting   =     10163.03005115   -10328.14735785
  entropy T*S    EENTRO =         0.01946824
  eigenvalues    EBANDS =      -603.94106034
  atomic energy  EATOM  =      9704.95859309
  Solvation  Ediel_sol  =         0.00000000
  ---------------------------------------------------
  free energy    TOTEN  =       -37.53648315 eV

  energy without entropy =      -37.55595139  energy(sigma->0) =      -37.54297257


--------------------------------------------------------------------------------------------------------




--------------------------------------- Iteration      1(  26)  ---------------------------------------


    POTLOK:  cpu time    2.4674: real time    2.4728
    SETDIJ:  cpu time    0.0242: real time    0.0242
     EDDAV:  cpu time    7.0920: real time    7.1034
       DOS:  cpu time    0.0007: real time    0.0007
    CHARGE:  cpu time    0.6374: real time    0.6381
    MIXING:  cpu time    0.1910: real time    0.1934
    --------------------------------------------
      LOOP:  cpu time   10.4127: real time   10.4327

 eigenvalue-minimisations  :   330
 total energy-change (2. order) :-0.9850872E-01  (-0.2558380E-03)
 number of electron     100.0000158 magnetization       8.3092310
 augmentation part       54.4005457 magnetization       6.2864644

 Broyden mixing:
  rms(total) = 0.21662E-01    rms(broyden)= 0.21644E-01
  rms(prec ) = 0.23759E-01
  weight for this iteration     100.00

 eigenvalues of (default mixing * dielectric matrix)
  average eigenvalue GAMMA=   0.7045
  2.4679  1.9432  1.0378  1.0378  1.1018  1.1018  0.8379  0.7507  0.7507  0.6069
  0.6069  0.5808  0.4797  0.4261  0.3286  0.2078  0.2078  0.0899  0.0899  0.0701
  0.0701

 Free energy of the ion-electron system (eV)
  ---------------------------------------------------
  alpha Z        PSCENC =         4.67081296
  Ewald energy   TEWEN  =     13023.40248028
  -Hartree energ DENC   =    -22063.73820430
  -exchange      EXHF   =         0.00000000
  -V(xc)+E(xc)   XCENC  =        60.61771794
  PAW double counting   =     10160.19389508   -10325.32830645
  entropy T*S    EENTRO =         0.01877927
  eigenvalues    EBANDS =      -602.43075976
  atomic energy  EATOM  =      9704.95859309
  Solvation  Ediel_sol  =         0.00000000
  ---------------------------------------------------
  free energy    TOTEN  =       -37.63499188 eV

  energy without entropy =      -37.65377115  energy(sigma->0) =      -37.64125164


--------------------------------------------------------------------------------------------------------




--------------------------------------- Iteration      1(  27)  ---------------------------------------


    POTLOK:  cpu time    2.4483: real time    2.4531
    SETDIJ:  cpu time    0.0236: real time    0.0236
     EDDAV:  cpu time    6.1073: real time    6.1130
       DOS:  cpu time    0.0007: real time    0.0007
    CHARGE:  cpu time    0.6293: real time    0.6300
    MIXING:  cpu time    0.2009: real time    0.2012
    --------------------------------------------
      LOOP:  cpu time    9.4101: real time    9.4216

 eigenvalue-minimisations  :   268
 total energy-change (2. order) :-0.8328070E-01  (-0.1715439E-03)
 number of electron     100.0000158 magnetization       8.2530579
 augmentation part       54.3983638 magnetization       6.2334291

 Broyden mixing:
  rms(total) = 0.17704E-01    rms(broyden)= 0.17689E-01
  rms(prec ) = 0.19075E-01
  weight for this iteration     100.00

 eigenvalues of (default mixing * dielectric matrix)
  average eigenvalue GAMMA=   0.7219
  2.7518  2.0064  1.0321  1.0321  1.0942  1.0942  0.8602  0.8602  0.6878  0.6878
  0.6151  0.6151  0.5758  0.4788  0.4263  0.3286  0.2078  0.2078  0.0899  0.0899
  0.0701  0.0701

 Free energy of the ion-electron system (eV)
  ---------------------------------------------------
  alpha Z        PSCENC =         4.67081296
  Ewald energy   TEWEN  =     13023.40248028
  -Hartree energ DENC   =    -22065.00008003
  -exchange      EXHF   =         0.00000000
  -V(xc)+E(xc)   XCENC  =        60.54102909
  PAW double counting   =     10157.62989453   -10322.75843303
  entropy T*S    EENTRO =         0.01890619
  eigenvalues    EBANDS =      -601.18147567
  atomic energy  EATOM  =      9704.95859309
  Solvation  Ediel_sol  =         0.00000000
  ---------------------------------------------------
  free energy    TOTEN  =       -37.71827257 eV

  energy without entropy =      -37.73717877  energy(sigma->0) =      -37.72457464


--------------------------------------------------------------------------------------------------------




--------------------------------------- Iteration      1(  28)  ---------------------------------------


    POTLOK:  cpu time    2.4439: real time    2.4475
    SETDIJ:  cpu time    0.0234: real time    0.0235
     EDDAV:  cpu time    6.4722: real time    6.4829
       DOS:  cpu time    0.0053: real time    0.0053
    CHARGE:  cpu time    0.6341: real time    0.6346
    MIXING:  cpu time    0.2203: real time    0.2205
    --------------------------------------------
      LOOP:  cpu time    9.7992: real time    9.8142

 eigenvalue-minimisations  :   292
 total energy-change (2. order) :-0.7612750E-01  (-0.2005447E-03)
 number of electron     100.0000158 magnetization       8.2127356
 augmentation part       54.3972238 magnetization       6.2006881

 Broyden mixing:
  rms(total) = 0.10974E-01    rms(broyden)= 0.10951E-01
  rms(prec ) = 0.12057E-01
  weight for this iteration     100.00

 eigenvalues of (default mixing * dielectric matrix)
[...]
 total energy-change (2. order) : 0.5130081E-04  (-0.1557360E-04)
 number of electron     100.0000189 magnetization       8.0357992
 augmentation part       54.3976934 magnetization       6.0403040

 Free energy of the ion-electron system (eV)
  ---------------------------------------------------
  alpha Z        PSCENC =         4.67081296
  Ewald energy   TEWEN  =     13019.60069517
  -Hartree energ DENC   =    -22066.29535991
  -exchange      EXHF   =         0.00000000
  -V(xc)+E(xc)   XCENC  =        60.33244196
  PAW double counting   =     10150.18608851   -10315.29081009
  entropy T*S    EENTRO =         0.01863602
  eigenvalues    EBANDS =      -596.12715024
  atomic energy  EATOM  =      9704.95859309
  Solvation  Ediel_sol  =         0.00000000
  ---------------------------------------------------
  free energy    TOTEN  =       -37.94605252 eV

  energy without entropy =      -37.96468854  energy(sigma->0) =      -37.95226453


--------------------------------------------------------------------------------------------------------




 average (electrostatic) potential at core
  the test charge radii are     0.9791  1.1199
  (the norm of the test charge is              1.0000)
       1 -95.3686       2 -95.3518       3 -95.3370       4 -95.1411       5 -95.3548
       6 -95.2344       7 -83.6656       8 -83.6400       9 -83.6297      10 -83.7760
 
 
 
 E-fermi :  -4.1357     XC(G=0):  -0.3266     alpha+bet : -0.1698


 spin component 1

 k-point     1 :       0.0000    0.0000    0.0000
  band No.  band energies     occupation 
      1      -9.8773      1.00000
      2      -8.4675      1.00000
      3      -8.3086      1.00000
      4      -7.9870      1.00000
      5      -7.8770      1.00000
      6      -7.8168      1.00000
      7      -7.6074      1.00000
      8      -7.4748      1.00000
      9      -7.3873      1.00000
     10      -7.2276      1.00000
     11      -7.1736      1.00000
     12      -7.1676      1.00000
     13      -7.0657      1.00000
     14      -7.0061      1.00000
     15      -6.8930      1.00000
     16      -6.8617      1.00000
     17      -6.7743      1.00000
     18      -6.7052      1.00000
     19      -6.5386      1.00000
     20      -6.5138      1.00000
     21      -6.4592      1.00000
     22      -6.1679      1.00000
     23      -6.1058      1.00000
     24      -6.0131      1.00000
     25      -5.9629      1.00000
     26      -5.9029      1.00000
     27      -5.8497      1.00000
     28      -5.8126      1.00000
     29      -5.7540      1.00000
     30      -5.6502      1.00000
     31      -5.6307      1.00000
     32      -5.5686      1.00000
     33      -5.5387      1.00000
     34      -5.4810      1.00000
     35      -5.4652      1.00000
     36      -5.3617      1.00000
     37      -5.3538      1.00000
     38      -5.2989      1.00000
     39      -5.2849      1.00000
     40      -5.2310      1.00000
     41      -5.1688      1.00000
     42      -5.1556      1.00000
     43      -5.1111      1.00000
     44      -5.0927      1.00000
     45      -5.0563      1.00000
     46      -4.9581      1.00000
     47      -4.9357      1.00000
     48      -4.8948      1.00000
     49      -4.8556      1.00000
     50      -4.7745      1.00003
     51      -4.7569      1.00005
     52      -4.7009      1.00024
     53      -4.6827      1.00038
     54      -4.4843      1.01672
     55      -3.0184     -0.00000
     56      -2.8446     -0.00000
     57      -2.5885     -0.00000
     58      -2.4449     -0.00000
     59      -2.3237     -0.00000
     60      -1.8470     -0.00000
     61      -0.9042     -0.00000
     62      -0.8191     -0.00000
     63      -0.5795     -0.00000
     64      -0.4279     -0.00000
     65      -0.3081     -0.00000
     66      -0.1884     -0.00000

 spin component 2

 k-point     1 :       0.0000    0.0000    0.0000
  band No.  band energies     occupation 
      1      -9.7937      1.00000
      2      -8.1529      1.00000
      3      -7.9175      1.00000
      4      -7.5595      1.00000
      5      -7.3182      1.00000
      6      -7.1977      1.00000
      7      -7.0107      1.00000
      8      -6.8370      1.00000
      9      -6.7832      1.00000
     10      -6.6663      1.00000
     11      -6.6364      1.00000
     12      -6.5012      1.00000
     13      -6.3858      1.00000
     14      -6.3427      1.00000
     15      -6.3281      1.00000
     16      -6.2106      1.00000
     17      -6.1777      1.00000
     18      -6.1145      1.00000
     19      -6.0655      1.00000
     20      -5.9641      1.00000
     21      -5.8171      1.00000
     22      -5.6728      1.00000
     23      -5.6214      1.00000
     24      -5.5338      1.00000
     25      -5.4018      1.00000
     26      -5.3286      1.00000
     27      -5.2528      1.00000
     28      -5.1717      1.00000
     29      -5.1380      1.00000
     30      -5.0679      1.00000
     31      -4.9976      1.00000
     32      -4.9261      1.00000
     33      -4.8504      1.00000
     34      -4.8455      1.00000
     35      -4.7502      1.00006
     36      -4.7093      1.00019
     37      -4.6019      1.00239
     38      -4.5440      1.00698
     39      -4.4874      1.01609
     40      -4.4450      1.02554
     41      -4.3857      1.03536
     42      -4.3703      1.03502
     43      -4.3181      1.01341
     44      -4.2880      0.97947
     45      -4.2387      0.87829
     46      -4.1334      0.49016
     47      -4.0880      0.30417
     48      -4.0561      0.19096
     49      -4.0183      0.08588
     50      -3.9785      0.01355
     51      -3.8804     -0.03508
     52      -3.8585     -0.03227
     53      -3.8023     -0.02001
     54      -3.7325     -0.00758
     55      -2.6853     -0.00000
     56      -2.5872     -0.00000
     57      -2.3263     -0.00000
     58      -2.1686     -0.00000
     59      -2.0551     -0.00000
     60      -1.5661     -0.00000
     61      -0.7380     -0.00000
     62      -0.6688     -0.00000
     63      -0.3886     -0.00000
     64      -0.2597     -0.00000
     65      -0.1031     -0.00000
     66      -0.0434     -0.00000


--------------------------------------------------------------------------------------------------------


 soft charge-density along one line, spin component            1
         0         1         2         3         4         5         6         7         8         9
 total charge-density along one line
 
 soft charge-density along one line, spin component            2
         0         1         2         3         4         5         6         7         8         9
 total charge-density along one line
 
 pseudopotential strength for first ion, spin component:            1
-10.419  -0.005   0.102   0.075   0.036 -10.683  -0.005   0.097
 -0.005 -10.303  -0.039   0.062  -0.088  -0.005 -10.573  -0.038
  0.102  -0.039 -10.271   0.013  -0.083   0.097  -0.038 -10.541
  0.075   0.062   0.013 -10.244  -0.007   0.071   0.060   0.012
  0.036  -0.088  -0.083  -0.007 -10.107   0.035  -0.084  -0.079
-10.683  -0.005   0.097   0.071   0.035 -10.894  -0.004   0.093
 -0.005 -10.573  -0.038   0.060  -0.084  -0.004 -10.787  -0.036
  0.097  -0.038 -10.541   0.012  -0.079   0.093  -0.036 -10.758
  0.071   0.060   0.012 -10.516  -0.006   0.068   0.058   0.012
  0.035  -0.084  -0.079  -0.006 -10.385   0.033  -0.080  -0.075
  0.011  -0.018   0.001   0.004  -0.016   0.011  -0.017   0.001
  0.020  -0.032   0.002   0.007  -0.028   0.019  -0.030   0.002
 -0.000   0.019  -0.006  -0.002  -0.004  -0.000   0.018  -0.005
 -0.002  -0.004   0.021  -0.005  -0.002  -0.002  -0.004   0.020
  0.002  -0.002   0.004   0.015  -0.011   0.002  -0.002   0.003
  0.004   0.020  -0.006  -0.002  -0.003   0.004   0.019  -0.006
 -0.002  -0.007   0.023  -0.002  -0.002  -0.002  -0.007   0.022
  0.001  -0.002   0.002   0.016  -0.009   0.001  -0.002   0.002
 pseudopotential strength for first ion, spin component:            2
 -9.300  -0.000  -0.037   0.024  -0.021  -9.615  -0.000  -0.036
 -0.000  -9.430   0.062  -0.047  -0.020  -0.000  -9.740   0.059
 -0.037   0.062  -9.396  -0.007  -0.018  -0.036   0.059  -9.708
  0.024  -0.047  -0.007  -9.355   0.001   0.023  -0.045  -0.006
 -0.021  -0.020  -0.018   0.001  -9.462  -0.020  -0.019  -0.017
 -9.615  -0.000  -0.036   0.023  -0.020  -9.873  -0.000  -0.035
 -0.000  -9.740   0.059  -0.045  -0.019  -0.000  -9.994   0.057
 -0.036   0.059  -9.708  -0.006  -0.017  -0.035   0.057  -9.964
  0.023  -0.045  -0.006  -9.669   0.001   0.022  -0.044  -0.006
 -0.020  -0.019  -0.017   0.001  -9.772  -0.019  -0.018  -0.016
  0.001  -0.006   0.000   0.001  -0.006   0.001  -0.006   0.000
  0.002  -0.011  -0.000   0.001  -0.010   0.002  -0.010  -0.000
 -0.016   0.020  -0.002  -0.000  -0.004  -0.015   0.018  -0.002
 -0.000   0.005   0.022  -0.015   0.000  -0.000   0.005   0.021
  0.004  -0.000   0.009   0.020  -0.015   0.004  -0.000   0.008
 -0.018   0.022  -0.001   0.000  -0.003  -0.017   0.020  -0.001
  0.000   0.006   0.025  -0.016   0.001   0.000   0.005   0.023
  0.004   0.000   0.010   0.023  -0.015   0.003   0.000   0.009
 total augmentation occupancy for first ion, spin component:            1
  2.767  -0.045   0.302   0.039   0.172  -1.208   0.017  -0.136   0.036  -0.107  -0.019  -0.046  -0.185   0.075   0.061  -0.006
 -0.045   3.006   0.067   0.308  -0.188   0.018  -1.194  -0.126  -0.157   0.084   0.060   0.024   0.127   0.073   0.082   0.003
  0.302   0.067   2.889   0.031  -0.145  -0.129  -0.124  -1.085  -0.012   0.062   0.055  -0.007  -0.044   0.190   0.128   0.000
  0.039   0.308   0.031   3.028  -0.158   0.043  -0.162  -0.014  -1.217   0.121   0.027  -0.047   0.080  -0.111   0.140  -0.003
  0.172  -0.188  -0.145  -0.158   3.442  -0.105   0.075   0.052   0.127  -1.350   0.062   0.020  -0.129   0.002  -0.180   0.000
 -1.208   0.018  -0.129   0.043  -0.105   1.242   0.006   0.059  -0.086   0.080   0.050   0.027   0.282  -0.095  -0.081  -0.021
  0.017  -1.194  -0.124  -0.162   0.075   0.006   1.139   0.123   0.085  -0.025  -0.108  -0.015  -0.133  -0.155  -0.100   0.012
 -0.136  -0.126  -1.085  -0.014   0.052   0.059   0.123   1.039   0.010  -0.018  -0.035   0.008   0.020  -0.196  -0.159  -0.004
  0.036  -0.157  -0.012  -1.217   0.127  -0.086   0.085   0.010   1.158  -0.104   0.014   0.031  -0.101   0.169  -0.175   0.005
 -0.107   0.084   0.062   0.121  -1.350   0.080  -0.025  -0.018  -0.104   1.176  -0.067  -0.013   0.137  -0.019   0.183  -0.011
 -0.019   0.060   0.055   0.027   0.062   0.050  -0.108  -0.035   0.014  -0.067   1.925  -0.191  -0.136  -0.163   0.240   0.024
 -0.046   0.024  -0.007  -0.047   0.020   0.027  -0.015   0.008   0.031  -0.013  -0.191   0.028   0.024   0.029  -0.039  -0.004
 -0.185   0.127  -0.044   0.080  -0.129   0.282  -0.133   0.020  -0.101   0.137  -0.136   0.024   0.197  -0.013   0.020  -0.017
  0.075   0.073   0.190  -0.111   0.002  -0.095  -0.155  -0.196   0.169  -0.019  -0.163   0.029  -0.013   0.172   0.011  -0.001
  0.061   0.082   0.128   0.140  -0.180  -0.081  -0.100  -0.159  -0.175   0.183   0.240  -0.039   0.020   0.011   0.176   0.001
 -0.006   0.003   0.000  -0.003   0.000  -0.021   0.012  -0.004   0.005  -0.011   0.024  -0.004  -0.017  -0.001   0.001   0.002
 -0.003   0.002  -0.001  -0.007   0.000   0.006   0.013   0.018  -0.015   0.001   0.032  -0.004  -0.001  -0.017   0.001   0.000
  0.001  -0.004   0.003   0.002  -0.006   0.009   0.007   0.013   0.015  -0.016  -0.042   0.006   0.001   0.002  -0.019  -0.001
 total augmentation occupancy for first ion, spin component:            2
  1.619   0.070  -0.424  -0.213  -0.142  -0.734  -0.047   0.221   0.122   0.066  -0.063  -0.021  -0.084   0.012  -0.007  -0.011
  0.070   1.109   0.200  -0.239   0.201  -0.046  -0.530  -0.075   0.092  -0.100   0.058   0.016  -0.001   0.059   0.009   0.005
 -0.424   0.200   1.117   0.004   0.215   0.213  -0.078  -0.537  -0.017  -0.116  -0.028  -0.006   0.049  -0.008   0.028   0.000
 -0.213  -0.239   0.004   1.046   0.037   0.115   0.099  -0.016  -0.473  -0.018  -0.051  -0.022   0.031  -0.043   0.035   0.000
 -0.142   0.201   0.215   0.037   0.476   0.061  -0.088  -0.103  -0.023  -0.232   0.016   0.004   0.013   0.021   0.016  -0.002
 -0.734  -0.046   0.213   0.115   0.061   0.237   0.024  -0.105  -0.057  -0.026   0.030   0.010   0.023  -0.004   0.011   0.006
 -0.047  -0.530  -0.078   0.099  -0.088   0.024   0.167   0.027  -0.031   0.036  -0.024  -0.007   0.003  -0.017  -0.002  -0.004
  0.221  -0.075  -0.537  -0.016  -0.103  -0.105   0.027   0.171   0.013   0.051   0.014   0.001  -0.024   0.010  -0.008   0.001
  0.122   0.092  -0.017  -0.473  -0.023  -0.057  -0.031   0.013   0.126   0.007   0.020   0.009  -0.014   0.009  -0.014  -0.000
  0.066  -0.100  -0.116  -0.018  -0.232  -0.026   0.036   0.051   0.007   0.040  -0.006  -0.003  -0.009  -0.010  -0.013   0.002
 -0.063   0.058  -0.028  -0.051   0.016   0.030  -0.024   0.014   0.020  -0.006  -0.100   0.053   0.010   0.022  -0.035  -0.001
 -0.021   0.016  -0.006  -0.022   0.004   0.010  -0.007   0.001   0.009  -0.003   0.053  -0.006  -0.002  -0.003   0.004   0.001
 -0.084  -0.001   0.049   0.031   0.013   0.023   0.003  -0.024  -0.014  -0.009   0.010  -0.002  -0.001  -0.003   0.004   0.002
  0.012   0.059  -0.008  -0.043   0.021  -0.004  -0.017   0.010   0.009  -0.010   0.022  -0.003  -0.003  -0.003  -0.004   0.000
 -0.007   0.009   0.028   0.035   0.016   0.011  -0.002  -0.008  -0.014  -0.013  -0.035   0.004   0.004  -0.004  -0.002   0.000
 -0.011   0.005   0.000   0.000  -0.002   0.006  -0.004   0.001  -0.000   0.002  -0.001   0.001   0.002   0.000   0.000  -0.000
 -0.000   0.007   0.006  -0.009   0.001   0.000  -0.003  -0.005   0.005  -0.000  -0.002   0.001   0.000   0.002  -0.000  -0.000
  0.005  -0.000   0.003   0.006  -0.006  -0.003  -0.000  -0.002  -0.003   0.004   0.003  -0.001  -0.000  -0.000   0.002  -0.000


------------------------ aborting loop because EDIFF is reached ----------------------------------------


    CHARGE:  cpu time    0.6313: real time    0.6363
    FORLOC:  cpu time    0.0869: real time    0.0870
    FORNL :  cpu time    2.7629: real time    2.7690
    FORCOR:  cpu time    2.3700: real time    2.3763
    FORHAR:  cpu time    0.3262: real time    0.3264
    MIXING:  cpu time    0.0716: real time    0.0717
    OFIELD:  cpu time    0.0000: real time    0.0000

 VOLUME and BASIS-vectors are now :
 -----------------------------------------------------------------------------
  energy-cutoff  :      400.00
  volume of cell :    12132.73
      direct lattice vectors                 reciprocal lattice vectors
    23.865299258  0.000000000  0.000000000     0.041901842  0.000000000  0.000000000
     0.000000000 22.317307000  0.000000000     0.000000000  0.044808274  0.000000000
     0.000000000  0.000000000 22.779804850     0.000000000  0.000000000  0.043898532

  length of vectors
    23.865299258 22.317307000 22.779804850     0.041901842  0.044808274  0.043898532


 FORCES acting on ions
    electron-ion (+dipol)            ewald-force                    non-local-force                 convergence-correction
 -----------------------------------------------------------------------------------------------
   0.698E+03 -.523E+03 -.522E+03   -.694E+03 0.522E+03 0.519E+03   -.367E+01 0.157E+01 0.259E+01   -.343E-01 -.608E-01 0.402E-01
   0.370E+03 0.780E+03 -.933E+02   -.369E+03 -.778E+03 0.931E+02   -.124E+01 -.172E+01 0.190E+00   -.798E-01 -.974E-01 0.625E-01
   -.825E+03 -.348E+03 -.343E+03   0.822E+03 0.347E+03 0.341E+03   0.306E+01 0.702E+00 0.149E+01   -.592E-01 -.510E-01 0.350E-01
   0.225E+03 0.478E+03 0.916E+03   -.224E+03 -.474E+03 -.910E+03   -.130E+01 -.375E+01 -.626E+01   -.610E-01 -.818E-01 0.421E-01
   -.421E+02 -.620E+03 0.715E+03   0.422E+02 0.619E+03 -.712E+03   -.520E-01 0.110E+01 -.306E+01   -.806E-01 -.783E-01 0.739E-01
   0.162E+03 0.216E+03 -.104E+04   -.160E+03 -.215E+03 0.104E+04   -.200E+01 -.378E+00 0.713E+01   -.385E-01 -.147E-01 -.525E-01
   -.783E+03 0.305E+03 0.563E+03   0.776E+03 -.303E+03 -.559E+03   0.610E+01 -.156E+01 -.337E+01   -.569E-01 -.556E-01 0.451E-01
   -.195E+03 -.974E+03 -.914E+02   0.193E+03 0.966E+03 0.907E+02   0.194E+01 0.849E+01 0.677E+00   -.536E-02 0.474E-01 0.646E-01
   -.595E+03 0.719E+03 -.377E+03   0.590E+03 -.713E+03 0.375E+03   0.505E+01 -.617E+01 0.198E+01   -.453E-01 -.200E-01 0.166E-01
   0.985E+03 -.302E+02 0.276E+03   -.977E+03 0.294E+02 -.274E+03   -.806E+01 0.861E+00 -.122E+01   -.489E-02 -.541E-01 0.368E-01
 -----------------------------------------------------------------------------------------------
   0.640E+00 0.132E+01 -.525E+00   0.341E-12 -.263E-12 -.171E-12   -.179E+00 -.867E+00 0.154E+00   -.466E+00 -.466E+00 0.364E+00
 
 
 POSITION                                       TOTAL-FORCE (eV/Angst)
 -----------------------------------------------------------------------------------
     10.73017     14.73076     12.57471         0.004571      0.009249     -0.008772
     11.39993     12.52131     11.68532        -0.012046     -0.017727      0.008571
     13.18018     14.20072     12.35965        -0.011754     -0.007746     -0.011564
     11.27939     12.62059      9.38910        -0.003903     -0.001149      0.009494
     11.80428     14.62837     10.40918        -0.008982      0.025047      0.011224
     11.76329     13.15424     13.88758         0.019261      0.000076     -0.009547
     13.55891     12.77292     10.22076         0.016200     -0.005417      0.001850
     12.32033     16.43945     11.96223        -0.007301     -0.027014     -0.001464
     13.48618     11.80154     12.80401        -0.002227      0.018177      0.007367
      9.46802     13.70265     10.63198         0.006180      0.006504     -0.007160
 -----------------------------------------------------------------------------------
    total drift:                               -0.004976     -0.017436     -0.006557


--------------------------------------------------------------------------------------------------------



  FREE ENERGIE OF THE ION-ELECTRON SYSTEM (eV)
  ---------------------------------------------------
  free  energy   TOTEN  =       -37.94605252 eV

  energy  without entropy=      -37.96468854  energy(sigma->0) =      -37.95226453
 
 d Force = 0.1981303E-03[-0.298E-04, 0.426E-03]  d Energy = 0.2283297E-03-0.302E-04
 d Force = 0.2348834E+01[ 0.235E+01, 0.235E+01]  d Ewald  = 0.2348837E+01-0.362E-05


--------------------------------------------------------------------------------------------------------


    POTLOK:  cpu time    2.4649: real time    2.4682


--------------------------------------------------------------------------------------------------------




--------------------------------------------------------------------------------------------------------


  
 reached required accuracy - stopping structural energy minimisation
     LOOP+:  cpu time   89.6828: real time   89.8335
    4ORBIT:  cpu time    0.0000: real time    0.0000

 total amount of memory used by VASP MPI-rank0   156079. kBytes
=======================================================================

   base      :      30000. kBytes
   nonl-proj :       6175. kBytes
   fftplans  :      29552. kBytes
   grid      :      75747. kBytes
   one-center:         31. kBytes
   wavefun   :      14574. kBytes
 
  
  
 General timing and accounting informations for this job:
 ========================================================
  
                  Total CPU time used (sec):      600.783
                            User time (sec):      594.834
                          System time (sec):        5.950
                         Elapsed time (sec):      605.551
  
                   Maximum memory used (kb):      330172.
                   Average memory used (kb):           0.
  
                          Minor page faults:      1737762
                          Major page faults:        16168
                 Voluntary context switches:         4356
