<?xml version="1.0" encoding="ISO-8859-1"?>
<modeling>
 <generator>
  <i name="program" type="string">vasp </i>
  <i name="version" type="string">6.1.2  </i>
  <i name="subversion" type="string">22Jul20 (build Aug  2 2021 21:04:21) gamma-only                       parallel </i>
  <i name="platform" type="string">LinuxPGI </i>
  <i name="date" type="string">2021 12 23 </i>
  <i name="time" type="string">06:17:21 </i>
 </generator>
 <incar>
  <i type="int" name="ISPIN">     2</i>
  <i type="int" name="IBRION">     2</i>
  <i type="int" name="NSW">  1000</i>
  <i type="int" name="ISIF">     0</i>
  <i type="int" name="ISYM">     0</i>
  <i name="ENCUT">    400.00000000</i>
  <i type="logical" name="LREAL"> F  </i>
  <i type="int" name="ISMEAR">     1</i>
  <i name="SIGMA">      0.20000000</i>
  <i type="logical" name="LWAVE"> F  </i>
  <i type="logical" name="LCHARG"> F  </i>
  <i type="int" name="KPAR">     1</i>
  <i type="int" name="NCORE">     8</i>
  <i type="string" name="GGA"> PE</i>
  <i type="int" name="ISPIN">     2</i>
 </incar>
 <structure name="primitive_cell" >
  <crystal>
   <varray name="basis" >
    <v>      23.86529926       0.00000000       0.00000000 </v>
    <v>       0.00000000      22.31730700       0.00000000 </v>
    <v>       0.00000000       0.00000000      22.77980485 </v>
   </varray>
   <i name="volume">  12132.73386945 </i>
   <varray name="rec_basis" >
    <v>       0.04190184       0.00000000       0.00000000 </v>
    <v>       0.00000000       0.04480827       0.00000000 </v>
    <v>       0.00000000       0.00000000       0.04389853 </v>
   </varray>
  </crystal>
  <varray name="positions" >
   <v>       0.44963137       0.66011183       0.55201025 </v>
   <v>       0.47773314       0.56120680       0.51285581 </v>
   <v>       0.55236157       0.63638058       0.54281258 </v>
   <v>       0.47253291       0.56545877       0.41218229 </v>
   <v>       0.49467595       0.65560387       0.45691538 </v>
   <v>       0.49296825       0.58932374       0.60959005 </v>
   <v>       0.56817575       0.57226569       0.44859905 </v>
   <v>       0.51618158       0.73649177       0.52508946 </v>
   <v>       0.56488990       0.52887959       0.56206627 </v>
   <v>       0.39677835       0.61385799       0.46679547 </v>
  </varray>
 </structure>
 <varray name="primitive_index" >
  <v type="int" >        1 </v>
  <v type="int" >        2 </v>
  <v type="int" >        3 </v>
  <v type="int" >        4 </v>
  <v type="int" >        5 </v>
  <v type="int" >        6 </v>
  <v type="int" >        7 </v>
  <v type="int" >        8 </v>
  <v type="int" >        9 </v>
  <v type="int" >       10 </v>
 </varray>
 <kpoints>
  <generation param="Gamma">
   <v type="int" name="divisions">       1        1        1 </v>
   <v name="usershift">      0.00000000       0.00000000       0.00000000 </v>
   <v name="genvec1">      1.00000000       0.00000000       0.00000000 </v>
   <v name="genvec2">      0.00000000       1.00000000       0.00000000 </v>
   <v name="genvec3">      0.00000000       0.00000000       1.00000000 </v>
   <v name="shift">      0.00000000       0.00000000       0.00000000 </v>
  </generation>
  <varray name="kpointlist" >
   <v>       0.00000000       0.00000000       0.00000000 </v>
  </varray>
  <varray name="weights" >
   <v>       1.00000000 </v>
  </varray>
 </kpoints>
 <parameters>
  <separator name="general" >
   <i type="string" name="SYSTEM">unknown system</i>
   <i type="logical" name="LCOMPAT"> F  </i>
  </separator>
  <separator name="electronic" >
   <i type="string" name="PREC">normal</i>
   <i name="ENMAX">    400.00000000</i>
   <i name="ENAUG">    544.56500000</i>
   <i name="EDIFF">      0.00010000</i>
   <i type="int" name="IALGO">    38</i>
   <i type="int" name="IWAVPR">    11</i>
   <i type="int" name="NBANDS">    66</i>
   <i type="int" name="NBANDSLOW">    -1</i>
   <i type="int" name="NBANDSHIGH">    -1</i>
   <i name="NELECT">    100.00000000</i>
   <i type="int" name="TURBO">     0</i>
   <i type="int" name="IRESTART">     0</i>
   <i type="int" name="NREBOOT">     0</i>
   <i type="int" name="NMIN">     0</i>
   <i name="EREF">      0.00000000</i>
   <separator name="electronic smearing" >
    <i type="int" name="ISMEAR">     1</i>
    <i name="SIGMA">      0.20000000</i>
    <i name="KSPACING">      0.50000000</i>
    <i type="logical" name="KGAMMA"> T  </i>
    <i type="logical" name="KBLOWUP"> T  </i>
   </separator>
   <separator name="electronic projectors" >
    <i type="logical" name="LREAL"> F  </i>
    <v name="ROPT">      0.00000000      0.00000000</v>
    <i type="int" name="LMAXPAW">  -100</i>
    <i type="int" name="LMAXMIX">     2</i>
    <i type="logical" name="NLSPLINE"> F  </i>
   </separator>
   <separator name="electronic startup" >
    <i type="int" name="ISTART">     0</i>
    <i type="int" name="ICHARG">     2</i>
    <i type="int" name="INIWAV">     1</i>
   </separator>
   <separator name="electronic spin" >
    <i type="int" name="ISPIN">     2</i>
    <i type="logical" name="LNONCOLLINEAR"> F  </i>
    <v name="MAGMOM">      1.00000000      1.00000000      1.00000000      1.00000000      1.00000000      1.00000000      1.00000000      1.00000000      1.00000000      1.00000000</v>
    <i name="NUPDOWN">     -1.00000000</i>
    <i type="logical" name="LSORBIT"> F  </i>
    <v name="SAXIS">      0.00000000      0.00000000      1.00000000</v>
    <i type="logical" name="LSPIRAL"> F  </i>
    <v name="QSPIRAL">      0.00000000      0.00000000      0.00000000</v>
    <i type="logical" name="LZEROZ"> F  </i>
   </separator>
   <separator name="electronic exchange-correlation" >
    <i type="logical" name="LASPH"> F  </i>
    <i type="logical" name="LMETAGGA"> F  </i>
   </separator>
   <separator name="electronic convergence" >
    <i type="int" name="NELM">    60</i>
    <i type="int" name="NELMDL">     0</i>
    <i type="int" name="NELMIN">     2</i>
    <i name="ENINI">    400.00000000</i>
    <separator name="electronic convergence detail" >
     <i type="logical" name="LDIAG"> T  </i>
     <i type="logical" name="LSUBROT"> F  </i>
     <i name="WEIMIN">      0.00100000</i>
     <i name="EBREAK">      0.00000038</i>
     <i name="DEPER">      0.30000000</i>
     <i type="int" name="NRMM">     4</i>
     <i name="TIME">      0.40000000</i>
    </separator>
   </separator>
   <separator name="electronic mixer" >
    <i name="AMIX">      0.40000000</i>
    <i name="BMIX">      1.00000000</i>
    <i name="AMIN">      0.10000000</i>
    <i name="AMIX_MAG">      1.60000000</i>
    <i name="BMIX_MAG">      1.00000000</i>
    <separator name="electronic mixer details" >
     <i type="int" name="IMIX">     4</i>
     <i type="logical" name="MIXFIRST"> F  </i>
     <i type="int" name="MAXMIX">   -45</i>
     <i name="WC">    100.00000000</i>
     <i type="int" name="INIMIX">     1</i>
     <i type="int" name="MIXPRE">     1</i>
     <i type="int" name="MREMOVE">     5</i>
    </separator>
   </separator>
   <separator name="electronic dipolcorrection" >
    <i type="logical" name="LDIPOL"> F  </i>
    <i type="logical" name="LMONO"> F  </i>
    <i type="int" name="IDIPOL">     0</i>
    <i name="EPSILON">      1.00000000</i>
    <v name="DIPOL">   -100.00000000   -100.00000000   -100.00000000</v>
    <i name="EFIELD">      0.00000000</i>
   </separator>
  </separator>
  <separator name="grids" >
   <i type="int" name="NGX">   120</i>
   <i type="int" name="NGY">   112</i>
   <i type="int" name="NGZ">   112</i>
   <i type="int" name="NGXF">   240</i>
   <i type="int" name="NGYF">   224</i>
   <i type="int" name="NGZF">   224</i>
   <i type="logical" name="ADDGRID"> F  </i>
  </separator>
  <separator name="ionic" >
   <i type="int" name="NSW">  1000</i>
   <i type="int" name="IBRION">     2</i>
   <i type="int" name="MDALGO">     0</i>
   <i type="int" name="ISIF">     0</i>
   <i name="PSTRESS">      0.00000000</i>
   <i name="EDIFFG">      0.00100000</i>
   <i type="int" name="NFREE">     1</i>
   <i name="POTIM">      0.50000000</i>
   <i name="SMASS">     -3.00000000</i>
   <i name="SCALEE">      1.00000000</i>
  </separator>
  <separator name="ionic md" >
   <i name="TEBEG">      0.00010000</i>
   <i name="TEEND">      0.00010000</i>
   <i type="int" name="NBLOCK">     1</i>
   <i type="int" name="KBLOCK">  1000</i>
   <i type="int" name="NPACO">   256</i>
   <i name="APACO">     16.00000000</i>
  </separator>
  <separator name="symmetry" >
   <i type="int" name="ISYM">     0</i>
   <i name="SYMPREC">      0.00001000</i>
  </separator>
  <separator name="dos" >
   <i type="int" name="LORBIT">     0</i>
   <v name="RWIGS">     -1.00000000     -1.00000000</v>
   <i type="int" name="NEDOS">   301</i>
   <i name="EMIN">     10.00000000</i>
   <i name="EMAX">    -10.00000000</i>
   <i name="EFERMI">      0.00000000</i>
  </separator>
  <separator name="writing" >
   <i type="int" name="NWRITE">     2</i>
   <i type="logical" name="LWAVE"> F  </i>
   <i type="logical" name="LDOWNSAMPLE"> F  </i>
   <i type="logical" name="LCHARG"> F  </i>
   <i type="logical" name="LPARD"> F  </i>
   <i type="logical" name="LVTOT"> F  </i>
   <i type="logical" name="LVHAR"> F  </i>
   <i type="logical" name="LELF"> F  </i>
   <i type="logical" name="LOPTICS"> F  </i>
   <v name="STM">      0.00000000      0.00000000      0.00000000      0.00000000      0.00000000      0.00000000      0.00000000</v>
  </separator>
  <separator name="performance" >
   <i type="int" name="NPAR">     2</i>
   <i type="int" name="NSIM">     4</i>
   <i type="int" name="NBLK">    -1</i>
   <i type="logical" name="LPLANE"> T  </i>
   <i type="logical" name="LSCALAPACK"> T  </i>
   <i type="logical" name="LSCAAWARE"> F  </i>
   <i type="logical" name="LSCALU"> F  </i>
   <i type="logical" name="LASYNC"> F  </i>
   <i type="logical" name="LORBITALREAL"> F  </i>
  </separator>
  <separator name="miscellaneous" >
   <i type="int" name="IDIOT">     3</i>
   <i type="int" name="PHON_NSTRUCT">    -1</i>
   <i type="logical" name="LMUSIC"> F  </i>
   <v name="POMASS">     58.69000000    106.42000000</v>
   <v name="DARWINR">      0.00000000      0.00000000</v>
   <v name="DARWINV">      1.00000000      1.00000000</v>
   <i type="logical" name="LCORR"> T  </i>
  </separator>
  <i type="logical" name="GGA_COMPAT"> T  </i>
  <i type="logical" name="LBERRY"> F  </i>
  <i type="int" name="ICORELEVEL">     0</i>
  <i type="logical" name="LDAU"> F  </i>
  <i type="int" name="I_CONSTRAINED_M">     0</i>
  <separator name="electronic exchange-correlation" >
   <i type="string" name="GGA">PE</i>
   <i type="int" name="VOSKOWN">     0</i>
   <i type="logical" name="LHFCALC"> F  </i>
   <i type="string" name="PRECFOCK"></i>
   <i type="logical" name="LSYMGRAD"> F  </i>
   <i type="logical" name="LHFONE"> F  </i>
   <i type="logical" name="LRHFCALC"> F  </i>
   <i type="logical" name="LTHOMAS"> F  </i>
   <i type="logical" name="LMODELHF"> F  </i>
   <i type="logical" name="LFOCKACE"> F  </i>
   <i name="ENCUT4O">     -1.00000000</i>
   <i type="int" name="EXXOEP">     0</i>
   <i type="int" name="FOURORBIT">     0</i>
   <i name="AEXX">      0.00000000</i>
   <i name="HFALPHA">      0.00000000</i>
   <i name="MCALPHA">      0.00000000</i>
   <i name="ALDAX">      1.00000000</i>
   <i name="AGGAX">      1.00000000</i>
   <i name="ALDAC">      1.00000000</i>
   <i name="AGGAC">      1.00000000</i>
   <i type="int" name="NKREDX">     1</i>
   <i type="int" name="NKREDY">     1</i>
   <i type="int" name="NKREDZ">     1</i>
   <i type="logical" name="SHIFTRED"> F  </i>
   <i type="logical" name="ODDONLY"> F  </i>
   <i type="logical" name="EVENONLY"> F  </i>
   <i type="int" name="LMAXFOCK">     0</i>
   <i type="int" name="NMAXFOCKAE">     0</i>
   <i type="logical" name="LFOCKAEDFT"> F  </i>
   <i name="HFSCREEN">      0.00000000</i>
   <i name="HFSCREENC">      0.00000000</i>
   <i type="int" name="NBANDSGWLOW">     0</i>
  </separator>
  <separator name="vdW DFT" >
   <i type="logical" name="LUSE_VDW"> F  </i>
   <i name="Zab_VDW">     -0.84910000</i>
   <i name="PARAM1">      0.12340000</i>
   <i name="PARAM2">      1.00000000</i>
   <i name="PARAM3">      0.00000000</i>
  </separator>
  <separator name="model GW" >
   <i type="int" name="MODEL_GW">     0</i>
   <i name="MODEL_EPS0">    727.96403217</i>
   <i name="MODEL_ALPHA">      1.00000000</i>
  </separator>
  <separator name="linear response parameters" >
   <i type="logical" name="LEPSILON"> F  </i>
   <i type="logical" name="LRPA"> F  </i>
   <i type="logical" name="LNABLA"> F  </i>
   <i type="logical" name="LVEL"> F  </i>
   <i type="int" name="KINTER">     0</i>
   <i name="CSHIFT">      0.10000000</i>
   <i name="OMEGAMAX">     -1.00000000</i>
   <i name="DEG_THRESHOLD">      0.00200000</i>
   <i name="RTIME">     -0.10000000</i>
   <i name="WPLASMAI">      0.00000000</i>
   <v name="DFIELD">      0.00000000      0.00000000      0.00000000</v>
   <v name="WPLASMA">      0.00000000      0.00000000      0.00000000      0.00000000      0.00000000      0.00000000      0.00000000      0.00000000      0.00000000</v>
  </separator>
  <separator name="orbital magnetization" >
   <i type="logical" name="NUCIND"> F  </i>
   <v name="MAGPOS">      0.00000000      0.00000000      0.00000000</v>
   <i type="logical" name="LNICSALL"> T  </i>
   <i type="logical" name="ORBITALMAG"> F  </i>
   <i type="logical" name="LMAGBLOCH"> F  </i>
   <i type="logical" name="LCHIMAG"> F  </i>
   <i type="logical" name="LGAUGE"> T  </i>
   <i type="int" name="MAGATOM">     0</i>
   <v name="MAGDIPOL">      0.00000000      0.00000000      0.00000000</v>
   <v name="AVECCONST">      0.00000000      0.00000000      0.00000000</v>
  </separator>
  <separator name="response functions" >
   <i type="logical" name="LFINITE_TEMPERATURE"> F  </i>
   <i type="logical" name="LADDER"> F  </i>
   <i type="logical" name="LRPAFORCE"> F  </i>
   <i type="logical" name="LFXC"> F  </i>
   <i type="logical" name="LHARTREE"> T  </i>
   <i type="int" name="IBSE">     0</i>
   <v type="int" name="KPOINT">    -1     0     0     0</v>
   <i type="logical" name="LTCTC"> F  </i>
   <i type="logical" name="LTCTE"> F  </i>
   <i type="logical" name="LTETE"> F  </i>
   <i type="logical" name="LTRIPLET"> F  </i>
   <i type="logical" name="LFXCEPS"> F  </i>
   <i type="logical" name="LFXHEG"> F  </i>
   <i type="int" name="NATURALO">     2</i>
   <i type="logical" name="LHOLEGF"> F  </i>
   <i type="logical" name="L2ORDER"> F  </i>
   <i type="logical" name="LDMP1"> F  </i>
   <i type="logical" name="LMP2LT"> F  </i>
   <i type="logical" name="LSMP2LT"> F  </i>
   <i type="logical" name="LGWLF"> F  </i>
   <i name="ENCUTGW">     -2.00000000</i>
   <i name="ENCUTGWSOFT">     -2.00000000</i>
   <i name="ENCUTLF">     -1.00000000</i>
   <i type="logical" name="LESF_SPLINES"> F  </i>
   <i type="int" name="LMAXMP2">    -1</i>
   <i name="SCISSOR">      0.00000000</i>
   <i type="int" name="NOMEGA">     0</i>
   <i type="int" name="NOMEGAR">     0</i>
   <i type="int" name="NBANDSGW">    -1</i>
   <i type="int" name="NBANDSO">    -1</i>
   <i type="int" name="NBANDSV">    -1</i>
   <i type="int" name="NELM">     1</i>
   <i type="int" name="NELMHF">     1</i>
   <i type="int" name="DIM">     3</i>
   <i type="int" name="IESPILON">     4</i>
   <i type="int" name="ANTIRES">     0</i>
   <i name="OMEGAMAX">    -30.00000000</i>
   <i name="OMEGAMIN">    -30.00000000</i>
   <i name="OMEGATL">   -200.00000000</i>
   <i type="int" name="OMEGAGRID">     0</i>
   <i name="CSHIFT">     -0.10000000</i>
   <i type="logical" name="LSELFENERGY"> F  </i>
   <i type="logical" name="LSPECTRAL"> F  </i>
   <i type="logical" name="LSPECTRALGW"> F  </i>
   <i type="logical" name="LSINGLES"> F  </i>
   <i type="logical" name="LFERMIGW"> F  </i>
   <i type="logical" name="ODDONLYGW"> F  </i>
   <i type="logical" name="EVENONLYGW"> F  </i>
   <i type="int" name="NKREDLFX">     1</i>
   <i type="int" name="NKREDLFY">     1</i>
   <i type="int" name="NKREDLFZ">     1</i>
   <i type="int" name="MAXMEM">  2800</i>
   <i type="int" name="TELESCOPE">     0</i>
   <i type="int" name="NTAUPAR">    -1</i>
   <i type="int" name="NOMEGAPAR">    -1</i>
   <i name="LAMBDA">      1.00000000</i>
  </separator>
  <separator name="External order field" >
   <i name="OFIELD_KAPPA">      0.00000000</i>
   <v name="OFIELD_K">      0.00000000      0.00000000      0.00000000</v>
   <i name="OFIELD_Q6_NEAR">      0.00000000</i>
   <i name="OFIELD_Q6_FAR">      0.00000000</i>
   <i name="OFIELD_A">      0.00000000</i>
  </separator>
 </parameters>
 <atominfo>
  <atoms>      10 </atoms>
  <types>       2 </types>
  <array name="atoms" >
   <dimension dim="1">ion</dimension>
   <field type="string">element</field>
   <field type="int">atomtype</field>
   <set>
    <rc><c>Ni</c><c>   1</c></rc>
    <rc><c>Ni</c><c>   1</c></rc>
    <rc><c>Ni</c><c>   1</c></rc>
    <rc><c>Ni</c><c>   1</c></rc>
    <rc><c>Ni</c><c>   1</c></rc>
    <rc><c>Ni</c><c>   1</c></rc>
    <rc><c>Pd</c><c>   2</c></rc>
    <rc><c>Pd</c><c>   2</c></rc>
    <rc><c>Pd</c><c>   2</c></rc>
    <rc><c>Pd</c><c>   2</c></rc>
   </set>
  </array>
  <array name="atomtypes" >
   <dimension dim="1">type</dimension>
   <field type="int">atomspertype</field>
   <field type="string">element</field>
   <field>mass</field>
   <field>valence</field>
   <field type="string">pseudopotential</field>
   <set>
    <rc><c>   6</c><c>Ni</c><c>     58.69000000</c><c>     10.00000000</c><c>  PAW_PBE Ni 02Aug2007                  </c></rc>
    <rc><c>   4</c><c>Pd</c><c>    106.42000000</c><c>     10.00000000</c><c>  PAW_PBE Pd 04Jan2005                  </c></rc>
   </set>
  </array>
 </atominfo>
 <structure name="initialpos" >
  <crystal>
   <varray name="basis" >
    <v>      23.86529926       0.00000000       0.00000000 </v>
    <v>       0.00000000      22.31730700       0.00000000 </v>
    <v>       0.00000000       0.00000000      22.77980485 </v>
   </varray>
   <i name="volume">  12132.73386945 </i>
   <varray name="rec_basis" >
    <v>       0.04190184       0.00000000       0.00000000 </v>
    <v>       0.00000000       0.04480827       0.00000000 </v>
    <v>       0.00000000       0.00000000       0.04389853 </v>
   </varray>
  </crystal>
  <varray name="positions" >
   <v>       0.44963137       0.66011183       0.55201025 </v>
   <v>       0.47773314       0.56120680       0.51285581 </v>
   <v>       0.55236157       0.63638058       0.54281258 </v>
   <v>       0.47253291       0.56545877       0.41218229 </v>
   <v>       0.49467595       0.65560387       0.45691538 </v>
   <v>       0.49296825       0.58932374       0.60959005 </v>
   <v>       0.56817575       0.57226569       0.44859905 </v>
   <v>       0.51618158       0.73649177       0.52508946 </v>
   <v>       0.56488990       0.52887959       0.56206627 </v>
   <v>       0.39677835       0.61385799       0.46679547 </v>
  </varray>
 </structure>
 <calculation>
  <scstep>
   <time name="dav">    6.30    6.31</time>
   <time name="total">    8.81    8.83</time>
   <energy>
    <i name="alphaZ">      4.67081296 </i>
    <i name="ewald">  13023.40248028 </i>
    <i name="hartreedc"> -21994.33341418 </i>
    <i name="XCdc">     63.17664091 </i>
    <i name="pawpsdc">   9003.59075477 </i>
    <i name="pawaedc">  -9155.75339974 </i>
    <i name="eentropy">      0.01490104 </i>
    <i name="bandstr">     41.63553968 </i>
    <i name="atom">   9704.95859309 </i>
    <i name="e_fr_energy">    691.36290882 </i>
    <i name="e_wo_entrp">    691.34800778 </i>
    <i name="e_0_energy">    691.35794180 </i>
   </energy>
  </scstep>
  <scstep>
   <time name="dav">    9.45    9.47</time>
   <time name="total">    9.45    9.47</time>
   <energy>
    <i name="e_fr_energy">    242.23137369 </i>
    <i name="e_wo_entrp">    242.23203561 </i>
    <i name="e_0_energy">    242.23159433 </i>
   </energy>
  </scstep>
  <scstep>
   <time name="dav">    7.78    7.80</time>
   <time name="total">    7.78    7.80</time>
   <energy>
    <i name="e_fr_energy">     18.67988135 </i>
    <i name="e_wo_entrp">     18.69498283 </i>
    <i name="e_0_energy">     18.68491518 </i>
   </energy>
  </scstep>
  <scstep>
   <time name="dav">    8.00    8.01</time>
   <time name="total">    8.00    8.01</time>
   <energy>
    <i name="e_fr_energy">    -37.86655596 </i>
    <i name="e_wo_entrp">    -37.84168959 </i>
    <i name="e_0_energy">    -37.85826717 </i>
   </energy>
  </scstep>
  <scstep>
   <time name="dav">    6.77    6.78</time>
   <time name="total">    7.46    7.47</time>
   <energy>
    <i name="e_fr_energy">    -44.00364822 </i>
    <i name="e_wo_entrp">    -43.99741428 </i>
    <i name="e_0_energy">    -44.00157024 </i>
   </energy>
  </scstep>
  <scstep>
   <time name="dav">    6.40    6.41</time>
   <time name="total">    9.59    9.61</time>
   <energy>
    <i name="e_fr_energy">    -55.70086723 </i>
    <i name="e_wo_entrp">    -55.67720729 </i>
    <i name="e_0_energy">    -55.69298058 </i>
   </energy>
  </scstep>
  <scstep>
   <time name="dav">    7.38    7.39</time>
   <time name="total">   10.55   10.56</time>
   <energy>
    <i name="e_fr_energy">    -39.42558561 </i>
    <i name="e_wo_entrp">    -39.40508651 </i>
    <i name="e_0_energy">    -39.41875258 </i>
   </energy>
  </scstep>
  <scstep>
   <time name="dav">    7.25    7.26</time>
   <time name="total">   10.43   10.44</time>
   <energy>
    <i name="e_fr_energy">    -39.42576047 </i>
    <i name="e_wo_entrp">    -39.38773394 </i>
    <i name="e_0_energy">    -39.41308496 </i>
   </energy>
  </scstep>
  <scstep>
   <time name="dav">    7.33    7.35</time>
   <time name="total">   10.52   10.54</time>
   <energy>
    <i name="e_fr_energy">    -43.01172550 </i>
    <i name="e_wo_entrp">    -42.98783991 </i>
    <i name="e_0_energy">    -43.00376364 </i>
   </energy>
  </scstep>
  <scstep>
   <time name="dav">    7.44    7.45</time>
   <time name="total">   10.62   10.63</time>
   <energy>
    <i name="e_fr_energy">    -38.86565321 </i>
    <i name="e_wo_entrp">    -38.89073992 </i>
    <i name="e_0_energy">    -38.87401545 </i>
   </energy>
  </scstep>
  <scstep>
   <time name="dav">    7.14    7.16</time>
   <time name="total">   10.35   10.37</time>
   <energy>
    <i name="e_fr_energy">    -36.87597756 </i>
    <i name="e_wo_entrp">    -36.89213974 </i>
    <i name="e_0_energy">    -36.88136495 </i>
   </energy>
  </scstep>
  <scstep>
   <time name="dav">    7.12    7.13</time>
   <time name="total">   10.31   10.33</time>
   <energy>
    <i name="e_fr_energy">    -36.01463655 </i>
    <i name="e_wo_entrp">    -36.02443719 </i>
    <i name="e_0_energy">    -36.01790343 </i>
   </energy>
  </scstep>
  <scstep>
   <time name="dav">    7.42    7.43</time>
   <time name="total">   10.60   10.62</time>
   <energy>
    <i name="e_fr_energy">    -35.65361134 </i>
    <i name="e_wo_entrp">    -35.65441057 </i>
    <i name="e_0_energy">    -35.65387775 </i>
   </energy>
  </scstep>
  <scstep>
   <time name="dav">    7.22    7.23</time>
   <time name="total">   10.44   10.45</time>
   <energy>
    <i name="e_fr_energy">    -35.74360750 </i>
    <i name="e_wo_entrp">    -35.78735788 </i>
    <i name="e_0_energy">    -35.75819096 </i>
   </energy>
  </scstep>
  <scstep>
   <time name="dav">    7.33    7.34</time>
   <time name="total">   10.55   10.57</time>
   <energy>
    <i name="e_fr_energy">    -35.18246075 </i>
    <i name="e_wo_entrp">    -35.21576499 </i>
    <i name="e_0_energy">    -35.19356216 </i>
   </energy>
  </scstep>
  <scstep>
   <time name="dav">    8.04    8.05</time>
   <time name="total">   11.24   11.27</time>
   <energy>
    <i name="e_fr_energy">    -35.44146736 </i>
    <i name="e_wo_entrp">    -35.46328632 </i>
    <i name="e_0_energy">    -35.44874035 </i>
   </energy>
  </scstep>
  <scstep>
   <time name="dav">    7.23    7.24</time>
   <time name="total">   10.46   10.47</time>
   <energy>
    <i name="e_fr_energy">    -35.76304050 </i>
    <i name="e_wo_entrp">    -35.78227155 </i>
    <i name="e_0_energy">    -35.76945085 </i>
   </energy>
  </scstep>
  <scstep>
   <time name="dav">    7.25    7.26</time>
   <time name="total">   10.50   10.51</time>
   <energy>
    <i name="e_fr_energy">    -35.95769527 </i>
    <i name="e_wo_entrp">    -35.97953301 </i>
    <i name="e_0_energy">    -35.96497452 </i>
   </energy>
  </scstep>
  <scstep>
   <time name="dav">    7.46    7.46</time>
   <time name="total">   10.69   10.70</time>
   <energy>
    <i name="e_fr_energy">    -36.50617095 </i>
    <i name="e_wo_entrp">    -36.53193580 </i>
    <i name="e_0_energy">    -36.51475924 </i>
   </energy>
  </scstep>
  <scstep>
   <time name="dav">    7.72    7.73</time>
   <time name="total">   10.95   10.97</time>
   <energy>
    <i name="e_fr_energy">    -36.87394320 </i>
    <i name="e_wo_entrp">    -36.89645699 </i>
    <i name="e_0_energy">    -36.88144780 </i>
   </energy>
  </scstep>
  <scstep>
   <time name="dav">    7.17    7.18</time>
   <time name="total">   10.44   10.45</time>
   <energy>
    <i name="e_fr_energy">    -37.05951534 </i>
    <i name="e_wo_entrp">    -37.08450723 </i>
    <i name="e_0_energy">    -37.06784597 </i>
   </energy>
  </scstep>
  <scstep>
   <time name="dav">    7.75    7.76</time>
   <time name="total">   11.01   11.03</time>
   <energy>
    <i name="e_fr_energy">    -37.28763385 </i>
    <i name="e_wo_entrp">    -37.30847328 </i>
    <i name="e_0_energy">    -37.29458033 </i>
   </energy>
  </scstep>
  <scstep>
   <time name="dav">    7.85    7.86</time>
   <time name="total">   11.11   11.13</time>
   <energy>
    <i name="e_fr_energy">    -37.36549616 </i>
    <i name="e_wo_entrp">    -37.38428998 </i>
    <i name="e_0_energy">    -37.37176076 </i>
   </energy>
  </scstep>
  <scstep>
   <time name="dav">    7.22    7.23</time>
   <time name="total">   10.49   10.50</time>
   <energy>
    <i name="e_fr_energy">    -37.45200973 </i>
    <i name="e_wo_entrp">    -37.47060007 </i>
    <i name="e_0_energy">    -37.45820651 </i>
   </energy>
  </scstep>
  <scstep>
   <time name="dav">    7.29    7.30</time>
   <time name="total">   10.57   10.58</time>
   <energy>
    <i name="e_fr_energy">    -37.53648315 </i>
    <i name="e_wo_entrp">    -37.55595139 </i>
    <i name="e_0_energy">    -37.54297257 </i>
   </energy>
  </scstep>
  <scstep>
   <time name="dav">    7.09    7.10</time>
   <time name="total">   10.41   10.43</time>
   <energy>
    <i name="e_fr_energy">    -37.63499188 </i>
    <i name="e_wo_entrp">    -37.65377115 </i>
    <i name="e_0_energy">    -37.64125164 </i>
   </energy>
  </scstep>
  <scstep>
   <time name="dav">    6.11    6.11</time>
   <time name="total">    9.41    9.42</time>
   <energy>
    <i name="e_fr_energy">    -37.71827257 </i>
    <i name="e_wo_entrp">    -37.73717877 </i>
    <i name="e_0_energy">    -37.72457464 </i>
   </energy>
  </scstep>
  <scstep>
   <time name="dav">    6.47    6.48</time>
   <time name="total">    9.80    9.81</time>
   <energy>
    <i name="e_fr_energy">    -37.79440007 </i>
    <i name="e_wo_entrp">    -37.81361090 </i>
    <i name="e_0_energy">    -37.80080368 </i>
   </energy>
  </scstep>
  <scstep>
   <time name="dav">    5.85    5.86</time>
   <time name="total">    9.18    9.20</time>
   <energy>
    <i name="e_fr_energy">    -37.83847867 </i>
    <i name="e_wo_entrp">    -37.85739581 </i>
    <i name="e_0_energy">    -37.84478438 </i>
   </energy>
  </scstep>
  <scstep>
   <time name="dav">    5.82    5.83</time>
   <time name="total">    9.17    9.18</time>
   <energy>
    <i name="e_fr_energy">    -37.87146194 </i>
    <i name="e_wo_entrp">    -37.89047235 </i>
    <i name="e_0_energy">    -37.87779875 </i>
   </energy>
  </scstep>
  <scstep>
   <time name="dav">    5.53    5.54</time>
   <time name="total">    8.94    8.96</time>
   <energy>
    <i name="e_fr_energy">    -37.89452048 </i>
    <i name="e_wo_entrp">    -37.91357009 </i>
    <i name="e_0_energy">    -37.90087035 </i>
   </energy>
  </scstep>
  <scstep>
   <time name="dav">    5.37    5.38</time>
   <time name="total">    8.77    8.78</time>
   <energy>
    <i name="e_fr_energy">    -37.91517501 </i>
    <i name="e_wo_entrp">    -37.93411665 </i>
    <i name="e_0_energy">    -37.92148889 </i>
   </energy>
  </scstep>
  <scstep>
   <time name="dav">    5.63    5.64</time>
   <time name="total">    9.04    9.05</time>
   <energy>
    <i name="e_fr_energy">    -37.92911811 </i>
    <i name="e_wo_entrp">    -37.94810078 </i>
    <i name="e_0_energy">    -37.93544567 </i>
   </energy>
  </scstep>
  <scstep>
   <time name="dav">    4.86    4.87</time>
   <time name="total">    8.26    8.27</time>
   <energy>
    <i name="e_fr_energy">    -37.93553306 </i>
    <i name="e_wo_entrp">    -37.95450834 </i>
    <i name="e_0_energy">    -37.94185816 </i>
   </energy>
  </scstep>
  <scstep>
   <time name="dav">    4.62    4.62</time>
   <time name="total">    8.06    8.07</time>
   <energy>
    <i name="e_fr_energy">    -37.93869615 </i>
    <i name="e_wo_entrp">    -37.95761763 </i>
    <i name="e_0_energy">    -37.94500331 </i>
   </energy>
  </scstep>
  <scstep>
   <time name="dav">    4.82    4.82</time>
   <time name="total">    8.26    8.27</time>
   <energy>
    <i name="e_fr_energy">    -37.94087519 </i>
    <i name="e_wo_entrp">    -37.95975833 </i>
    <i name="e_0_energy">    -37.94716957 </i>
   </energy>
  </scstep>
  <scstep>
   <time name="dav">    4.67    4.67</time>
   <time name="total">    8.10    8.12</time>
   <energy>
    <i name="e_fr_energy">    -37.94232121 </i>
    <i name="e_wo_entrp">    -37.96118830 </i>
    <i name="e_0_energy">    -37.94861024 </i>
   </energy>
  </scstep>
  <scstep>
   <time name="dav">    4.79    4.81</time>
   <time name="total">    8.30    8.31</time>
   <energy>
    <i name="e_fr_energy">    -37.94354539 </i>
    <i name="e_wo_entrp">    -37.96241966 </i>
    <i name="e_0_energy">    -37.94983681 </i>
   </energy>
  </scstep>
  <scstep>
   <time name="dav">    4.73    4.74</time>
   <time name="total">    8.22    8.24</time>
   <energy>
    <i name="e_fr_energy">    -37.94429203 </i>
    <i name="e_wo_entrp">    -37.96316146 </i>
    <i name="e_0_energy">    -37.95058184 </i>
   </energy>
  </scstep>
  <scstep>
   <time name="dav">    4.62    4.63</time>
   <time name="total">    8.13    8.15</time>
   <energy>
    <i name="e_fr_energy">    -37.94464888 </i>
    <i name="e_wo_entrp">    -37.96350986 </i>
    <i name="e_0_energy">    -37.95093587 </i>
   </energy>
  </scstep>
  <scstep>
   <time name="dav">    4.61    4.62</time>
   <time name="total">    8.12    8.13</time>
   <energy>
    <i name="e_fr_energy">    -37.94488066 </i>
    <i name="e_wo_entrp">    -37.96373322 </i>
    <i name="e_0_energy">    -37.95116485 </i>
   </energy>
  </scstep>
  <scstep>
   <time name="dav">    4.50    4.51</time>
   <time name="total">    8.05    8.06</time>
   <energy>
    <i name="e_fr_energy">    -37.94503934 </i>
    <i name="e_wo_entrp">    -37.96388604 </i>
    <i name="e_0_energy">    -37.95132158 </i>
   </energy>
  </scstep>
  <scstep>
   <time name="dav">    4.52    4.52</time>
   <time name="total">    8.10    8.11</time>
   <energy>
    <i name="e_fr_energy">    -37.94521069 </i>
    <i name="e_wo_entrp">    -37.96406624 </i>
    <i name="e_0_energy">    -37.95149587 </i>
   </energy>
  </scstep>
  <scstep>
   <time name="dav">    4.57    4.58</time>
   <time name="total">    8.18    8.19</time>
   <energy>
    <i name="e_fr_energy">    -37.94536102 </i>
    <i name="e_wo_entrp">    -37.96421865 </i>
    <i name="e_0_energy">    -37.95164690 </i>
   </energy>
  </scstep>
  <scstep>
   <time name="dav">    4.58    4.59</time>
   <time name="total">    7.05    7.06</time>
   <energy>
    <i name="alphaZ">      4.67081296 </i>
    <i name="ewald">  13023.40248028 </i>
    <i name="hartreedc"> -22070.03800196 </i>
    <i name="XCdc">     60.34467825 </i>
    <i name="pawpsdc">  10152.25370793 </i>
    <i name="pawaedc"> -10317.38684695 </i>
    <i name="eentropy">      0.01885979 </i>
    <i name="bandstr">   -596.16971411 </i>
    <i name="atom">   9704.95859309 </i>
    <i name="e_fr_energy">    -37.94543072 </i>
    <i name="e_wo_entrp">    -37.96429050 </i>
    <i name="e_0_energy">    -37.95171731 </i>
   </energy>
  </scstep>
  <structure>
   <crystal>
    <varray name="basis" >
     <v>      23.86529926       0.00000000       0.00000000 </v>
     <v>       0.00000000      22.31730700       0.00000000 </v>
     <v>       0.00000000       0.00000000      22.77980485 </v>
    </varray>
    <i name="volume">  12132.73386945 </i>
    <varray name="rec_basis" >
     <v>       0.04190184       0.00000000       0.00000000 </v>
     <v>       0.00000000       0.04480827       0.00000000 </v>
     <v>       0.00000000       0.00000000       0.04389853 </v>
    </varray>
   </crystal>
   <varray name="positions" >
    <v>       0.44963137       0.66011183       0.55201025 </v>
    <v>       0.47773314       0.56120680       0.51285581 </v>
    <v>       0.55236157       0.63638058       0.54281258 </v>
    <v>       0.47253291       0.56545877       0.41218229 </v>
    <v>       0.49467595       0.65560387       0.45691538 </v>
    <v>       0.49296825       0.58932374       0.60959005 </v>
    <v>       0.56817575       0.57226569       0.44859905 </v>
    <v>       0.51618158       0.73649177       0.52508946 </v>
    <v>       0.56488990       0.52887959       0.56206627 </v>
    <v>       0.39677835       0.61385799       0.46679547 </v>
   </varray>
  </structure>
  <varray name="forces" >
   <v>      -0.00327929      -0.00917679       0.00017066 </v>
   <v>      -0.01038355      -0.02628052       0.02033376 </v>
   <v>      -0.01658570      -0.01256611      -0.04373172 </v>
   <v>       0.01782349       0.00853819      -0.00259320 </v>
   <v>      -0.01041099      -0.02333235       0.00583178 </v>
   <v>      -0.01222911       0.01684457       0.00982147 </v>
   <v>      -0.00613526       0.01180728       0.01396661 </v>
   <v>       0.01189767       0.02329220       0.00631577 </v>
   <v>       0.03890784      -0.01286892       0.00199742 </v>
   <v>      -0.00960510       0.02374246      -0.01211255 </v>
  </varray>
  <energy>
   <i name="e_fr_energy">    -37.94543072 </i>
   <i name="e_wo_entrp">    -37.96429050 </i>
   <i name="e_0_energy">    -37.95171731 </i>
  </energy>
  <time name="totalsc">  434.35  435.02</time>
 </calculation>
 <calculation>
  <scstep>
   <time name="dav">    6.03    6.04</time>
   <time name="total">    9.21    9.22</time>
   <energy>
    <i name="alphaZ">      4.67081296 </i>
    <i name="ewald">  13021.94953258 </i>
    <i name="hartreedc"> -22068.60331108 </i>
    <i name="XCdc">     60.33900523 </i>
    <i name="pawpsdc">  10152.26755034 </i>
    <i name="pawaedc"> -10317.40124417 </i>
    <i name="eentropy">      0.01853054 </i>
    <i name="bandstr">   -596.14516041 </i>
    <i name="atom">   9704.95859309 </i>
    <i name="e_fr_energy">    -37.94569092 </i>
    <i name="e_wo_entrp">    -37.96422146 </i>
    <i name="e_0_energy">    -37.95186777 </i>
   </energy>
  </scstep>
  <scstep>
   <time name="dav">    8.19    8.21</time>
   <time name="total">   11.33   11.36</time>
   <energy>
    <i name="e_fr_energy">    -37.94663770 </i>
    <i name="e_wo_entrp">    -37.96563758 </i>
    <i name="e_0_energy">    -37.95297099 </i>
   </energy>
  </scstep>
  <scstep>
   <time name="dav">    6.58    6.59</time>
   <time name="total">    9.70    9.73</time>
   <energy>
    <i name="e_fr_energy">    -37.94497259 </i>
    <i name="e_wo_entrp">    -37.96355295 </i>
    <i name="e_0_energy">    -37.95116605 </i>
   </energy>
  </scstep>
  <scstep>
   <time name="dav">    5.54    5.55</time>
   <time name="total">    8.65    8.69</time>
   <energy>
    <i name="e_fr_energy">    -37.94593938 </i>
    <i name="e_wo_entrp">    -37.96457238 </i>
    <i name="e_0_energy">    -37.95215038 </i>
   </energy>
  </scstep>
  <scstep>
   <time name="dav">    4.64    4.66</time>
   <time name="total">    7.76    7.80</time>
   <energy>
    <i name="e_fr_energy">    -37.94562169 </i>
    <i name="e_wo_entrp">    -37.96436732 </i>
    <i name="e_0_energy">    -37.95187024 </i>
   </energy>
  </scstep>
  <scstep>
   <time name="dav">    4.35    4.37</time>
   <time name="total">    7.49    7.52</time>
   <energy>
    <i name="e_fr_energy">    -37.94585880 </i>
    <i name="e_wo_entrp">    -37.96441944 </i>
    <i name="e_0_energy">    -37.95204568 </i>
   </energy>
  </scstep>
  <scstep>
   <time name="dav">    4.23    4.25</time>
   <time name="total">    6.68    6.72</time>
   <energy>
    <i name="alphaZ">      4.67081296 </i>
    <i name="ewald">  13021.94953258 </i>
    <i name="hartreedc"> -22068.56565534 </i>
    <i name="XCdc">     60.33914440 </i>
    <i name="pawpsdc">  10151.67124306 </i>
    <i name="pawaedc"> -10316.78642344 </i>
    <i name="eentropy">      0.01859826 </i>
    <i name="bandstr">   -596.20166976 </i>
    <i name="atom">   9704.95859309 </i>
    <i name="e_fr_energy">    -37.94582419 </i>
    <i name="e_wo_entrp">    -37.96442245 </i>
    <i name="e_0_energy">    -37.95202361 </i>
   </energy>
  </scstep>
  <structure>
   <crystal>
    <varray name="basis" >
     <v>      23.86529926       0.00000000       0.00000000 </v>
     <v>       0.00000000      22.31730700       0.00000000 </v>
     <v>       0.00000000       0.00000000      22.77980485 </v>
    </varray>
    <i name="volume">  12132.73386945 </i>
    <varray name="rec_basis" >
     <v>       0.04190184       0.00000000       0.00000000 </v>
     <v>       0.00000000       0.04480827       0.00000000 </v>
     <v>       0.00000000       0.00000000       0.04389853 </v>
    </varray>
   </crystal>
   <varray name="positions" >
    <v>       0.44962474       0.66009200       0.55201061 </v>
    <v>       0.47771215       0.56114999       0.51289887 </v>
    <v>       0.55232804       0.63635342       0.54271996 </v>
    <v>       0.47256894       0.56547723       0.41217680 </v>
    <v>       0.49465491       0.65555343       0.45692773 </v>
    <v>       0.49294353       0.58936015       0.60961085 </v>
    <v>       0.56816335       0.57229121       0.44862863 </v>
    <v>       0.51620564       0.73654212       0.52510284 </v>
    <v>       0.56496855       0.52885177       0.56207050 </v>
    <v>       0.39675893       0.61390931       0.46676982 </v>
   </varray>
  </structure>
  <varray name="forces" >
   <v>      -0.00120985      -0.00211059      -0.00282764 </v>
   <v>      -0.01202335      -0.02505026       0.01647064 </v>
   <v>      -0.01440091      -0.01146662      -0.03418946 </v>
   <v>       0.01302719       0.00691039       0.00577165 </v>
   <v>      -0.00805638      -0.00482077       0.00675399 </v>
   <v>      -0.00052255       0.01096251       0.00268101 </v>
   <v>      -0.00154572       0.00595368       0.00957623 </v>
   <v>       0.00470915       0.00396500       0.00266491 </v>
   <v>       0.02175851       0.00047646       0.00266077 </v>
   <v>      -0.00173609       0.01518021      -0.00956210 </v>
  </varray>
  <energy>
   <i name="e_fr_energy">    -37.94582419 </i>
   <i name="e_wo_entrp">    -37.96442245 </i>
   <i name="e_0_energy">    -37.95202361 </i>
  </energy>
  <time name="totalsc">   70.16   70.44</time>
 </calculation>
 <calculation>
  <scstep>
   <time name="dav">    6.03    6.03</time>
   <time name="total">    9.16    9.18</time>
   <energy>
    <i name="alphaZ">      4.67081296 </i>
    <i name="ewald">  13019.60069517 </i>
    <i name="hartreedc"> -22066.28906880 </i>
    <i name="XCdc">     60.33089681 </i>
    <i name="pawpsdc">  10151.58903229 </i>
    <i name="pawaedc"> -10316.71020182 </i>
    <i name="eentropy">      0.01807844 </i>
    <i name="bandstr">   -596.11449168 </i>
    <i name="atom">   9704.95859309 </i>
    <i name="e_fr_energy">    -37.94565354 </i>
    <i name="e_wo_entrp">    -37.96373198 </i>
    <i name="e_0_energy">    -37.95167969 </i>
   </energy>
  </scstep>
  <scstep>
   <time name="dav">    8.22    8.23</time>
   <time name="total">   11.35   11.37</time>
   <energy>
    <i name="e_fr_energy">    -37.94827843 </i>
    <i name="e_wo_entrp">    -37.96795190 </i>
    <i name="e_0_energy">    -37.95483625 </i>
   </energy>
  </scstep>
  <scstep>
   <time name="dav">    7.19    7.21</time>
   <time name="total">   10.34   10.36</time>
   <energy>
    <i name="e_fr_energy">    -37.94458897 </i>
    <i name="e_wo_entrp">    -37.96267732 </i>
    <i name="e_0_energy">    -37.95061842 </i>
   </energy>
  </scstep>
  <scstep>
   <time name="dav">    7.41    7.42</time>
   <time name="total">   10.54   10.55</time>
   <energy>
    <i name="e_fr_energy">    -37.94625166 </i>
    <i name="e_wo_entrp">    -37.96445704 </i>
    <i name="e_0_energy">    -37.95232012 </i>
   </energy>
  </scstep>
  <scstep>
   <time name="dav">    6.04    6.05</time>
   <time name="total">    9.18    9.20</time>
   <energy>
    <i name="e_fr_energy">    -37.94566994 </i>
    <i name="e_wo_entrp">    -37.96412609 </i>
    <i name="e_0_energy">    -37.95182199 </i>
   </energy>
  </scstep>
  <scstep>
   <time name="dav">    4.79    4.79</time>
   <time name="total">    7.96    7.96</time>
   <energy>
    <i name="e_fr_energy">    -37.94607345 </i>
    <i name="e_wo_entrp">    -37.96428392 </i>
    <i name="e_0_energy">    -37.95214361 </i>
   </energy>
  </scstep>
  <scstep>
   <time name="dav">    4.54    4.55</time>
   <time name="total">    7.72    7.74</time>
   <energy>
    <i name="e_fr_energy">    -37.94590622 </i>
    <i name="e_wo_entrp">    -37.96413684 </i>
    <i name="e_0_energy">    -37.95198310 </i>
   </energy>
  </scstep>
  <scstep>
   <time name="dav">    4.53    4.53</time>
   <time name="total">    7.68    7.70</time>
   <energy>
    <i name="e_fr_energy">    -37.94610382 </i>
    <i name="e_wo_entrp">    -37.96435594 </i>
    <i name="e_0_energy">    -37.95218786 </i>
   </energy>
  </scstep>
  <scstep>
   <time name="dav">    4.58    4.58</time>
   <time name="total">    7.03    7.03</time>
   <energy>
    <i name="alphaZ">      4.67081296 </i>
    <i name="ewald">  13019.60069517 </i>
    <i name="hartreedc"> -22066.29535991 </i>
    <i name="XCdc">     60.33244196 </i>
    <i name="pawpsdc">  10150.18608851 </i>
    <i name="pawaedc"> -10315.29081009 </i>
    <i name="eentropy">      0.01863602 </i>
    <i name="bandstr">   -596.12715024 </i>
    <i name="atom">   9704.95859309 </i>
    <i name="e_fr_energy">    -37.94605252 </i>
    <i name="e_wo_entrp">    -37.96468854 </i>
    <i name="e_0_energy">    -37.95226453 </i>
   </energy>
  </scstep>
  <structure>
   <crystal>
    <varray name="basis" >
     <v>      23.86529926       0.00000000       0.00000000 </v>
     <v>       0.00000000      22.31730700       0.00000000 </v>
     <v>       0.00000000       0.00000000      22.77980485 </v>
    </varray>
    <i name="volume">  12132.73386945 </i>
    <varray name="rec_basis" >
     <v>       0.04190184       0.00000000       0.00000000 </v>
     <v>       0.00000000       0.04480827       0.00000000 </v>
     <v>       0.00000000       0.00000000       0.04389853 </v>
    </varray>
   </crystal>
   <varray name="positions" >
    <v>       0.44961403       0.66005994       0.55201120 </v>
    <v>       0.47767824       0.56105819       0.51296845 </v>
    <v>       0.55227387       0.63630953       0.54257031 </v>
    <v>       0.47262715       0.56550705       0.41216793 </v>
    <v>       0.49462090       0.65547194       0.45694768 </v>
    <v>       0.49290358       0.58941899       0.60964446 </v>
    <v>       0.56814331       0.57233245       0.44867642 </v>
    <v>       0.51624450       0.73662347       0.52512445 </v>
    <v>       0.56509563       0.52880682       0.56207733 </v>
    <v>       0.39672756       0.61399224       0.46672837 </v>
   </varray>
  </structure>
  <varray name="forces" >
   <v>       0.00457098       0.00924887      -0.00877227 </v>
   <v>      -0.01204593      -0.01772718       0.00857119 </v>
   <v>      -0.01175418      -0.00774582      -0.01156358 </v>
   <v>      -0.00390256      -0.00114917       0.00949443 </v>
   <v>      -0.00898220       0.02504655       0.01122376 </v>
   <v>       0.01926142       0.00007598      -0.00954701 </v>
   <v>       0.01619971      -0.00541690       0.00185025 </v>
   <v>      -0.00730063      -0.02701356      -0.00146366 </v>
   <v>      -0.00222693       0.01817692       0.00736701 </v>
   <v>       0.00618031       0.00650431      -0.00716012 </v>
  </varray>
  <energy>
   <i name="e_fr_energy">    -37.94605252 </i>
   <i name="e_wo_entrp">    -37.96468854 </i>
   <i name="e_0_energy">    -37.95226453 </i>
  </energy>
  <time name="totalsc">   89.68   89.83</time>
  <eigenvalues>
   <array>
    <dimension dim="1">band</dimension>
    <dimension dim="2">kpoint</dimension>
    <dimension dim="3">spin</dimension>
    <field>eigene</field>
    <field>occ</field>
    <set>
     <set comment="spin 1">
      <set comment="kpoint 1">
       <r>   -9.8773    1.0000 </r>
       <r>   -8.4675    1.0000 </r>
       <r>   -8.3086    1.0000 </r>
       <r>   -7.9870    1.0000 </r>
       <r>   -7.8770    1.0000 </r>
       <r>   -7.8168    1.0000 </r>
       <r>   -7.6074    1.0000 </r>
       <r>   -7.4748    1.0000 </r>
       <r>   -7.3873    1.0000 </r>
       <r>   -7.2276    1.0000 </r>
       <r>   -7.1736    1.0000 </r>
       <r>   -7.1676    1.0000 </r>
       <r>   -7.0657    1.0000 </r>
       <r>   -7.0061    1.0000 </r>
       <r>   -6.8930    1.0000 </r>
       <r>   -6.8617    1.0000 </r>
       <r>   -6.7743    1.0000 </r>
       <r>   -6.7052    1.0000 </r>
       <r>   -6.5386    1.0000 </r>
       <r>   -6.5138    1.0000 </r>
       <r>   -6.4592    1.0000 </r>
       <r>   -6.1679    1.0000 </r>
       <r>   -6.1058    1.0000 </r>
       <r>   -6.0131    1.0000 </r>
       <r>   -5.9629    1.0000 </r>
       <r>   -5.9029    1.0000 </r>
       <r>   -5.8497    1.0000 </r>
       <r>   -5.8126    1.0000 </r>
       <r>   -5.7540    1.0000 </r>
       <r>   -5.6502    1.0000 </r>
       <r>   -5.6307    1.0000 </r>
       <r>   -5.5686    1.0000 </r>
       <r>   -5.5387    1.0000 </r>
       <r>   -5.4810    1.0000 </r>
       <r>   -5.4652    1.0000 </r>
       <r>   -5.3617    1.0000 </r>
       <r>   -5.3538    1.0000 </r>
       <r>   -5.2989    1.0000 </r>
       <r>   -5.2849    1.0000 </r>
       <r>   -5.2310    1.0000 </r>
       <r>   -5.1688    1.0000 </r>
       <r>   -5.1556    1.0000 </r>
       <r>   -5.1111    1.0000 </r>
       <r>   -5.0927    1.0000 </r>
       <r>   -5.0563    1.0000 </r>
       <r>   -4.9581    1.0000 </r>
       <r>   -4.9357    1.0000 </r>
       <r>   -4.8948    1.0000 </r>
       <r>   -4.8556    1.0000 </r>
       <r>   -4.7745    1.0000 </r>
       <r>   -4.7569    1.0001 </r>
       <r>   -4.7009    1.0002 </r>
       <r>   -4.6827    1.0004 </r>
       <r>   -4.4843    1.0167 </r>
       <r>   -3.0184   -0.0000 </r>
       <r>   -2.8446   -0.0000 </r>
       <r>   -2.5885   -0.0000 </r>
       <r>   -2.4449   -0.0000 </r>
       <r>   -2.3237   -0.0000 </r>
       <r>   -1.8470   -0.0000 </r>
       <r>   -0.9042   -0.0000 </r>
       <r>   -0.8191   -0.0000 </r>
       <r>   -0.5795   -0.0000 </r>
       <r>   -0.4279   -0.0000 </r>
       <r>   -0.3081   -0.0000 </r>
       <r>   -0.1884   -0.0000 </r>
      </set>
     </set>
     <set comment="spin 2">
      <set comment="kpoint 1">
       <r>   -9.7937    1.0000 </r>
       <r>   -8.1529    1.0000 </r>
       <r>   -7.9175    1.0000 </r>
       <r>   -7.5595    1.0000 </r>
       <r>   -7.3182    1.0000 </r>
       <r>   -7.1977    1.0000 </r>
       <r>   -7.0107    1.0000 </r>
       <r>   -6.8370    1.0000 </r>
       <r>   -6.7832    1.0000 </r>
       <r>   -6.6663    1.0000 </r>
       <r>   -6.6364    1.0000 </r>
       <r>   -6.5012    1.0000 </r>
       <r>   -6.3858    1.0000 </r>
       <r>   -6.3427    1.0000 </r>
       <r>   -6.3281    1.0000 </r>
       <r>   -6.2106    1.0000 </r>
       <r>   -6.1777    1.0000 </r>
       <r>   -6.1145    1.0000 </r>
       <r>   -6.0655    1.0000 </r>
       <r>   -5.9641    1.0000 </r>
       <r>   -5.8171    1.0000 </r>
       <r>   -5.6728    1.0000 </r>
       <r>   -5.6214    1.0000 </r>
       <r>   -5.5338    1.0000 </r>
       <r>   -5.4018    1.0000 </r>
       <r>   -5.3286    1.0000 </r>
       <r>   -5.2528    1.0000 </r>
       <r>   -5.1717    1.0000 </r>
       <r>   -5.1380    1.0000 </r>
       <r>   -5.0679    1.0000 </r>
       <r>   -4.9976    1.0000 </r>
       <r>   -4.9261    1.0000 </r>
       <r>   -4.8504    1.0000 </r>
       <r>   -4.8455    1.0000 </r>
       <r>   -4.7502    1.0001 </r>
       <r>   -4.7093    1.0002 </r>
       <r>   -4.6019    1.0024 </r>
       <r>   -4.5440    1.0070 </r>
       <r>   -4.4874    1.0161 </r>
       <r>   -4.4450    1.0255 </r>
       <r>   -4.3857    1.0354 </r>
       <r>   -4.3703    1.0350 </r>
       <r>   -4.3181    1.0134 </r>
       <r>   -4.2880    0.9795 </r>
       <r>   -4.2387    0.8783 </r>
       <r>   -4.1334    0.4902 </r>
       <r>   -4.0880    0.3042 </r>
       <r>   -4.0561    0.1910 </r>
       <r>   -4.0183    0.0859 </r>
       <r>   -3.9785    0.0135 </r>
       <r>   -3.8804   -0.0351 </r>
       <r>   -3.8585   -0.0323 </r>
       <r>   -3.8023   -0.0200 </r>
       <r>   -3.7325   -0.0076 </r>
       <r>   -2.6853   -0.0000 </r>
       <r>   -2.5872   -0.0000 </r>
       <r>   -2.3263   -0.0000 </r>
       <r>   -2.1686   -0.0000 </r>
       <r>   -2.0551   -0.0000 </r>
       <r>   -1.5661   -0.0000 </r>
       <r>   -0.7380   -0.0000 </r>
       <r>   -0.6688   -0.0000 </r>
       <r>   -0.3886   -0.0000 </r>
       <r>   -0.2597   -0.0000 </r>
       <r>   -0.1031   -0.0000 </r>
       <r>   -0.0434   -0.0000 </r>
      </set>
     </set>
    </set>
   </array>
  </eigenvalues>
  <separator name="orbital magnetization" >
   <v name="MAGDIPOLOUT">      0.00000000      0.00000000      0.00000000</v>
  </separator>
  <dos>
   <i name="efermi">     -4.13570960 </i>
   <total>
    <array>
     <dimension dim="1">gridpoints</dimension>
     <dimension dim="2">spin</dimension>
     <field>energy</field>
     <field>total</field>
     <field>integrated</field>
     <set>
      <set comment="spin 1">
       <r>   -11.8773     0.0000     0.0000 </r>
       <r>   -11.8312     0.0000     0.0000 </r>
       <r>   -11.7851     0.0000     0.0000 </r>
       <r>   -11.7390     0.0000     0.0000 </r>
       <r>   -11.6929     0.0000     0.0000 </r>
       <r>   -11.6468     0.0000     0.0000 </r>
       <r>   -11.6007     0.0000     0.0000 </r>
       <r>   -11.5546     0.0000     0.0000 </r>
       <r>   -11.5084    -0.0000    -0.0000 </r>
       <r>   -11.4623    -0.0000    -0.0000 </r>
       <r>   -11.4162    -0.0000    -0.0000 </r>
       <r>   -11.3701    -0.0000    -0.0000 </r>
       <r>   -11.3240    -0.0000    -0.0000 </r>
       <r>   -11.2779    -0.0000    -0.0000 </r>
       <r>   -11.2318    -0.0000    -0.0000 </r>
       <r>   -11.1856    -0.0000    -0.0000 </r>
       <r>   -11.1395    -0.0000    -0.0000 </r>
       <r>   -11.0934    -0.0000    -0.0000 </r>
       <r>   -11.0473    -0.0000    -0.0000 </r>
       <r>   -11.0012    -0.0000    -0.0000 </r>
       <r>   -10.9551    -0.0000    -0.0000 </r>
       <r>   -10.9090    -0.0000    -0.0000 </r>
       <r>   -10.8629    -0.0000    -0.0000 </r>
       <r>   -10.8167    -0.0000    -0.0000 </r>
       <r>   -10.7706    -0.0000    -0.0000 </r>
       <r>   -10.7245    -0.0000    -0.0000 </r>
       <r>   -10.6784    -0.0000    -0.0000 </r>
       <r>   -10.6323    -0.0000    -0.0000 </r>
       <r>   -10.5862    -0.0001    -0.0000 </r>
       <r>   -10.5401    -0.0002    -0.0000 </r>
       <r>   -10.4940    -0.0009    -0.0001 </r>
       <r>   -10.4478    -0.0032    -0.0002 </r>
       <r>   -10.4017    -0.0098    -0.0007 </r>
       <r>   -10.3556    -0.0259    -0.0019 </r>
       <r>   -10.3095    -0.0594    -0.0046 </r>
       <r>   -10.2634    -0.1161    -0.0100 </r>
       <r>   -10.2173    -0.1868    -0.0186 </r>
       <r>   -10.1712    -0.2265    -0.0290 </r>
       <r>   -10.1250    -0.1393    -0.0354 </r>
       <r>   -10.0789     0.2060    -0.0259 </r>
       <r>   -10.0328     0.9088     0.0160 </r>
       <r>    -9.9867     1.9370     0.1053 </r>
       <r>    -9.9406     3.0654     0.2467 </r>
       <r>    -9.8945     3.9286     0.4278 </r>
       <r>    -9.8484     4.1943     0.6212 </r>
       <r>    -9.8023     3.7530     0.7943 </r>
       <r>    -9.7561     2.7849     0.9227 </r>
       <r>    -9.7100     1.6507     0.9988 </r>
       <r>    -9.6639     0.6925     1.0308 </r>
       <r>    -9.6178     0.0856     1.0347 </r>
       <r>    -9.5717    -0.1809     1.0264 </r>
       <r>    -9.5256    -0.2236     1.0161 </r>
       <r>    -9.4795    -0.1689     1.0083 </r>
       <r>    -9.4333    -0.0994     1.0037 </r>
       <r>    -9.3872    -0.0487     1.0014 </r>
       <r>    -9.3411    -0.0205     1.0005 </r>
       <r>    -9.2950    -0.0075     1.0002 </r>
       <r>    -9.2489    -0.0024     1.0000 </r>
       <r>    -9.2028    -0.0007     1.0000 </r>
       <r>    -9.1567    -0.0003     1.0000 </r>
       <r>    -9.1106    -0.0005     1.0000 </r>
       <r>    -9.0644    -0.0016     0.9999 </r>
       <r>    -9.0183    -0.0053     0.9997 </r>
       <r>    -8.9722    -0.0153     0.9989 </r>
       <r>    -8.9261    -0.0385     0.9972 </r>
       <r>    -8.8800    -0.0839     0.9933 </r>
       <r>    -8.8339    -0.1557     0.9861 </r>
       <r>    -8.7878    -0.2373     0.9752 </r>
       <r>    -8.7416    -0.2707     0.9627 </r>
       <r>    -8.6955    -0.1461     0.9559 </r>
       <r>    -8.6494     0.2740     0.9686 </r>
       <r>    -8.6033     1.0885     1.0188 </r>
       <r>    -8.5572     2.2792     1.1239 </r>
       <r>    -8.5111     3.6743     1.2933 </r>
       <r>    -8.4650     4.9918     1.5235 </r>
       <r>    -8.4189     5.9366     1.7973 </r>
       <r>    -8.3727     6.2918     2.0874 </r>
       <r>    -8.3266     5.9713     2.3627 </r>
       <r>    -8.2805     5.0488     2.5956 </r>
       <r>    -8.2344     3.7811     2.7699 </r>
       <r>    -8.1883     2.5904     2.8894 </r>
       <r>    -8.1422     1.9580     2.9797 </r>
       <r>    -8.0961     2.2424     3.0831 </r>
       <r>    -8.0499     3.5094     3.2449 </r>
       <r>    -8.0038     5.4752     3.4974 </r>
       <r>    -7.9577     7.5903     3.8474 </r>
       <r>    -7.9116     9.2299     4.2730 </r>
       <r>    -7.8655     9.9213     4.7305 </r>
       <r>    -7.8194     9.5350     5.1702 </r>
       <r>    -7.7733     8.3535     5.5554 </r>
       <r>    -7.7272     6.9552     5.8761 </r>
       <r>    -7.6810     5.9432     6.1502 </r>
       <r>    -7.6349     5.6655     6.4115 </r>
       <r>    -7.5888     6.0909     6.6923 </r>
       <r>    -7.5427     6.8952     7.0103 </r>
       <r>    -7.4966     7.6812     7.3645 </r>
       <r>    -7.4505     8.2049     7.7428 </r>
       <r>    -7.4044     8.5108     8.1353 </r>
       <r>    -7.3582     8.9088     8.5461 </r>
       <r>    -7.3121     9.7737     8.9968 </r>
       <r>    -7.2660    11.2526     9.5157 </r>
       <r>    -7.2199    13.0833    10.1190 </r>
       <r>    -7.1738    14.6971    10.7968 </r>
       <r>    -7.1277    15.5668    11.5146 </r>
       <r>    -7.0816    15.5423    12.2313 </r>
       <r>    -7.0355    14.9202    12.9193 </r>
       <r>    -6.9893    14.2098    13.5746 </r>
       <r>    -6.9432    13.7868    14.2103 </r>
       <r>    -6.8971    13.6807    14.8412 </r>
       <r>    -6.8510    13.6154    15.4690 </r>
       <r>    -6.8049    13.2540    16.0802 </r>
       <r>    -6.7588    12.4803    16.6557 </r>
       <r>    -6.7127    11.5320    17.1875 </r>
       <r>    -6.6665    10.8760    17.6890 </r>
       <r>    -6.6204    10.8707    18.1903 </r>
       <r>    -6.5743    11.4283    18.7173 </r>
       <r>    -6.5282    11.9540    19.2686 </r>
       <r>    -6.4821    11.6753    19.8070 </r>
       <r>    -6.4360    10.1723    20.2760 </r>
       <r>    -6.3899     7.7277    20.6324 </r>
       <r>    -6.3438     5.2252    20.8733 </r>
       <r>    -6.2976     3.6667    21.0424 </r>
       <r>    -6.2515     3.6460    21.2105 </r>
       <r>    -6.2054     5.1127    21.4463 </r>
       <r>    -6.1593     7.5211    21.7931 </r>
       <r>    -6.1132    10.1986    22.2634 </r>
       <r>    -6.0671    12.6656    22.8475 </r>
       <r>    -6.0210    14.7267    23.5266 </r>
       <r>    -5.9748    16.3504    24.2805 </r>
       <r>    -5.9287    17.5032    25.0877 </r>
       <r>    -5.8826    18.1052    25.9226 </r>
       <r>    -5.8365    18.1372    26.7589 </r>
       <r>    -5.7904    17.7823    27.5789 </r>
       <r>    -5.7443    17.4336    28.3828 </r>
       <r>    -5.6982    17.5088    29.1902 </r>
       <r>    -5.6521    18.1897    30.0290 </r>
       <r>    -5.6059    19.2987    30.9189 </r>
       <r>    -5.5598    20.4319    31.8611 </r>
       <r>    -5.5137    21.2563    32.8413 </r>
       <r>    -5.4676    21.7348    33.8436 </r>
       <r>    -5.4215    22.1060    34.8630 </r>
       <r>    -5.3754    22.6630    35.9080 </r>
       <r>    -5.3293    23.5279    36.9930 </r>
       <r>    -5.2831    24.5813    38.1265 </r>
       <r>    -5.2370    25.5434    39.3044 </r>
       <r>    -5.1909    26.1031    40.5081 </r>
       <r>    -5.1448    26.0341    41.7086 </r>
       <r>    -5.0987    25.2984    42.8752 </r>
       <r>    -5.0526    24.1092    43.9870 </r>
       <r>    -5.0065    22.8767    45.0419 </r>
       <r>    -4.9604    22.0145    46.0570 </r>
       <r>    -4.9142    21.7143    47.0584 </r>
       <r>    -4.8681    21.8348    48.0652 </r>
       <r>    -4.8220    21.9508    49.0775 </r>
       <r>    -4.7759    21.5168    50.0697 </r>
       <r>    -4.7298    20.0894    50.9961 </r>
       <r>    -4.6837    17.5520    51.8054 </r>
       <r>    -4.6376    14.2297    52.4616 </r>
       <r>    -4.5914    10.7675    52.9581 </r>
       <r>    -4.5453     7.7947    53.3176 </r>
       <r>    -4.4992     5.6025    53.5759 </r>
       <r>    -4.4531     4.0777    53.7640 </r>
       <r>    -4.4070     2.9153    53.8984 </r>
       <r>    -4.3609     1.8937    53.9857 </r>
       <r>    -4.3148     0.9896    54.0314 </r>
       <r>    -4.2687     0.2977    54.0451 </r>
       <r>    -4.2225    -0.1116    54.0399 </r>
       <r>    -4.1764    -0.2632    54.0278 </r>
       <r>    -4.1303    -0.2511    54.0162 </r>
       <r>    -4.0842    -0.1750    54.0082 </r>
       <r>    -4.0381    -0.0993    54.0036 </r>
       <r>    -3.9920    -0.0476    54.0014 </r>
       <r>    -3.9459    -0.0197    54.0005 </r>
       <r>    -3.8997    -0.0071    54.0001 </r>
       <r>    -3.8536    -0.0023    54.0000 </r>
       <r>    -3.8075    -0.0006    54.0000 </r>
       <r>    -3.7614    -0.0002    54.0000 </r>
       <r>    -3.7153    -0.0001    54.0000 </r>
       <r>    -3.6692    -0.0004    54.0000 </r>
       <r>    -3.6231    -0.0013    53.9999 </r>
       <r>    -3.5770    -0.0044    53.9997 </r>
       <r>    -3.5308    -0.0129    53.9991 </r>
       <r>    -3.4847    -0.0331    53.9976 </r>
       <r>    -3.4386    -0.0736    53.9942 </r>
       <r>    -3.3925    -0.1397    53.9878 </r>
       <r>    -3.3464    -0.2190    53.9777 </r>
       <r>    -3.3003    -0.2608    53.9656 </r>
       <r>    -3.2542    -0.1646    53.9580 </r>
       <r>    -3.2081     0.2000    53.9673 </r>
       <r>    -3.1619     0.9309    54.0102 </r>
       <r>    -3.1158     2.0153    54.1031 </r>
       <r>    -3.0697     3.2936    54.2550 </r>
       <r>    -3.0236     4.5077    54.4629 </r>
       <r>    -2.9775     5.4061    54.7122 </r>
       <r>    -2.9314     5.8328    54.9811 </r>
       <r>    -2.8853     5.7548    55.2465 </r>
       <r>    -2.8391     5.2552    55.4888 </r>
       <r>    -2.7930     4.5299    55.6977 </r>
       <r>    -2.7469     3.8713    55.8763 </r>
       <r>    -2.7008     3.5844    56.0415 </r>
       <r>    -2.6547     3.8479    56.2190 </r>
       <r>    -2.6086     4.6207    56.4321 </r>
       <r>    -2.5625     5.6753    56.6938 </r>
       <r>    -2.5164     6.7256    57.0039 </r>
       <r>    -2.4702     7.5348    57.3513 </r>
       <r>    -2.4241     7.9360    57.7173 </r>
       <r>    -2.3780     7.8057    58.0773 </r>
       <r>    -2.3319     7.0715    58.4033 </r>
       <r>    -2.2858     5.7711    58.6695 </r>
       <r>    -2.2397     4.1000    58.8585 </r>
       <r>    -2.1936     2.3805    58.9683 </r>
       <r>    -2.1474     0.9598    59.0126 </r>
       <r>    -2.1013     0.1036    59.0173 </r>
       <r>    -2.0552    -0.0570    59.0147 </r>
       <r>    -2.0091     0.4640    59.0361 </r>
       <r>    -1.9630     1.5001    59.1053 </r>
       <r>    -1.9169     2.7307    59.2312 </r>
       <r>    -1.8708     3.7384    59.4036 </r>
       <r>    -1.8247     4.1556    59.5952 </r>
       <r>    -1.7785     3.8379    59.7722 </r>
       <r>    -1.7324     2.9370    59.9076 </r>
       <r>    -1.6863     1.8074    59.9910 </r>
       <r>    -1.6402     0.8098    60.0283 </r>
       <r>    -1.5941     0.1497    60.0352 </r>
       <r>    -1.5480    -0.1601    60.0278 </r>
       <r>    -1.5019    -0.2278    60.0173 </r>
       <r>    -1.4557    -0.1848    60.0088 </r>
       <r>    -1.4096    -0.1254    60.0030 </r>
       <r>    -1.3635    -0.0978    59.9985 </r>
       <r>    -1.3174    -0.1206    59.9930 </r>
       <r>    -1.2713    -0.1960    59.9839 </r>
       <r>    -1.2252    -0.3030    59.9699 </r>
       <r>    -1.1791    -0.3717    59.9528 </r>
       <r>    -1.1330    -0.2593    59.9408 </r>
       <r>    -1.0868     0.2338    59.9516 </r>
       <r>    -1.0407     1.2794    60.0106 </r>
       <r>    -0.9946     2.8839    60.1436 </r>
       <r>    -0.9485     4.7817    60.3641 </r>
       <r>    -0.9024     6.4694    60.6624 </r>
       <r>    -0.8563     7.4210    61.0046 </r>
       <r>    -0.8102     7.3798    61.3449 </r>
       <r>    -0.7640     6.5309    61.6461 </r>
       <r>    -0.7179     5.4105    61.8956 </r>
       <r>    -0.6718     4.6010    62.1078 </r>
       <r>    -0.6257     4.4279    62.3120 </r>
       <r>    -0.5796     4.8598    62.5361 </r>
       <r>    -0.5335     5.6403    62.7962 </r>
       <r>    -0.4874     6.5001    63.0959 </r>
       <r>    -0.4413     7.2817    63.4317 </r>
       <r>    -0.3951     7.9248    63.7971 </r>
       <r>    -0.3490     8.3837    64.1837 </r>
       <r>    -0.3029     8.5669    64.5788 </r>
       <r>    -0.2568     8.3428    64.9635 </r>
       <r>    -0.2107     7.6024    65.3141 </r>
       <r>    -0.1646     6.3420    65.6065 </r>
       <r>    -0.1185     4.7144    65.8239 </r>
       <r>    -0.0723     3.0031    65.9624 </r>
       <r>    -0.0262     1.5165    66.0323 </r>
       <r>     0.0199     0.4631    66.0537 </r>
       <r>     0.0660    -0.1151    66.0484 </r>
       <r>     0.1121    -0.3182    66.0337 </r>
       <r>     0.1582    -0.3045    66.0196 </r>
       <r>     0.2043    -0.2116    66.0099 </r>
       <r>     0.2504    -0.1199    66.0044 </r>
       <r>     0.2966    -0.0577    66.0017 </r>
       <r>     0.3427    -0.0241    66.0006 </r>
       <r>     0.3888    -0.0088    66.0002 </r>
       <r>     0.4349    -0.0028    66.0000 </r>
       <r>     0.4810    -0.0008    66.0000 </r>
       <r>     0.5271    -0.0002    66.0000 </r>
       <r>     0.5732    -0.0000    66.0000 </r>
       <r>     0.6194    -0.0000    66.0000 </r>
       <r>     0.6655    -0.0000    66.0000 </r>
       <r>     0.7116    -0.0000    66.0000 </r>
       <r>     0.7577    -0.0000    66.0000 </r>
       <r>     0.8038    -0.0000    66.0000 </r>
       <r>     0.8499    -0.0000    66.0000 </r>
       <r>     0.8960    -0.0000    66.0000 </r>
       <r>     0.9421    -0.0000    66.0000 </r>
       <r>     0.9883    -0.0000    66.0000 </r>
       <r>     1.0344    -0.0000    66.0000 </r>
       <r>     1.0805     0.0000    66.0000 </r>
       <r>     1.1266     0.0000    66.0000 </r>
       <r>     1.1727     0.0000    66.0000 </r>
       <r>     1.2188     0.0000    66.0000 </r>
       <r>     1.2649     0.0000    66.0000 </r>
       <r>     1.3111     0.0000    66.0000 </r>
       <r>     1.3572     0.0000    66.0000 </r>
       <r>     1.4033     0.0000    66.0000 </r>
       <r>     1.4494     0.0000    66.0000 </r>
       <r>     1.4955     0.0000    66.0000 </r>
       <r>     1.5416     0.0000    66.0000 </r>
       <r>     1.5877     0.0000    66.0000 </r>
       <r>     1.6338     0.0000    66.0000 </r>
       <r>     1.6800     0.0000    66.0000 </r>
       <r>     1.7261     0.0000    66.0000 </r>
       <r>     1.7722     0.0000    66.0000 </r>
       <r>     1.8183     0.0000    66.0000 </r>
       <r>     1.8644     0.0000    66.0000 </r>
       <r>     1.9105     0.0000    66.0000 </r>
       <r>     1.9566     0.0000    66.0000 </r>
      </set>
      <set comment="spin 2">
       <r>   -11.8773     0.0000     0.0000 </r>
       <r>   -11.8312     0.0000     0.0000 </r>
       <r>   -11.7851     0.0000     0.0000 </r>
       <r>   -11.7390     0.0000     0.0000 </r>
       <r>   -11.6929     0.0000     0.0000 </r>
       <r>   -11.6468     0.0000     0.0000 </r>
       <r>   -11.6007     0.0000     0.0000 </r>
       <r>   -11.5546     0.0000     0.0000 </r>
       <r>   -11.5084     0.0000     0.0000 </r>
       <r>   -11.4623     0.0000     0.0000 </r>
       <r>   -11.4162    -0.0000    -0.0000 </r>
       <r>   -11.3701    -0.0000    -0.0000 </r>
       <r>   -11.3240    -0.0000    -0.0000 </r>
       <r>   -11.2779    -0.0000    -0.0000 </r>
       <r>   -11.2318    -0.0000    -0.0000 </r>
       <r>   -11.1856    -0.0000    -0.0000 </r>
       <r>   -11.1395    -0.0000    -0.0000 </r>
       <r>   -11.0934    -0.0000    -0.0000 </r>
       <r>   -11.0473    -0.0000    -0.0000 </r>
       <r>   -11.0012    -0.0000    -0.0000 </r>
       <r>   -10.9551    -0.0000    -0.0000 </r>
       <r>   -10.9090    -0.0000    -0.0000 </r>
       <r>   -10.8629    -0.0000    -0.0000 </r>
       <r>   -10.8167    -0.0000    -0.0000 </r>
       <r>   -10.7706    -0.0000    -0.0000 </r>
       <r>   -10.7245    -0.0000    -0.0000 </r>
       <r>   -10.6784    -0.0000    -0.0000 </r>
       <r>   -10.6323    -0.0000    -0.0000 </r>
       <r>   -10.5862    -0.0000    -0.0000 </r>
       <r>   -10.5401    -0.0000    -0.0000 </r>
       <r>   -10.4940    -0.0001    -0.0000 </r>
       <r>   -10.4478    -0.0003    -0.0000 </r>
       <r>   -10.4017    -0.0012    -0.0001 </r>
       <r>   -10.3556    -0.0040    -0.0003 </r>
       <r>   -10.3095    -0.0119    -0.0008 </r>
       <r>   -10.2634    -0.0306    -0.0022 </r>
       <r>   -10.2173    -0.0682    -0.0054 </r>
       <r>   -10.1712    -0.1289    -0.0113 </r>
       <r>   -10.1250    -0.1986    -0.0205 </r>
       <r>   -10.0789    -0.2235    -0.0308 </r>
       <r>   -10.0328    -0.0985    -0.0353 </r>
       <r>    -9.9867     0.3083    -0.0211 </r>
       <r>    -9.9406     1.0796     0.0287 </r>
       <r>    -9.8945     2.1492     0.1278 </r>
       <r>    -9.8484     3.2578     0.2780 </r>
       <r>    -9.8023     4.0305     0.4639 </r>
       <r>    -9.7561     4.1640     0.6559 </r>
       <r>    -9.7100     3.6033     0.8221 </r>
       <r>    -9.6639     2.5747     0.9408 </r>
       <r>    -9.6178     1.4510     1.0077 </r>
       <r>    -9.5717     0.5511     1.0331 </r>
       <r>    -9.5256     0.0129     1.0337 </r>
       <r>    -9.4795    -0.2017     1.0244 </r>
       <r>    -9.4333    -0.2176     1.0144 </r>
       <r>    -9.3872    -0.1555     1.0072 </r>
       <r>    -9.3411    -0.0882     1.0031 </r>
       <r>    -9.2950    -0.0419     1.0012 </r>
       <r>    -9.2489    -0.0171     1.0004 </r>
       <r>    -9.2028    -0.0061     1.0001 </r>
       <r>    -9.1567    -0.0019     1.0000 </r>
       <r>    -9.1106    -0.0005     1.0000 </r>
       <r>    -9.0644    -0.0001     1.0000 </r>
       <r>    -9.0183    -0.0000     1.0000 </r>
       <r>    -8.9722    -0.0000     1.0000 </r>
       <r>    -8.9261    -0.0000     1.0000 </r>
       <r>    -8.8800    -0.0000     1.0000 </r>
       <r>    -8.8339    -0.0001     1.0000 </r>
       <r>    -8.7878    -0.0006     1.0000 </r>
       <r>    -8.7416    -0.0020     0.9999 </r>
       <r>    -8.6955    -0.0064     0.9996 </r>
       <r>    -8.6494    -0.0180     0.9987 </r>
       <r>    -8.6033    -0.0437     0.9967 </r>
       <r>    -8.5572    -0.0914     0.9925 </r>
       <r>    -8.5111    -0.1607     0.9851 </r>
       <r>    -8.4650    -0.2251     0.9747 </r>
       <r>    -8.4189    -0.2134     0.9649 </r>
       <r>    -8.3727    -0.0100     0.9644 </r>
       <r>    -8.3266     0.5005     0.9875 </r>
       <r>    -8.2805     1.3490     1.0497 </r>
       <r>    -8.2344     2.4125     1.1610 </r>
       <r>    -8.1883     3.4353     1.3194 </r>
       <r>    -8.1422     4.1647     1.5114 </r>
       <r>    -8.0961     4.5102     1.7194 </r>
       <r>    -8.0499     4.5820     1.9307 </r>
       <r>    -8.0038     4.5572     2.1408 </r>
       <r>    -7.9577     4.4905     2.3479 </r>
       <r>    -7.9116     4.2611     2.5444 </r>
       <r>    -7.8655     3.7179     2.7158 </r>
       <r>    -7.8194     2.8904     2.8491 </r>
       <r>    -7.7733     2.0580     2.9440 </r>
       <r>    -7.7272     1.6009     3.0179 </r>
       <r>    -7.6810     1.7434     3.0983 </r>
       <r>    -7.6349     2.3922     3.2086 </r>
       <r>    -7.5888     3.1965     3.3560 </r>
       <r>    -7.5427     3.7942     3.5309 </r>
       <r>    -7.4966     4.0630     3.7183 </r>
       <r>    -7.4505     4.1843     3.9112 </r>
       <r>    -7.4044     4.4690     4.1173 </r>
       <r>    -7.3582     5.0849     4.3518 </r>
       <r>    -7.3121     5.9081     4.6242 </r>
       <r>    -7.2660     6.6086     4.9290 </r>
       <r>    -7.2199     6.8864     5.2465 </r>
       <r>    -7.1738     6.6691     5.5541 </r>
       <r>    -7.1277     6.1367     5.8371 </r>
       <r>    -7.0816     5.5941     6.0950 </r>
       <r>    -7.0355     5.3171     6.3402 </r>
       <r>    -6.9893     5.4764     6.5927 </r>
       <r>    -6.9432     6.1383     6.8758 </r>
       <r>    -6.8971     7.2713     7.2111 </r>
       <r>    -6.8510     8.7275     7.6136 </r>
       <r>    -6.8049    10.2367     8.0856 </r>
       <r>    -6.7588    11.4644     8.6143 </r>
       <r>    -6.7127    12.1259     9.1734 </r>
       <r>    -6.6665    12.1063     9.7317 </r>
       <r>    -6.6204    11.5408    10.2639 </r>
       <r>    -6.5743    10.8126    10.7625 </r>
       <r>    -6.5282    10.4285    11.2434 </r>
       <r>    -6.4821    10.7864    11.7408 </r>
       <r>    -6.4360    11.9518    12.2919 </r>
       <r>    -6.3899    13.6126    12.9196 </r>
       <r>    -6.3438    15.2696    13.6238 </r>
       <r>    -6.2976    16.5250    14.3858 </r>
       <r>    -6.2515    17.2373    15.1807 </r>
       <r>    -6.2054    17.4436    15.9850 </r>
       <r>    -6.1593    17.1729    16.7769 </r>
       <r>    -6.1132    16.3611    17.5314 </r>
       <r>    -6.0671    14.9431    18.2205 </r>
       <r>    -6.0210    13.0076    18.8203 </r>
       <r>    -5.9748    10.8517    19.3207 </r>
       <r>    -5.9287     8.8902    19.7307 </r>
       <r>    -5.8826     7.5017    20.0766 </r>
       <r>    -5.8365     6.9142    20.3954 </r>
       <r>    -5.7904     7.1594    20.7256 </r>
       <r>    -5.7443     8.0688    21.0977 </r>
       <r>    -5.6982     9.2961    21.5263 </r>
       <r>    -5.6521    10.3997    22.0059 </r>
       <r>    -5.6059    11.0075    22.5135 </r>
       <r>    -5.5598    11.0015    23.0208 </r>
       <r>    -5.5137    10.5909    23.5092 </r>
       <r>    -5.4676    10.1928    23.9792 </r>
       <r>    -5.4215    10.1914    24.4492 </r>
       <r>    -5.3754    10.7459    24.9447 </r>
       <r>    -5.3293    11.7618    25.4871 </r>
       <r>    -5.2831    12.9977    26.0864 </r>
       <r>    -5.2370    14.1913    26.7408 </r>
       <r>    -5.1909    15.1310    27.4386 </r>
       <r>    -5.1448    15.6930    28.1622 </r>
       <r>    -5.0987    15.8815    28.8946 </r>
       <r>    -5.0526    15.8487    29.6254 </r>
       <r>    -5.0065    15.8359    30.3557 </r>
       <r>    -4.9604    16.0275    31.0947 </r>
       <r>    -4.9142    16.4099    31.8515 </r>
       <r>    -4.8681    16.7531    32.6240 </r>
       <r>    -4.8220    16.7537    33.3966 </r>
       <r>    -4.7759    16.2519    34.1460 </r>
       <r>    -4.7298    15.3780    34.8551 </r>
       <r>    -4.6837    14.5305    35.5252 </r>
       <r>    -4.6376    14.1992    36.1799 </r>
       <r>    -4.5914    14.7350    36.8594 </r>
       <r>    -4.5453    16.1884    37.6059 </r>
       <r>    -4.4992    18.2769    38.4487 </r>
       <r>    -4.4531    20.4701    39.3927 </r>
       <r>    -4.4070    22.1522    40.4142 </r>
       <r>    -4.3609    22.8303    41.4670 </r>
       <r>    -4.3148    22.3519    42.4977 </r>
       <r>    -4.2687    21.0298    43.4674 </r>
       <r>    -4.2225    19.5465    44.3688 </r>
       <r>    -4.1764    18.6153    45.2272 </r>
       <r>    -4.1303    18.5787    46.0839 </r>
       <r>    -4.0842    19.2367    46.9710 </r>
       <r>    -4.0381    20.0404    47.8951 </r>
       <r>    -3.9920    20.4837    48.8397 </r>
       <r>    -3.9459    20.3563    49.7784 </r>
       <r>    -3.8997    19.6843    50.6861 </r>
       <r>    -3.8536    18.4939    51.5389 </r>
       <r>    -3.8075    16.6850    52.3083 </r>
       <r>    -3.7614    14.1414    52.9604 </r>
       <r>    -3.7153    10.9473    53.4652 </r>
       <r>    -3.6692     7.4794    53.8101 </r>
       <r>    -3.6231     4.2799    54.0075 </r>
       <r>    -3.5770     1.8093    54.0909 </r>
       <r>    -3.5308     0.2608    54.1030 </r>
       <r>    -3.4847    -0.4610    54.0817 </r>
       <r>    -3.4386    -0.6229    54.0530 </r>
       <r>    -3.3925    -0.5104    54.0295 </r>
       <r>    -3.3464    -0.3284    54.0143 </r>
       <r>    -3.3003    -0.1782    54.0061 </r>
       <r>    -3.2542    -0.0861    54.0021 </r>
       <r>    -3.2081    -0.0447    54.0001 </r>
       <r>    -3.1619    -0.0418    53.9981 </r>
       <r>    -3.1158    -0.0738    53.9947 </r>
       <r>    -3.0697    -0.1435    53.9881 </r>
       <r>    -3.0236    -0.2450    53.9768 </r>
       <r>    -2.9775    -0.3367    53.9613 </r>
       <r>    -2.9314    -0.3140    53.9468 </r>
       <r>    -2.8853    -0.0058    53.9465 </r>
       <r>    -2.8391     0.7723    53.9822 </r>
       <r>    -2.7930     2.1054    54.0792 </r>
       <r>    -2.7469     3.8586    54.2572 </r>
       <r>    -2.7008     5.6421    54.5173 </r>
       <r>    -2.6547     6.9315    54.8370 </r>
       <r>    -2.6086     7.3174    55.1744 </r>
       <r>    -2.5625     6.7430    55.4854 </r>
       <r>    -2.5164     5.5672    55.7421 </r>
       <r>    -2.4702     4.3889    55.9445 </r>
       <r>    -2.4241     3.7352    56.1167 </r>
       <r>    -2.3780     3.8187    56.2928 </r>
       <r>    -2.3319     4.5119    56.5009 </r>
       <r>    -2.2858     5.5120    56.7550 </r>
       <r>    -2.2397     6.5282    57.0561 </r>
       <r>    -2.1936     7.3522    57.3951 </r>
       <r>    -2.1474     7.8146    57.7555 </r>
       <r>    -2.1013     7.7454    58.1126 </r>
       <r>    -2.0552     7.0239    58.4365 </r>
       <r>    -2.0091     5.6822    58.6986 </r>
       <r>    -1.9630     3.9538    58.8809 </r>
       <r>    -1.9169     2.2055    58.9826 </r>
       <r>    -1.8708     0.7992    59.0194 </r>
       <r>    -1.8247    -0.0190    59.0186 </r>
       <r>    -1.7785    -0.1492    59.0117 </r>
       <r>    -1.7324     0.3788    59.0291 </r>
       <r>    -1.6863     1.4082    59.0941 </r>
       <r>    -1.6402     2.6427    59.2159 </r>
       <r>    -1.5941     3.6826    59.3858 </r>
       <r>    -1.5480     4.1572    59.5775 </r>
       <r>    -1.5019     3.8999    59.7573 </r>
       <r>    -1.4557     3.0367    59.8973 </r>
       <r>    -1.4096     1.9104    59.9854 </r>
       <r>    -1.3635     0.8881    60.0264 </r>
       <r>    -1.3174     0.1917    60.0352 </r>
       <r>    -1.2713    -0.1529    60.0282 </r>
       <r>    -1.2252    -0.2528    60.0165 </r>
       <r>    -1.1791    -0.2499    60.0050 </r>
       <r>    -1.1330    -0.2520    59.9934 </r>
       <r>    -1.0868    -0.3062    59.9792 </r>
       <r>    -1.0407    -0.3881    59.9613 </r>
       <r>    -0.9946    -0.3886    59.9434 </r>
       <r>    -0.9485    -0.1135    59.9382 </r>
       <r>    -0.9024     0.6626    59.9687 </r>
       <r>    -0.8563     2.0674    60.0641 </r>
       <r>    -0.8102     3.9744    60.2474 </r>
       <r>    -0.7640     5.9388    60.5212 </r>
       <r>    -0.7179     7.3338    60.8594 </r>
       <r>    -0.6718     7.6654    61.2129 </r>
       <r>    -0.6257     6.8821    61.5302 </r>
       <r>    -0.5796     5.4510    61.7816 </r>
       <r>    -0.5335     4.1183    61.9715 </r>
       <r>    -0.4874     3.5032    62.1330 </r>
       <r>    -0.4413     3.7924    62.3079 </r>
       <r>    -0.3951     4.7249    62.5258 </r>
       <r>    -0.3490     5.8386    62.7950 </r>
       <r>    -0.3029     6.7828    63.1078 </r>
       <r>    -0.2568     7.4820    63.4528 </r>
       <r>    -0.2107     8.0595    63.8245 </r>
       <r>    -0.1646     8.6091    64.2215 </r>
       <r>    -0.1185     9.0067    64.6368 </r>
       <r>    -0.0723     8.9298    65.0486 </r>
       <r>    -0.0262     8.0829    65.4213 </r>
       <r>     0.0199     6.4508    65.7188 </r>
       <r>     0.0660     4.3691    65.9203 </r>
       <r>     0.1121     2.3527    66.0288 </r>
       <r>     0.1582     0.8241    66.0668 </r>
       <r>     0.2043    -0.0601    66.0640 </r>
       <r>     0.2504    -0.3977    66.0457 </r>
       <r>     0.2966    -0.4066    66.0269 </r>
       <r>     0.3427    -0.2885    66.0136 </r>
       <r>     0.3888    -0.1648    66.0060 </r>
       <r>     0.4349    -0.0795    66.0023 </r>
       <r>     0.4810    -0.0332    66.0008 </r>
       <r>     0.5271    -0.0121    66.0002 </r>
       <r>     0.5732    -0.0039    66.0001 </r>
       <r>     0.6194    -0.0011    66.0000 </r>
       <r>     0.6655    -0.0003    66.0000 </r>
       <r>     0.7116    -0.0001    66.0000 </r>
       <r>     0.7577    -0.0000    66.0000 </r>
       <r>     0.8038    -0.0000    66.0000 </r>
       <r>     0.8499    -0.0000    66.0000 </r>
       <r>     0.8960    -0.0000    66.0000 </r>
       <r>     0.9421    -0.0000    66.0000 </r>
       <r>     0.9883    -0.0000    66.0000 </r>
       <r>     1.0344    -0.0000    66.0000 </r>
       <r>     1.0805    -0.0000    66.0000 </r>
       <r>     1.1266    -0.0000    66.0000 </r>
       <r>     1.1727    -0.0000    66.0000 </r>
       <r>     1.2188    -0.0000    66.0000 </r>
       <r>     1.2649     0.0000    66.0000 </r>
       <r>     1.3111     0.0000    66.0000 </r>
       <r>     1.3572     0.0000    66.0000 </r>
       <r>     1.4033     0.0000    66.0000 </r>
       <r>     1.4494     0.0000    66.0000 </r>
       <r>     1.4955     0.0000    66.0000 </r>
       <r>     1.5416     0.0000    66.0000 </r>
       <r>     1.5877     0.0000    66.0000 </r>
       <r>     1.6338     0.0000    66.0000 </r>
       <r>     1.6800     0.0000    66.0000 </r>
       <r>     1.7261     0.0000    66.0000 </r>
       <r>     1.7722     0.0000    66.0000 </r>
       <r>     1.8183     0.0000    66.0000 </r>
       <r>     1.8644     0.0000    66.0000 </r>
       <r>     1.9105     0.0000    66.0000 </r>
       <r>     1.9566     0.0000    66.0000 </r>
      </set>
     </set>
    </array>
   </total>
  </dos>
 </calculation>
 <structure name="finalpos" >
  <crystal>
   <varray name="basis" >
    <v>      23.86529926       0.00000000       0.00000000 </v>
    <v>       0.00000000      22.31730700       0.00000000 </v>
    <v>       0.00000000       0.00000000      22.77980485 </v>
   </varray>
   <i name="volume">  12132.73386945 </i>
   <varray name="rec_basis" >
    <v>       0.04190184       0.00000000       0.00000000 </v>
    <v>       0.00000000       0.04480827       0.00000000 </v>
    <v>       0.00000000       0.00000000       0.04389853 </v>
   </varray>
  </crystal>
  <varray name="positions" >
   <v>       0.44961403       0.66005994       0.55201120 </v>
   <v>       0.47767824       0.56105819       0.51296845 </v>
   <v>       0.55227387       0.63630953       0.54257031 </v>
   <v>       0.47262715       0.56550705       0.41216793 </v>
   <v>       0.49462090       0.65547194       0.45694768 </v>
   <v>       0.49290358       0.58941899       0.60964446 </v>
   <v>       0.56814331       0.57233245       0.44867642 </v>
   <v>       0.51624450       0.73662347       0.52512445 </v>
   <v>       0.56509563       0.52880682       0.56207733 </v>
   <v>       0.39672756       0.61399224       0.46672837 </v>
  </varray>
 </structure>
</modeling>
