unknown system                          
            1
    23.865299    0.000000    0.000000
     0.000000   22.317307    0.000000
     0.000000    0.000000   22.779805
   Ni   Pd
     6     4
Direct configuration=     1
   0.44963137  0.66011183  0.55201025
   0.47773314  0.56120680  0.51285581
   0.55236157  0.63638058  0.54281258
   0.47253291  0.56545877  0.41218229
   0.49467595  0.65560387  0.45691538
   0.49296825  0.58932374  0.60959005
   0.56817575  0.57226569  0.44859905
   0.51618158  0.73649177  0.52508946
   0.56488990  0.52887959  0.56206627
   0.39677835  0.61385799  0.46679547
Direct configuration=     2
   0.44962474  0.66009200  0.55201061
   0.47771215  0.56114999  0.51289887
   0.55232804  0.63635342  0.54271996
   0.47256894  0.56547723  0.41217680
   0.49465491  0.65555343  0.45692773
   0.49294353  0.58936015  0.60961085
   0.56816335  0.57229121  0.44862863
   0.51620564  0.73654212  0.52510284
   0.56496855  0.52885177  0.56207050
   0.39675893  0.61390931  0.46676982
Direct configuration=     3
   0.44961403  0.66005994  0.55201120
   0.47767824  0.56105819  0.51296845
   0.55227387  0.63630953  0.54257031
   0.47262715  0.56550705  0.41216793
   0.49462090  0.65547194  0.45694768
   0.49290358  0.58941899  0.60964446
   0.56814331  0.57233245  0.44867642
   0.51624450  0.73662347  0.52512445
   0.56509563  0.52880682  0.56207733
   0.39672756  0.61399224  0.46672837
