  10  10   0   0
  0.1121537E+04  0.2214784E-08  0.2206865E-08  0.2294599E-08  0.5000000E-15
   1.0000000000000000E-004
  CAR 
 unknown system                          
      1.93654974    -11.72073406  301     -4.05002739      1.00000000
    -11.721  0.0000E+00  0.0000E+00  0.0000E+00  0.0000E+00
    -11.675  0.0000E+00  0.0000E+00  0.0000E+00  0.0000E+00
    -11.630  0.0000E+00  0.0000E+00  0.0000E+00  0.0000E+00
    -11.584  0.0000E+00  0.0000E+00  0.0000E+00  0.0000E+00
    -11.539  0.0000E+00  0.0000E+00  0.0000E+00  0.0000E+00
    -11.493  0.0000E+00  0.0000E+00  0.0000E+00  0.0000E+00
    -11.448  0.0000E+00  0.0000E+00  0.0000E+00  0.0000E+00
    -11.402  0.0000E+00  0.0000E+00  0.0000E+00  0.0000E+00
    -11.357 -0.4488E-30  0.0000E+00 -0.2043E-31  0.0000E+00
    -11.311 -0.1671E-28  0.0000E+00 -0.7809E-30  0.0000E+00
    -11.265 -0.5735E-27 -0.7659E-29 -0.2689E-28 -0.3487E-30
    -11.220 -0.1773E-25 -0.2623E-27 -0.8340E-27 -0.1229E-28
    -11.174 -0.4935E-24 -0.8301E-26 -0.2330E-25 -0.3902E-27
    -11.129 -0.1237E-22 -0.2365E-24 -0.5862E-24 -0.1116E-25
    -11.083 -0.2789E-21 -0.6068E-23 -0.1328E-22 -0.2874E-24
    -11.038 -0.5663E-20 -0.1401E-21 -0.2711E-21 -0.6667E-23
    -10.992 -0.1035E-18 -0.2913E-20 -0.4982E-20 -0.1393E-21
    -10.947 -0.1701E-17 -0.5451E-19 -0.8244E-19 -0.2621E-20
    -10.901 -0.2395E-16 -0.9176E-18 -0.1173E-17 -0.4439E-19
    -10.856 -0.3251E-15 -0.1390E-16 -0.1597E-16 -0.6771E-18
    -10.810 -0.3871E-14 -0.1832E-15 -0.1922E-15 -0.9019E-17
    -10.765 -0.4151E-13 -0.2244E-14 -0.2082E-14 -0.1112E-15
    -10.719 -0.3999E-12 -0.2464E-13 -0.2029E-13 -0.1233E-14
    -10.674 -0.3458E-11 -0.2431E-12 -0.1777E-12 -0.1230E-13
    -10.628 -0.2684E-10 -0.2154E-11 -0.1400E-11 -0.1104E-12
    -10.583 -0.1869E-09 -0.1713E-10 -0.9906E-11 -0.8901E-12
    -10.537 -0.1166E-08 -0.1222E-09 -0.6297E-10 -0.6453E-11
    -10.492 -0.6511E-08 -0.7813E-09 -0.3594E-09 -0.4202E-10
    -10.446 -0.3252E-07 -0.4474E-08 -0.1840E-08 -0.2457E-09
    -10.401 -0.1451E-06 -0.2291E-07 -0.8445E-08 -0.1289E-08
    -10.355 -0.5767E-06 -0.1049E-06 -0.3470E-07 -0.6062E-08
    -10.309 -0.2038E-05 -0.4278E-06 -0.1275E-06 -0.2554E-07
    -10.264 -0.6379E-05 -0.1552E-05 -0.4179E-06 -0.9621E-07
    -10.218 -0.1759E-04 -0.4995E-05 -0.1219E-05 -0.3236E-06
    -10.173 -0.4243E-04 -0.1418E-04 -0.3150E-05 -0.9691E-06
    -10.127 -0.8829E-04 -0.3527E-04 -0.7170E-05 -0.2575E-05
    -10.082 -0.1548E-03 -0.7597E-04 -0.1422E-04 -0.6033E-05
    -10.036 -0.2168E-03 -0.1388E-03 -0.2408E-04 -0.1235E-04
     -9.991 -0.2051E-03 -0.2060E-03 -0.3342E-04 -0.2173E-04
     -9.945 -0.4495E-05 -0.2195E-03 -0.3362E-04 -0.3172E-04
     -9.900  0.5069E-03 -0.7259E-04 -0.1055E-04 -0.3503E-04
     -9.854  0.1373E-02  0.3611E-03  0.5198E-04 -0.1859E-04
     -9.809  0.2475E-02  0.1152E-02  0.1647E-03  0.3384E-04
     -9.763  0.3517E-02  0.2221E-02  0.3248E-03  0.1350E-03
     -9.718  0.4134E-02  0.3308E-02  0.5130E-03  0.2856E-03
     -9.672  0.4087E-02  0.4049E-02  0.6990E-03  0.4699E-03
     -9.627  0.3393E-02  0.4159E-02  0.8535E-03  0.6592E-03
     -9.581  0.2322E-02  0.3594E-02  0.9592E-03  0.8228E-03
     -9.536  0.1238E-02  0.2576E-02  0.1016E-02  0.9401E-03
     -9.490  0.4169E-03  0.1465E-02  0.1035E-02  0.1007E-02
     -9.445 -0.4733E-04  0.5701E-03  0.1032E-02  0.1033E-02
     -9.399 -0.2148E-03  0.2693E-04  0.1023E-02  0.1034E-02
     -9.353 -0.2106E-03 -0.1968E-03  0.1013E-02  0.1025E-02
     -9.308 -0.1452E-03 -0.2201E-03  0.1006E-02  0.1015E-02
     -9.262 -0.8073E-04 -0.1611E-03  0.1003E-02  0.1008E-02
     -9.217 -0.3799E-04 -0.9351E-04  0.1001E-02  0.1003E-02
     -9.171 -0.1546E-04 -0.4557E-04  0.1000E-02  0.1001E-02
     -9.126 -0.5512E-05 -0.1914E-04  0.1000E-02  0.1000E-02
     -9.080 -0.1744E-05 -0.7018E-05  0.1000E-02  0.1000E-02
     -9.035 -0.5435E-06 -0.2267E-05  0.1000E-02  0.1000E-02
     -8.989 -0.3804E-06 -0.6484E-06  0.1000E-02  0.1000E-02
     -8.944 -0.1015E-05 -0.1649E-06  0.9999E-03  0.1000E-02
     -8.898 -0.3329E-05 -0.3777E-07  0.9998E-03  0.1000E-02
     -8.853 -0.9882E-05 -0.1016E-07  0.9993E-03  0.1000E-02
     -8.807 -0.2582E-04 -0.1523E-07  0.9982E-03  0.1000E-02
     -8.762 -0.5873E-04 -0.6599E-07  0.9955E-03  0.1000E-02
     -8.716 -0.1145E-03 -0.2783E-06  0.9903E-03  0.1000E-02
     -8.671 -0.1855E-03 -0.1048E-05  0.9818E-03  0.9999E-03
     -8.625 -0.2318E-03 -0.3504E-05  0.9713E-03  0.9998E-03
     -8.580 -0.1671E-03 -0.1035E-04  0.9637E-03  0.9993E-03
     -8.534  0.1282E-03 -0.2687E-04  0.9695E-03  0.9981E-03
     -8.489  0.7477E-03 -0.6067E-04  0.1004E-02  0.9953E-03
     -8.443  0.1673E-02 -0.1172E-03  0.1080E-02  0.9900E-03
     -8.397  0.2724E-02 -0.1871E-03  0.1204E-02  0.9815E-03
     -8.352  0.3613E-02 -0.2274E-03  0.1368E-02  0.9711E-03
     -8.306  0.4105E-02 -0.1468E-03  0.1555E-02  0.9644E-03
     -8.261  0.4171E-02  0.1788E-03  0.1745E-02  0.9726E-03
     -8.215  0.3994E-02  0.8429E-03  0.1927E-02  0.1011E-02
     -8.170  0.3820E-02  0.1815E-02  0.2101E-02  0.1094E-02
     -8.124  0.3762E-02  0.2882E-02  0.2272E-02  0.1225E-02
     -8.079  0.3776E-02  0.3700E-02  0.2444E-02  0.1393E-02
     -8.033  0.3806E-02  0.3976E-02  0.2617E-02  0.1574E-02
     -7.988  0.3960E-02  0.3658E-02  0.2797E-02  0.1741E-02
     -7.942  0.4510E-02  0.3016E-02  0.3003E-02  0.1878E-02
     -7.897  0.5669E-02  0.2493E-02  0.3261E-02  0.1992E-02
     -7.851  0.7347E-02  0.2433E-02  0.3595E-02  0.2102E-02
     -7.806  0.9113E-02  0.2851E-02  0.4010E-02  0.2232E-02
     -7.760  0.1040E-01  0.3420E-02  0.4483E-02  0.2388E-02
     -7.715  0.1080E-01  0.3689E-02  0.4975E-02  0.2556E-02
     -7.669  0.1026E-01  0.3393E-02  0.5442E-02  0.2710E-02
     -7.624  0.9068E-02  0.2645E-02  0.5855E-02  0.2831E-02
     -7.578  0.7679E-02  0.1899E-02  0.6205E-02  0.2917E-02
     -7.533  0.6626E-02  0.1703E-02  0.6506E-02  0.2995E-02
     -7.487  0.6377E-02  0.2399E-02  0.6797E-02  0.3104E-02
     -7.441  0.7210E-02  0.3928E-02  0.7125E-02  0.3283E-02
     -7.396  0.9051E-02  0.5846E-02  0.7537E-02  0.3549E-02
     -7.350  0.1140E-01  0.7542E-02  0.8056E-02  0.3892E-02
     -7.305  0.1347E-01  0.8520E-02  0.8669E-02  0.4280E-02
     -7.259  0.1452E-01  0.8596E-02  0.9330E-02  0.4671E-02
     -7.214  0.1423E-01  0.7906E-02  0.9978E-02  0.5031E-02
     -7.168  0.1278E-01  0.6783E-02  0.1056E-01  0.5340E-02
     -7.123  0.1077E-01  0.5608E-02  0.1105E-01  0.5595E-02
     -7.077  0.8902E-02  0.4731E-02  0.1145E-01  0.5811E-02
     -7.032  0.7740E-02  0.4403E-02  0.1181E-01  0.6011E-02
     -6.986  0.7516E-02  0.4707E-02  0.1215E-01  0.6225E-02
     -6.941  0.8125E-02  0.5492E-02  0.1252E-01  0.6475E-02
     -6.895  0.9207E-02  0.6439E-02  0.1294E-01  0.6768E-02
     -6.850  0.1033E-01  0.7244E-02  0.1341E-01  0.7098E-02
     -6.804  0.1119E-01  0.7819E-02  0.1392E-01  0.7454E-02
     -6.759  0.1172E-01  0.8326E-02  0.1445E-01  0.7833E-02
     -6.713  0.1202E-01  0.9014E-02  0.1500E-01  0.8244E-02
     -6.668  0.1215E-01  0.9986E-02  0.1555E-01  0.8698E-02
     -6.622  0.1209E-01  0.1107E-01  0.1610E-01  0.9202E-02
     -6.576  0.1175E-01  0.1188E-01  0.1664E-01  0.9743E-02
     -6.531  0.1124E-01  0.1211E-01  0.1715E-01  0.1029E-01
     -6.485  0.1092E-01  0.1167E-01  0.1765E-01  0.1083E-01
     -6.440  0.1118E-01  0.1087E-01  0.1816E-01  0.1132E-01
     -6.394  0.1210E-01  0.1030E-01  0.1871E-01  0.1179E-01
     -6.349  0.1335E-01  0.1051E-01  0.1931E-01  0.1227E-01
     -6.303  0.1438E-01  0.1170E-01  0.1997E-01  0.1280E-01
     -6.258  0.1481E-01  0.1354E-01  0.2064E-01  0.1342E-01
     -6.212  0.1462E-01  0.1531E-01  0.2131E-01  0.1411E-01
     -6.167  0.1408E-01  0.1626E-01  0.2195E-01  0.1485E-01
     -6.121  0.1344E-01  0.1602E-01  0.2256E-01  0.1558E-01
     -6.076  0.1278E-01  0.1480E-01  0.2314E-01  0.1626E-01
     -6.030  0.1208E-01  0.1325E-01  0.2369E-01  0.1686E-01
     -5.985  0.1145E-01  0.1211E-01  0.2421E-01  0.1741E-01
     -5.939  0.1112E-01  0.1187E-01  0.2472E-01  0.1795E-01
     -5.894  0.1126E-01  0.1262E-01  0.2523E-01  0.1853E-01
     -5.848  0.1181E-01  0.1403E-01  0.2577E-01  0.1916E-01
     -5.803  0.1246E-01  0.1554E-01  0.2634E-01  0.1987E-01
     -5.757  0.1296E-01  0.1652E-01  0.2693E-01  0.2062E-01
     -5.712  0.1338E-01  0.1655E-01  0.2754E-01  0.2138E-01
     -5.666  0.1406E-01  0.1555E-01  0.2818E-01  0.2209E-01
     -5.620  0.1540E-01  0.1386E-01  0.2888E-01  0.2272E-01
     -5.575  0.1747E-01  0.1217E-01  0.2967E-01  0.2327E-01
     -5.529  0.1991E-01  0.1123E-01  0.3058E-01  0.2378E-01
     -5.484  0.2211E-01  0.1149E-01  0.3159E-01  0.2430E-01
     -5.438  0.2353E-01  0.1278E-01  0.3266E-01  0.2489E-01
     -5.393  0.2395E-01  0.1438E-01  0.3375E-01  0.2554E-01
     -5.347  0.2348E-01  0.1536E-01  0.3482E-01  0.2624E-01
     -5.302  0.2252E-01  0.1518E-01  0.3584E-01  0.2693E-01
     -5.256  0.2152E-01  0.1399E-01  0.3682E-01  0.2757E-01
     -5.211  0.2089E-01  0.1248E-01  0.3777E-01  0.2814E-01
     -5.165  0.2084E-01  0.1145E-01  0.3872E-01  0.2866E-01
     -5.120  0.2138E-01  0.1142E-01  0.3969E-01  0.2918E-01
     -5.074  0.2238E-01  0.1245E-01  0.4071E-01  0.2974E-01
     -5.029  0.2364E-01  0.1428E-01  0.4179E-01  0.3039E-01
     -4.983  0.2494E-01  0.1644E-01  0.4292E-01  0.3114E-01
     -4.938  0.2606E-01  0.1832E-01  0.4411E-01  0.3198E-01
     -4.892  0.2676E-01  0.1931E-01  0.4533E-01  0.3286E-01
     -4.847  0.2680E-01  0.1909E-01  0.4655E-01  0.3372E-01
     -4.801  0.2602E-01  0.1774E-01  0.4773E-01  0.3453E-01
     -4.756  0.2440E-01  0.1583E-01  0.4884E-01  0.3525E-01
     -4.710  0.2202E-01  0.1413E-01  0.4985E-01  0.3590E-01
     -4.664  0.1909E-01  0.1321E-01  0.5072E-01  0.3650E-01
     -4.619  0.1584E-01  0.1320E-01  0.5144E-01  0.3710E-01
     -4.573  0.1252E-01  0.1383E-01  0.5201E-01  0.3773E-01
     -4.528  0.9352E-02  0.1473E-01  0.5243E-01  0.3840E-01
     -4.482  0.6490E-02  0.1565E-01  0.5273E-01  0.3911E-01
     -4.437  0.4040E-02  0.1653E-01  0.5291E-01  0.3986E-01
     -4.391  0.2079E-02  0.1733E-01  0.5301E-01  0.4065E-01
     -4.346  0.6791E-03  0.1791E-01  0.5304E-01  0.4147E-01
     -4.300 -0.8956E-04  0.1813E-01  0.5303E-01  0.4229E-01
     -4.255 -0.1845E-03  0.1792E-01  0.5303E-01  0.4311E-01
     -4.209  0.3651E-03  0.1741E-01  0.5304E-01  0.4390E-01
     -4.164  0.1408E-02  0.1681E-01  0.5311E-01  0.4467E-01
     -4.118  0.2645E-02  0.1633E-01  0.5323E-01  0.4541E-01
     -4.073  0.3675E-02  0.1615E-01  0.5339E-01  0.4615E-01
     -4.027  0.4138E-02  0.1633E-01  0.5358E-01  0.4689E-01
     -3.982  0.3878E-02  0.1682E-01  0.5376E-01  0.4765E-01
     -3.936  0.3023E-02  0.1738E-01  0.5390E-01  0.4845E-01
     -3.891  0.1902E-02  0.1767E-01  0.5398E-01  0.4925E-01
     -3.845  0.8662E-03  0.1739E-01  0.5402E-01  0.5004E-01
     -3.800  0.1256E-03  0.1646E-01  0.5403E-01  0.5079E-01
     -3.754 -0.2870E-03  0.1509E-01  0.5402E-01  0.5148E-01
     -3.708 -0.4418E-03  0.1355E-01  0.5400E-01  0.5209E-01
     -3.663 -0.3981E-03  0.1201E-01  0.5398E-01  0.5264E-01
     -3.617 -0.1366E-03  0.1036E-01  0.5397E-01  0.5311E-01
     -3.572  0.4191E-03  0.8428E-02  0.5399E-01  0.5350E-01
     -3.526  0.1305E-02  0.6154E-02  0.5405E-01  0.5378E-01
     -3.481  0.2409E-02  0.3780E-02  0.5416E-01  0.5395E-01
     -3.435  0.3440E-02  0.1741E-02  0.5432E-01  0.5403E-01
     -3.390  0.4033E-02  0.4502E-03  0.5450E-01  0.5405E-01
     -3.344  0.3943E-02  0.1138E-03  0.5468E-01  0.5405E-01
     -3.299  0.3206E-02  0.6600E-03  0.5482E-01  0.5408E-01
     -3.253  0.2153E-02  0.1773E-02  0.5492E-01  0.5416E-01
     -3.208  0.1263E-02  0.2981E-02  0.5498E-01  0.5430E-01
     -3.162  0.9326E-03  0.3803E-02  0.5502E-01  0.5447E-01
     -3.117  0.1296E-02  0.3921E-02  0.5508E-01  0.5465E-01
     -3.071  0.2167E-02  0.3326E-02  0.5518E-01  0.5480E-01
     -3.026  0.3133E-02  0.2328E-02  0.5532E-01  0.5491E-01
     -2.980  0.3768E-02  0.1413E-02  0.5549E-01  0.5497E-01
     -2.935  0.3865E-02  0.1013E-02  0.5567E-01  0.5502E-01
     -2.889  0.3556E-02  0.1309E-02  0.5583E-01  0.5508E-01
     -2.843  0.3207E-02  0.2145E-02  0.5598E-01  0.5518E-01
     -2.798  0.3153E-02  0.3112E-02  0.5612E-01  0.5532E-01
     -2.752  0.3450E-02  0.3749E-02  0.5628E-01  0.5549E-01
     -2.707  0.3834E-02  0.3798E-02  0.5645E-01  0.5566E-01
     -2.661  0.3913E-02  0.3347E-02  0.5663E-01  0.5581E-01
     -2.616  0.3447E-02  0.2779E-02  0.5679E-01  0.5594E-01
     -2.570  0.2505E-02  0.2525E-02  0.5690E-01  0.5606E-01
     -2.525  0.1421E-02  0.2773E-02  0.5697E-01  0.5618E-01
     -2.479  0.6100E-03  0.3346E-02  0.5699E-01  0.5633E-01
     -2.434  0.3847E-03  0.3819E-02  0.5701E-01  0.5651E-01
     -2.388  0.8398E-03  0.3798E-02  0.5705E-01  0.5668E-01
     -2.343  0.1823E-02  0.3166E-02  0.5713E-01  0.5683E-01
     -2.297  0.2975E-02  0.2148E-02  0.5727E-01  0.5692E-01
     -2.252  0.3850E-02  0.1180E-02  0.5744E-01  0.5698E-01
     -2.206  0.4098E-02  0.6817E-03  0.5763E-01  0.5701E-01
     -2.161  0.3616E-02  0.8730E-03  0.5780E-01  0.5705E-01
     -2.115  0.2596E-02  0.1683E-02  0.5791E-01  0.5712E-01
     -2.070  0.1415E-02  0.2776E-02  0.5798E-01  0.5725E-01
     -2.024  0.4599E-03  0.3680E-02  0.5800E-01  0.5742E-01
     -1.979  0.3221E-05  0.3997E-02  0.5800E-01  0.5760E-01
     -1.933  0.1564E-03  0.3585E-02  0.5801E-01  0.5776E-01
     -1.887  0.8711E-03  0.2641E-02  0.5805E-01  0.5788E-01
     -1.842  0.1940E-02  0.1597E-02  0.5813E-01  0.5796E-01
     -1.796  0.3020E-02  0.9207E-03  0.5827E-01  0.5800E-01
     -1.751  0.3736E-02  0.8982E-03  0.5844E-01  0.5804E-01
     -1.705  0.3864E-02  0.1521E-02  0.5862E-01  0.5811E-01
     -1.660  0.3477E-02  0.2507E-02  0.5878E-01  0.5822E-01
     -1.614  0.2937E-02  0.3448E-02  0.5891E-01  0.5838E-01
     -1.569  0.2692E-02  0.4029E-02  0.5903E-01  0.5856E-01
     -1.523  0.3015E-02  0.4186E-02  0.5917E-01  0.5875E-01
     -1.478  0.3862E-02  0.4092E-02  0.5935E-01  0.5894E-01
     -1.432  0.4934E-02  0.3993E-02  0.5957E-01  0.5912E-01
     -1.387  0.5877E-02  0.4012E-02  0.5984E-01  0.5930E-01
     -1.341  0.6465E-02  0.4116E-02  0.6013E-01  0.5949E-01
     -1.296  0.6664E-02  0.4239E-02  0.6044E-01  0.5968E-01
     -1.250  0.6565E-02  0.4424E-02  0.6073E-01  0.5989E-01
     -1.205  0.6265E-02  0.4807E-02  0.6102E-01  0.6010E-01
     -1.159  0.5788E-02  0.5462E-02  0.6128E-01  0.6035E-01
     -1.114  0.5110E-02  0.6246E-02  0.6152E-01  0.6064E-01
     -1.068  0.4261E-02  0.6813E-02  0.6171E-01  0.6095E-01
     -1.023  0.3407E-02  0.6797E-02  0.6186E-01  0.6126E-01
     -0.977  0.2814E-02  0.6051E-02  0.6199E-01  0.6153E-01
     -0.931  0.2684E-02  0.4761E-02  0.6211E-01  0.6175E-01
     -0.886  0.2987E-02  0.3384E-02  0.6225E-01  0.6190E-01
     -0.840  0.3466E-02  0.2421E-02  0.6241E-01  0.6201E-01
     -0.795  0.3815E-02  0.2169E-02  0.6258E-01  0.6211E-01
     -0.749  0.3909E-02  0.2586E-02  0.6276E-01  0.6223E-01
     -0.704  0.3878E-02  0.3350E-02  0.6294E-01  0.6238E-01
     -0.658  0.3973E-02  0.4084E-02  0.6312E-01  0.6257E-01
     -0.613  0.4348E-02  0.4561E-02  0.6332E-01  0.6278E-01
     -0.567  0.4938E-02  0.4770E-02  0.6354E-01  0.6299E-01
     -0.522  0.5513E-02  0.4826E-02  0.6379E-01  0.6321E-01
     -0.476  0.5824E-02  0.4826E-02  0.6406E-01  0.6343E-01
     -0.431  0.5734E-02  0.4814E-02  0.6432E-01  0.6365E-01
     -0.385  0.5280E-02  0.4807E-02  0.6456E-01  0.6387E-01
     -0.340  0.4662E-02  0.4839E-02  0.6477E-01  0.6409E-01
     -0.294  0.4153E-02  0.4944E-02  0.6496E-01  0.6432E-01
     -0.249  0.3947E-02  0.5115E-02  0.6514E-01  0.6455E-01
     -0.203  0.4020E-02  0.5303E-02  0.6532E-01  0.6479E-01
     -0.158  0.4125E-02  0.5428E-02  0.6551E-01  0.6504E-01
     -0.112  0.3951E-02  0.5390E-02  0.6569E-01  0.6528E-01
     -0.067  0.3338E-02  0.5073E-02  0.6584E-01  0.6551E-01
     -0.021  0.2381E-02  0.4399E-02  0.6595E-01  0.6571E-01
      0.025  0.1349E-02  0.3396E-02  0.6601E-01  0.6587E-01
      0.070  0.5122E-03  0.2235E-02  0.6603E-01  0.6597E-01
      0.116  0.1795E-05  0.1159E-02  0.6603E-01  0.6602E-01
      0.161 -0.2070E-03  0.3648E-03  0.6603E-01  0.6604E-01
      0.207 -0.2244E-03 -0.8169E-04  0.6602E-01  0.6604E-01
      0.252 -0.1632E-03 -0.2408E-03  0.6601E-01  0.6603E-01
      0.298 -0.9452E-04 -0.2311E-03  0.6600E-01  0.6601E-01
      0.343 -0.4607E-04 -0.1598E-03  0.6600E-01  0.6601E-01
      0.389 -0.1936E-04 -0.8986E-04  0.6600E-01  0.6600E-01
      0.434 -0.7110E-05 -0.4286E-04  0.6600E-01  0.6600E-01
      0.480 -0.2299E-05 -0.1770E-04  0.6600E-01  0.6600E-01
      0.525 -0.6585E-06 -0.6402E-05  0.6600E-01  0.6600E-01
      0.571 -0.1676E-06 -0.2043E-05  0.6600E-01  0.6600E-01
      0.616 -0.3801E-07 -0.5775E-06  0.6600E-01  0.6600E-01
      0.662 -0.7695E-08 -0.1452E-06  0.6600E-01  0.6600E-01
      0.707 -0.1393E-08 -0.3254E-07  0.6600E-01  0.6600E-01
      0.753 -0.2258E-09 -0.6513E-08  0.6600E-01  0.6600E-01
      0.798 -0.3280E-10 -0.1166E-08  0.6600E-01  0.6600E-01
      0.844 -0.4272E-11 -0.1869E-09  0.6600E-01  0.6600E-01
      0.889 -0.4993E-12 -0.2684E-10  0.6600E-01  0.6600E-01
      0.935 -0.5240E-13 -0.3458E-11  0.6600E-01  0.6600E-01
      0.981 -0.4941E-14 -0.3999E-12  0.6600E-01  0.6600E-01
      1.026 -0.4195E-15 -0.4152E-13  0.6600E-01  0.6600E-01
      1.072 -0.3414E-16 -0.3868E-14  0.6600E-01  0.6600E-01
      1.117  0.0000E+00 -0.3219E-15  0.6600E-01  0.6600E-01
      1.163  0.0000E+00 -0.2926E-16  0.6600E-01  0.6600E-01
      1.208  0.0000E+00  0.0000E+00  0.6600E-01  0.6600E-01
      1.254  0.0000E+00  0.0000E+00  0.6600E-01  0.6600E-01
      1.299  0.0000E+00  0.0000E+00  0.6600E-01  0.6600E-01
      1.345  0.0000E+00  0.0000E+00  0.6600E-01  0.6600E-01
      1.390  0.0000E+00  0.0000E+00  0.6600E-01  0.6600E-01
      1.436  0.0000E+00  0.0000E+00  0.6600E-01  0.6600E-01
      1.481  0.0000E+00  0.0000E+00  0.6600E-01  0.6600E-01
      1.527  0.0000E+00  0.0000E+00  0.6600E-01  0.6600E-01
      1.572  0.0000E+00  0.0000E+00  0.6600E-01  0.6600E-01
      1.618  0.0000E+00  0.0000E+00  0.6600E-01  0.6600E-01
      1.663  0.0000E+00  0.0000E+00  0.6600E-01  0.6600E-01
      1.709  0.0000E+00  0.0000E+00  0.6600E-01  0.6600E-01
      1.754  0.0000E+00  0.0000E+00  0.6600E-01  0.6600E-01
      1.800  0.0000E+00  0.0000E+00  0.6600E-01  0.6600E-01
      1.846  0.0000E+00  0.0000E+00  0.6600E-01  0.6600E-01
      1.891  0.0000E+00  0.0000E+00  0.6600E-01  0.6600E-01
      1.937  0.0000E+00  0.0000E+00  0.6600E-01  0.6600E-01
