   10   10 1000    2
  0.1121537E+04  0.2214784E-08  0.2206864E-08  0.2294599E-08  0.5000000E-15
   1.0000000000000000E-004
  CAR 
 unknown system                          
    100      1     66
 
  0.1262379E-14  0.1262379E-14  0.1262379E-14  0.1000000E+01
    1       -9.720734     -9.665021   1.000000   1.000000
    2       -8.328390     -8.057340   1.000000   1.000000
    3       -8.073602     -7.729651   1.000000   1.000000
    4       -7.829469     -7.376400   1.000000   1.000000
    5       -7.769449     -7.302508   1.000000   1.000000
    6       -7.679255     -7.148030   1.000000   1.000000
    7       -7.548664     -6.919338   1.000000   1.000000
    8       -7.356687     -6.818747   1.000000   1.000000
    9       -7.310451     -6.662613   1.000000   1.000000
   10       -7.261073     -6.602455   1.000000   1.000000
   11       -7.197952     -6.511321   1.000000   1.000000
   12       -7.078259     -6.454747   1.000000   1.000000
   13       -6.920413     -6.306670   1.000000   1.000000
   14       -6.839834     -6.215437   1.000000   1.000000
   15       -6.771146     -6.194943   1.000000   1.000000
   16       -6.650582     -6.154481   1.000000   1.000000
   17       -6.594444     -6.075346   1.000000   1.000000
   18       -6.530942     -5.973125   1.000000   1.000000
   19       -6.346570     -5.883793   1.000000   1.000000
   20       -6.341078     -5.810312   1.000000   1.000000
   21       -6.308643     -5.746786   1.000000   1.000000
   22       -6.194994     -5.733848   1.000000   1.000000
   23       -6.111563     -5.641919   1.000000   1.000000
   24       -6.060888     -5.581146   1.000000   1.000000
   25       -5.974524     -5.422962   1.000000   1.000000
   26       -5.828283     -5.366005   1.000000   1.000000
   27       -5.804755     -5.349597   1.000000   1.000000
   28       -5.746952     -5.314112   1.000000   1.000000
   29       -5.629654     -5.146473   1.000000   1.000000
   30       -5.554768     -5.118234   1.000000   1.000000
   31       -5.540322     -4.982431   1.000000   1.000000
   32       -5.474020     -4.959041   1.000000   1.000000
   33       -5.464244     -4.920533   1.000000   1.000000
   34       -5.390024     -4.857374   1.000000   1.000000
   35       -5.372900     -4.798723   1.000000   1.000001
   36       -5.335343     -4.790818   1.000000   1.000001
   37       -5.271081     -4.621117   1.000000   1.000205
   38       -5.224713     -4.581062   1.000000   1.000563
   39       -5.174580     -4.558102   1.000000   1.000965
   40       -5.116848     -4.435279   1.000000   1.010071
   41       -5.092041     -4.392168   1.000000   1.018083
   42       -5.028696     -4.348502   1.000000   1.027990
   43       -4.994770     -4.298779   1.000000   1.035404
   44       -4.972245     -4.239147   1.000000   1.018521
   45       -4.907092     -4.162457   1.000000   0.902306
   46       -4.877620     -4.121317   1.000000   0.781457
   47       -4.851347     -4.059349   1.000000   0.539395
   48       -4.815643     -3.962575   1.000000   0.166280
   49       -4.784790     -3.936256   1.000001   0.094451
   50       -4.712492     -3.878421   1.000015  -0.003441
   51       -4.680863     -3.806675   1.000038  -0.035448
   52       -4.636197     -3.787468   1.000137  -0.034401
   53       -4.510033     -3.631814   1.002699  -0.005891
   54       -4.046323     -3.606447   0.484330  -0.003716
   55       -3.391348     -3.156100  -0.000016  -0.000000
   56       -2.984177     -2.753520  -0.000000  -0.000000
   57       -2.688738     -2.431413  -0.000000  -0.000000
   58       -2.237742     -2.004006  -0.000000  -0.000000
   59       -1.743383     -1.591599  -0.000000  -0.000000
   60       -1.439943     -1.342922  -0.000000  -0.000000
   61       -1.290178     -1.117369  -0.000000  -0.000000
   62       -1.117060     -0.997730  -0.000000  -0.000000
   63       -0.819075     -0.676651  -0.000000  -0.000000
   64       -0.568784     -0.463451  -0.000000  -0.000000
   65       -0.402787     -0.255335  -0.000000  -0.000000
   66       -0.149915     -0.063450  -0.000000  -0.000000
