       N       E                     dE             d eps       ncg     rms          rms(c)
DAV:   1     0.721772128686E+03    0.72177E+03   -0.16111E+04   264   0.698E+02
DAV:   2     0.248892322789E+03   -0.47288E+03   -0.43665E+03   464   0.121E+02
DAV:   3     0.134552037622E+02   -0.23544E+03   -0.22296E+03   440   0.125E+02
DAV:   4    -0.374557449195E+02   -0.50911E+02   -0.44364E+02   408   0.573E+01
DAV:   5    -0.425314119098E+02   -0.50757E+01   -0.47167E+01   328   0.231E+01    0.270E+01
DAV:   6    -0.613576910164E+02   -0.18826E+02   -0.10339E+02   316   0.149E+02    0.563E+01
DAV:   7    -0.381547577303E+02    0.23203E+02   -0.67939E+01   340   0.794E+01    0.239E+01
DAV:   8    -0.395618361614E+02   -0.14071E+01   -0.23409E+01   398   0.792E+01    0.379E+01
DAV:   9    -0.383927792125E+02    0.11691E+01   -0.19302E+01   368   0.611E+01    0.331E+01
DAV:  10    -0.364128475513E+02    0.19799E+01   -0.13307E+01   358   0.514E+01    0.243E+01
DAV:  11    -0.353526451902E+02    0.10602E+01   -0.80617E+00   382   0.358E+01    0.174E+01
DAV:  12    -0.349189135434E+02    0.43373E+00   -0.47914E+00   368   0.318E+01    0.106E+01
DAV:  13    -0.352766930737E+02   -0.35778E+00   -0.19450E+00   352   0.166E+01    0.173E+01
DAV:  14    -0.351515564837E+02    0.12514E+00   -0.17815E+00   292   0.145E+01    0.970E+00
DAV:  15    -0.352800234576E+02   -0.12847E+00   -0.88220E-01   360   0.133E+01    0.104E+01
DAV:  16    -0.351222642202E+02    0.15776E+00   -0.67531E-01   318   0.124E+01    0.466E+00
DAV:  17    -0.352462637896E+02   -0.12400E+00   -0.18489E-01   392   0.483E+00    0.366E+00
DAV:  18    -0.354511919153E+02   -0.20493E+00   -0.61697E-02   382   0.287E+00    0.211E+00
DAV:  19    -0.357146595832E+02   -0.26347E+00   -0.66786E-02   364   0.235E+00    0.139E+00
DAV:  20    -0.358954499240E+02   -0.18079E+00   -0.30822E-02   376   0.215E+00    0.936E-01
DAV:  21    -0.360816547784E+02   -0.18620E+00   -0.18862E-02   332   0.133E+00    0.582E-01
DAV:  22    -0.362102657606E+02   -0.12861E+00   -0.90139E-03   334   0.752E-01    0.319E-01
DAV:  23    -0.363160278300E+02   -0.10576E+00   -0.51258E-03   344   0.480E-01    0.251E-01
DAV:  24    -0.364113075370E+02   -0.95280E-01   -0.32803E-03   298   0.432E-01    0.251E-01
DAV:  25    -0.364848842197E+02   -0.73577E-01   -0.26106E-03   300   0.295E-01    0.137E-01
DAV:  26    -0.365485458446E+02   -0.63662E-01   -0.18433E-03   250   0.177E-01    0.123E-01
DAV:  27    -0.366073599754E+02   -0.58814E-01   -0.18192E-03   274   0.201E-01    0.100E-01
DAV:  28    -0.366561407358E+02   -0.48781E-01   -0.17074E-03   268   0.178E-01    0.636E-02
DAV:  29    -0.366808161355E+02   -0.24675E-01   -0.74045E-04   278   0.116E-01    0.396E-02
DAV:  30    -0.366950645077E+02   -0.14248E-01   -0.36656E-04   220   0.911E-02    0.358E-02
DAV:  31    -0.367048919677E+02   -0.98275E-02   -0.23263E-04   212   0.719E-02    0.214E-02
DAV:  32    -0.367100948285E+02   -0.52029E-02   -0.13166E-04   208   0.534E-02    0.212E-02
DAV:  33    -0.367137527485E+02   -0.36579E-02   -0.89283E-05   204   0.426E-02    0.235E-02
DAV:  34    -0.367159871725E+02   -0.22344E-02   -0.51182E-05   192   0.311E-02    0.109E-02
DAV:  35    -0.367168861306E+02   -0.89896E-03   -0.24948E-05   192   0.214E-02    0.113E-02
DAV:  36    -0.367175279740E+02   -0.64184E-03   -0.18465E-05   184   0.214E-02    0.660E-03
DAV:  37    -0.367179650721E+02   -0.43710E-03   -0.14182E-05   180   0.150E-02    0.338E-03
DAV:  38    -0.367184140681E+02   -0.44900E-03   -0.15491E-05   184   0.122E-02    0.492E-03
DAV:  39    -0.367187045340E+02   -0.29047E-03   -0.10325E-05   184   0.121E-02    0.422E-03
DAV:  40    -0.367189000091E+02   -0.19548E-03   -0.10587E-05   190   0.112E-02    0.290E-03
DAV:  41    -0.367189926283E+02   -0.92619E-04   -0.55585E-06   184   0.828E-03
   1 F= -.36718993E+02 E0= -.36732973E+02  d E =-.367190E+02  mag=     8.0235
       N       E                     dE             d eps       ncg     rms          rms(c)
DAV:   1    -0.368215220218E+02   -0.10262E+00   -0.76236E+01   264   0.318E+01    0.307E+00
DAV:   2    -0.374110925608E+02   -0.58957E+00   -0.31044E+00   398   0.222E+01    0.133E+01
DAV:   3    -0.369404570037E+02    0.47064E+00   -0.15787E+00   316   0.233E+01    0.667E+00
DAV:   4    -0.369611960235E+02   -0.20739E-01   -0.71001E-01   364   0.122E+01    0.506E+00
DAV:   5    -0.369794517202E+02   -0.18256E-01   -0.51326E-01   358   0.841E+00    0.525E+00
DAV:   6    -0.369369264999E+02    0.42525E-01   -0.17072E-01   340   0.653E+00    0.241E+00
DAV:   7    -0.369397203211E+02   -0.27938E-02   -0.55419E-02   328   0.403E+00    0.831E-01
DAV:   8    -0.369485285263E+02   -0.88082E-02   -0.15153E-02   400   0.154E+00    0.107E+00
DAV:   9    -0.369525160369E+02   -0.39875E-02   -0.26004E-02   336   0.281E+00    0.177E+00
DAV:  10    -0.369475785456E+02    0.49375E-02   -0.29669E-02   390   0.244E+00    0.646E-01
DAV:  11    -0.369519690472E+02   -0.43905E-02   -0.12552E-02   368   0.186E+00    0.124E+00
DAV:  12    -0.369478788767E+02    0.40902E-02   -0.80531E-03   368   0.160E+00    0.461E-01
DAV:  13    -0.369492398297E+02   -0.13610E-02   -0.19514E-03   368   0.553E-01    0.167E-01
DAV:  14    -0.369500931028E+02   -0.85327E-03   -0.42037E-04   224   0.266E-01    0.912E-02
DAV:  15    -0.369505267209E+02   -0.43362E-03   -0.10487E-04   192   0.135E-01    0.109E-01
DAV:  16    -0.369508345093E+02   -0.30779E-03   -0.11445E-04   200   0.144E-01    0.255E-02
DAV:  17    -0.369511595831E+02   -0.32507E-03   -0.43172E-05   184   0.585E-02    0.231E-02
DAV:  18    -0.369514888799E+02   -0.32930E-03   -0.32745E-05   192   0.483E-02    0.206E-02
DAV:  19    -0.369517116455E+02   -0.22277E-03   -0.16226E-05   192   0.345E-02    0.889E-03
DAV:  20    -0.369519258989E+02   -0.21425E-03   -0.12855E-05   176   0.205E-02    0.779E-03
DAV:  21    -0.369520820377E+02   -0.15614E-03   -0.72607E-06   184   0.175E-02    0.631E-03
DAV:  22    -0.369522172331E+02   -0.13520E-03   -0.49756E-06   176   0.127E-02    0.467E-03
DAV:  23    -0.369523936724E+02   -0.17644E-03   -0.46870E-06   176   0.918E-03    0.386E-03
DAV:  24    -0.369525372936E+02   -0.14362E-03   -0.36763E-06   176   0.674E-03    0.290E-03
DAV:  25    -0.369526626161E+02   -0.12532E-03   -0.26438E-06   176   0.695E-03    0.241E-03
DAV:  26    -0.369527582764E+02   -0.95660E-04   -0.19231E-06   176   0.554E-03
   2 F= -.36952758E+02 E0= -.36970129E+02  d E =-.233766E+00  mag=     8.0340
       N       E                     dE             d eps       ncg     rms          rms(c)
DAV:   1    -0.369068075789E+02    0.45855E-01   -0.65433E+01   264   0.294E+01    0.271E+00
DAV:   2    -0.374011807167E+02   -0.49437E+00   -0.24431E+00   398   0.193E+01    0.127E+01
DAV:   3    -0.369976482177E+02    0.40353E+00   -0.15309E+00   316   0.202E+01    0.580E+00
DAV:   4    -0.370426068044E+02   -0.44959E-01   -0.66152E-01   372   0.115E+01    0.529E+00
DAV:   5    -0.370289510902E+02    0.13656E-01   -0.42144E-01   350   0.810E+00    0.370E+00
DAV:   6    -0.370199549504E+02    0.89961E-02   -0.13537E-01   350   0.575E+00    0.242E+00
DAV:   7    -0.370120822327E+02    0.78727E-02   -0.48558E-02   358   0.370E+00    0.760E-01
DAV:   8    -0.370242433300E+02   -0.12161E-01   -0.23878E-02   400   0.251E+00    0.162E+00
DAV:   9    -0.370188152310E+02    0.54281E-02   -0.19582E-02   344   0.273E+00    0.829E-01
DAV:  10    -0.370218936759E+02   -0.30784E-02   -0.15462E-02   398   0.187E+00    0.951E-01
DAV:  11    -0.370220804334E+02   -0.18676E-03   -0.13241E-02   360   0.219E+00    0.944E-01
DAV:  12    -0.370202307744E+02    0.18497E-02   -0.46523E-03   374   0.118E+00    0.439E-01
DAV:  13    -0.370207593472E+02   -0.52857E-03   -0.18040E-03   352   0.482E-01    0.124E-01
DAV:  14    -0.370216431487E+02   -0.88380E-03   -0.28179E-04   208   0.220E-01    0.897E-02
DAV:  15    -0.370219288714E+02   -0.28572E-03   -0.10360E-04   192   0.894E-02    0.667E-02
DAV:  16    -0.370221460715E+02   -0.21720E-03   -0.59227E-05   184   0.861E-02    0.192E-02
DAV:  17    -0.370223613589E+02   -0.21529E-03   -0.30841E-05   184   0.440E-02    0.151E-02
DAV:  18    -0.370225867045E+02   -0.22535E-03   -0.17801E-05   176   0.320E-02    0.155E-02
DAV:  19    -0.370227836390E+02   -0.19693E-03   -0.13068E-05   184   0.317E-02    0.127E-02
DAV:  20    -0.370229313376E+02   -0.14770E-03   -0.88575E-06   192   0.204E-02    0.530E-03
DAV:  21    -0.370230475636E+02   -0.11623E-03   -0.54066E-06   184   0.129E-02    0.470E-03
DAV:  22    -0.370231795184E+02   -0.13195E-03   -0.41528E-06   176   0.996E-03    0.361E-03
DAV:  23    -0.370233076528E+02   -0.12813E-03   -0.32000E-06   176   0.824E-03    0.337E-03
DAV:  24    -0.370234134858E+02   -0.10583E-03   -0.24788E-06   176   0.675E-03    0.247E-03
DAV:  25    -0.370235401098E+02   -0.12662E-03   -0.27295E-06   176   0.593E-03    0.199E-03
DAV:  26    -0.370236212260E+02   -0.81116E-04   -0.16927E-06   184   0.473E-03
   3 F= -.37023621E+02 E0= -.37040468E+02  d E =-.304629E+00  mag=     8.0438
       N       E                     dE             d eps       ncg     rms          rms(c)
DAV:   1    -0.370410109227E+02   -0.17471E-01   -0.20342E+01   264   0.161E+01    0.213E+00
DAV:   2    -0.377110630102E+02   -0.67005E+00   -0.32792E+00   356   0.221E+01    0.156E+01
DAV:   3    -0.370184274199E+02    0.69264E+00   -0.16509E+00   348   0.196E+01    0.525E+00
DAV:   4    -0.370425536069E+02   -0.24126E-01   -0.28421E-01   398   0.829E+00    0.177E+00
DAV:   5    -0.370712373801E+02   -0.28684E-01   -0.91515E-02   368   0.433E+00    0.155E+00
DAV:   6    -0.370717079560E+02   -0.47058E-03   -0.48550E-02   348   0.340E+00    0.147E+00
DAV:   7    -0.370685386590E+02    0.31693E-02   -0.28878E-02   340   0.228E+00    0.857E-01
DAV:   8    -0.370692522222E+02   -0.71356E-03   -0.13023E-02   364   0.162E+00    0.628E-01
DAV:   9    -0.370699918277E+02   -0.73961E-03   -0.42190E-03   388   0.107E+00    0.361E-01
DAV:  10    -0.370709504496E+02   -0.95862E-03   -0.29072E-03   350   0.926E-01    0.574E-01
DAV:  11    -0.370701349118E+02    0.81554E-03   -0.29249E-03   328   0.103E+00    0.280E-01
DAV:  12    -0.370708523561E+02   -0.71744E-03   -0.13565E-03   286   0.441E-01    0.205E-01
DAV:  13    -0.370708857771E+02   -0.33421E-04   -0.21018E-04   192   0.170E-01
   4 F= -.37070886E+02 E0= -.37088630E+02  d E =-.472646E-01  mag=     8.0487
       N       E                     dE             d eps       ncg     rms          rms(c)
DAV:   1    -0.367618131025E+02    0.30904E+00   -0.16420E+02   264   0.472E+01    0.621E+00
DAV:   2    -0.406710470862E+02   -0.39092E+01   -0.18751E+01   332   0.657E+01    0.316E+01
DAV:   3    -0.380118660101E+02    0.26592E+01   -0.81077E+00   324   0.433E+01    0.180E+01
DAV:   4    -0.369578492938E+02    0.10540E+01   -0.23974E+00   356   0.289E+01    0.509E+00
DAV:   5    -0.370399802874E+02   -0.82131E-01   -0.10190E+00   392   0.129E+01    0.449E+00
DAV:   6    -0.370768510990E+02   -0.36871E-01   -0.49612E-01   360   0.111E+01    0.510E+00
DAV:   7    -0.370266237643E+02    0.50227E-01   -0.20302E-01   348   0.741E+00    0.167E+00
DAV:   8    -0.370432365372E+02   -0.16613E-01   -0.83039E-02   398   0.421E+00    0.237E+00
DAV:   9    -0.370385853688E+02    0.46512E-02   -0.10713E-01   374   0.418E+00    0.186E+00
DAV:  10    -0.370442901241E+02   -0.57048E-02   -0.40353E-02   382   0.304E+00    0.164E+00
DAV:  11    -0.370402678235E+02    0.40223E-02   -0.30277E-02   360   0.292E+00    0.820E-01
DAV:  12    -0.370422731711E+02   -0.20053E-02   -0.19820E-02   390   0.156E+00    0.865E-01
DAV:  13    -0.370418708280E+02    0.40234E-03   -0.31286E-03   368   0.746E-01    0.422E-01
DAV:  14    -0.370422857637E+02   -0.41494E-03   -0.76119E-04   280   0.377E-01    0.267E-01
DAV:  15    -0.370429394981E+02   -0.65373E-03   -0.71637E-04   192   0.243E-01    0.733E-02
DAV:  16    -0.370436174237E+02   -0.67793E-03   -0.21003E-04   208   0.157E-01    0.706E-02
DAV:  17    -0.370439298058E+02   -0.31238E-03   -0.11158E-04   184   0.117E-01    0.352E-02
DAV:  18    -0.370442493867E+02   -0.31958E-03   -0.65192E-05   192   0.822E-02    0.437E-02
DAV:  19    -0.370445687484E+02   -0.31936E-03   -0.41704E-05   192   0.833E-02    0.263E-02
DAV:  20    -0.370448580455E+02   -0.28930E-03   -0.27980E-05   192   0.393E-02    0.134E-02
DAV:  21    -0.370451003770E+02   -0.24233E-03   -0.15543E-05   184   0.308E-02    0.111E-02
DAV:  22    -0.370452964670E+02   -0.19609E-03   -0.89913E-06   184   0.232E-02    0.813E-03
DAV:  23    -0.370455346212E+02   -0.23815E-03   -0.72617E-06   176   0.171E-02    0.633E-03
DAV:  24    -0.370457930746E+02   -0.25845E-03   -0.85365E-06   184   0.124E-02    0.408E-03
DAV:  25    -0.370460924382E+02   -0.29936E-03   -0.83641E-06   184   0.114E-02    0.487E-03
DAV:  26    -0.370462904778E+02   -0.19804E-03   -0.51996E-06   184   0.106E-02    0.242E-03
DAV:  27    -0.370464472058E+02   -0.15673E-03   -0.49527E-06   184   0.795E-03    0.283E-03
DAV:  28    -0.370466054717E+02   -0.15827E-03   -0.36769E-06   176   0.738E-03    0.165E-03
DAV:  29    -0.370467232878E+02   -0.11782E-03   -0.35183E-06   184   0.501E-03    0.179E-03
DAV:  30    -0.370467931436E+02   -0.69856E-04   -0.17095E-06   176   0.509E-03
   5 F= -.37046793E+02 E0= -.37062997E+02  d E =-.231719E-01  mag=     8.0720
       N       E                     dE             d eps       ncg     rms          rms(c)
DAV:   1    -0.369878297157E+02    0.58894E-01   -0.62250E+01   264   0.288E+01    0.342E+00
DAV:   2    -0.392646833248E+02   -0.22769E+01   -0.49870E+00   412   0.316E+01    0.377E+01
DAV:   3    -0.370204387971E+02    0.22442E+01   -0.63085E+00   330   0.199E+01    0.827E+00
DAV:   4    -0.371263801295E+02   -0.10594E+00   -0.10100E+00   390   0.133E+01    0.698E+00
DAV:   5    -0.370917317126E+02    0.34648E-01   -0.37401E-01   382   0.804E+00    0.427E+00
DAV:   6    -0.370828449467E+02    0.88868E-02   -0.14520E-01   334   0.546E+00    0.359E+00
DAV:   7    -0.370635608731E+02    0.19284E-01   -0.92423E-02   366   0.443E+00    0.180E+00
DAV:   8    -0.370667053400E+02   -0.31445E-02   -0.60352E-02   366   0.334E+00    0.193E+00
DAV:   9    -0.370639733395E+02    0.27320E-02   -0.98685E-03   382   0.169E+00    0.167E+00
DAV:  10    -0.370706827804E+02   -0.67094E-02   -0.45878E-03   360   0.111E+00    0.164E+00
DAV:  11    -0.370758538268E+02   -0.51710E-02   -0.69173E-03   340   0.165E+00    0.146E+00
DAV:  12    -0.370809687768E+02   -0.51149E-02   -0.93026E-03   372   0.165E+00    0.780E-01
DAV:  13    -0.370891366319E+02   -0.81679E-02   -0.59727E-03   380   0.940E-01    0.412E-01
DAV:  14    -0.370898743281E+02   -0.73770E-03   -0.34015E-03   400   0.693E-01    0.251E-01
DAV:  15    -0.370898469301E+02    0.27398E-04   -0.22616E-03   320   0.528E-01    0.380E-01
DAV:  16    -0.370909032101E+02   -0.10563E-02   -0.89226E-04   260   0.393E-01    0.168E-01
DAV:  17    -0.370913593463E+02   -0.45614E-03   -0.22481E-04   192   0.194E-01    0.507E-02
DAV:  18    -0.370916323311E+02   -0.27298E-03   -0.97905E-05   208   0.865E-02    0.340E-02
DAV:  19    -0.370917757008E+02   -0.14337E-03   -0.42966E-05   184   0.542E-02    0.220E-02
DAV:  20    -0.370918815811E+02   -0.10588E-03   -0.17834E-05   184   0.326E-02    0.181E-02
DAV:  21    -0.370919882454E+02   -0.10666E-03   -0.13816E-05   190   0.228E-02    0.820E-03
DAV:  22    -0.370920482225E+02   -0.59977E-04   -0.52381E-06   192   0.149E-02
   6 F= -.37092048E+02 E0= -.37109805E+02  d E =-.684270E-01  mag=     8.0624
       N       E                     dE             d eps       ncg     rms          rms(c)
DAV:   1    -0.370906408891E+02    0.13474E-02   -0.13939E+01   264   0.136E+01    0.140E+00
DAV:   2    -0.373534092227E+02   -0.26277E+00   -0.11910E+00   372   0.131E+01    0.117E+01
DAV:   3    -0.370429478277E+02    0.31046E+00   -0.11930E+00   332   0.122E+01    0.209E+00
DAV:   4    -0.371150254846E+02   -0.72078E-01   -0.16191E-01   382   0.589E+00    0.257E+00
DAV:   5    -0.371141830237E+02    0.84246E-03   -0.99432E-02   366   0.434E+00    0.168E+00
DAV:   6    -0.371134003869E+02    0.78264E-03   -0.39251E-02   356   0.274E+00    0.104E+00
DAV:   7    -0.371131719311E+02    0.22846E-03   -0.11716E-02   376   0.171E+00    0.432E-01
DAV:   8    -0.371143907354E+02   -0.12188E-02   -0.50297E-03   376   0.120E+00    0.595E-01
DAV:   9    -0.371143824078E+02    0.83276E-05   -0.27740E-03   368   0.999E-01    0.415E-01
DAV:  10    -0.371142928413E+02    0.89566E-04   -0.16316E-03   350   0.589E-01    0.311E-01
DAV:  11    -0.371148286021E+02   -0.53576E-03   -0.23862E-03   328   0.823E-01    0.414E-01
DAV:  12    -0.371147335429E+02    0.95059E-04   -0.11047E-03   270   0.570E-01    0.209E-01
DAV:  13    -0.371148838899E+02   -0.15035E-03   -0.28782E-04   192   0.224E-01    0.467E-02
DAV:  14    -0.371151486676E+02   -0.26478E-03   -0.76506E-05   184   0.860E-02    0.351E-02
DAV:  15    -0.371152410619E+02   -0.92394E-04   -0.34640E-05   174   0.648E-02
   7 F= -.37115241E+02 E0= -.37131556E+02  d E =-.231928E-01  mag=     8.0668
       N       E                     dE             d eps       ncg     rms          rms(c)
DAV:   1    -0.370966609488E+02    0.18488E-01   -0.15015E+01   264   0.141E+01    0.145E+00
DAV:   2    -0.373773241138E+02   -0.28066E+00   -0.12867E+00   380   0.135E+01    0.120E+01
DAV:   3    -0.370489654553E+02    0.32836E+00   -0.12863E+00   340   0.125E+01    0.216E+00
DAV:   4    -0.371231902272E+02   -0.74225E-01   -0.17208E-01   382   0.612E+00    0.266E+00
DAV:   5    -0.371218168375E+02    0.13734E-02   -0.10385E-01   358   0.448E+00    0.168E+00
DAV:   6    -0.371214451900E+02    0.37165E-03   -0.42543E-02   356   0.278E+00    0.113E+00
DAV:   7    -0.371207633512E+02    0.68184E-03   -0.13233E-02   356   0.179E+00    0.423E-01
DAV:   8    -0.371224298393E+02   -0.16665E-02   -0.55064E-03   388   0.126E+00    0.664E-01
DAV:   9    -0.371221528459E+02    0.27699E-03   -0.32712E-03   350   0.108E+00    0.427E-01
DAV:  10    -0.371220320914E+02    0.12075E-03   -0.15957E-03   342   0.534E-01    0.193E-01
DAV:  11    -0.371227561252E+02   -0.72403E-03   -0.10792E-03   214   0.336E-01    0.215E-01
DAV:  12    -0.371229876772E+02   -0.23155E-03   -0.54575E-04   222   0.366E-01    0.200E-01
DAV:  13    -0.371230062050E+02   -0.18528E-04   -0.35802E-04   184   0.342E-01
   8 F= -.37123006E+02 E0= -.37137052E+02  d E =-.309580E-01  mag=     8.0715
       N       E                     dE             d eps       ncg     rms          rms(c)
DAV:   1    -0.371135173779E+02    0.94703E-02   -0.15972E+01   264   0.148E+01    0.205E+00
DAV:   2    -0.377673098247E+02   -0.65379E+00   -0.27316E+00   342   0.216E+01    0.175E+01
DAV:   3    -0.370474125439E+02    0.71990E+00   -0.20988E+00   324   0.188E+01    0.402E+00
DAV:   4    -0.371158233603E+02   -0.68411E-01   -0.27550E-01   382   0.816E+00    0.215E+00
DAV:   5    -0.371392056047E+02   -0.23382E-01   -0.98701E-02   366   0.454E+00    0.165E+00
DAV:   6    -0.371391160370E+02    0.89568E-04   -0.68145E-02   356   0.336E+00    0.173E+00
DAV:   7    -0.371339850111E+02    0.51310E-02   -0.30996E-02   348   0.222E+00    0.630E-01
DAV:   8    -0.371365581246E+02   -0.25731E-02   -0.77426E-03   364   0.141E+00    0.555E-01
DAV:   9    -0.371377188749E+02   -0.11608E-02   -0.43408E-03   390   0.950E-01    0.532E-01
DAV:  10    -0.371377629762E+02   -0.44101E-04   -0.26303E-03   334   0.796E-01    0.496E-01
DAV:  11    -0.371376294717E+02    0.13350E-03   -0.26571E-03   344   0.890E-01    0.344E-01
DAV:  12    -0.371382106707E+02   -0.58120E-03   -0.18589E-03   284   0.561E-01    0.272E-01
DAV:  13    -0.371383155085E+02   -0.10484E-03   -0.36948E-04   206   0.309E-01    0.560E-02
DAV:  14    -0.371386149803E+02   -0.29947E-03   -0.84558E-05   180   0.963E-02    0.412E-02
DAV:  15    -0.371387570914E+02   -0.14211E-03   -0.38323E-05   184   0.789E-02    0.519E-02
DAV:  16    -0.371388385911E+02   -0.81500E-04   -0.22189E-05   172   0.487E-02
   9 F= -.37138839E+02 E0= -.37149912E+02  d E =-.158324E-01  mag=     8.0765
       N       E                     dE             d eps       ncg     rms          rms(c)
DAV:   1    -0.371213071549E+02    0.17450E-01   -0.13989E+01   264   0.139E+01    0.190E+00
DAV:   2    -0.376841411814E+02   -0.56283E+00   -0.23512E+00   340   0.200E+01    0.165E+01
DAV:   3    -0.370512569617E+02    0.63288E+00   -0.19148E+00   324   0.176E+01    0.344E+00
DAV:   4    -0.371257278328E+02   -0.74471E-01   -0.23539E-01   382   0.749E+00    0.215E+00
DAV:   5    -0.371436841553E+02   -0.17956E-01   -0.91806E-02   374   0.434E+00    0.166E+00
DAV:   6    -0.371427093706E+02    0.97478E-03   -0.61653E-02   356   0.314E+00    0.152E+00
DAV:   7    -0.371395035948E+02    0.32058E-02   -0.24917E-02   348   0.204E+00    0.542E-01
DAV:   8    -0.371415610952E+02   -0.20575E-02   -0.65627E-03   388   0.128E+00    0.537E-01
DAV:   9    -0.371424661762E+02   -0.90508E-03   -0.43249E-03   390   0.941E-01    0.518E-01
DAV:  10    -0.371425508486E+02   -0.84672E-04   -0.28543E-03   326   0.839E-01    0.506E-01
DAV:  11    -0.371423386621E+02    0.21219E-03   -0.28082E-03   328   0.879E-01    0.301E-01
DAV:  12    -0.371429371984E+02   -0.59854E-03   -0.15701E-03   284   0.500E-01    0.253E-01
DAV:  13    -0.371430028086E+02   -0.65610E-04   -0.30346E-04   190   0.288E-01
  10 F= -.37143003E+02 E0= -.37151418E+02  d E =-.199966E-01  mag=     8.0791
       N       E                     dE             d eps       ncg     rms          rms(c)
DAV:   1    -0.371246991638E+02    0.18238E-01   -0.21158E+01   264   0.170E+01    0.250E+00
DAV:   2    -0.380739363658E+02   -0.94924E+00   -0.36500E+00   342   0.264E+01    0.209E+01
DAV:   3    -0.370564413423E+02    0.10175E+01   -0.31006E+00   340   0.229E+01    0.442E+00
DAV:   4    -0.371313855806E+02   -0.74944E-01   -0.38152E-01   382   0.909E+00    0.250E+00
DAV:   5    -0.371544054427E+02   -0.23020E-01   -0.11603E-01   364   0.523E+00    0.139E+00
DAV:   6    -0.371571790729E+02   -0.27736E-02   -0.63658E-02   356   0.345E+00    0.176E+00
DAV:   7    -0.371504650862E+02    0.67140E-02   -0.37390E-02   348   0.250E+00    0.645E-01
DAV:   8    -0.371549697657E+02   -0.45047E-02   -0.16408E-02   372   0.173E+00    0.975E-01
DAV:   9    -0.371540478425E+02    0.92192E-03   -0.93781E-03   368   0.151E+00    0.619E-01
DAV:  10    -0.371550136879E+02   -0.96585E-03   -0.54508E-03   368   0.118E+00    0.707E-01
DAV:  11    -0.371541947835E+02    0.81890E-03   -0.41149E-03   374   0.106E+00    0.286E-01
DAV:  12    -0.371551823162E+02   -0.98753E-03   -0.16597E-03   236   0.432E-01    0.241E-01
DAV:  13    -0.371553771935E+02   -0.19488E-03   -0.36195E-04   206   0.277E-01    0.525E-02
DAV:  14    -0.371556913421E+02   -0.31415E-03   -0.10351E-04   192   0.115E-01    0.651E-02
DAV:  15    -0.371558144812E+02   -0.12314E-03   -0.83868E-05   192   0.129E-01    0.493E-02
DAV:  16    -0.371558998587E+02   -0.85377E-04   -0.32471E-05   184   0.546E-02
  11 F= -.37155900E+02 E0= -.37162621E+02  d E =-.128971E-01  mag=     8.0808
       N       E                     dE             d eps       ncg     rms          rms(c)
DAV:   1    -0.371422757882E+02    0.13539E-01   -0.11272E+01   264   0.124E+01    0.181E+00
DAV:   2    -0.376602633797E+02   -0.51799E+00   -0.19538E+00   340   0.193E+01    0.164E+01
DAV:   3    -0.370619665783E+02    0.59830E+00   -0.20161E+00   324   0.173E+01    0.252E+00
DAV:   4    -0.371496633386E+02   -0.87697E-01   -0.20547E-01   380   0.649E+00    0.225E+00
DAV:   5    -0.371577057952E+02   -0.80425E-02   -0.94785E-02   374   0.423E+00    0.169E+00
DAV:   6    -0.371567678466E+02    0.93795E-03   -0.52352E-02   354   0.289E+00    0.127E+00
DAV:   7    -0.371552529178E+02    0.15149E-02   -0.18004E-02   364   0.192E+00    0.370E-01
DAV:   8    -0.371578992153E+02   -0.26463E-02   -0.69107E-03   390   0.127E+00    0.743E-01
DAV:   9    -0.371573957242E+02    0.50349E-03   -0.54342E-03   366   0.112E+00    0.506E-01
DAV:  10    -0.371576324180E+02   -0.23669E-03   -0.23140E-03   348   0.751E-01    0.439E-01
DAV:  11    -0.371575709840E+02    0.61434E-04   -0.21570E-03   320   0.749E-01    0.260E-01
DAV:  12    -0.371580954028E+02   -0.52442E-03   -0.82431E-04   188   0.383E-01    0.162E-01
DAV:  13    -0.371582734619E+02   -0.17806E-03   -0.17647E-04   182   0.195E-01    0.437E-02
DAV:  14    -0.371584760997E+02   -0.20264E-03   -0.63942E-05   200   0.849E-02    0.387E-02
DAV:  15    -0.371585628405E+02   -0.86741E-04   -0.43392E-05   184   0.769E-02
  12 F= -.37158563E+02 E0= -.37164336E+02  d E =-.155600E-01  mag=     8.0811
       N       E                     dE             d eps       ncg     rms          rms(c)
DAV:   1    -0.371429596020E+02    0.15516E-01   -0.16211E+01   264   0.149E+01    0.183E+00
DAV:   2    -0.375801715389E+02   -0.43721E+00   -0.16524E+00   382   0.182E+01    0.156E+01
DAV:   3    -0.370812003268E+02    0.49897E+00   -0.18427E+00   340   0.163E+01    0.239E+00
DAV:   4    -0.371836078288E+02   -0.10241E+00   -0.29972E-01   380   0.668E+00    0.406E+00
DAV:   5    -0.371561336356E+02    0.27474E-01   -0.15697E-01   332   0.521E+00    0.126E+00
DAV:   6    -0.371665950292E+02   -0.10461E-01   -0.25273E-02   348   0.240E+00    0.630E-01
DAV:   7    -0.371673272671E+02   -0.73224E-03   -0.10729E-02   352   0.155E+00    0.672E-01
DAV:   8    -0.371684524479E+02   -0.11252E-02   -0.73432E-03   390   0.111E+00    0.639E-01
DAV:   9    -0.371686116943E+02   -0.15925E-03   -0.31894E-03   334   0.101E+00    0.755E-01
DAV:  10    -0.371676355230E+02    0.97617E-03   -0.38283E-03   344   0.984E-01    0.366E-01
DAV:  11    -0.371685899899E+02   -0.95447E-03   -0.17494E-03   284   0.565E-01    0.240E-01
DAV:  12    -0.371690383689E+02   -0.44838E-03   -0.88638E-04   256   0.541E-01    0.285E-01
DAV:  13    -0.371689241584E+02    0.11421E-03   -0.52763E-04   206   0.432E-01    0.816E-02
DAV:  14    -0.371692607591E+02   -0.33660E-03   -0.11605E-04   184   0.116E-01    0.492E-02
DAV:  15    -0.371693705012E+02   -0.10974E-03   -0.39094E-05   184   0.783E-02    0.340E-02
DAV:  16    -0.371694451752E+02   -0.74674E-04   -0.23511E-05   168   0.436E-02
  13 F= -.37169445E+02 E0= -.37174451E+02  d E =-.108823E-01  mag=     8.0804
       N       E                     dE             d eps       ncg     rms          rms(c)
DAV:   1    -0.370750051362E+02    0.94365E-01   -0.58441E+01   264   0.287E+01    0.339E+00
DAV:   2    -0.385374155341E+02   -0.14624E+01   -0.50791E+00   382   0.332E+01    0.276E+01
DAV:   3    -0.370530236692E+02    0.14844E+01   -0.48063E+00   324   0.266E+01    0.515E+00
DAV:   4    -0.371816853752E+02   -0.12866E+00   -0.58898E-01   372   0.127E+01    0.478E+00
DAV:   5    -0.371805748266E+02    0.11105E-02   -0.35395E-01   358   0.989E+00    0.287E+00
DAV:   6    -0.371703367133E+02    0.10238E-01   -0.11396E-01   348   0.495E+00    0.137E+00
DAV:   7    -0.371688494699E+02    0.14872E-02   -0.30977E-02   390   0.285E+00    0.914E-01
DAV:   8    -0.371747974294E+02   -0.59480E-02   -0.17906E-02   374   0.191E+00    0.136E+00
DAV:   9    -0.371716852728E+02    0.31122E-02   -0.15452E-02   332   0.186E+00    0.101E+00
DAV:  10    -0.371741849961E+02   -0.24997E-02   -0.13612E-02   382   0.156E+00    0.794E-01
DAV:  11    -0.371749696188E+02   -0.78462E-03   -0.15115E-02   336   0.179E+00    0.723E-01
DAV:  12    -0.371746886613E+02    0.28096E-03   -0.48069E-03   382   0.100E+00    0.305E-01
DAV:  13    -0.371753534922E+02   -0.66483E-03   -0.11412E-03   328   0.494E-01    0.130E-01
DAV:  14    -0.371759525420E+02   -0.59905E-03   -0.33471E-04   192   0.199E-01    0.114E-01
DAV:  15    -0.371762142540E+02   -0.26171E-03   -0.13718E-04   192   0.177E-01    0.668E-02
DAV:  16    -0.371763389414E+02   -0.12469E-03   -0.58685E-05   192   0.872E-02    0.318E-02
DAV:  17    -0.371765103202E+02   -0.17138E-03   -0.30209E-05   184   0.422E-02    0.186E-02
DAV:  18    -0.371766703148E+02   -0.15999E-03   -0.13289E-05   192   0.380E-02    0.157E-02
DAV:  19    -0.371767888289E+02   -0.11851E-03   -0.10297E-05   184   0.276E-02    0.899E-03
DAV:  20    -0.371768981899E+02   -0.10936E-03   -0.69029E-06   184   0.180E-02    0.544E-03
DAV:  21    -0.371769830935E+02   -0.84904E-04   -0.45669E-06   176   0.126E-02
  14 F= -.37176983E+02 E0= -.37182811E+02  d E =-.184203E-01  mag=     8.0782
       N       E                     dE             d eps       ncg     rms          rms(c)
DAV:   1    -0.371443620127E+02    0.32536E-01   -0.25619E+01   264   0.184E+01    0.222E+00
DAV:   2    -0.378082068828E+02   -0.66384E+00   -0.26683E+00   382   0.228E+01    0.187E+01
DAV:   3    -0.370797539386E+02    0.72845E+00   -0.24880E+00   324   0.198E+01    0.261E+00
DAV:   4    -0.371867291064E+02   -0.10698E+00   -0.25535E-01   380   0.757E+00    0.327E+00
DAV:   5    -0.371834801710E+02    0.32489E-02   -0.15807E-01   358   0.582E+00    0.203E+00
DAV:   6    -0.371840515784E+02   -0.57141E-03   -0.49274E-02   348   0.324E+00    0.134E+00
DAV:   7    -0.371823302249E+02    0.17214E-02   -0.17115E-02   324   0.208E+00    0.496E-01
DAV:   8    -0.371862794150E+02   -0.39492E-02   -0.95616E-03   398   0.136E+00    0.856E-01
DAV:   9    -0.371858308844E+02    0.44853E-03   -0.58666E-03   376   0.142E+00    0.816E-01
DAV:  10    -0.371846812347E+02    0.11496E-02   -0.34598E-03   382   0.994E-01    0.344E-01
DAV:  11    -0.371860304703E+02   -0.13492E-02   -0.23074E-03   342   0.653E-01    0.339E-01
DAV:  12    -0.371860601418E+02   -0.29671E-04   -0.14115E-03   270   0.580E-01    0.254E-01
DAV:  13    -0.371862018690E+02   -0.14173E-03   -0.44790E-04   192   0.351E-01    0.660E-02
DAV:  14    -0.371864707218E+02   -0.26885E-03   -0.13850E-04   182   0.101E-01    0.630E-02
DAV:  15    -0.371866312588E+02   -0.16054E-03   -0.51306E-05   192   0.983E-02    0.371E-02
DAV:  16    -0.371867138986E+02   -0.82640E-04   -0.21691E-05   184   0.534E-02
  15 F= -.37186714E+02 E0= -.37193329E+02  d E =-.973081E-02  mag=     8.0783
       N       E                     dE             d eps       ncg     rms          rms(c)
DAV:   1    -0.371444113927E+02    0.42220E-01   -0.26619E+01   264   0.188E+01    0.224E+00
DAV:   2    -0.378141493411E+02   -0.66974E+00   -0.26941E+00   382   0.229E+01    0.189E+01
DAV:   3    -0.370853623132E+02    0.72879E+00   -0.26549E+00   316   0.198E+01    0.284E+00
DAV:   4    -0.371870128999E+02   -0.10165E+00   -0.23545E-01   390   0.795E+00    0.313E+00
DAV:   5    -0.371865290046E+02    0.48390E-03   -0.14184E-01   356   0.611E+00    0.180E+00
DAV:   6    -0.371841364150E+02    0.23926E-02   -0.38986E-02   356   0.287E+00    0.536E-01
DAV:   7    -0.371874659273E+02   -0.33295E-02   -0.13959E-02   372   0.168E+00    0.105E+00
DAV:   8    -0.371868559724E+02    0.60995E-03   -0.11616E-02   364   0.163E+00    0.847E-01
DAV:   9    -0.371880718575E+02   -0.12159E-02   -0.71486E-03   358   0.142E+00    0.892E-01
DAV:  10    -0.371871824798E+02    0.88938E-03   -0.52988E-03   368   0.114E+00    0.418E-01
DAV:  11    -0.371882508698E+02   -0.10684E-02   -0.45661E-03   360   0.100E+00    0.498E-01
DAV:  12    -0.371879272693E+02    0.32360E-03   -0.20356E-03   324   0.740E-01    0.231E-01
DAV:  13    -0.371882854856E+02   -0.35822E-03   -0.30587E-04   188   0.291E-01    0.585E-02
DAV:  14    -0.371886142015E+02   -0.32872E-03   -0.14858E-04   184   0.977E-02    0.681E-02
DAV:  15    -0.371887723372E+02   -0.15814E-03   -0.63109E-05   192   0.100E-01    0.286E-02
DAV:  16    -0.371888676803E+02   -0.95343E-04   -0.25585E-05   176   0.495E-02
  16 F= -.37188868E+02 E0= -.37196097E+02  d E =-.118846E-01  mag=     8.0783
       N       E                     dE             d eps       ncg     rms          rms(c)
DAV:   1    -0.371736198316E+02    0.15153E-01   -0.14356E+01   264   0.132E+01    0.128E+00
DAV:   2    -0.373864019393E+02   -0.21278E+00   -0.92464E-01   398   0.125E+01    0.101E+01
DAV:   3    -0.371363720920E+02    0.25003E+00   -0.77466E-01   316   0.116E+01    0.146E+00
DAV:   4    -0.371982833299E+02   -0.61911E-01   -0.96325E-02   380   0.479E+00    0.203E+00
DAV:   5    -0.371951217663E+02    0.31616E-02   -0.54239E-02   358   0.360E+00    0.996E-01
DAV:   6    -0.371969709635E+02   -0.18492E-02   -0.13641E-02   356   0.194E+00    0.659E-01
DAV:   7    -0.371969924309E+02   -0.21467E-04   -0.67477E-03   342   0.133E+00    0.364E-01
DAV:   8    -0.371984189743E+02   -0.14265E-02   -0.56806E-03   382   0.954E-01    0.658E-01
DAV:   9    -0.371977171420E+02    0.70183E-03   -0.44471E-03   344   0.102E+00    0.508E-01
DAV:  10    -0.371976558562E+02    0.61286E-04   -0.19874E-03   360   0.680E-01    0.334E-01
DAV:  11    -0.371980012908E+02   -0.34543E-03   -0.17369E-03   296   0.689E-01    0.279E-01
DAV:  12    -0.371983697541E+02   -0.36846E-03   -0.67952E-04   212   0.373E-01    0.128E-01
DAV:  13    -0.371985011253E+02   -0.13137E-03   -0.10067E-04   182   0.142E-01    0.499E-02
DAV:  14    -0.371986348859E+02   -0.13376E-03   -0.45295E-05   184   0.651E-02    0.362E-02
DAV:  15    -0.371987460899E+02   -0.11120E-03   -0.29031E-05   174   0.688E-02    0.207E-02
DAV:  16    -0.371988224221E+02   -0.76332E-04   -0.18511E-05   184   0.458E-02
  17 F= -.37198822E+02 E0= -.37204878E+02  d E =-.995474E-02  mag=     8.0784
       N       E                     dE             d eps       ncg     rms          rms(c)
DAV:   1    -0.371854382501E+02    0.13308E-01   -0.90453E+00   264   0.105E+01    0.101E+00
DAV:   2    -0.373182537413E+02   -0.13282E+00   -0.57341E-01   398   0.986E+00    0.811E+00
DAV:   3    -0.371547865092E+02    0.16347E+00   -0.44503E-01   324   0.916E+00    0.114E+00
DAV:   4    -0.372006386886E+02   -0.45852E-01   -0.60218E-02   380   0.377E+00    0.169E+00
DAV:   5    -0.371980744037E+02    0.25643E-02   -0.35099E-02   350   0.291E+00    0.757E-01
DAV:   6    -0.371997650950E+02   -0.16907E-02   -0.82352E-03   364   0.148E+00    0.497E-01
DAV:   7    -0.371998332443E+02   -0.68149E-04   -0.46484E-03   342   0.101E+00    0.328E-01
DAV:   8    -0.372007557349E+02   -0.92249E-03   -0.35271E-03   374   0.783E-01    0.518E-01
DAV:   9    -0.372003818973E+02    0.37384E-03   -0.23327E-03   344   0.834E-01    0.428E-01
DAV:  10    -0.372003137207E+02    0.68177E-04   -0.16162E-03   296   0.608E-01    0.337E-01
DAV:  11    -0.372003408847E+02   -0.27164E-04   -0.12487E-03   262   0.583E-01    0.157E-01
DAV:  12    -0.372008916781E+02   -0.55079E-03   -0.31536E-04   182   0.247E-01    0.102E-01
DAV:  13    -0.372009721789E+02   -0.80501E-04   -0.77195E-05   182   0.120E-01
  18 F= -.37200972E+02 E0= -.37205933E+02  d E =-.121045E-01  mag=     8.0783
       N       E                     dE             d eps       ncg     rms          rms(c)
DAV:   1    -0.371891189103E+02    0.11773E-01   -0.12061E+01   264   0.120E+01    0.822E-01
DAV:   2    -0.372350848124E+02   -0.45966E-01   -0.28985E-01   398   0.580E+00    0.393E+00
DAV:   3    -0.371987541758E+02    0.36331E-01   -0.10884E-01   308   0.587E+00    0.118E+00
DAV:   4    -0.372173160914E+02   -0.18562E-01   -0.56003E-02   372   0.327E+00    0.212E+00
DAV:   5    -0.372062687538E+02    0.11047E-01   -0.42763E-02   332   0.276E+00    0.582E-01
DAV:   6    -0.372097479281E+02   -0.34792E-02   -0.58588E-03   348   0.124E+00    0.343E-01
DAV:   7    -0.372101823206E+02   -0.43439E-03   -0.37102E-03   376   0.884E-01    0.432E-01
DAV:   8    -0.372103765302E+02   -0.19421E-03   -0.18263E-03   374   0.691E-01    0.300E-01
DAV:   9    -0.372107837982E+02   -0.40727E-03   -0.15691E-03   302   0.603E-01    0.345E-01
DAV:  10    -0.372106232277E+02    0.16057E-03   -0.15308E-03   272   0.611E-01    0.172E-01
DAV:  11    -0.372109980715E+02   -0.37484E-03   -0.51253E-04   204   0.393E-01    0.207E-01
DAV:  12    -0.372108969545E+02    0.10112E-03   -0.28038E-04   174   0.333E-01    0.108E-01
DAV:  13    -0.372110750343E+02   -0.17808E-03   -0.10158E-04   180   0.150E-01    0.219E-02
DAV:  14    -0.372112096059E+02   -0.13457E-03   -0.37347E-05   182   0.462E-02    0.289E-02
DAV:  15    -0.372112681056E+02   -0.58500E-04   -0.13332E-05   176   0.392E-02
  19 F= -.37211268E+02 E0= -.37216150E+02  d E =-.102959E-01  mag=     8.0782
       N       E                     dE             d eps       ncg     rms          rms(c)
DAV:   1    -0.371197979322E+02    0.91412E-01   -0.52915E+01   264   0.254E+01    0.178E+00
DAV:   2    -0.373610394854E+02   -0.24124E+00   -0.15769E+00   390   0.134E+01    0.889E+00
DAV:   3    -0.371833102335E+02    0.17773E+00   -0.71207E-01   300   0.130E+01    0.230E+00
DAV:   4    -0.372409192691E+02   -0.57609E-01   -0.22253E-01   380   0.635E+00    0.397E+00
DAV:   5    -0.372102012049E+02    0.30718E-01   -0.16236E-01   326   0.519E+00    0.151E+00
DAV:   6    -0.372142479413E+02   -0.40467E-02   -0.30049E-02   356   0.281E+00    0.807E-01
DAV:   7    -0.372158422774E+02   -0.15943E-02   -0.16397E-02   376   0.189E+00    0.861E-01
DAV:   8    -0.372170815441E+02   -0.12393E-02   -0.10446E-02   366   0.153E+00    0.856E-01
DAV:   9    -0.372175397298E+02   -0.45819E-03   -0.12398E-02   358   0.167E+00    0.962E-01
DAV:  10    -0.372171383012E+02    0.40143E-03   -0.10773E-02   390   0.150E+00    0.597E-01
DAV:  11    -0.372171884705E+02   -0.50169E-04   -0.60306E-03   360   0.124E+00    0.355E-01
DAV:  12    -0.372176890427E+02   -0.50057E-03   -0.98376E-04   300   0.486E-01    0.244E-01
DAV:  13    -0.372178608726E+02   -0.17183E-03   -0.62096E-04   190   0.332E-01    0.743E-02
DAV:  14    -0.372182120312E+02   -0.35116E-03   -0.19156E-04   182   0.119E-01    0.648E-02
DAV:  15    -0.372183799754E+02   -0.16794E-03   -0.58728E-05   184   0.953E-02    0.219E-02
DAV:  16    -0.372185643203E+02   -0.18434E-03   -0.36059E-05   184   0.539E-02    0.175E-02
DAV:  17    -0.372187164254E+02   -0.15211E-03   -0.17486E-05   176   0.334E-02    0.938E-03
DAV:  18    -0.372188725042E+02   -0.15608E-03   -0.13017E-05   184   0.264E-02    0.121E-02
DAV:  19    -0.372189744378E+02   -0.10193E-03   -0.75390E-06   176   0.197E-02    0.452E-03
DAV:  20    -0.372190394293E+02   -0.64991E-04   -0.41381E-06   176   0.833E-03
  20 F= -.37219039E+02 E0= -.37223996E+02  d E =-.180673E-01  mag=     8.0779
       N       E                     dE             d eps       ncg     rms          rms(c)
DAV:   1    -0.371918974060E+02    0.27077E-01   -0.20689E+01   264   0.157E+01    0.121E+00
DAV:   2    -0.373430300011E+02   -0.15113E+00   -0.74185E-01   398   0.105E+01    0.797E+00
DAV:   3    -0.371785759309E+02    0.16445E+00   -0.50482E-01   324   0.102E+01    0.135E+00
DAV:   4    -0.372356707709E+02   -0.57095E-01   -0.11478E-01   390   0.501E+00    0.239E+00
DAV:   5    -0.372245076675E+02    0.11163E-01   -0.58174E-02   308   0.388E+00    0.960E-01
DAV:   6    -0.372264561772E+02   -0.19485E-02   -0.13531E-02   388   0.183E+00    0.591E-01
DAV:   7    -0.372268025745E+02   -0.34640E-03   -0.77841E-03   400   0.122E+00    0.409E-01
DAV:   8    -0.372283539433E+02   -0.15514E-02   -0.54733E-03   372   0.107E+00    0.747E-01
DAV:   9    -0.372271209644E+02    0.12330E-02   -0.42597E-03   328   0.103E+00    0.483E-01
DAV:  10    -0.372278052468E+02   -0.68428E-03   -0.48575E-03   360   0.933E-01    0.552E-01
DAV:  11    -0.372277161878E+02    0.89059E-04   -0.34875E-03   326   0.823E-01    0.275E-01
DAV:  12    -0.372280733644E+02   -0.35718E-03   -0.42787E-04   188   0.294E-01    0.127E-01
DAV:  13    -0.372282623470E+02   -0.18898E-03   -0.17638E-04   176   0.151E-01    0.455E-02
DAV:  14    -0.372284609615E+02   -0.19861E-03   -0.84663E-05   184   0.910E-02    0.291E-02
DAV:  15    -0.372285769366E+02   -0.11598E-03   -0.32418E-05   176   0.451E-02    0.137E-02
DAV:  16    -0.372286870738E+02   -0.11014E-03   -0.16792E-05   184   0.288E-02    0.141E-02
DAV:  17    -0.372287844078E+02   -0.97334E-04   -0.97694E-06   176   0.254E-02
  21 F= -.37228784E+02 E0= -.37234318E+02  d E =-.974498E-02  mag=     8.0775
       N       E                     dE             d eps       ncg     rms          rms(c)
DAV:   1    -0.370383421166E+02    0.19034E+00   -0.10565E+02   264   0.361E+01    0.274E+00
DAV:   2    -0.377435730107E+02   -0.70523E+00   -0.34965E+00   390   0.235E+01    0.151E+01
DAV:   3    -0.371425756432E+02    0.60100E+00   -0.21087E+00   300   0.220E+01    0.307E+00
DAV:   4    -0.372575807524E+02   -0.11501E+00   -0.44295E-01   384   0.108E+01    0.420E+00
DAV:   5    -0.372327348510E+02    0.24846E-01   -0.25226E-01   342   0.833E+00    0.253E+00
DAV:   6    -0.372322826795E+02    0.45217E-03   -0.83743E-02   358   0.448E+00    0.167E+00
DAV:   7    -0.372283438234E+02    0.39389E-02   -0.45970E-02   368   0.296E+00    0.784E-01
DAV:   8    -0.372334218617E+02   -0.50780E-02   -0.16304E-02   398   0.180E+00    0.115E+00
DAV:   9    -0.372316141589E+02    0.18077E-02   -0.18606E-02   312   0.201E+00    0.907E-01
DAV:  10    -0.372327656658E+02   -0.11515E-02   -0.18519E-02   398   0.177E+00    0.712E-01
DAV:  11    -0.372349668726E+02   -0.22012E-02   -0.13969E-02   368   0.157E+00    0.104E+00
DAV:  12    -0.372325320272E+02    0.24348E-02   -0.61099E-03   342   0.111E+00    0.277E-01
DAV:  13    -0.372341243085E+02   -0.15923E-02   -0.16091E-03   318   0.472E-01    0.183E-01
DAV:  14    -0.372345570030E+02   -0.43269E-03   -0.43364E-04   214   0.309E-01    0.974E-02
DAV:  15    -0.372349926468E+02   -0.43564E-03   -0.12558E-04   190   0.120E-01    0.576E-02
DAV:  16    -0.372353308190E+02   -0.33817E-03   -0.97384E-05   184   0.110E-01    0.354E-02
DAV:  17    -0.372355962554E+02   -0.26544E-03   -0.52081E-05   184   0.545E-02    0.193E-02
DAV:  18    -0.372358084963E+02   -0.21224E-03   -0.26623E-05   184   0.346E-02    0.243E-02
DAV:  19    -0.372359509564E+02   -0.14246E-03   -0.17294E-05   176   0.394E-02    0.105E-02
DAV:  20    -0.372361387180E+02   -0.18776E-03   -0.10642E-05   182   0.196E-02    0.486E-03
DAV:  21    -0.372362266856E+02   -0.87968E-04   -0.52821E-06   176   0.118E-02
  22 F= -.37236227E+02 E0= -.37242856E+02  d E =-.171873E-01  mag=     8.0767
       N       E                     dE             d eps       ncg     rms          rms(c)
DAV:   1    -0.372231315031E+02    0.13007E-01   -0.12192E+01   264   0.119E+01    0.859E-01
DAV:   2    -0.372939946364E+02   -0.70863E-01   -0.39577E-01   398   0.741E+00    0.531E+00
DAV:   3    -0.372210181657E+02    0.72976E-01   -0.19743E-01   332   0.725E+00    0.900E-01
DAV:   4    -0.372486395075E+02   -0.27621E-01   -0.53319E-02   390   0.338E+00    0.173E+00
DAV:   5    -0.372414944329E+02    0.71451E-02   -0.27679E-02   332   0.270E+00    0.510E-01
DAV:   6    -0.372436269332E+02   -0.21325E-02   -0.58697E-03   390   0.120E+00    0.476E-01
DAV:   7    -0.372436460513E+02   -0.19118E-04   -0.52648E-03   384   0.950E-01    0.367E-01
DAV:   8    -0.372441637952E+02   -0.51774E-03   -0.35222E-03   320   0.791E-01    0.485E-01
DAV:   9    -0.372440078699E+02    0.15593E-03   -0.23349E-03   334   0.746E-01    0.296E-01
DAV:  10    -0.372443592369E+02   -0.35137E-03   -0.18666E-03   302   0.635E-01    0.342E-01
DAV:  11    -0.372442771117E+02    0.82125E-04   -0.13359E-03   264   0.544E-01    0.135E-01
DAV:  12    -0.372446459406E+02   -0.36883E-03   -0.28811E-04   182   0.235E-01    0.889E-02
DAV:  13    -0.372447093640E+02   -0.63423E-04   -0.79965E-05   184   0.114E-01
  23 F= -.37244709E+02 E0= -.37251505E+02  d E =-.848268E-02  mag=     8.0768
       N       E                     dE             d eps       ncg     rms          rms(c)
DAV:   1    -0.370526815163E+02    0.19196E+00   -0.11056E+02   264   0.364E+01    0.262E+00
DAV:   2    -0.377214590981E+02   -0.66878E+00   -0.36636E+00   398   0.230E+01    0.147E+01
DAV:   3    -0.371596830488E+02    0.56178E+00   -0.18469E+00   316   0.215E+01    0.245E+00
DAV:   4    -0.372698121405E+02   -0.11013E+00   -0.33140E-01   392   0.888E+00    0.356E+00
DAV:   5    -0.372515520329E+02    0.18260E-01   -0.18712E-01   326   0.715E+00    0.227E+00
DAV:   6    -0.372499831776E+02    0.15689E-02   -0.91730E-02   390   0.413E+00    0.162E+00
DAV:   7    -0.372489624676E+02    0.10207E-02   -0.52924E-02   358   0.298E+00    0.929E-01
DAV:   8    -0.372521918819E+02   -0.32294E-02   -0.19803E-02   368   0.196E+00    0.106E+00
DAV:   9    -0.372520685151E+02    0.12337E-03   -0.18815E-02   350   0.209E+00    0.977E-01
DAV:  10    -0.372509753236E+02    0.10932E-02   -0.12666E-02   398   0.160E+00    0.375E-01
DAV:  11    -0.372550192756E+02   -0.40440E-02   -0.79855E-03   390   0.126E+00    0.864E-01
DAV:  12    -0.372531091712E+02    0.19101E-02   -0.58396E-03   360   0.122E+00    0.334E-01
DAV:  13    -0.372539866653E+02   -0.87749E-03   -0.11394E-03   264   0.451E-01    0.105E-01
DAV:  14    -0.372544005586E+02   -0.41389E-03   -0.21042E-04   184   0.177E-01    0.637E-02
DAV:  15    -0.372546866716E+02   -0.28611E-03   -0.10973E-04   184   0.137E-01    0.662E-02
DAV:  16    -0.372549273162E+02   -0.24064E-03   -0.11257E-04   184   0.127E-01    0.357E-02
DAV:  17    -0.372550818452E+02   -0.15453E-03   -0.51225E-05   184   0.613E-02    0.183E-02
DAV:  18    -0.372552148179E+02   -0.13297E-03   -0.27563E-05   184   0.374E-02    0.170E-02
DAV:  19    -0.372552945042E+02   -0.79686E-04   -0.13227E-05   176   0.295E-02
  24 F= -.37255295E+02 E0= -.37262533E+02  d E =-.190678E-01  mag=     8.0770
       N       E                     dE             d eps       ncg     rms          rms(c)
DAV:   1    -0.372570776795E+02   -0.18629E-02   -0.16310E+00   264   0.445E+00    0.431E-01
DAV:   2    -0.372768898415E+02   -0.19812E-01   -0.10420E-01   390   0.419E+00    0.305E+00
DAV:   3    -0.372525145616E+02    0.24375E-01   -0.81279E-02   308   0.392E+00    0.468E-01
DAV:   4    -0.372599732146E+02   -0.74587E-02   -0.12204E-02   396   0.165E+00    0.692E-01
DAV:   5    -0.372589139911E+02    0.10592E-02   -0.48127E-03   342   0.115E+00    0.263E-01
DAV:   6    -0.372593272480E+02   -0.41326E-03   -0.13457E-03   288   0.539E-01    0.184E-01
DAV:   7    -0.372595744465E+02   -0.24720E-03   -0.66216E-04   208   0.380E-01    0.171E-01
DAV:   8    -0.372597146944E+02   -0.14025E-03   -0.64361E-04   184   0.374E-01    0.220E-01
DAV:   9    -0.372597764792E+02   -0.61785E-04   -0.38282E-04   192   0.312E-01
  25 F= -.37259776E+02 E0= -.37267170E+02  d E =-.448197E-02  mag=     8.0772
       N       E                     dE             d eps       ncg     rms          rms(c)
DAV:   1    -0.372412800727E+02    0.18435E-01   -0.14697E+01   264   0.134E+01    0.128E+00
DAV:   2    -0.374135238099E+02   -0.17224E+00   -0.85298E-01   390   0.122E+01    0.879E+00
DAV:   3    -0.372341341430E+02    0.17939E+00   -0.66426E-01   302   0.112E+01    0.191E+00
DAV:   4    -0.372690661536E+02   -0.34932E-01   -0.11799E-01   396   0.530E+00    0.191E+00
DAV:   5    -0.372648355947E+02    0.42306E-02   -0.50355E-02   372   0.336E+00    0.108E+00
DAV:   6    -0.372636958553E+02    0.11397E-02   -0.16596E-02   336   0.191E+00    0.592E-01
DAV:   7    -0.372653735082E+02   -0.16777E-02   -0.69554E-03   392   0.124E+00    0.629E-01
DAV:   8    -0.372655766912E+02   -0.20318E-03   -0.55422E-03   368   0.120E+00    0.451E-01
DAV:   9    -0.372663334997E+02   -0.75681E-03   -0.30118E-03   382   0.853E-01    0.442E-01
DAV:  10    -0.372667760132E+02   -0.44251E-03   -0.54373E-03   316   0.989E-01    0.583E-01
DAV:  11    -0.372659894596E+02    0.78655E-03   -0.41485E-03   326   0.919E-01    0.188E-01
DAV:  12    -0.372667692207E+02   -0.77976E-03   -0.55376E-04   204   0.307E-01    0.194E-01
DAV:  13    -0.372667984852E+02   -0.29265E-04   -0.34619E-04   184   0.254E-01
  26 F= -.37266798E+02 E0= -.37275027E+02  d E =-.115040E-01  mag=     8.0778
       N       E                     dE             d eps       ncg     rms          rms(c)
DAV:   1    -0.372691607508E+02   -0.23915E-02   -0.10429E+00   264   0.364E+00    0.406E-01
DAV:   2    -0.372873741858E+02   -0.18213E-01   -0.82157E-02   398   0.399E+00    0.296E+00
DAV:   3    -0.372629490361E+02    0.24425E-01   -0.68212E-02   316   0.378E+00    0.394E-01
DAV:   4    -0.372710015319E+02   -0.80525E-02   -0.10132E-02   388   0.144E+00    0.684E-01
DAV:   5    -0.372702222483E+02    0.77928E-03   -0.43474E-03   318   0.107E+00    0.228E-01
DAV:   6    -0.372706294856E+02   -0.40724E-03   -0.10243E-03   262   0.463E-01    0.156E-01
DAV:   7    -0.372708757285E+02   -0.24624E-03   -0.64592E-04   214   0.424E-01    0.178E-01
DAV:   8    -0.372710854327E+02   -0.20970E-03   -0.75281E-04   190   0.378E-01    0.230E-01
DAV:   9    -0.372710963148E+02   -0.10882E-04   -0.36676E-04   182   0.337E-01
  27 F= -.37271096E+02 E0= -.37279776E+02  d E =-.429783E-02  mag=     8.0781
       N       E                     dE             d eps       ncg     rms          rms(c)
DAV:   1    -0.372657220608E+02    0.53634E-02   -0.94044E+00   264   0.110E+01    0.119E+00
DAV:   2    -0.374249782686E+02   -0.15926E+00   -0.60357E-01   390   0.117E+01    0.861E+00
DAV:   3    -0.372406163762E+02    0.18436E+00   -0.50831E-01   310   0.109E+01    0.135E+00
DAV:   4    -0.372839978309E+02   -0.43381E-01   -0.89768E-02   396   0.442E+00    0.192E+00
DAV:   5    -0.372792878657E+02    0.47100E-02   -0.42538E-02   340   0.321E+00    0.786E-01
DAV:   6    -0.372797890154E+02   -0.50115E-03   -0.10741E-02   336   0.164E+00    0.586E-01
DAV:   7    -0.372802707589E+02   -0.48174E-03   -0.54715E-03   358   0.121E+00    0.439E-01
DAV:   8    -0.372815391948E+02   -0.12684E-02   -0.50908E-03   390   0.109E+00    0.547E-01
DAV:   9    -0.372815333486E+02    0.58461E-05   -0.24359E-03   350   0.929E-01    0.443E-01
DAV:  10    -0.372816799508E+02   -0.14660E-03   -0.22481E-03   342   0.700E-01    0.365E-01
DAV:  11    -0.372817144563E+02   -0.34506E-04   -0.19500E-03   272   0.642E-01    0.225E-01
DAV:  12    -0.372821189778E+02   -0.40452E-03   -0.39526E-04   190   0.305E-01    0.124E-01
DAV:  13    -0.372822692761E+02   -0.15030E-03   -0.14907E-04   184   0.172E-01    0.433E-02
DAV:  14    -0.372824182026E+02   -0.14893E-03   -0.54525E-05   184   0.678E-02    0.268E-02
DAV:  15    -0.372824872417E+02   -0.69039E-04   -0.22456E-05   168   0.469E-02
  28 F= -.37282487E+02 E0= -.37292587E+02  d E =-.156888E-01  mag=     8.0780
       N       E                     dE             d eps       ncg     rms          rms(c)
DAV:   1    -0.372302787659E+02    0.52139E-01   -0.37669E+01   264   0.220E+01    0.233E+00
DAV:   2    -0.378850528855E+02   -0.65477E+00   -0.17434E+00   390   0.231E+01    0.190E+01
DAV:   3    -0.372113385091E+02    0.67371E+00   -0.37036E+00   326   0.194E+01    0.426E+00
DAV:   4    -0.372886842519E+02   -0.77346E-01   -0.39088E-01   390   0.943E+00    0.325E+00
DAV:   5    -0.372959129696E+02   -0.72287E-02   -0.13766E-01   350   0.638E+00    0.186E+00
DAV:   6    -0.372921786582E+02    0.37343E-02   -0.51764E-02   352   0.389E+00    0.141E+00
DAV:   7    -0.372911812450E+02    0.99741E-03   -0.23307E-02   342   0.262E+00    0.704E-01
DAV:   8    -0.372951704920E+02   -0.39892E-02   -0.14362E-02   384   0.200E+00    0.966E-01
DAV:   9    -0.372938578776E+02    0.13126E-02   -0.80364E-03   358   0.172E+00    0.626E-01
DAV:  10    -0.372959299570E+02   -0.20721E-02   -0.67066E-03   360   0.149E+00    0.828E-01
DAV:  11    -0.372950505527E+02    0.87940E-03   -0.69672E-03   358   0.134E+00    0.283E-01
DAV:  12    -0.372965941452E+02   -0.15436E-02   -0.96106E-04   294   0.430E-01    0.164E-01
DAV:  13    -0.372970455471E+02   -0.45140E-03   -0.34289E-04   192   0.346E-01    0.120E-01
DAV:  14    -0.372972740131E+02   -0.22847E-03   -0.16723E-04   184   0.164E-01    0.736E-02
DAV:  15    -0.372974436542E+02   -0.16964E-03   -0.45304E-05   184   0.955E-02    0.273E-02
DAV:  16    -0.372975847902E+02   -0.14114E-03   -0.43543E-05   176   0.609E-02    0.154E-02
DAV:  17    -0.372976863834E+02   -0.10159E-03   -0.18541E-05   184   0.346E-02    0.150E-02
DAV:  18    -0.372977607390E+02   -0.74356E-04   -0.86665E-06   176   0.292E-02
  29 F= -.37297761E+02 E0= -.37310832E+02  d E =-.309623E-01  mag=     8.0739
       N       E                     dE             d eps       ncg     rms          rms(c)
DAV:   1    -0.369862203930E+02    0.31147E+00   -0.15217E+02   264   0.453E+01    0.434E+00
DAV:   2    -0.391334881450E+02   -0.21473E+01   -0.61121E+00   398   0.414E+01    0.320E+01
DAV:   3    -0.372782721250E+02    0.18552E+01   -0.46093E+00   326   0.294E+01    0.109E+01
DAV:   4    -0.372288119824E+02    0.49460E-01   -0.15623E+00   382   0.191E+01    0.580E+00
DAV:   5    -0.372673884549E+02   -0.38576E-01   -0.55333E-01   332   0.122E+01    0.328E+00
DAV:   6    -0.372741646613E+02   -0.67762E-02   -0.20604E-01   340   0.719E+00    0.363E+00
DAV:   7    -0.372500139889E+02    0.24151E-01   -0.14181E-01   344   0.540E+00    0.120E+00
DAV:   8    -0.372645555440E+02   -0.14542E-01   -0.31724E-02   382   0.275E+00    0.136E+00
DAV:   9    -0.372632556853E+02    0.12999E-02   -0.33235E-02   328   0.322E+00    0.948E-01
DAV:  10    -0.372687221951E+02   -0.54665E-02   -0.10934E-02   382   0.163E+00    0.500E-01
DAV:  11    -0.372728957440E+02   -0.41735E-02   -0.59772E-03   376   0.155E+00    0.662E-01
DAV:  12    -0.372726587588E+02    0.23699E-03   -0.49894E-03   352   0.161E+00    0.305E-01
DAV:  13    -0.372741742165E+02   -0.15155E-02   -0.12763E-03   326   0.595E-01    0.182E-01
DAV:  14    -0.372751562948E+02   -0.98208E-03   -0.35419E-04   192   0.275E-01    0.108E-01
DAV:  15    -0.372758325891E+02   -0.67629E-03   -0.12287E-04   176   0.165E-01    0.584E-02
DAV:  16    -0.372762604549E+02   -0.42787E-03   -0.73462E-05   184   0.963E-02    0.273E-02
DAV:  17    -0.372767371426E+02   -0.47669E-03   -0.45826E-05   174   0.583E-02    0.163E-02
DAV:  18    -0.372771312592E+02   -0.39412E-03   -0.26351E-05   184   0.403E-02    0.196E-02
DAV:  19    -0.372774690312E+02   -0.33777E-03   -0.19993E-05   184   0.453E-02    0.136E-02
DAV:  20    -0.372776561646E+02   -0.18713E-03   -0.12288E-05   168   0.263E-02    0.587E-03
DAV:  21    -0.372778496317E+02   -0.19347E-03   -0.93795E-06   180   0.179E-02    0.492E-03
DAV:  22    -0.372779310743E+02   -0.81443E-04   -0.45526E-06   160   0.105E-02
  30 F= -.37277931E+02 E0= -.37291193E+02  d E =-.111326E-01  mag=     8.0337
       N       E                     dE             d eps       ncg     rms          rms(c)
DAV:   1    -0.371278798336E+02    0.14997E+00   -0.91203E+01   264   0.347E+01    0.326E+00
DAV:   2    -0.382371732202E+02   -0.11093E+01   -0.37579E+00   396   0.294E+01    0.243E+01
DAV:   3    -0.372373544383E+02    0.99982E+00   -0.39027E+00   318   0.230E+01    0.811E+00
DAV:   4    -0.372510251699E+02   -0.13671E-01   -0.96898E-01   400   0.146E+01    0.400E+00
DAV:   5    -0.373182893567E+02   -0.67264E-01   -0.33008E-01   364   0.995E+00    0.379E+00
DAV:   6    -0.372822872669E+02    0.36002E-01   -0.11993E-01   328   0.730E+00    0.107E+00
DAV:   7    -0.372951679403E+02   -0.12881E-01   -0.36164E-02   392   0.265E+00    0.136E+00
DAV:   8    -0.372930707654E+02    0.20972E-02   -0.25069E-02   316   0.287E+00    0.993E-01
DAV:   9    -0.372954100221E+02   -0.23393E-02   -0.12611E-02   360   0.210E+00    0.877E-01
DAV:  10    -0.372977475559E+02   -0.23375E-02   -0.15880E-02   352   0.228E+00    0.119E+00
DAV:  11    -0.372961721656E+02    0.15754E-02   -0.12774E-02   358   0.194E+00    0.485E-01
DAV:  12    -0.372970363554E+02   -0.86419E-03   -0.24625E-03   360   0.893E-01    0.182E-01
DAV:  13    -0.372975895685E+02   -0.55321E-03   -0.61458E-04   256   0.332E-01    0.181E-01
DAV:  14    -0.372980136839E+02   -0.42412E-03   -0.32341E-04   192   0.323E-01    0.109E-01
DAV:  15    -0.372983408828E+02   -0.32720E-03   -0.10477E-04   192   0.142E-01    0.560E-02
DAV:  16    -0.372985675511E+02   -0.22667E-03   -0.43303E-05   176   0.861E-02    0.200E-02
DAV:  17    -0.372988143773E+02   -0.24683E-03   -0.37279E-05   184   0.448E-02    0.122E-02
DAV:  18    -0.372990191109E+02   -0.20473E-03   -0.15057E-05   176   0.236E-02    0.107E-02
DAV:  19    -0.372992565217E+02   -0.23741E-03   -0.10641E-05   182   0.343E-02    0.124E-02
DAV:  20    -0.372994546453E+02   -0.19812E-03   -0.73360E-06   182   0.231E-02    0.577E-03
DAV:  21    -0.372996114852E+02   -0.15684E-03   -0.68973E-06   174   0.131E-02    0.428E-03
DAV:  22    -0.372996711203E+02   -0.59635E-04   -0.27914E-06   160   0.860E-03
  31 F= -.37299671E+02 E0= -.37313669E+02  d E =-.328726E-01  mag=     8.0629
       N       E                     dE             d eps       ncg     rms          rms(c)
DAV:   1    -0.372999384103E+02   -0.32693E-03   -0.29177E+00   264   0.616E+00    0.621E-01
DAV:   2    -0.373341875087E+02   -0.34249E-01   -0.11953E-01   390   0.579E+00    0.390E+00
DAV:   3    -0.372904559533E+02    0.43732E-01   -0.85600E-02   332   0.538E+00    0.481E-01
DAV:   4    -0.373061356591E+02   -0.15680E-01   -0.18246E-02   400   0.218E+00    0.112E+00
DAV:   5    -0.373036230022E+02    0.25127E-02   -0.10389E-02   350   0.179E+00    0.389E-01
DAV:   6    -0.373045260583E+02   -0.90306E-03   -0.25069E-03   328   0.854E-01    0.254E-01
DAV:   7    -0.373047492070E+02   -0.22315E-03   -0.13104E-03   304   0.614E-01    0.208E-01
DAV:   8    -0.373052045678E+02   -0.45536E-03   -0.76950E-04   262   0.530E-01    0.311E-01
DAV:   9    -0.373051406922E+02    0.63876E-04   -0.61916E-04   232   0.473E-01
  32 F= -.37305141E+02 E0= -.37320055E+02  d E =-.546957E-02  mag=     8.0633
       N       E                     dE             d eps       ncg     rms          rms(c)
DAV:   1    -0.372662616590E+02    0.38943E-01   -0.26319E+01   264   0.186E+01    0.180E+00
DAV:   2    -0.375452692036E+02   -0.27901E+00   -0.10353E+00   390   0.162E+01    0.110E+01
DAV:   3    -0.372512603568E+02    0.29401E+00   -0.98027E-01   318   0.147E+01    0.184E+00
DAV:   4    -0.373260131794E+02   -0.74753E-01   -0.16735E-01   398   0.669E+00    0.327E+00
DAV:   5    -0.373066500858E+02    0.19363E-01   -0.89528E-02   342   0.557E+00    0.123E+00
DAV:   6    -0.373090122259E+02   -0.23621E-02   -0.24009E-02   366   0.247E+00    0.609E-01
DAV:   7    -0.373106150676E+02   -0.16028E-02   -0.11611E-02   366   0.177E+00    0.775E-01
DAV:   8    -0.373118963962E+02   -0.12813E-02   -0.82548E-03   384   0.152E+00    0.834E-01
DAV:   9    -0.373116422937E+02    0.25410E-03   -0.66391E-03   344   0.138E+00    0.710E-01
DAV:  10    -0.373115440225E+02    0.98271E-04   -0.29651E-03   392   0.953E-01    0.283E-01
DAV:  11    -0.373128360247E+02   -0.12920E-02   -0.13720E-03   328   0.813E-01    0.295E-01
DAV:  12    -0.373129877279E+02   -0.15170E-03   -0.80745E-04   288   0.628E-01    0.150E-01
DAV:  13    -0.373134487120E+02   -0.46098E-03   -0.24856E-04   192   0.287E-01    0.855E-02
DAV:  14    -0.373137657172E+02   -0.31701E-03   -0.79112E-05   184   0.134E-01    0.343E-02
DAV:  15    -0.373140141793E+02   -0.24846E-03   -0.34878E-05   184   0.430E-02    0.131E-02
DAV:  16    -0.373142541190E+02   -0.23994E-03   -0.18988E-05   184   0.328E-02    0.111E-02
DAV:  17    -0.373144060972E+02   -0.15198E-03   -0.84356E-06   168   0.252E-02    0.126E-02
DAV:  18    -0.373146239094E+02   -0.21781E-03   -0.88816E-06   182   0.269E-02    0.631E-03
DAV:  19    -0.373147255263E+02   -0.10162E-03   -0.61080E-06   168   0.124E-02    0.394E-03
DAV:  20    -0.373148220600E+02   -0.96534E-04   -0.37979E-06   172   0.791E-03
  33 F= -.37314822E+02 E0= -.37329787E+02  d E =-.151509E-01  mag=     8.0421
       N       E                     dE             d eps       ncg     rms          rms(c)
DAV:   1    -0.373197902702E+02   -0.50647E-02   -0.11834E+00   264   0.399E+00    0.384E-01
DAV:   2    -0.373269572566E+02   -0.71670E-02   -0.42537E-02   396   0.287E+00    0.184E+00
DAV:   3    -0.373167549451E+02    0.10202E-01   -0.25681E-02   318   0.298E+00    0.362E-01
DAV:   4    -0.373218982633E+02   -0.51433E-02   -0.49108E-03   388   0.118E+00    0.429E-01
DAV:   5    -0.373214132247E+02    0.48504E-03   -0.23685E-03   328   0.939E-01    0.257E-01
DAV:   6    -0.373215588306E+02   -0.14561E-03   -0.89031E-04   262   0.526E-01    0.192E-01
DAV:   7    -0.373216759246E+02   -0.11709E-03   -0.41531E-04   206   0.408E-01    0.114E-01
DAV:   8    -0.373219286779E+02   -0.25275E-03   -0.30827E-04   182   0.287E-01    0.150E-01
DAV:   9    -0.373219347106E+02   -0.60326E-05   -0.29657E-04   172   0.277E-01
  34 F= -.37321935E+02 E0= -.37337447E+02  d E =-.711265E-02  mag=     8.0390
       N       E                     dE             d eps       ncg     rms          rms(c)
DAV:   1    -0.373127732635E+02    0.91554E-02   -0.10664E+01   264   0.120E+01    0.115E+00
DAV:   2    -0.373819010749E+02   -0.69128E-01   -0.34688E-01   398   0.849E+00    0.515E+00
DAV:   3    -0.373071795398E+02    0.74722E-01   -0.23548E-01   312   0.885E+00    0.117E+00
DAV:   4    -0.373336217330E+02   -0.26442E-01   -0.46557E-02   400   0.359E+00    0.121E+00
DAV:   5    -0.373306336541E+02    0.29881E-02   -0.22317E-02   326   0.282E+00    0.848E-01
DAV:   6    -0.373305271349E+02    0.10652E-03   -0.93401E-03   326   0.163E+00    0.564E-01
DAV:   7    -0.373309928447E+02   -0.46571E-03   -0.45311E-03   374   0.127E+00    0.364E-01
DAV:   8    -0.373319809793E+02   -0.98813E-03   -0.32548E-03   358   0.873E-01    0.419E-01
DAV:   9    -0.373320615582E+02   -0.80579E-04   -0.21976E-03   318   0.834E-01    0.469E-01
DAV:  10    -0.373318434545E+02    0.21810E-03   -0.21861E-03   280   0.806E-01    0.167E-01
DAV:  11    -0.373324355577E+02   -0.59210E-03   -0.73975E-04   240   0.473E-01    0.228E-01
DAV:  12    -0.373323260366E+02    0.10952E-03   -0.33378E-04   182   0.367E-01    0.103E-01
DAV:  13    -0.373325409200E+02   -0.21488E-03   -0.11697E-04   180   0.189E-01    0.341E-02
DAV:  14    -0.373327321676E+02   -0.19125E-03   -0.41155E-05   176   0.693E-02    0.136E-02
DAV:  15    -0.373328150547E+02   -0.82887E-04   -0.18736E-05   176   0.221E-02
  35 F= -.37332815E+02 E0= -.37348831E+02  d E =-.179930E-01  mag=     8.0317
       N       E                     dE             d eps       ncg     rms          rms(c)
DAV:   1    -0.373355221660E+02   -0.27900E-02   -0.21947E+00   264   0.539E+00    0.555E-01
DAV:   2    -0.373556063466E+02   -0.20084E-01   -0.88907E-02   390   0.476E+00    0.283E+00
DAV:   3    -0.373309505979E+02    0.24656E-01   -0.56945E-02   316   0.460E+00    0.577E-01
DAV:   4    -0.373389655437E+02   -0.80149E-02   -0.14409E-02   390   0.199E+00    0.640E-01
DAV:   5    -0.373386470238E+02    0.31852E-03   -0.67604E-03   326   0.149E+00    0.386E-01
DAV:   6    -0.373386254642E+02    0.21560E-04   -0.19652E-03   304   0.810E-01    0.255E-01
DAV:   7    -0.373387781775E+02   -0.15271E-03   -0.73555E-04   264   0.533E-01    0.157E-01
DAV:   8    -0.373392444665E+02   -0.46629E-03   -0.56764E-04   208   0.454E-01    0.222E-01
DAV:   9    -0.373391798054E+02    0.64661E-04   -0.46023E-04   224   0.417E-01
  36 F= -.37339180E+02 E0= -.37355570E+02  d E =-.636475E-02  mag=     8.0295
       N       E                     dE             d eps       ncg     rms          rms(c)
DAV:   1    -0.373192639482E+02    0.19981E-01   -0.16099E+01   264   0.147E+01    0.155E+00
DAV:   2    -0.374984260508E+02   -0.17916E+00   -0.71738E-01   372   0.139E+01    0.817E+00
DAV:   3    -0.373063986668E+02    0.19203E+00   -0.62363E-01   324   0.130E+01    0.168E+00
DAV:   4    -0.373462499192E+02   -0.39851E-01   -0.10719E-01   390   0.562E+00    0.180E+00
DAV:   5    -0.373475763029E+02   -0.13264E-02   -0.54413E-02   324   0.424E+00    0.150E+00
DAV:   6    -0.373437650093E+02    0.38113E-02   -0.20146E-02   310   0.261E+00    0.772E-01
DAV:   7    -0.373444503000E+02   -0.68529E-03   -0.83993E-03   334   0.160E+00    0.407E-01
DAV:   8    -0.373468955533E+02   -0.24453E-02   -0.74629E-03   366   0.137E+00    0.763E-01
DAV:   9    -0.373458275570E+02    0.10680E-02   -0.54228E-03   344   0.123E+00    0.430E-01
DAV:  10    -0.373465219073E+02   -0.69435E-03   -0.29955E-03   358   0.955E-01    0.408E-01
DAV:  11    -0.373463577698E+02    0.16414E-03   -0.23306E-03   344   0.817E-01    0.144E-01
DAV:  12    -0.373471045691E+02   -0.74680E-03   -0.25590E-04   198   0.217E-01    0.884E-02
DAV:  13    -0.373472803253E+02   -0.17576E-03   -0.94037E-05   184   0.148E-01    0.445E-02
DAV:  14    -0.373474779485E+02   -0.19762E-03   -0.53903E-05   182   0.665E-02    0.229E-02
DAV:  15    -0.373476153563E+02   -0.13741E-03   -0.20505E-05   176   0.249E-02    0.207E-02
DAV:  16    -0.373477872630E+02   -0.17191E-03   -0.89339E-06   182   0.368E-02    0.993E-03
DAV:  17    -0.373480163951E+02   -0.22913E-03   -0.12254E-05   182   0.245E-02    0.685E-03
DAV:  18    -0.373481283043E+02   -0.11191E-03   -0.69274E-06   176   0.160E-02    0.344E-03
DAV:  19    -0.373481976731E+02   -0.69369E-04   -0.36691E-06   176   0.850E-03
  37 F= -.37348198E+02 E0= -.37365326E+02  d E =-.153826E-01  mag=     8.0220
       N       E                     dE             d eps       ncg     rms          rms(c)
DAV:   1    -0.373481800436E+02   -0.51739E-04   -0.33964E+00   264   0.657E+00    0.581E-01
DAV:   2    -0.373676234082E+02   -0.19443E-01   -0.10897E-01   396   0.472E+00    0.269E+00
DAV:   3    -0.373470895419E+02    0.20534E-01   -0.60887E-02   332   0.459E+00    0.608E-01
DAV:   4    -0.373543993138E+02   -0.73098E-02   -0.15951E-02   388   0.208E+00    0.770E-01
DAV:   5    -0.373531925937E+02    0.12067E-02   -0.74759E-03   344   0.165E+00    0.424E-01
DAV:   6    -0.373534214989E+02   -0.22891E-03   -0.22159E-03   310   0.874E-01    0.299E-01
DAV:   7    -0.373535402234E+02   -0.11872E-03   -0.15314E-03   302   0.627E-01    0.189E-01
DAV:   8    -0.373540186579E+02   -0.47843E-03   -0.87772E-04   262   0.515E-01    0.240E-01
DAV:   9    -0.373540461810E+02   -0.27523E-04   -0.64195E-04   238   0.486E-01
  38 F= -.37354046E+02 E0= -.37371143E+02  d E =-.584851E-02  mag=     8.0188
       N       E                     dE             d eps       ncg     rms          rms(c)
DAV:   1    -0.373079831827E+02    0.46035E-01   -0.30644E+01   264   0.198E+01    0.177E+00
DAV:   2    -0.375115784955E+02   -0.20360E+00   -0.10647E+00   388   0.147E+01    0.832E+00
DAV:   3    -0.373282482110E+02    0.18333E+00   -0.67366E-01   326   0.139E+01    0.215E+00
DAV:   4    -0.373690789333E+02   -0.40831E-01   -0.16995E-01   390   0.675E+00    0.264E+00
DAV:   5    -0.373614811559E+02    0.75978E-02   -0.96521E-02   342   0.524E+00    0.176E+00
DAV:   6    -0.373598865573E+02    0.15946E-02   -0.39275E-02   342   0.320E+00    0.969E-01
DAV:   7    -0.373601442599E+02   -0.25770E-03   -0.16385E-02   350   0.209E+00    0.499E-01
DAV:   8    -0.373626588487E+02   -0.25146E-02   -0.57983E-03   392   0.129E+00    0.539E-01
DAV:   9    -0.373632738930E+02   -0.61504E-03   -0.46172E-03   336   0.142E+00    0.546E-01
DAV:  10    -0.373636220508E+02   -0.34816E-03   -0.47440E-03   368   0.120E+00    0.447E-01
DAV:  11    -0.373638464032E+02   -0.22435E-03   -0.34614E-03   344   0.108E+00    0.254E-01
DAV:  12    -0.373645633064E+02   -0.71690E-03   -0.60144E-04   238   0.437E-01    0.980E-02
DAV:  13    -0.373650054879E+02   -0.44218E-03   -0.18428E-04   192   0.195E-01    0.539E-02
DAV:  14    -0.373652919590E+02   -0.28647E-03   -0.88843E-05   184   0.121E-01    0.219E-02
DAV:  15    -0.373655284158E+02   -0.23646E-03   -0.33711E-05   176   0.413E-02    0.131E-02
DAV:  16    -0.373657665558E+02   -0.23814E-03   -0.15189E-05   184   0.316E-02    0.169E-02
DAV:  17    -0.373659857620E+02   -0.21921E-03   -0.11961E-05   176   0.347E-02    0.597E-03
DAV:  18    -0.373661422431E+02   -0.15648E-03   -0.84693E-06   176   0.145E-02    0.411E-03
DAV:  19    -0.373662417536E+02   -0.99511E-04   -0.38997E-06   164   0.108E-02
  39 F= -.37366242E+02 E0= -.37383757E+02  d E =-.180441E-01  mag=     7.9951
       N       E                     dE             d eps       ncg     rms          rms(c)
DAV:   1    -0.371093675692E+02    0.25677E+00   -0.12381E+02   264   0.406E+01    0.374E+00
DAV:   2    -0.381842135603E+02   -0.10748E+01   -0.50699E+00   364   0.331E+01    0.190E+01
DAV:   3    -0.373424645349E+02    0.84175E+00   -0.36605E+00   294   0.280E+01    0.688E+00
DAV:   4    -0.373556550795E+02   -0.13191E-01   -0.11070E+00   388   0.166E+01    0.605E+00
DAV:   5    -0.373445777015E+02    0.11077E-01   -0.73832E-01   334   0.114E+01    0.382E+00
DAV:   6    -0.373376573462E+02    0.69204E-02   -0.18629E-01   318   0.748E+00    0.195E+00
DAV:   7    -0.373367539152E+02    0.90343E-03   -0.50938E-02   328   0.441E+00    0.112E+00
DAV:   8    -0.373426189368E+02   -0.58650E-02   -0.25311E-02   360   0.285E+00    0.110E+00
DAV:   9    -0.373433218030E+02   -0.70287E-03   -0.18291E-02   352   0.271E+00    0.706E-01
DAV:  10    -0.373492454920E+02   -0.59237E-02   -0.15908E-02   382   0.223E+00    0.893E-01
DAV:  11    -0.373492516919E+02   -0.62000E-05   -0.19067E-02   320   0.231E+00    0.559E-01
DAV:  12    -0.373511826991E+02   -0.19310E-02   -0.41870E-03   382   0.936E-01    0.127E-01
DAV:  13    -0.373527870965E+02   -0.16044E-02   -0.70073E-04   286   0.269E-01    0.125E-01
DAV:  14    -0.373536991680E+02   -0.91207E-03   -0.20253E-04   192   0.238E-01    0.702E-02
DAV:  15    -0.373545613060E+02   -0.86214E-03   -0.87164E-05   174   0.124E-01    0.389E-02
DAV:  16    -0.373552397571E+02   -0.67845E-03   -0.45814E-05   184   0.722E-02    0.160E-02
DAV:  17    -0.373559097136E+02   -0.66996E-03   -0.35980E-05   172   0.423E-02    0.115E-02
DAV:  18    -0.373564736176E+02   -0.56390E-03   -0.23184E-05   182   0.297E-02    0.124E-02
DAV:  19    -0.373569346407E+02   -0.46102E-03   -0.14560E-05   182   0.280E-02    0.777E-03
DAV:  20    -0.373573721262E+02   -0.43749E-03   -0.13569E-05   182   0.179E-02    0.692E-03
DAV:  21    -0.373576469407E+02   -0.27481E-03   -0.72302E-06   176   0.131E-02    0.449E-03
DAV:  22    -0.373579359190E+02   -0.28898E-03   -0.56850E-06   180   0.845E-03    0.363E-03
DAV:  23    -0.373586627778E+02   -0.72686E-03   -0.18413E-05   188   0.105E-02    0.381E-03
DAV:  24    -0.373590099143E+02   -0.34714E-03   -0.96276E-06   184   0.117E-02    0.398E-03
DAV:  25    -0.373591275787E+02   -0.11766E-03   -0.49732E-06   176   0.926E-03    0.207E-03
DAV:  26    -0.373592864153E+02   -0.15884E-03   -0.49211E-06   180   0.587E-03    0.176E-03
DAV:  27    -0.373594246591E+02   -0.13824E-03   -0.35810E-06   184   0.644E-03    0.180E-03
DAV:  28    -0.373594960437E+02   -0.71385E-04   -0.26467E-06   176   0.524E-03
  40 F= -.37359496E+02 E0= -.37375021E+02  d E =-.112984E-01  mag=     7.9133
       N       E                     dE             d eps       ncg     rms          rms(c)
DAV:   1    -0.372640219190E+02    0.95403E-01   -0.56376E+01   264   0.272E+01    0.225E+00
DAV:   2    -0.375501757751E+02   -0.28615E+00   -0.14174E+00   396   0.155E+01    0.116E+01
DAV:   3    -0.373212139635E+02    0.22896E+00   -0.19300E+00   308   0.148E+01    0.344E+00
DAV:   4    -0.374163843820E+02   -0.95170E-01   -0.52848E-01   364   0.999E+00    0.558E+00
DAV:   5    -0.373497637879E+02    0.66621E-01   -0.33095E-01   332   0.819E+00    0.164E+00
DAV:   6    -0.373615394950E+02   -0.11776E-01   -0.40642E-02   352   0.363E+00    0.103E+00
DAV:   7    -0.373641166376E+02   -0.25771E-02   -0.22506E-02   350   0.250E+00    0.901E-01
DAV:   8    -0.373642491371E+02   -0.13250E-03   -0.10954E-02   352   0.182E+00    0.768E-01
DAV:   9    -0.373647942083E+02   -0.54507E-03   -0.73460E-03   358   0.174E+00    0.685E-01
DAV:  10    -0.373650058181E+02   -0.21161E-03   -0.67019E-03   366   0.154E+00    0.526E-01
DAV:  11    -0.373654859328E+02   -0.48011E-03   -0.51936E-03   334   0.140E+00    0.377E-01
DAV:  12    -0.373654150675E+02    0.70865E-04   -0.24380E-03   342   0.817E-01    0.126E-01
DAV:  13    -0.373656384595E+02   -0.22339E-03   -0.37061E-04   200   0.267E-01    0.122E-01
DAV:  14    -0.373658838087E+02   -0.24535E-03   -0.20563E-04   200   0.236E-01    0.525E-02
DAV:  15    -0.373661939685E+02   -0.31016E-03   -0.63204E-05   184   0.705E-02    0.271E-02
DAV:  16    -0.373664560988E+02   -0.26213E-03   -0.33035E-05   184   0.373E-02    0.148E-02
DAV:  17    -0.373667673962E+02   -0.31130E-03   -0.14512E-05   182   0.327E-02    0.179E-02
DAV:  18    -0.373671538107E+02   -0.38641E-03   -0.15731E-05   190   0.406E-02    0.836E-03
DAV:  19    -0.373674380216E+02   -0.28421E-03   -0.12729E-05   182   0.178E-02    0.540E-03
DAV:  20    -0.373677078432E+02   -0.26982E-03   -0.92285E-06   182   0.104E-02    0.481E-03
DAV:  21    -0.373679699022E+02   -0.26206E-03   -0.53604E-06   182   0.102E-02    0.425E-03
DAV:  22    -0.373683090267E+02   -0.33912E-03   -0.76659E-06   182   0.103E-02    0.374E-03
DAV:  23    -0.373685804790E+02   -0.27145E-03   -0.69837E-06   182   0.794E-03    0.250E-03
DAV:  24    -0.373689102919E+02   -0.32981E-03   -0.94304E-06   188   0.875E-03    0.404E-03
DAV:  25    -0.373690809382E+02   -0.17065E-03   -0.45750E-06   184   0.823E-03    0.174E-03
DAV:  26    -0.373692265094E+02   -0.14557E-03   -0.45046E-06   182   0.579E-03    0.241E-03
DAV:  27    -0.373693097387E+02   -0.83229E-04   -0.17918E-06   176   0.608E-03
  41 F= -.37369310E+02 E0= -.37386498E+02  d E =-.211121E-01  mag=     7.9670
       N       E                     dE             d eps       ncg     rms          rms(c)
DAV:   1    -0.373700262624E+02   -0.79975E-03   -0.16017E+00   264   0.446E+00    0.402E-01
DAV:   2    -0.373804865252E+02   -0.10460E-01   -0.57261E-02   388   0.354E+00    0.198E+00
DAV:   3    -0.373677233608E+02    0.12763E-01   -0.33211E-02   332   0.329E+00    0.356E-01
DAV:   4    -0.373725097770E+02   -0.47864E-02   -0.75830E-03   396   0.137E+00    0.487E-01
DAV:   5    -0.373719995285E+02    0.51025E-03   -0.34414E-03   310   0.107E+00    0.202E-01
DAV:   6    -0.373722984096E+02   -0.29888E-03   -0.61981E-04   262   0.474E-01    0.888E-02
DAV:   7    -0.373725142566E+02   -0.21585E-03   -0.39333E-04   184   0.349E-01    0.157E-01
DAV:   8    -0.373725271129E+02   -0.12856E-04   -0.52830E-04   184   0.350E-01
  42 F= -.37372527E+02 E0= -.37389392E+02  d E =-.321737E-02  mag=     7.9644
       N       E                     dE             d eps       ncg     rms          rms(c)
DAV:   1    -0.373559352027E+02    0.16579E-01   -0.14437E+01   264   0.134E+01    0.120E+00
DAV:   2    -0.374581921444E+02   -0.10226E+00   -0.51793E-01   388   0.106E+01    0.586E+00
DAV:   3    -0.373558173020E+02    0.10237E+00   -0.32705E-01   332   0.980E+00    0.120E+00
DAV:   4    -0.373815159417E+02   -0.25699E-01   -0.74587E-02   388   0.423E+00    0.159E+00
DAV:   5    -0.373784653663E+02    0.30506E-02   -0.38507E-02   326   0.333E+00    0.104E+00
DAV:   6    -0.373783998922E+02    0.65474E-04   -0.16458E-02   342   0.200E+00    0.695E-01
DAV:   7    -0.373783041245E+02    0.95768E-04   -0.77779E-03   344   0.132E+00    0.300E-01
DAV:   8    -0.373796769068E+02   -0.13728E-02   -0.24544E-03   392   0.838E-01    0.371E-01
DAV:   9    -0.373798746915E+02   -0.19778E-03   -0.22237E-03   328   0.940E-01    0.386E-01
DAV:  10    -0.373797333461E+02    0.14135E-03   -0.18224E-03   320   0.752E-01    0.213E-01
DAV:  11    -0.373800360483E+02   -0.30270E-03   -0.99031E-04   272   0.597E-01    0.141E-01
DAV:  12    -0.373804028037E+02   -0.36676E-03   -0.23361E-04   184   0.265E-01    0.609E-02
DAV:  13    -0.373806484691E+02   -0.24567E-03   -0.67939E-05   184   0.122E-01    0.258E-02
DAV:  14    -0.373808664005E+02   -0.21793E-03   -0.37100E-05   184   0.533E-02    0.148E-02
DAV:  15    -0.373810402906E+02   -0.17389E-03   -0.14285E-05   168   0.230E-02    0.120E-02
DAV:  16    -0.373812811474E+02   -0.24086E-03   -0.82757E-06   180   0.252E-02    0.802E-03
DAV:  17    -0.373815293697E+02   -0.24822E-03   -0.99426E-06   182   0.187E-02    0.508E-03
DAV:  18    -0.373816492695E+02   -0.11990E-03   -0.51277E-06   158   0.123E-02    0.351E-03
DAV:  19    -0.373817892829E+02   -0.14001E-03   -0.38683E-06   172   0.740E-03    0.277E-03
DAV:  20    -0.373819463492E+02   -0.15707E-03   -0.30570E-06   164   0.646E-03    0.259E-03
DAV:  21    -0.373821310486E+02   -0.18470E-03   -0.34569E-06   180   0.606E-03    0.225E-03
DAV:  22    -0.373822894217E+02   -0.15837E-03   -0.32556E-06   184   0.550E-03    0.189E-03
DAV:  23    -0.373824657937E+02   -0.17637E-03   -0.41118E-06   182   0.607E-03    0.194E-03
DAV:  24    -0.373825691957E+02   -0.10340E-03   -0.26068E-06   176   0.585E-03    0.125E-03
DAV:  25    -0.373826724789E+02   -0.10328E-03   -0.31512E-06   184   0.486E-03    0.113E-03
DAV:  26    -0.373827265134E+02   -0.54035E-04   -0.16408E-06   168   0.479E-03
  43 F= -.37382727E+02 E0= -.37398669E+02  d E =-.134168E-01  mag=     7.9281
       N       E                     dE             d eps       ncg     rms          rms(c)
DAV:   1    -0.372890487047E+02    0.93624E-01   -0.58083E+01   264   0.271E+01    0.260E+00
DAV:   2    -0.378699819644E+02   -0.58093E+00   -0.26841E+00   372   0.251E+01    0.132E+01
DAV:   3    -0.373381732426E+02    0.53181E+00   -0.15730E+00   308   0.217E+01    0.353E+00
DAV:   4    -0.373997849599E+02   -0.61612E-01   -0.45361E-01   390   0.101E+01    0.417E+00
DAV:   5    -0.373857749598E+02    0.14010E-01   -0.28858E-01   324   0.731E+00    0.230E+00
DAV:   6    -0.373864799311E+02   -0.70497E-03   -0.86737E-02   318   0.462E+00    0.126E+00
DAV:   7    -0.373864476600E+02    0.32271E-04   -0.27521E-02   336   0.288E+00    0.685E-01
DAV:   8    -0.373893392282E+02   -0.28916E-02   -0.11699E-02   368   0.200E+00    0.775E-01
DAV:   9    -0.373896526673E+02   -0.31344E-03   -0.83232E-03   352   0.189E+00    0.537E-01
DAV:  10    -0.373908240309E+02   -0.11714E-02   -0.58132E-03   382   0.136E+00    0.457E-01
DAV:  11    -0.373915749363E+02   -0.75091E-03   -0.66768E-03   360   0.131E+00    0.404E-01
DAV:  12    -0.373924280988E+02   -0.85316E-03   -0.16142E-03   278   0.654E-01    0.105E-01
DAV:  13    -0.373934296692E+02   -0.10016E-02   -0.27511E-04   192   0.251E-01    0.897E-02
DAV:  14    -0.373940201364E+02   -0.59047E-03   -0.16037E-04   190   0.172E-01    0.312E-02
DAV:  15    -0.373946555424E+02   -0.63541E-03   -0.50052E-05   172   0.525E-02    0.210E-02
DAV:  16    -0.373952476185E+02   -0.59208E-03   -0.32857E-05   180   0.434E-02    0.173E-02
DAV:  17    -0.373957014203E+02   -0.45380E-03   -0.19229E-05   174   0.359E-02    0.930E-03
DAV:  18    -0.373962203070E+02   -0.51889E-03   -0.17347E-05   180   0.220E-02    0.856E-03
DAV:  19    -0.373967197023E+02   -0.49940E-03   -0.14149E-05   180   0.183E-02    0.678E-03
DAV:  20    -0.373970242085E+02   -0.30451E-03   -0.86459E-06   176   0.121E-02    0.457E-03
DAV:  21    -0.373975408217E+02   -0.51661E-03   -0.11216E-05   180   0.961E-03    0.487E-03
DAV:  22    -0.373980356798E+02   -0.49486E-03   -0.10898E-05   182   0.106E-02    0.455E-03
DAV:  23    -0.373984652785E+02   -0.42960E-03   -0.10676E-05   184   0.117E-02    0.354E-03
DAV:  24    -0.373988233666E+02   -0.35809E-03   -0.10847E-05   184   0.104E-02    0.247E-03
DAV:  25    -0.373990904922E+02   -0.26713E-03   -0.87762E-06   184   0.941E-03    0.208E-03
DAV:  26    -0.373992332561E+02   -0.14276E-03   -0.53073E-06   184   0.812E-03    0.171E-03
DAV:  27    -0.373993270161E+02   -0.93760E-04   -0.32709E-06   176   0.649E-03
  44 F= -.37399327E+02 E0= -.37412563E+02  d E =-.300173E-01  mag=     7.8458
       N       E                     dE             d eps       ncg     rms          rms(c)
DAV:   1    -0.369276582018E+02    0.47158E+00   -0.23822E+02   264   0.569E+01    0.582E+00
DAV:   2    -0.398991555412E+02   -0.29715E+01   -0.14460E+01   340   0.599E+01    0.261E+01
DAV:   3    -0.379412376692E+02    0.19579E+01   -0.72731E+00   332   0.420E+01    0.145E+01
DAV:   4    -0.373392271554E+02    0.60201E+00   -0.20537E+00   366   0.265E+01    0.593E+00
DAV:   5    -0.373793881602E+02   -0.40161E-01   -0.11155E+00   364   0.146E+01    0.506E+00
DAV:   6    -0.373767868646E+02    0.26013E-02   -0.43806E-01   334   0.117E+01    0.368E+00
DAV:   7    -0.373543017788E+02    0.22485E-01   -0.19151E-01   344   0.710E+00    0.175E+00
DAV:   8    -0.373640890599E+02   -0.97873E-02   -0.60451E-02   368   0.469E+00    0.169E+00
DAV:   9    -0.373635697475E+02    0.51931E-03   -0.51119E-02   382   0.379E+00    0.108E+00
DAV:  10    -0.373706443197E+02   -0.70746E-02   -0.24254E-02   390   0.236E+00    0.121E+00
DAV:  11    -0.373695940524E+02    0.10503E-02   -0.19051E-02   358   0.264E+00    0.707E-01
DAV:  12    -0.373765255461E+02   -0.69315E-02   -0.12318E-02   364   0.148E+00    0.496E-01
DAV:  13    -0.373796444878E+02   -0.31189E-02   -0.25478E-03   360   0.826E-01    0.129E-01
DAV:  14    -0.373833457524E+02   -0.37013E-02   -0.57522E-04   232   0.252E-01    0.150E-01
DAV:  15    -0.373863111838E+02   -0.29654E-02   -0.30116E-04   212   0.280E-01    0.564E-02
DAV:  16    -0.373895993209E+02   -0.32881E-02   -0.12228E-04   196   0.957E-02    0.352E-02
DAV:  17    -0.373926490724E+02   -0.30498E-02   -0.73327E-05   170   0.644E-02    0.271E-02
DAV:  18    -0.373958147086E+02   -0.31656E-02   -0.86740E-05   188   0.470E-02    0.228E-02
DAV:  19    -0.373992151536E+02   -0.34004E-02   -0.86794E-05   194   0.455E-02    0.248E-02
DAV:  20    -0.374016656766E+02   -0.24505E-02   -0.70562E-05   180   0.535E-02    0.180E-02
DAV:  21    -0.374042184916E+02   -0.25528E-02   -0.10455E-04   202   0.381E-02    0.123E-02
DAV:  22    -0.374069632724E+02   -0.27448E-02   -0.96214E-05   204   0.328E-02    0.165E-02
DAV:  23    -0.374088260018E+02   -0.18627E-02   -0.57069E-05   198   0.345E-02    0.102E-02
DAV:  24    -0.374102858641E+02   -0.14599E-02   -0.61305E-05   198   0.308E-02    0.758E-03
DAV:  25    -0.374108822099E+02   -0.59635E-03   -0.26865E-05   184   0.234E-02    0.523E-03
DAV:  26    -0.374112423850E+02   -0.36018E-03   -0.15491E-05   184   0.164E-02    0.534E-03
DAV:  27    -0.374115393759E+02   -0.29699E-03   -0.94345E-06   184   0.146E-02    0.323E-03
DAV:  28    -0.374118082318E+02   -0.26886E-03   -0.77957E-06   184   0.914E-03    0.196E-03
DAV:  29    -0.374119276143E+02   -0.11938E-03   -0.35080E-06   176   0.729E-03    0.161E-03
DAV:  30    -0.374120457356E+02   -0.11812E-03   -0.22457E-06   176   0.527E-03    0.140E-03
DAV:  31    -0.374121468868E+02   -0.10115E-03   -0.16054E-06   176   0.497E-03    0.143E-03
DAV:  32    -0.374121764795E+02   -0.29593E-04   -0.81403E-07   160   0.356E-03
  45 F= -.37412176E+02 E0= -.37417019E+02  d E =-.428667E-01  mag=     7.5750
       N       E                     dE             d eps       ncg     rms          rms(c)
DAV:   1    -0.373579146714E+02    0.54232E-01   -0.40137E+01   264   0.229E+01    0.251E+00
DAV:   2    -0.380110398648E+02   -0.65313E+00   -0.27343E+00   356   0.255E+01    0.137E+01
DAV:   3    -0.373570025367E+02    0.65404E+00   -0.12982E+00   332   0.224E+01    0.296E+00
DAV:   4    -0.374289586334E+02   -0.71956E-01   -0.36707E-01   388   0.860E+00    0.391E+00
DAV:   5    -0.374184304779E+02    0.10528E-01   -0.27007E-01   324   0.674E+00    0.242E+00
DAV:   6    -0.374148382032E+02    0.35923E-02   -0.79412E-02   324   0.425E+00    0.112E+00
DAV:   7    -0.374149754733E+02   -0.13727E-03   -0.20247E-02   344   0.249E+00    0.528E-01
DAV:   8    -0.374161591211E+02   -0.11836E-02   -0.97354E-03   382   0.152E+00    0.779E-01
DAV:   9    -0.374145360054E+02    0.16231E-02   -0.82110E-03   342   0.176E+00    0.687E-01
DAV:  10    -0.374129503363E+02    0.15857E-02   -0.45720E-03   382   0.122E+00    0.207E-01
DAV:  11    -0.374156718747E+02   -0.27215E-02   -0.19755E-03   336   0.736E-01    0.377E-01
DAV:  12    -0.374156254684E+02    0.46406E-04   -0.11892E-03   272   0.675E-01    0.178E-01
DAV:  13    -0.374168845964E+02   -0.12591E-02   -0.58292E-04   190   0.334E-01    0.127E-01
DAV:  14    -0.374179287425E+02   -0.10441E-02   -0.14668E-04   176   0.175E-01    0.423E-02
DAV:  15    -0.374194003779E+02   -0.14716E-02   -0.72206E-05   180   0.542E-02    0.291E-02
DAV:  16    -0.374212175298E+02   -0.18172E-02   -0.61651E-05   172   0.516E-02    0.267E-02
DAV:  17    -0.374226936299E+02   -0.14761E-02   -0.45641E-05   182   0.466E-02    0.185E-02
DAV:  18    -0.374246468179E+02   -0.19532E-02   -0.73895E-05   186   0.371E-02    0.168E-02
DAV:  19    -0.374263411661E+02   -0.16943E-02   -0.43454E-05   180   0.336E-02    0.112E-02
DAV:  20    -0.374279325410E+02   -0.15914E-02   -0.55834E-05   198   0.212E-02    0.101E-02
DAV:  21    -0.374297835124E+02   -0.18510E-02   -0.54395E-05   188   0.218E-02    0.875E-03
DAV:  22    -0.374310658602E+02   -0.12823E-02   -0.47412E-05   200   0.234E-02    0.726E-03
DAV:  23    -0.374321386374E+02   -0.10728E-02   -0.35768E-05   190   0.197E-02    0.497E-03
DAV:  24    -0.374328474018E+02   -0.70876E-03   -0.29310E-05   192   0.171E-02    0.392E-03
DAV:  25    -0.374330458044E+02   -0.19840E-03   -0.98201E-06   176   0.130E-02    0.264E-03
DAV:  26    -0.374333170198E+02   -0.27122E-03   -0.70519E-06   182   0.834E-03    0.253E-03
DAV:  27    -0.374335332860E+02   -0.21627E-03   -0.39043E-06   184   0.769E-03    0.166E-03
DAV:  28    -0.374336923411E+02   -0.15906E-03   -0.35307E-06   184   0.605E-03    0.157E-03
DAV:  29    -0.374337324363E+02   -0.40095E-04   -0.13710E-06   160   0.517E-03
  46 F= -.37433732E+02 E0= -.37433492E+02  d E =-.215560E-01  mag=     7.3956
       N       E                     dE             d eps       ncg     rms          rms(c)
DAV:   1    -0.372556840687E+02    0.17801E+00   -0.99786E+01   264   0.366E+01    0.473E+00
DAV:   2    -0.395718641574E+02   -0.23162E+01   -0.10451E+01   324   0.517E+01    0.217E+01
DAV:   3    -0.375696570295E+02    0.20022E+01   -0.40005E+00   332   0.387E+01    0.943E+00
DAV:   4    -0.374151256543E+02    0.15453E+00   -0.98665E-01   398   0.168E+01    0.476E+00
DAV:   5    -0.374350788938E+02   -0.19953E-01   -0.57255E-01   364   0.102E+01    0.474E+00
DAV:   6    -0.374202073273E+02    0.14872E-01   -0.27159E-01   332   0.881E+00    0.321E+00
DAV:   7    -0.374004466575E+02    0.19761E-01   -0.73547E-02   350   0.494E+00    0.128E+00
DAV:   8    -0.374087427620E+02   -0.82961E-02   -0.51772E-02   382   0.321E+00    0.164E+00
DAV:   9    -0.374021590884E+02    0.65837E-02   -0.25399E-02   350   0.325E+00    0.101E+00
DAV:  10    -0.373953736605E+02    0.67854E-02   -0.17754E-02   382   0.195E+00    0.834E-01
DAV:  11    -0.373961115506E+02   -0.73789E-03   -0.12398E-02   358   0.221E+00    0.815E-01
DAV:  12    -0.374002219789E+02   -0.41104E-02   -0.53463E-03   334   0.129E+00    0.589E-01
DAV:  13    -0.374045560713E+02   -0.43341E-02   -0.26666E-03   312   0.626E-01    0.182E-01
DAV:  14    -0.374095883120E+02   -0.50322E-02   -0.86954E-04   268   0.300E-01    0.264E-01
DAV:  15    -0.374151746875E+02   -0.55864E-02   -0.10738E-03   248   0.475E-01    0.233E-01
DAV:  16    -0.374223031039E+02   -0.71284E-02   -0.70529E-04   250   0.269E-01    0.917E-02
DAV:  17    -0.374286297335E+02   -0.63266E-02   -0.31519E-04   212   0.139E-01    0.677E-02
DAV:  18    -0.374326039392E+02   -0.39742E-02   -0.14075E-04   192   0.915E-02    0.494E-02
DAV:  19    -0.374357278468E+02   -0.31239E-02   -0.10171E-04   170   0.588E-02    0.423E-02
DAV:  20    -0.374383892636E+02   -0.26614E-02   -0.77353E-05   196   0.409E-02    0.307E-02
DAV:  21    -0.374418864741E+02   -0.34972E-02   -0.81506E-05   186   0.425E-02    0.152E-02
DAV:  22    -0.374454803802E+02   -0.35939E-02   -0.10968E-04   204   0.348E-02    0.183E-02
DAV:  23    -0.374476923564E+02   -0.22120E-02   -0.47044E-05   180   0.366E-02    0.162E-02
DAV:  24    -0.374496446934E+02   -0.19523E-02   -0.71825E-05   196   0.276E-02    0.843E-03
DAV:  25    -0.374512767791E+02   -0.16321E-02   -0.49921E-05   184   0.274E-02    0.979E-03
DAV:  26    -0.374523720043E+02   -0.10952E-02   -0.53629E-05   200   0.260E-02    0.762E-03
DAV:  27    -0.374529732236E+02   -0.60122E-03   -0.26755E-05   184   0.235E-02    0.534E-03
DAV:  28    -0.374532795135E+02   -0.30629E-03   -0.20542E-05   192   0.160E-02    0.306E-03
DAV:  29    -0.374534073470E+02   -0.12783E-03   -0.98823E-06   184   0.154E-02    0.599E-03
DAV:  30    -0.374534302324E+02   -0.22885E-04   -0.44193E-06   160   0.917E-03
  47 F= -.37453430E+02 E0= -.37445575E+02  d E =-.412538E-01  mag=     7.0362
       N       E                     dE             d eps       ncg     rms          rms(c)
DAV:   1    -0.365050655539E+02    0.94834E+00   -0.42541E+02   264   0.811E+01    0.100E+01
DAV:   2    -0.445666844153E+02   -0.80616E+01   -0.41167E+01   300   0.109E+02    0.377E+01
DAV:   3    -0.393395740102E+02    0.52271E+01   -0.16794E+01   348   0.600E+01    0.264E+01
DAV:   4    -0.380146281215E+02    0.13249E+01   -0.62887E+00   340   0.340E+01    0.152E+01
DAV:   5    -0.374763839952E+02    0.53824E+00   -0.27312E+00   388   0.286E+01    0.132E+01
DAV:   6    -0.373959130415E+02    0.80471E-01   -0.28524E+00   364   0.205E+01    0.981E+00
DAV:   7    -0.373028005110E+02    0.93113E-01   -0.10783E+00   356   0.160E+01    0.621E+00
DAV:   8    -0.372511964990E+02    0.51604E-01   -0.35711E-01   358   0.107E+01    0.362E+00
DAV:   9    -0.372360640357E+02    0.15132E-01   -0.12107E-01   358   0.648E+00    0.201E+00
DAV:  10    -0.372300873345E+02    0.59767E-02   -0.55607E-02   374   0.423E+00    0.238E+00
DAV:  11    -0.372052110224E+02    0.24876E-01   -0.59898E-02   334   0.469E+00    0.156E+00
DAV:  12    -0.372025025765E+02    0.27084E-02   -0.24969E-02   380   0.250E+00    0.810E-01
DAV:  13    -0.372134096796E+02   -0.10907E-01   -0.13570E-02   360   0.140E+00    0.539E-01
DAV:  14    -0.372224004920E+02   -0.89908E-02   -0.48192E-03   350   0.805E-01    0.235E-01
DAV:  15    -0.372384888086E+02   -0.16088E-01   -0.22649E-03   316   0.549E-01    0.199E-01
DAV:  16    -0.372513686016E+02   -0.12880E-01   -0.62027E-04   256   0.310E-01    0.874E-02
DAV:  17    -0.372636590913E+02   -0.12290E-01   -0.31534E-04   196   0.114E-01    0.632E-02
DAV:  18    -0.372768769432E+02   -0.13218E-01   -0.35102E-04   220   0.760E-02    0.517E-02
DAV:  19    -0.372853974328E+02   -0.85205E-02   -0.11452E-04   184   0.631E-02    0.531E-02
DAV:  20    -0.372980694200E+02   -0.12672E-01   -0.35327E-04   234   0.895E-02    0.456E-02
DAV:  21    -0.373084602854E+02   -0.10391E-01   -0.24054E-04   206   0.622E-02    0.361E-02
DAV:  22    -0.373188731966E+02   -0.10413E-01   -0.35997E-04   236   0.710E-02    0.415E-02
DAV:  23    -0.373244291657E+02   -0.55560E-02   -0.14553E-04   206   0.598E-02    0.220E-02
DAV:  24    -0.373284858859E+02   -0.40567E-02   -0.13908E-04   204   0.471E-02    0.233E-02
DAV:  25    -0.373320362276E+02   -0.35503E-02   -0.14680E-04   204   0.582E-02    0.198E-02
DAV:  26    -0.373334357460E+02   -0.13995E-02   -0.50302E-05   192   0.327E-02    0.109E-02
DAV:  27    -0.373343584980E+02   -0.92275E-03   -0.34485E-05   176   0.271E-02    0.137E-02
DAV:  28    -0.373349338698E+02   -0.57537E-03   -0.15846E-05   184   0.281E-02    0.447E-03
DAV:  29    -0.373353297301E+02   -0.39586E-03   -0.12533E-05   176   0.141E-02    0.567E-03
DAV:  30    -0.373355694471E+02   -0.23972E-03   -0.63530E-06   168   0.115E-02    0.236E-03
DAV:  31    -0.373358375583E+02   -0.26811E-03   -0.49736E-06   176   0.790E-03    0.366E-03
DAV:  32    -0.373360130893E+02   -0.17553E-03   -0.30173E-06   168   0.944E-03    0.176E-03
DAV:  33    -0.373361056935E+02   -0.92604E-04   -0.20571E-06   160   0.482E-03
  48 F= -.37336106E+02 E0= -.37327537E+02  d E =0.760708E-01  mag=     6.4683
       N       E                     dE             d eps       ncg     rms          rms(c)
DAV:   1    -0.366905287409E+02    0.64548E+00   -0.35133E+02   264   0.735E+01    0.534E+00
DAV:   2    -0.380812307196E+02   -0.13907E+01   -0.90428E+00   396   0.298E+01    0.189E+01
DAV:   3    -0.374440154642E+02    0.63722E+00   -0.45890E+00   292   0.338E+01    0.849E+00
DAV:   4    -0.375642785396E+02   -0.12026E+00   -0.12876E+00   366   0.203E+01    0.832E+00
DAV:   5    -0.373961815263E+02    0.16810E+00   -0.86160E-01   320   0.154E+01    0.294E+00
DAV:   6    -0.374529082595E+02   -0.56727E-01   -0.28499E-01   336   0.742E+00    0.450E+00
DAV:   7    -0.374430475497E+02    0.98607E-02   -0.32239E-01   302   0.826E+00    0.482E+00
DAV:   8    -0.374030293045E+02    0.40018E-01   -0.12388E-01   372   0.439E+00    0.183E+00
DAV:   9    -0.374071129951E+02   -0.40837E-02   -0.63719E-02   386   0.457E+00    0.234E+00
DAV:  10    -0.373912008290E+02    0.15912E-01   -0.52069E-02   342   0.440E+00    0.117E+00
DAV:  11    -0.373855440595E+02    0.56568E-02   -0.17509E-02   380   0.189E+00    0.744E-01
DAV:  12    -0.373876039341E+02   -0.20599E-02   -0.14383E-02   364   0.206E+00    0.116E+00
DAV:  13    -0.373839602303E+02    0.36437E-02   -0.59612E-03   336   0.178E+00    0.336E-01
DAV:  14    -0.373865979145E+02   -0.26377E-02   -0.15645E-03   330   0.511E-01    0.211E-01
DAV:  15    -0.373911727028E+02   -0.45748E-02   -0.56017E-04   220   0.302E-01    0.936E-02
DAV:  16    -0.373972416428E+02   -0.60689E-02   -0.36254E-04   194   0.184E-01    0.112E-01
DAV:  17    -0.374034486819E+02   -0.62070E-02   -0.27025E-04   198   0.144E-01    0.799E-02
DAV:  18    -0.374115510567E+02   -0.81024E-02   -0.31738E-04   202   0.107E-01    0.609E-02
DAV:  19    -0.374208736394E+02   -0.93226E-02   -0.39935E-04   210   0.108E-01    0.443E-02
DAV:  20    -0.374302754691E+02   -0.94018E-02   -0.35952E-04   220   0.811E-02    0.325E-02
DAV:  21    -0.374396905012E+02   -0.94150E-02   -0.41070E-04   210   0.673E-02    0.238E-02
DAV:  22    -0.374459513380E+02   -0.62608E-02   -0.26479E-04   212   0.547E-02    0.192E-02
DAV:  23    -0.374501312296E+02   -0.41799E-02   -0.17959E-04   194   0.481E-02    0.121E-02
DAV:  24    -0.374523085595E+02   -0.21773E-02   -0.79160E-05   192   0.312E-02    0.100E-02
DAV:  25    -0.374532269995E+02   -0.91844E-03   -0.25600E-05   172   0.256E-02    0.146E-02
DAV:  26    -0.374543372742E+02   -0.11103E-02   -0.22619E-05   188   0.215E-02    0.703E-03
DAV:  27    -0.374552364603E+02   -0.89919E-03   -0.20348E-05   180   0.157E-02    0.465E-03
DAV:  28    -0.374557262611E+02   -0.48980E-03   -0.91636E-06   184   0.129E-02    0.372E-03
DAV:  29    -0.374563165329E+02   -0.59027E-03   -0.93976E-06   192   0.102E-02    0.525E-03
DAV:  30    -0.374565317296E+02   -0.21520E-03   -0.34279E-06   176   0.915E-03    0.220E-03
DAV:  31    -0.374566941863E+02   -0.16246E-03   -0.26911E-06   184   0.503E-03    0.165E-03
DAV:  32    -0.374567807155E+02   -0.86529E-04   -0.91541E-07   176   0.425E-03
  49 F= -.37456781E+02 E0= -.37449576E+02  d E =-.446042E-01  mag=     6.9733
