<?xml version="1.0" encoding="ISO-8859-1"?>
<modeling>
 <generator>
  <i name="program" type="string">vasp </i>
  <i name="version" type="string">6.1.2  </i>
  <i name="subversion" type="string">22Jul20 (build Aug  2 2021 21:04:21) gamma-only                       parallel </i>
  <i name="platform" type="string">LinuxPGI </i>
  <i name="date" type="string">2021 12 22 </i>
  <i name="time" type="string">07:39:15 </i>
 </generator>
 <incar>
  <i type="int" name="ISPIN">     2</i>
  <i type="int" name="IBRION">     2</i>
  <i type="int" name="NSW">  1000</i>
  <i type="int" name="ISIF">     0</i>
  <i type="int" name="ISYM">     0</i>
  <i name="ENCUT">    400.00000000</i>
  <i type="logical" name="LREAL"> F  </i>
  <i type="int" name="ISMEAR">     1</i>
  <i name="SIGMA">      0.20000000</i>
  <i type="logical" name="LWAVE"> F  </i>
  <i type="logical" name="LCHARG"> F  </i>
  <i type="int" name="KPAR">     1</i>
  <i type="int" name="NCORE">     8</i>
  <i type="string" name="GGA"> PE</i>
  <i type="int" name="ISPIN">     2</i>
 </incar>
 <structure name="primitive_cell" >
  <crystal>
   <varray name="basis" >
    <v>      22.14783652       0.00000000       0.00000000 </v>
    <v>       0.00000000      22.06864480       0.00000000 </v>
    <v>       0.00000000       0.00000000      22.94599038 </v>
   </varray>
   <i name="volume">  11215.37452836 </i>
   <varray name="rec_basis" >
    <v>       0.04515114       0.00000000       0.00000000 </v>
    <v>       0.00000000       0.04531316       0.00000000 </v>
    <v>       0.00000000       0.00000000       0.04358060 </v>
   </varray>
  </crystal>
  <varray name="positions" >
   <v>       0.48616122       0.55011162       0.50921083 </v>
   <v>       0.56462437       0.51225434       0.44509009 </v>
   <v>       0.52024674       0.41413759       0.42024137 </v>
   <v>       0.51293387       0.59222623       0.60398459 </v>
   <v>       0.56101157       0.43355757       0.51830059 </v>
   <v>       0.45357789       0.44499684       0.50141502 </v>
   <v>       0.45780954       0.50887068       0.40981200 </v>
   <v>       0.59124612       0.53754944       0.54952387 </v>
   <v>       0.41005679       0.40586946       0.40986163 </v>
   <v>       0.49966101       0.48230057       0.59643719 </v>
  </varray>
 </structure>
 <varray name="primitive_index" >
  <v type="int" >        1 </v>
  <v type="int" >        2 </v>
  <v type="int" >        3 </v>
  <v type="int" >        4 </v>
  <v type="int" >        5 </v>
  <v type="int" >        6 </v>
  <v type="int" >        7 </v>
  <v type="int" >        8 </v>
  <v type="int" >        9 </v>
  <v type="int" >       10 </v>
 </varray>
 <kpoints>
  <generation param="Gamma">
   <v type="int" name="divisions">       1        1        1 </v>
   <v name="usershift">      0.00000000       0.00000000       0.00000000 </v>
   <v name="genvec1">      1.00000000       0.00000000       0.00000000 </v>
   <v name="genvec2">      0.00000000       1.00000000       0.00000000 </v>
   <v name="genvec3">      0.00000000       0.00000000       1.00000000 </v>
   <v name="shift">      0.00000000       0.00000000       0.00000000 </v>
  </generation>
  <varray name="kpointlist" >
   <v>       0.00000000       0.00000000       0.00000000 </v>
  </varray>
  <varray name="weights" >
   <v>       1.00000000 </v>
  </varray>
 </kpoints>
 <parameters>
  <separator name="general" >
   <i type="string" name="SYSTEM">unknown system</i>
   <i type="logical" name="LCOMPAT"> F  </i>
  </separator>
  <separator name="electronic" >
   <i type="string" name="PREC">normal</i>
   <i name="ENMAX">    400.00000000</i>
   <i name="ENAUG">    544.56500000</i>
   <i name="EDIFF">      0.00010000</i>
   <i type="int" name="IALGO">    38</i>
   <i type="int" name="IWAVPR">    11</i>
   <i type="int" name="NBANDS">    66</i>
   <i type="int" name="NBANDSLOW">    -1</i>
   <i type="int" name="NBANDSHIGH">    -1</i>
   <i name="NELECT">    100.00000000</i>
   <i type="int" name="TURBO">     0</i>
   <i type="int" name="IRESTART">     0</i>
   <i type="int" name="NREBOOT">     0</i>
   <i type="int" name="NMIN">     0</i>
   <i name="EREF">      0.00000000</i>
   <separator name="electronic smearing" >
    <i type="int" name="ISMEAR">     1</i>
    <i name="SIGMA">      0.20000000</i>
    <i name="KSPACING">      0.50000000</i>
    <i type="logical" name="KGAMMA"> T  </i>
    <i type="logical" name="KBLOWUP"> T  </i>
   </separator>
   <separator name="electronic projectors" >
    <i type="logical" name="LREAL"> F  </i>
    <v name="ROPT">      0.00000000      0.00000000</v>
    <i type="int" name="LMAXPAW">  -100</i>
    <i type="int" name="LMAXMIX">     2</i>
    <i type="logical" name="NLSPLINE"> F  </i>
   </separator>
   <separator name="electronic startup" >
    <i type="int" name="ISTART">     0</i>
    <i type="int" name="ICHARG">     2</i>
    <i type="int" name="INIWAV">     1</i>
   </separator>
   <separator name="electronic spin" >
    <i type="int" name="ISPIN">     2</i>
    <i type="logical" name="LNONCOLLINEAR"> F  </i>
    <v name="MAGMOM">      1.00000000      1.00000000      1.00000000      1.00000000      1.00000000      1.00000000      1.00000000      1.00000000      1.00000000      1.00000000</v>
    <i name="NUPDOWN">     -1.00000000</i>
    <i type="logical" name="LSORBIT"> F  </i>
    <v name="SAXIS">      0.00000000      0.00000000      1.00000000</v>
    <i type="logical" name="LSPIRAL"> F  </i>
    <v name="QSPIRAL">      0.00000000      0.00000000      0.00000000</v>
    <i type="logical" name="LZEROZ"> F  </i>
   </separator>
   <separator name="electronic exchange-correlation" >
    <i type="logical" name="LASPH"> F  </i>
    <i type="logical" name="LMETAGGA"> F  </i>
   </separator>
   <separator name="electronic convergence" >
    <i type="int" name="NELM">    60</i>
    <i type="int" name="NELMDL">     0</i>
    <i type="int" name="NELMIN">     2</i>
    <i name="ENINI">    400.00000000</i>
    <separator name="electronic convergence detail" >
     <i type="logical" name="LDIAG"> T  </i>
     <i type="logical" name="LSUBROT"> F  </i>
     <i name="WEIMIN">      0.00100000</i>
     <i name="EBREAK">      0.00000038</i>
     <i name="DEPER">      0.30000000</i>
     <i type="int" name="NRMM">     4</i>
     <i name="TIME">      0.40000000</i>
    </separator>
   </separator>
   <separator name="electronic mixer" >
    <i name="AMIX">      0.40000000</i>
    <i name="BMIX">      1.00000000</i>
    <i name="AMIN">      0.10000000</i>
    <i name="AMIX_MAG">      1.60000000</i>
    <i name="BMIX_MAG">      1.00000000</i>
    <separator name="electronic mixer details" >
     <i type="int" name="IMIX">     4</i>
     <i type="logical" name="MIXFIRST"> F  </i>
     <i type="int" name="MAXMIX">   -45</i>
     <i name="WC">    100.00000000</i>
     <i type="int" name="INIMIX">     1</i>
     <i type="int" name="MIXPRE">     1</i>
     <i type="int" name="MREMOVE">     5</i>
    </separator>
   </separator>
   <separator name="electronic dipolcorrection" >
    <i type="logical" name="LDIPOL"> F  </i>
    <i type="logical" name="LMONO"> F  </i>
    <i type="int" name="IDIPOL">     0</i>
    <i name="EPSILON">      1.00000000</i>
    <v name="DIPOL">   -100.00000000   -100.00000000   -100.00000000</v>
    <i name="EFIELD">      0.00000000</i>
   </separator>
  </separator>
  <separator name="grids" >
   <i type="int" name="NGX">   108</i>
   <i type="int" name="NGY">   108</i>
   <i type="int" name="NGZ">   112</i>
   <i type="int" name="NGXF">   216</i>
   <i type="int" name="NGYF">   216</i>
   <i type="int" name="NGZF">   224</i>
   <i type="logical" name="ADDGRID"> F  </i>
  </separator>
  <separator name="ionic" >
   <i type="int" name="NSW">  1000</i>
   <i type="int" name="IBRION">     2</i>
   <i type="int" name="MDALGO">     0</i>
   <i type="int" name="ISIF">     0</i>
   <i name="PSTRESS">      0.00000000</i>
   <i name="EDIFFG">      0.00100000</i>
   <i type="int" name="NFREE">     1</i>
   <i name="POTIM">      0.50000000</i>
   <i name="SMASS">     -3.00000000</i>
   <i name="SCALEE">      1.00000000</i>
  </separator>
  <separator name="ionic md" >
   <i name="TEBEG">      0.00010000</i>
   <i name="TEEND">      0.00010000</i>
   <i type="int" name="NBLOCK">     1</i>
   <i type="int" name="KBLOCK">  1000</i>
   <i type="int" name="NPACO">   256</i>
   <i name="APACO">     16.00000000</i>
  </separator>
  <separator name="symmetry" >
   <i type="int" name="ISYM">     0</i>
   <i name="SYMPREC">      0.00001000</i>
  </separator>
  <separator name="dos" >
   <i type="int" name="LORBIT">     0</i>
   <v name="RWIGS">     -1.00000000     -1.00000000</v>
   <i type="int" name="NEDOS">   301</i>
   <i name="EMIN">     10.00000000</i>
   <i name="EMAX">    -10.00000000</i>
   <i name="EFERMI">      0.00000000</i>
  </separator>
  <separator name="writing" >
   <i type="int" name="NWRITE">     2</i>
   <i type="logical" name="LWAVE"> F  </i>
   <i type="logical" name="LDOWNSAMPLE"> F  </i>
   <i type="logical" name="LCHARG"> F  </i>
   <i type="logical" name="LPARD"> F  </i>
   <i type="logical" name="LVTOT"> F  </i>
   <i type="logical" name="LVHAR"> F  </i>
   <i type="logical" name="LELF"> F  </i>
   <i type="logical" name="LOPTICS"> F  </i>
   <v name="STM">      0.00000000      0.00000000      0.00000000      0.00000000      0.00000000      0.00000000      0.00000000</v>
  </separator>
  <separator name="performance" >
   <i type="int" name="NPAR">     2</i>
   <i type="int" name="NSIM">     4</i>
   <i type="int" name="NBLK">    -1</i>
   <i type="logical" name="LPLANE"> T  </i>
   <i type="logical" name="LSCALAPACK"> T  </i>
   <i type="logical" name="LSCAAWARE"> F  </i>
   <i type="logical" name="LSCALU"> F  </i>
   <i type="logical" name="LASYNC"> F  </i>
   <i type="logical" name="LORBITALREAL"> F  </i>
  </separator>
  <separator name="miscellaneous" >
   <i type="int" name="IDIOT">     3</i>
   <i type="int" name="PHON_NSTRUCT">    -1</i>
   <i type="logical" name="LMUSIC"> F  </i>
   <v name="POMASS">     58.69000000    106.42000000</v>
   <v name="DARWINR">      0.00000000      0.00000000</v>
   <v name="DARWINV">      1.00000000      1.00000000</v>
   <i type="logical" name="LCORR"> T  </i>
  </separator>
  <i type="logical" name="GGA_COMPAT"> T  </i>
  <i type="logical" name="LBERRY"> F  </i>
  <i type="int" name="ICORELEVEL">     0</i>
  <i type="logical" name="LDAU"> F  </i>
  <i type="int" name="I_CONSTRAINED_M">     0</i>
  <separator name="electronic exchange-correlation" >
   <i type="string" name="GGA">PE</i>
   <i type="int" name="VOSKOWN">     0</i>
   <i type="logical" name="LHFCALC"> F  </i>
   <i type="string" name="PRECFOCK"></i>
   <i type="logical" name="LSYMGRAD"> F  </i>
   <i type="logical" name="LHFONE"> F  </i>
   <i type="logical" name="LRHFCALC"> F  </i>
   <i type="logical" name="LTHOMAS"> F  </i>
   <i type="logical" name="LMODELHF"> F  </i>
   <i type="logical" name="LFOCKACE"> F  </i>
   <i name="ENCUT4O">     -1.00000000</i>
   <i type="int" name="EXXOEP">     0</i>
   <i type="int" name="FOURORBIT">     0</i>
   <i name="AEXX">      0.00000000</i>
   <i name="HFALPHA">      0.00000000</i>
   <i name="MCALPHA">      0.00000000</i>
   <i name="ALDAX">      1.00000000</i>
   <i name="AGGAX">      1.00000000</i>
   <i name="ALDAC">      1.00000000</i>
   <i name="AGGAC">      1.00000000</i>
   <i type="int" name="NKREDX">     1</i>
   <i type="int" name="NKREDY">     1</i>
   <i type="int" name="NKREDZ">     1</i>
   <i type="logical" name="SHIFTRED"> F  </i>
   <i type="logical" name="ODDONLY"> F  </i>
   <i type="logical" name="EVENONLY"> F  </i>
   <i type="int" name="LMAXFOCK">     0</i>
   <i type="int" name="NMAXFOCKAE">     0</i>
   <i type="logical" name="LFOCKAEDFT"> F  </i>
   <i name="HFSCREEN">      0.00000000</i>
   <i name="HFSCREENC">      0.00000000</i>
   <i type="int" name="NBANDSGWLOW">     0</i>
  </separator>
  <separator name="vdW DFT" >
   <i type="logical" name="LUSE_VDW"> F  </i>
   <i name="Zab_VDW">     -0.84910000</i>
   <i name="PARAM1">      0.12340000</i>
   <i name="PARAM2">      1.00000000</i>
   <i name="PARAM3">      0.00000000</i>
  </separator>
  <separator name="model GW" >
   <i type="int" name="MODEL_GW">     0</i>
   <i name="MODEL_EPS0">    672.92247170</i>
   <i name="MODEL_ALPHA">      1.00000000</i>
  </separator>
  <separator name="linear response parameters" >
   <i type="logical" name="LEPSILON"> F  </i>
   <i type="logical" name="LRPA"> F  </i>
   <i type="logical" name="LNABLA"> F  </i>
   <i type="logical" name="LVEL"> F  </i>
   <i type="int" name="KINTER">     0</i>
   <i name="CSHIFT">      0.10000000</i>
   <i name="OMEGAMAX">     -1.00000000</i>
   <i name="DEG_THRESHOLD">      0.00200000</i>
   <i name="RTIME">     -0.10000000</i>
   <i name="WPLASMAI">      0.00000000</i>
   <v name="DFIELD">      0.00000000      0.00000000      0.00000000</v>
   <v name="WPLASMA">      0.00000000      0.00000000      0.00000000      0.00000000      0.00000000      0.00000000      0.00000000      0.00000000      0.00000000</v>
  </separator>
  <separator name="orbital magnetization" >
   <i type="logical" name="NUCIND"> F  </i>
   <v name="MAGPOS">      0.00000000      0.00000000      0.00000000</v>
   <i type="logical" name="LNICSALL"> T  </i>
   <i type="logical" name="ORBITALMAG"> F  </i>
   <i type="logical" name="LMAGBLOCH"> F  </i>
   <i type="logical" name="LCHIMAG"> F  </i>
   <i type="logical" name="LGAUGE"> T  </i>
   <i type="int" name="MAGATOM">     0</i>
   <v name="MAGDIPOL">      0.00000000      0.00000000      0.00000000</v>
   <v name="AVECCONST">      0.00000000      0.00000000      0.00000000</v>
  </separator>
  <separator name="response functions" >
   <i type="logical" name="LFINITE_TEMPERATURE"> F  </i>
   <i type="logical" name="LADDER"> F  </i>
   <i type="logical" name="LRPAFORCE"> F  </i>
   <i type="logical" name="LFXC"> F  </i>
   <i type="logical" name="LHARTREE"> T  </i>
   <i type="int" name="IBSE">     0</i>
   <v type="int" name="KPOINT">    -1     0     0     0</v>
   <i type="logical" name="LTCTC"> F  </i>
   <i type="logical" name="LTCTE"> F  </i>
   <i type="logical" name="LTETE"> F  </i>
   <i type="logical" name="LTRIPLET"> F  </i>
   <i type="logical" name="LFXCEPS"> F  </i>
   <i type="logical" name="LFXHEG"> F  </i>
   <i type="int" name="NATURALO">     2</i>
   <i type="logical" name="LHOLEGF"> F  </i>
   <i type="logical" name="L2ORDER"> F  </i>
   <i type="logical" name="LDMP1"> F  </i>
   <i type="logical" name="LMP2LT"> F  </i>
   <i type="logical" name="LSMP2LT"> F  </i>
   <i type="logical" name="LGWLF"> F  </i>
   <i name="ENCUTGW">     -2.00000000</i>
   <i name="ENCUTGWSOFT">     -2.00000000</i>
   <i name="ENCUTLF">     -1.00000000</i>
   <i type="logical" name="LESF_SPLINES"> F  </i>
   <i type="int" name="LMAXMP2">    -1</i>
   <i name="SCISSOR">      0.00000000</i>
   <i type="int" name="NOMEGA">     0</i>
   <i type="int" name="NOMEGAR">     0</i>
   <i type="int" name="NBANDSGW">    -1</i>
   <i type="int" name="NBANDSO">    -1</i>
   <i type="int" name="NBANDSV">    -1</i>
   <i type="int" name="NELM">     1</i>
   <i type="int" name="NELMHF">     1</i>
   <i type="int" name="DIM">     3</i>
   <i type="int" name="IESPILON">     4</i>
   <i type="int" name="ANTIRES">     0</i>
   <i name="OMEGAMAX">    -30.00000000</i>
   <i name="OMEGAMIN">    -30.00000000</i>
   <i name="OMEGATL">   -200.00000000</i>
   <i type="int" name="OMEGAGRID">     0</i>
   <i name="CSHIFT">     -0.10000000</i>
   <i type="logical" name="LSELFENERGY"> F  </i>
   <i type="logical" name="LSPECTRAL"> F  </i>
   <i type="logical" name="LSPECTRALGW"> F  </i>
   <i type="logical" name="LSINGLES"> F  </i>
   <i type="logical" name="LFERMIGW"> F  </i>
   <i type="logical" name="ODDONLYGW"> F  </i>
   <i type="logical" name="EVENONLYGW"> F  </i>
   <i type="int" name="NKREDLFX">     1</i>
   <i type="int" name="NKREDLFY">     1</i>
   <i type="int" name="NKREDLFZ">     1</i>
   <i type="int" name="MAXMEM">  2800</i>
   <i type="int" name="TELESCOPE">     0</i>
   <i type="int" name="NTAUPAR">    -1</i>
   <i type="int" name="NOMEGAPAR">    -1</i>
   <i name="LAMBDA">      1.00000000</i>
  </separator>
  <separator name="External order field" >
   <i name="OFIELD_KAPPA">      0.00000000</i>
   <v name="OFIELD_K">      0.00000000      0.00000000      0.00000000</v>
   <i name="OFIELD_Q6_NEAR">      0.00000000</i>
   <i name="OFIELD_Q6_FAR">      0.00000000</i>
   <i name="OFIELD_A">      0.00000000</i>
  </separator>
 </parameters>
 <atominfo>
  <atoms>      10 </atoms>
  <types>       2 </types>
  <array name="atoms" >
   <dimension dim="1">ion</dimension>
   <field type="string">element</field>
   <field type="int">atomtype</field>
   <set>
    <rc><c>Ni</c><c>   1</c></rc>
    <rc><c>Ni</c><c>   1</c></rc>
    <rc><c>Ni</c><c>   1</c></rc>
    <rc><c>Ni</c><c>   1</c></rc>
    <rc><c>Ni</c><c>   1</c></rc>
    <rc><c>Ni</c><c>   1</c></rc>
    <rc><c>Pd</c><c>   2</c></rc>
    <rc><c>Pd</c><c>   2</c></rc>
    <rc><c>Pd</c><c>   2</c></rc>
    <rc><c>Pd</c><c>   2</c></rc>
   </set>
  </array>
  <array name="atomtypes" >
   <dimension dim="1">type</dimension>
   <field type="int">atomspertype</field>
   <field type="string">element</field>
   <field>mass</field>
   <field>valence</field>
   <field type="string">pseudopotential</field>
   <set>
    <rc><c>   6</c><c>Ni</c><c>     58.69000000</c><c>     10.00000000</c><c>  PAW_PBE Ni 02Aug2007                  </c></rc>
    <rc><c>   4</c><c>Pd</c><c>    106.42000000</c><c>     10.00000000</c><c>  PAW_PBE Pd 04Jan2005                  </c></rc>
   </set>
  </array>
 </atominfo>
 <structure name="initialpos" >
  <crystal>
   <varray name="basis" >
    <v>      22.14783652       0.00000000       0.00000000 </v>
    <v>       0.00000000      22.06864480       0.00000000 </v>
    <v>       0.00000000       0.00000000      22.94599038 </v>
   </varray>
   <i name="volume">  11215.37452836 </i>
   <varray name="rec_basis" >
    <v>       0.04515114       0.00000000       0.00000000 </v>
    <v>       0.00000000       0.04531316       0.00000000 </v>
    <v>       0.00000000       0.00000000       0.04358060 </v>
   </varray>
  </crystal>
  <varray name="positions" >
   <v>       0.48616122       0.55011162       0.50921083 </v>
   <v>       0.56462437       0.51225434       0.44509009 </v>
   <v>       0.52024674       0.41413759       0.42024137 </v>
   <v>       0.51293387       0.59222623       0.60398459 </v>
   <v>       0.56101157       0.43355757       0.51830059 </v>
   <v>       0.45357789       0.44499684       0.50141502 </v>
   <v>       0.45780954       0.50887068       0.40981200 </v>
   <v>       0.59124612       0.53754944       0.54952387 </v>
   <v>       0.41005679       0.40586946       0.40986163 </v>
   <v>       0.49966101       0.48230057       0.59643719 </v>
  </varray>
 </structure>
 <calculation>
  <scstep>
   <time name="dav">    5.16    5.17</time>
   <time name="total">    7.36    7.38</time>
   <energy>
    <i name="alphaZ">      5.05286118 </i>
    <i name="ewald">  12047.55298377 </i>
    <i name="hartreedc"> -21032.73225942 </i>
    <i name="XCdc">     62.43719533 </i>
    <i name="pawpsdc">   9003.59075477 </i>
    <i name="pawaedc">  -9155.75339974 </i>
    <i name="eentropy">     -0.03015631 </i>
    <i name="bandstr">     86.69555601 </i>
    <i name="atom">   9704.95859309 </i>
    <i name="e_fr_energy">    721.77212869 </i>
    <i name="e_wo_entrp">    721.80228500 </i>
    <i name="e_0_energy">    721.78218079 </i>
   </energy>
  </scstep>
  <scstep>
   <time name="dav">    7.97    7.98</time>
   <time name="total">    7.97    7.99</time>
   <energy>
    <i name="e_fr_energy">    248.89232279 </i>
    <i name="e_wo_entrp">    248.87672454 </i>
    <i name="e_0_energy">    248.88712337 </i>
   </energy>
  </scstep>
  <scstep>
   <time name="dav">    7.58    7.58</time>
   <time name="total">    7.58    7.59</time>
   <energy>
    <i name="e_fr_energy">     13.45520376 </i>
    <i name="e_wo_entrp">     13.48959517 </i>
    <i name="e_0_energy">     13.46666757 </i>
   </energy>
  </scstep>
  <scstep>
   <time name="dav">    7.17    7.19</time>
   <time name="total">    7.18    7.19</time>
   <energy>
    <i name="e_fr_energy">    -37.45574492 </i>
    <i name="e_wo_entrp">    -37.41610457 </i>
    <i name="e_0_energy">    -37.44253147 </i>
   </energy>
  </scstep>
  <scstep>
   <time name="dav">    6.03    6.04</time>
   <time name="total">    6.64    6.65</time>
   <energy>
    <i name="e_fr_energy">    -42.53141191 </i>
    <i name="e_wo_entrp">    -42.50133040 </i>
    <i name="e_0_energy">    -42.52138474 </i>
   </energy>
  </scstep>
  <scstep>
   <time name="dav">    5.87    5.88</time>
   <time name="total">    8.64    8.66</time>
   <energy>
    <i name="e_fr_energy">    -61.35769102 </i>
    <i name="e_wo_entrp">    -61.35801412 </i>
    <i name="e_0_energy">    -61.35779872 </i>
   </energy>
  </scstep>
  <scstep>
   <time name="dav">    6.22    6.23</time>
   <time name="total">    9.00    9.02</time>
   <energy>
    <i name="e_fr_energy">    -38.15475773 </i>
    <i name="e_wo_entrp">    -38.08716743 </i>
    <i name="e_0_energy">    -38.13222763 </i>
   </energy>
  </scstep>
  <scstep>
   <time name="dav">    7.03    7.04</time>
   <time name="total">    9.82    9.84</time>
   <energy>
    <i name="e_fr_energy">    -39.56183616 </i>
    <i name="e_wo_entrp">    -39.57238727 </i>
    <i name="e_0_energy">    -39.56535320 </i>
   </energy>
  </scstep>
  <scstep>
   <time name="dav">    6.59    6.60</time>
   <time name="total">    9.38    9.40</time>
   <energy>
    <i name="e_fr_energy">    -38.39277921 </i>
    <i name="e_wo_entrp">    -38.33588133 </i>
    <i name="e_0_energy">    -38.37381325 </i>
   </energy>
  </scstep>
  <scstep>
   <time name="dav">    6.46    6.48</time>
   <time name="total">    9.28    9.31</time>
   <energy>
    <i name="e_fr_energy">    -36.41284755 </i>
    <i name="e_wo_entrp">    -36.45476698 </i>
    <i name="e_0_energy">    -36.42682069 </i>
   </energy>
  </scstep>
  <scstep>
   <time name="dav">    6.79    6.80</time>
   <time name="total">    9.60    9.62</time>
   <energy>
    <i name="e_fr_energy">    -35.35264519 </i>
    <i name="e_wo_entrp">    -35.38802444 </i>
    <i name="e_0_energy">    -35.36443827 </i>
   </energy>
  </scstep>
  <scstep>
   <time name="dav">    6.61    6.62</time>
   <time name="total">    9.43    9.45</time>
   <energy>
    <i name="e_fr_energy">    -34.91891354 </i>
    <i name="e_wo_entrp">    -34.93522958 </i>
    <i name="e_0_energy">    -34.92435222 </i>
   </energy>
  </scstep>
  <scstep>
   <time name="dav">    6.36    6.37</time>
   <time name="total">    9.19    9.21</time>
   <energy>
    <i name="e_fr_energy">    -35.27669307 </i>
    <i name="e_wo_entrp">    -35.27797270 </i>
    <i name="e_0_energy">    -35.27711962 </i>
   </energy>
  </scstep>
  <scstep>
   <time name="dav">    5.54    5.55</time>
   <time name="total">    8.34    8.36</time>
   <energy>
    <i name="e_fr_energy">    -35.15155648 </i>
    <i name="e_wo_entrp">    -35.16359635 </i>
    <i name="e_0_energy">    -35.15556977 </i>
   </energy>
  </scstep>
  <scstep>
   <time name="dav">    6.47    6.48</time>
   <time name="total">    9.28    9.30</time>
   <energy>
    <i name="e_fr_energy">    -35.28002346 </i>
    <i name="e_wo_entrp">    -35.29749760 </i>
    <i name="e_0_energy">    -35.28584817 </i>
   </energy>
  </scstep>
  <scstep>
   <time name="dav">    5.88    5.89</time>
   <time name="total">    8.69    8.71</time>
   <energy>
    <i name="e_fr_energy">    -35.12226422 </i>
    <i name="e_wo_entrp">    -35.16267243 </i>
    <i name="e_0_energy">    -35.13573362 </i>
   </energy>
  </scstep>
  <scstep>
   <time name="dav">    6.88    6.89</time>
   <time name="total">    9.72    9.74</time>
   <energy>
    <i name="e_fr_energy">    -35.24626379 </i>
    <i name="e_wo_entrp">    -35.29646968 </i>
    <i name="e_0_energy">    -35.26299909 </i>
   </energy>
  </scstep>
  <scstep>
   <time name="dav">    6.78    6.79</time>
   <time name="total">    9.59    9.61</time>
   <energy>
    <i name="e_fr_energy">    -35.45119192 </i>
    <i name="e_wo_entrp">    -35.50257442 </i>
    <i name="e_0_energy">    -35.46831942 </i>
   </energy>
  </scstep>
  <scstep>
   <time name="dav">    6.55    6.56</time>
   <time name="total">    9.38    9.40</time>
   <energy>
    <i name="e_fr_energy">    -35.71465958 </i>
    <i name="e_wo_entrp">    -35.76422419 </i>
    <i name="e_0_energy">    -35.73118112 </i>
   </energy>
  </scstep>
  <scstep>
   <time name="dav">    6.70    6.72</time>
   <time name="total">    9.55    9.58</time>
   <energy>
    <i name="e_fr_energy">    -35.89544992 </i>
    <i name="e_wo_entrp">    -35.94158747 </i>
    <i name="e_0_energy">    -35.91082911 </i>
   </energy>
  </scstep>
  <scstep>
   <time name="dav">    6.10    6.11</time>
   <time name="total">    8.96    8.99</time>
   <energy>
    <i name="e_fr_energy">    -36.08165478 </i>
    <i name="e_wo_entrp">    -36.12729790 </i>
    <i name="e_0_energy">    -36.09686915 </i>
   </energy>
  </scstep>
  <scstep>
   <time name="dav">    6.11    6.13</time>
   <time name="total">    8.95    8.97</time>
   <energy>
    <i name="e_fr_energy">    -36.21026576 </i>
    <i name="e_wo_entrp">    -36.25606303 </i>
    <i name="e_0_energy">    -36.22553152 </i>
   </energy>
  </scstep>
  <scstep>
   <time name="dav">    6.27    6.29</time>
   <time name="total">    9.14    9.16</time>
   <energy>
    <i name="e_fr_energy">    -36.31602783 </i>
    <i name="e_wo_entrp">    -36.36190658 </i>
    <i name="e_0_energy">    -36.33132075 </i>
   </energy>
  </scstep>
  <scstep>
   <time name="dav">    5.58    5.61</time>
   <time name="total">    8.48    8.52</time>
   <energy>
    <i name="e_fr_energy">    -36.41130754 </i>
    <i name="e_wo_entrp">    -36.45591525 </i>
    <i name="e_0_energy">    -36.42617677 </i>
   </energy>
  </scstep>
  <scstep>
   <time name="dav">    5.64    5.66</time>
   <time name="total">    8.51    8.56</time>
   <energy>
    <i name="e_fr_energy">    -36.48488422 </i>
    <i name="e_wo_entrp">    -36.52929610 </i>
    <i name="e_0_energy">    -36.49968818 </i>
   </energy>
  </scstep>
  <scstep>
   <time name="dav">    4.91    4.92</time>
   <time name="total">    7.80    7.81</time>
   <energy>
    <i name="e_fr_energy">    -36.54854584 </i>
    <i name="e_wo_entrp">    -36.59240148 </i>
    <i name="e_0_energy">    -36.56316439 </i>
   </energy>
  </scstep>
  <scstep>
   <time name="dav">    5.28    5.29</time>
   <time name="total">    8.23    8.24</time>
   <energy>
    <i name="e_fr_energy">    -36.60735998 </i>
    <i name="e_wo_entrp">    -36.65090824 </i>
    <i name="e_0_energy">    -36.62187606 </i>
   </energy>
  </scstep>
  <scstep>
   <time name="dav">    5.19    5.19</time>
   <time name="total">    8.09    8.10</time>
   <energy>
    <i name="e_fr_energy">    -36.65614074 </i>
    <i name="e_wo_entrp">    -36.69924932 </i>
    <i name="e_0_energy">    -36.67051026 </i>
   </energy>
  </scstep>
  <scstep>
   <time name="dav">    5.34    5.36</time>
   <time name="total">    8.27    8.29</time>
   <energy>
    <i name="e_fr_energy">    -36.68081614 </i>
    <i name="e_wo_entrp">    -36.72363860 </i>
    <i name="e_0_energy">    -36.69509029 </i>
   </energy>
  </scstep>
  <scstep>
   <time name="dav">    4.54    4.54</time>
   <time name="total">    7.45    7.46</time>
   <energy>
    <i name="e_fr_energy">    -36.69506451 </i>
    <i name="e_wo_entrp">    -36.73761421 </i>
    <i name="e_0_energy">    -36.70924774 </i>
   </energy>
  </scstep>
  <scstep>
   <time name="dav">    4.41    4.42</time>
   <time name="total">    7.35    7.36</time>
   <energy>
    <i name="e_fr_energy">    -36.70489197 </i>
    <i name="e_wo_entrp">    -36.74709217 </i>
    <i name="e_0_energy">    -36.71895870 </i>
   </energy>
  </scstep>
  <scstep>
   <time name="dav">    4.39    4.40</time>
   <time name="total">    7.36    7.38</time>
   <energy>
    <i name="e_fr_energy">    -36.71009483 </i>
    <i name="e_wo_entrp">    -36.75218204 </i>
    <i name="e_0_energy">    -36.72412390 </i>
   </energy>
  </scstep>
  <scstep>
   <time name="dav">    4.32    4.33</time>
   <time name="total">    7.31    7.32</time>
   <energy>
    <i name="e_fr_energy">    -36.71375275 </i>
    <i name="e_wo_entrp">    -36.75582648 </i>
    <i name="e_0_energy">    -36.72777732 </i>
   </energy>
  </scstep>
  <scstep>
   <time name="dav">    4.13    4.13</time>
   <time name="total">    7.13    7.14</time>
   <energy>
    <i name="e_fr_energy">    -36.71598717 </i>
    <i name="e_wo_entrp">    -36.75802194 </i>
    <i name="e_0_energy">    -36.72999876 </i>
   </energy>
  </scstep>
  <scstep>
   <time name="dav">    4.15    4.15</time>
   <time name="total">    7.13    7.15</time>
   <energy>
    <i name="e_fr_energy">    -36.71688613 </i>
    <i name="e_wo_entrp">    -36.75891702 </i>
    <i name="e_0_energy">    -36.73089643 </i>
   </energy>
  </scstep>
  <scstep>
   <time name="dav">    4.03    4.04</time>
   <time name="total">    7.04    7.05</time>
   <energy>
    <i name="e_fr_energy">    -36.71752797 </i>
    <i name="e_wo_entrp">    -36.75952612 </i>
    <i name="e_0_energy">    -36.73152736 </i>
   </energy>
  </scstep>
  <scstep>
   <time name="dav">    3.97    3.98</time>
   <time name="total">    6.99    7.00</time>
   <energy>
    <i name="e_fr_energy">    -36.71796507 </i>
    <i name="e_wo_entrp">    -36.75994662 </i>
    <i name="e_0_energy">    -36.73195892 </i>
   </energy>
  </scstep>
  <scstep>
   <time name="dav">    4.03    4.04</time>
   <time name="total">    7.06    7.07</time>
   <energy>
    <i name="e_fr_energy">    -36.71841407 </i>
    <i name="e_wo_entrp">    -36.76038036 </i>
    <i name="e_0_energy">    -36.73240283 </i>
   </energy>
  </scstep>
  <scstep>
   <time name="dav">    4.03    4.03</time>
   <time name="total">    7.09    7.10</time>
   <energy>
    <i name="e_fr_energy">    -36.71870453 </i>
    <i name="e_wo_entrp">    -36.76064777 </i>
    <i name="e_0_energy">    -36.73268561 </i>
   </energy>
  </scstep>
  <scstep>
   <time name="dav">    4.12    4.13</time>
   <time name="total">    7.23    7.25</time>
   <energy>
    <i name="e_fr_energy">    -36.71890001 </i>
    <i name="e_wo_entrp">    -36.76083884 </i>
    <i name="e_0_energy">    -36.73287962 </i>
   </energy>
  </scstep>
  <scstep>
   <time name="dav">    4.02    4.03</time>
   <time name="total">    6.20    6.22</time>
   <energy>
    <i name="alphaZ">      5.05286118 </i>
    <i name="ewald">  12047.55298377 </i>
    <i name="hartreedc"> -21105.45492226 </i>
    <i name="XCdc">     59.93946331 </i>
    <i name="pawpsdc">  10030.34239788 </i>
    <i name="pawaedc"> -10194.31914493 </i>
    <i name="eentropy">      0.04194070 </i>
    <i name="bandstr">   -584.83316536 </i>
    <i name="atom">   9704.95859309 </i>
    <i name="e_fr_energy">    -36.71899263 </i>
    <i name="e_wo_entrp">    -36.76093333 </i>
    <i name="e_0_energy">    -36.73297286 </i>
   </energy>
  </scstep>
  <structure>
   <crystal>
    <varray name="basis" >
     <v>      22.14783652       0.00000000       0.00000000 </v>
     <v>       0.00000000      22.06864480       0.00000000 </v>
     <v>       0.00000000       0.00000000      22.94599038 </v>
    </varray>
    <i name="volume">  11215.37452836 </i>
    <varray name="rec_basis" >
     <v>       0.04515114       0.00000000       0.00000000 </v>
     <v>       0.00000000       0.04531316       0.00000000 </v>
     <v>       0.00000000       0.00000000       0.04358060 </v>
    </varray>
   </crystal>
   <varray name="positions" >
    <v>       0.48616122       0.55011162       0.50921083 </v>
    <v>       0.56462437       0.51225434       0.44509009 </v>
    <v>       0.52024674       0.41413759       0.42024137 </v>
    <v>       0.51293387       0.59222623       0.60398459 </v>
    <v>       0.56101157       0.43355757       0.51830059 </v>
    <v>       0.45357789       0.44499684       0.50141502 </v>
    <v>       0.45780954       0.50887068       0.40981200 </v>
    <v>       0.59124612       0.53754944       0.54952387 </v>
    <v>       0.41005679       0.40586946       0.40986163 </v>
    <v>       0.49966101       0.48230057       0.59643719 </v>
   </varray>
  </structure>
  <varray name="forces" >
   <v>       0.29258845      -0.24965987      -0.05808151 </v>
   <v>      -0.28844030      -0.46013526       0.58692940 </v>
   <v>       0.01702075       0.53567344       0.82933302 </v>
   <v>      -0.16675454      -0.25040215      -0.55201019 </v>
   <v>      -0.46132344       0.17432444      -0.95087779 </v>
   <v>       0.73161165       0.02612820      -0.07107838 </v>
   <v>       0.32453512       0.88508224       0.11982427 </v>
   <v>       0.50098374       0.33293419      -0.33966079 </v>
   <v>      -0.28028205      -0.67303989       0.11621504 </v>
   <v>      -0.66993938      -0.32090534       0.31940694 </v>
  </varray>
  <energy>
   <i name="e_fr_energy">    -36.71899263 </i>
   <i name="e_wo_entrp">    -36.76093333 </i>
   <i name="e_0_energy">    -36.73297286 </i>
  </energy>
  <time name="totalsc">  346.08  346.88</time>
 </calculation>
 <calculation>
  <scstep>
   <time name="dav">    5.13    5.14</time>
   <time name="total">    7.87    7.89</time>
   <energy>
    <i name="alphaZ">      5.05286118 </i>
    <i name="ewald">  12145.77482648 </i>
    <i name="hartreedc"> -21203.04263069 </i>
    <i name="XCdc">     60.10507162 </i>
    <i name="pawpsdc">  10030.34200952 </i>
    <i name="pawaedc"> -10194.31882689 </i>
    <i name="eentropy">      0.05771109 </i>
    <i name="bandstr">   -585.75113742 </i>
    <i name="atom">   9704.95859309 </i>
    <i name="e_fr_energy">    -36.82152202 </i>
    <i name="e_wo_entrp">    -36.87923311 </i>
    <i name="e_0_energy">    -36.84075905 </i>
   </energy>
  </scstep>
  <scstep>
   <time name="dav">    7.03    7.04</time>
   <time name="total">    9.80    9.81</time>
   <energy>
    <i name="e_fr_energy">    -37.41109256 </i>
    <i name="e_wo_entrp">    -37.42735702 </i>
    <i name="e_0_energy">    -37.41651405 </i>
   </energy>
  </scstep>
  <scstep>
   <time name="dav">    5.89    5.90</time>
   <time name="total">    8.67    8.69</time>
   <energy>
    <i name="e_fr_energy">    -36.94045700 </i>
    <i name="e_wo_entrp">    -36.98575258 </i>
    <i name="e_0_energy">    -36.95555553 </i>
   </energy>
  </scstep>
  <scstep>
   <time name="dav">    6.56    6.56</time>
   <time name="total">    9.29    9.30</time>
   <energy>
    <i name="e_fr_energy">    -36.96119602 </i>
    <i name="e_wo_entrp">    -37.00484859 </i>
    <i name="e_0_energy">    -36.97574688 </i>
   </energy>
  </scstep>
  <scstep>
   <time name="dav">    6.49    6.50</time>
   <time name="total">    9.28    9.29</time>
   <energy>
    <i name="e_fr_energy">    -36.97945172 </i>
    <i name="e_wo_entrp">    -37.05281590 </i>
    <i name="e_0_energy">    -37.00390645 </i>
   </energy>
  </scstep>
  <scstep>
   <time name="dav">    6.22    6.23</time>
   <time name="total">    9.00    9.02</time>
   <energy>
    <i name="e_fr_energy">    -36.93692650 </i>
    <i name="e_wo_entrp">    -36.97543265 </i>
    <i name="e_0_energy">    -36.94976188 </i>
   </energy>
  </scstep>
  <scstep>
   <time name="dav">    6.08    6.09</time>
   <time name="total">    8.83    8.84</time>
   <energy>
    <i name="e_fr_energy">    -36.93972032 </i>
    <i name="e_wo_entrp">    -36.99078480 </i>
    <i name="e_0_energy">    -36.95674181 </i>
   </energy>
  </scstep>
  <scstep>
   <time name="dav">    7.02    7.03</time>
   <time name="total">    9.77    9.79</time>
   <energy>
    <i name="e_fr_energy">    -36.94852853 </i>
    <i name="e_wo_entrp">    -36.99959466 </i>
    <i name="e_0_energy">    -36.96555057 </i>
   </energy>
  </scstep>
  <scstep>
   <time name="dav">    6.15    6.16</time>
   <time name="total">    8.91    8.93</time>
   <energy>
    <i name="e_fr_energy">    -36.95251604 </i>
    <i name="e_wo_entrp">    -37.00231714 </i>
    <i name="e_0_energy">    -36.96911640 </i>
   </energy>
  </scstep>
  <scstep>
   <time name="dav">    6.90    6.91</time>
   <time name="total">    9.71    9.72</time>
   <energy>
    <i name="e_fr_energy">    -36.94757855 </i>
    <i name="e_wo_entrp">    -37.00142601 </i>
    <i name="e_0_energy">    -36.96552770 </i>
   </energy>
  </scstep>
  <scstep>
   <time name="dav">    6.65    6.67</time>
   <time name="total">    9.46    9.47</time>
   <energy>
    <i name="e_fr_energy">    -36.95196905 </i>
    <i name="e_wo_entrp">    -37.00477203 </i>
    <i name="e_0_energy">    -36.96957004 </i>
   </energy>
  </scstep>
  <scstep>
   <time name="dav">    6.61    6.61</time>
   <time name="total">    9.44    9.45</time>
   <energy>
    <i name="e_fr_energy">    -36.94787888 </i>
    <i name="e_wo_entrp">    -37.00048545 </i>
    <i name="e_0_energy">    -36.96541440 </i>
   </energy>
  </scstep>
  <scstep>
   <time name="dav">    6.62    6.62</time>
   <time name="total">    9.42    9.43</time>
   <energy>
    <i name="e_fr_energy">    -36.94923983 </i>
    <i name="e_wo_entrp">    -37.00100948 </i>
    <i name="e_0_energy">    -36.96649638 </i>
   </energy>
  </scstep>
  <scstep>
   <time name="dav">    4.60    4.60</time>
   <time name="total">    7.37    7.38</time>
   <energy>
    <i name="e_fr_energy">    -36.95009310 </i>
    <i name="e_wo_entrp">    -37.00208323 </i>
    <i name="e_0_energy">    -36.96742314 </i>
   </energy>
  </scstep>
  <scstep>
   <time name="dav">    4.15    4.16</time>
   <time name="total">    6.99    7.00</time>
   <energy>
    <i name="e_fr_energy">    -36.95052672 </i>
    <i name="e_wo_entrp">    -37.00265845 </i>
    <i name="e_0_energy">    -36.96790396 </i>
   </energy>
  </scstep>
  <scstep>
   <time name="dav">    4.26    4.27</time>
   <time name="total">    7.13    7.14</time>
   <energy>
    <i name="e_fr_energy">    -36.95083451 </i>
    <i name="e_wo_entrp">    -37.00267669 </i>
    <i name="e_0_energy">    -36.96811524 </i>
   </energy>
  </scstep>
  <scstep>
   <time name="dav">    4.03    4.04</time>
   <time name="total">    6.91    6.91</time>
   <energy>
    <i name="e_fr_energy">    -36.95115958 </i>
    <i name="e_wo_entrp">    -37.00308382 </i>
    <i name="e_0_energy">    -36.96846766 </i>
   </energy>
  </scstep>
  <scstep>
   <time name="dav">    4.15    4.16</time>
   <time name="total">    7.00    7.01</time>
   <energy>
    <i name="e_fr_energy">    -36.95148888 </i>
    <i name="e_wo_entrp">    -37.00355972 </i>
    <i name="e_0_energy">    -36.96884583 </i>
   </energy>
  </scstep>
  <scstep>
   <time name="dav">    4.16    4.16</time>
   <time name="total">    7.05    7.06</time>
   <energy>
    <i name="e_fr_energy">    -36.95171165 </i>
    <i name="e_wo_entrp">    -37.00378427 </i>
    <i name="e_0_energy">    -36.96906919 </i>
   </energy>
  </scstep>
  <scstep>
   <time name="dav">    3.91    3.92</time>
   <time name="total">    6.74    6.75</time>
   <energy>
    <i name="e_fr_energy">    -36.95192590 </i>
    <i name="e_wo_entrp">    -37.00396750 </i>
    <i name="e_0_energy">    -36.96927310 </i>
   </energy>
  </scstep>
  <scstep>
   <time name="dav">    4.07    4.07</time>
   <time name="total">    6.93    6.94</time>
   <energy>
    <i name="e_fr_energy">    -36.95208204 </i>
    <i name="e_wo_entrp">    -37.00415069 </i>
    <i name="e_0_energy">    -36.96943826 </i>
   </energy>
  </scstep>
  <scstep>
   <time name="dav">    3.92    3.93</time>
   <time name="total">    6.84    6.84</time>
   <energy>
    <i name="e_fr_energy">    -36.95221723 </i>
    <i name="e_wo_entrp">    -37.00428595 </i>
    <i name="e_0_energy">    -36.96957347 </i>
   </energy>
  </scstep>
  <scstep>
   <time name="dav">    3.93    3.94</time>
   <time name="total">    6.85    6.86</time>
   <energy>
    <i name="e_fr_energy">    -36.95239367 </i>
    <i name="e_wo_entrp">    -37.00449231 </i>
    <i name="e_0_energy">    -36.96975988 </i>
   </energy>
  </scstep>
  <scstep>
   <time name="dav">    3.93    3.93</time>
   <time name="total">    6.85    6.87</time>
   <energy>
    <i name="e_fr_energy">    -36.95253729 </i>
    <i name="e_wo_entrp">    -37.00464235 </i>
    <i name="e_0_energy">    -36.96990564 </i>
   </energy>
  </scstep>
  <scstep>
   <time name="dav">    3.94    3.94</time>
   <time name="total">    6.88    6.89</time>
   <energy>
    <i name="e_fr_energy">    -36.95266262 </i>
    <i name="e_wo_entrp">    -37.00477299 </i>
    <i name="e_0_energy">    -36.97003274 </i>
   </energy>
  </scstep>
  <scstep>
   <time name="dav">    3.94    3.95</time>
   <time name="total">    6.14    6.15</time>
   <energy>
    <i name="alphaZ">      5.05286118 </i>
    <i name="ewald">  12145.77482648 </i>
    <i name="hartreedc"> -21202.14368747 </i>
    <i name="XCdc">     60.01640260 </i>
    <i name="pawpsdc">  10049.23329921 </i>
    <i name="pawaedc"> -10213.21834651 </i>
    <i name="eentropy">      0.05211280 </i>
    <i name="bandstr">   -586.67881965 </i>
    <i name="atom">   9704.95859309 </i>
    <i name="e_fr_energy">    -36.95275828 </i>
    <i name="e_wo_entrp">    -37.00487108 </i>
    <i name="e_0_energy">    -36.97012921 </i>
   </energy>
  </scstep>
  <structure>
   <crystal>
    <varray name="basis" >
     <v>      22.14783652       0.00000000       0.00000000 </v>
     <v>       0.00000000      22.06864480       0.00000000 </v>
     <v>       0.00000000       0.00000000      22.94599038 </v>
    </varray>
    <i name="volume">  11215.37452836 </i>
    <varray name="rec_basis" >
     <v>       0.04515114       0.00000000       0.00000000 </v>
     <v>       0.00000000       0.04531316       0.00000000 </v>
     <v>       0.00000000       0.00000000       0.04358060 </v>
    </varray>
   </crystal>
   <varray name="positions" >
    <v>       0.48679854       0.54956586       0.50908871 </v>
    <v>       0.56399609       0.51124847       0.44632407 </v>
    <v>       0.52028382       0.41530859       0.42198499 </v>
    <v>       0.51257064       0.59167885       0.60282402 </v>
    <v>       0.56000671       0.43393865       0.51630142 </v>
    <v>       0.45517150       0.44505396       0.50126558 </v>
    <v>       0.45851645       0.51080550       0.41006392 </v>
    <v>       0.59233737       0.53827724       0.54880975 </v>
    <v>       0.40944628       0.40439818       0.41010597 </v>
    <v>       0.49820174       0.48159906       0.59710873 </v>
   </varray>
  </structure>
  <varray name="forces" >
   <v>       0.22328911      -0.20663100       0.01930740 </v>
   <v>      -0.05976024      -0.18397586       0.33742518 </v>
   <v>      -0.17741179       0.29911860       0.46993189 </v>
   <v>      -0.13326685      -0.28112388      -0.50680739 </v>
   <v>      -0.24476704       0.15791965      -0.39073572 </v>
   <v>       0.39416798      -0.01937244      -0.12221371 </v>
   <v>      -0.00073844       0.43835869       0.02773026 </v>
   <v>       0.26042646       0.14363955      -0.16352959 </v>
   <v>       0.09275794      -0.17824829       0.20615854 </v>
   <v>      -0.35469714      -0.16968502       0.12273314 </v>
  </varray>
  <energy>
   <i name="e_fr_energy">    -36.95275828 </i>
   <i name="e_wo_entrp">    -37.00487108 </i>
   <i name="e_0_energy">    -36.97012921 </i>
  </energy>
  <time name="totalsc">  217.73  218.07</time>
 </calculation>
 <calculation>
  <scstep>
   <time name="dav">    5.14    5.14</time>
   <time name="total">    8.03    8.04</time>
   <energy>
    <i name="alphaZ">      5.05286118 </i>
    <i name="ewald">  12241.39925582 </i>
    <i name="hartreedc"> -21296.40614539 </i>
    <i name="XCdc">     60.21083307 </i>
    <i name="pawpsdc">  10049.23143025 </i>
    <i name="pawaedc"> -10213.21595074 </i>
    <i name="eentropy">      0.05914539 </i>
    <i name="bandstr">   -588.19683026 </i>
    <i name="atom">   9704.95859309 </i>
    <i name="e_fr_energy">    -36.90680758 </i>
    <i name="e_wo_entrp">    -36.96595297 </i>
    <i name="e_0_energy">    -36.92652271 </i>
   </energy>
  </scstep>
  <scstep>
   <time name="dav">    7.01    7.02</time>
   <time name="total">    9.75    9.77</time>
   <energy>
    <i name="e_fr_energy">    -37.40118072 </i>
    <i name="e_wo_entrp">    -37.43663384 </i>
    <i name="e_0_energy">    -37.41299842 </i>
   </energy>
  </scstep>
  <scstep>
   <time name="dav">    5.85    5.86</time>
   <time name="total">    8.59    8.61</time>
   <energy>
    <i name="e_fr_energy">    -36.99764822 </i>
    <i name="e_wo_entrp">    -37.05961642 </i>
    <i name="e_0_energy">    -37.01830428 </i>
   </energy>
  </scstep>
  <scstep>
   <time name="dav">    6.64    6.65</time>
   <time name="total">    9.36    9.38</time>
   <energy>
    <i name="e_fr_energy">    -37.04260680 </i>
    <i name="e_wo_entrp">    -37.07060091 </i>
    <i name="e_0_energy">    -37.05193817 </i>
   </energy>
  </scstep>
  <scstep>
   <time name="dav">    6.33    6.34</time>
   <time name="total">    9.08    9.10</time>
   <energy>
    <i name="e_fr_energy">    -37.02895109 </i>
    <i name="e_wo_entrp">    -37.09722818 </i>
    <i name="e_0_energy">    -37.05171012 </i>
   </energy>
  </scstep>
  <scstep>
   <time name="dav">    6.34    6.34</time>
   <time name="total">    9.10    9.11</time>
   <energy>
    <i name="e_fr_energy">    -37.01995495 </i>
    <i name="e_wo_entrp">    -37.06114648 </i>
    <i name="e_0_energy">    -37.03368546 </i>
   </energy>
  </scstep>
  <scstep>
   <time name="dav">    6.47    6.47</time>
   <time name="total">    9.24    9.25</time>
   <energy>
    <i name="e_fr_energy">    -37.01208223 </i>
    <i name="e_wo_entrp">    -37.06157033 </i>
    <i name="e_0_energy">    -37.02857827 </i>
   </energy>
  </scstep>
  <scstep>
   <time name="dav">    7.03    7.04</time>
   <time name="total">    9.78    9.80</time>
   <energy>
    <i name="e_fr_energy">    -37.02424333 </i>
    <i name="e_wo_entrp">    -37.07853305 </i>
    <i name="e_0_energy">    -37.04233990 </i>
   </energy>
  </scstep>
  <scstep>
   <time name="dav">    6.32    6.33</time>
   <time name="total">    9.08    9.09</time>
   <energy>
    <i name="e_fr_energy">    -37.01881523 </i>
    <i name="e_wo_entrp">    -37.06741999 </i>
    <i name="e_0_energy">    -37.03501682 </i>
   </energy>
  </scstep>
  <scstep>
   <time name="dav">    7.02    7.03</time>
   <time name="total">    9.82    9.83</time>
   <energy>
    <i name="e_fr_energy">    -37.02189368 </i>
    <i name="e_wo_entrp">    -37.07422760 </i>
    <i name="e_0_energy">    -37.03933832 </i>
   </energy>
  </scstep>
  <scstep>
   <time name="dav">    6.52    6.53</time>
   <time name="total">    9.35    9.36</time>
   <energy>
    <i name="e_fr_energy">    -37.02208043 </i>
    <i name="e_wo_entrp">    -37.07617732 </i>
    <i name="e_0_energy">    -37.04011273 </i>
   </energy>
  </scstep>
  <scstep>
   <time name="dav">    6.68    6.69</time>
   <time name="total">    9.48    9.49</time>
   <energy>
    <i name="e_fr_energy">    -37.02023077 </i>
    <i name="e_wo_entrp">    -37.07206162 </i>
    <i name="e_0_energy">    -37.03750772 </i>
   </energy>
  </scstep>
  <scstep>
   <time name="dav">    6.40    6.41</time>
   <time name="total">    9.18    9.20</time>
   <energy>
    <i name="e_fr_energy">    -37.02075935 </i>
    <i name="e_wo_entrp">    -37.07087985 </i>
    <i name="e_0_energy">    -37.03746618 </i>
   </energy>
  </scstep>
  <scstep>
   <time name="dav">    4.39    4.39</time>
   <time name="total">    7.21    7.23</time>
   <energy>
    <i name="e_fr_energy">    -37.02164315 </i>
    <i name="e_wo_entrp">    -37.07232565 </i>
    <i name="e_0_energy">    -37.03853732 </i>
   </energy>
  </scstep>
  <scstep>
   <time name="dav">    4.16    4.17</time>
   <time name="total">    6.99    7.00</time>
   <energy>
    <i name="e_fr_energy">    -37.02192887 </i>
    <i name="e_wo_entrp">    -37.07252353 </i>
    <i name="e_0_energy">    -37.03879376 </i>
   </energy>
  </scstep>
  <scstep>
   <time name="dav">    4.05    4.05</time>
   <time name="total">    6.89    6.90</time>
   <energy>
    <i name="e_fr_energy">    -37.02214607 </i>
    <i name="e_wo_entrp">    -37.07256491 </i>
    <i name="e_0_energy">    -37.03895235 </i>
   </energy>
  </scstep>
  <scstep>
   <time name="dav">    4.03    4.03</time>
   <time name="total">    6.90    6.91</time>
   <energy>
    <i name="e_fr_energy">    -37.02236136 </i>
    <i name="e_wo_entrp">    -37.07283607 </i>
    <i name="e_0_energy">    -37.03918626 </i>
   </energy>
  </scstep>
  <scstep>
   <time name="dav">    3.93    3.94</time>
   <time name="total">    6.78    6.79</time>
   <energy>
    <i name="e_fr_energy">    -37.02258670 </i>
    <i name="e_wo_entrp">    -37.07309243 </i>
    <i name="e_0_energy">    -37.03942195 </i>
   </energy>
  </scstep>
  <scstep>
   <time name="dav">    4.03    4.03</time>
   <time name="total">    6.89    6.90</time>
   <energy>
    <i name="e_fr_energy">    -37.02278364 </i>
    <i name="e_wo_entrp">    -37.07332138 </i>
    <i name="e_0_energy">    -37.03962955 </i>
   </energy>
  </scstep>
  <scstep>
   <time name="dav">    4.16    4.16</time>
   <time name="total">    7.03    7.05</time>
   <energy>
    <i name="e_fr_energy">    -37.02293134 </i>
    <i name="e_wo_entrp">    -37.07341294 </i>
    <i name="e_0_energy">    -37.03975854 </i>
   </energy>
  </scstep>
  <scstep>
   <time name="dav">    4.05    4.05</time>
   <time name="total">    6.95    6.96</time>
   <energy>
    <i name="e_fr_energy">    -37.02304756 </i>
    <i name="e_wo_entrp">    -37.07355624 </i>
    <i name="e_0_energy">    -37.03988379 </i>
   </energy>
  </scstep>
  <scstep>
   <time name="dav">    3.92    3.93</time>
   <time name="total">    6.83    6.83</time>
   <energy>
    <i name="e_fr_energy">    -37.02317952 </i>
    <i name="e_wo_entrp">    -37.07369035 </i>
    <i name="e_0_energy">    -37.04001646 </i>
   </energy>
  </scstep>
  <scstep>
   <time name="dav">    3.94    3.95</time>
   <time name="total">    6.85    6.86</time>
   <energy>
    <i name="e_fr_energy">    -37.02330765 </i>
    <i name="e_wo_entrp">    -37.07384489 </i>
    <i name="e_0_energy">    -37.04015340 </i>
   </energy>
  </scstep>
  <scstep>
   <time name="dav">    3.94    3.95</time>
   <time name="total">    6.87    6.88</time>
   <energy>
    <i name="e_fr_energy">    -37.02341349 </i>
    <i name="e_wo_entrp">    -37.07394773 </i>
    <i name="e_0_energy">    -37.04025823 </i>
   </energy>
  </scstep>
  <scstep>
   <time name="dav">    3.93    3.94</time>
   <time name="total">    6.88    6.88</time>
   <energy>
    <i name="e_fr_energy">    -37.02354011 </i>
    <i name="e_wo_entrp">    -37.07407421 </i>
    <i name="e_0_energy">    -37.04038481 </i>
   </energy>
  </scstep>
  <scstep>
   <time name="dav">    4.08    4.08</time>
   <time name="total">    6.29    6.29</time>
   <energy>
    <i name="alphaZ">      5.05286118 </i>
    <i name="ewald">  12241.39925582 </i>
    <i name="hartreedc"> -21295.64096185 </i>
    <i name="XCdc">     60.13408794 </i>
    <i name="pawpsdc">  10081.79482485 </i>
    <i name="pawaedc"> -10245.96625032 </i>
    <i name="eentropy">      0.05054087 </i>
    <i name="bandstr">   -588.80657282 </i>
    <i name="atom">   9704.95859309 </i>
    <i name="e_fr_energy">    -37.02362123 </i>
    <i name="e_wo_entrp">    -37.07416210 </i>
    <i name="e_0_energy">    -37.04046818 </i>
   </energy>
  </scstep>
  <structure>
   <crystal>
    <varray name="basis" >
     <v>      22.14783652       0.00000000       0.00000000 </v>
     <v>       0.00000000      22.06864480       0.00000000 </v>
     <v>       0.00000000       0.00000000      22.94599038 </v>
    </varray>
    <i name="volume">  11215.37452836 </i>
    <varray name="rec_basis" >
     <v>       0.04515114       0.00000000       0.00000000 </v>
     <v>       0.00000000       0.04531316       0.00000000 </v>
     <v>       0.00000000       0.00000000       0.04358060 </v>
    </varray>
   </crystal>
   <varray name="positions" >
    <v>       0.48738930       0.54905996       0.50897552 </v>
    <v>       0.56341371       0.51031609       0.44746791 </v>
    <v>       0.52031818       0.41639404       0.42360124 </v>
    <v>       0.51223395       0.59117145       0.60174823 </v>
    <v>       0.55907526       0.43429189       0.51444831 </v>
    <v>       0.45664868       0.44510690       0.50112706 </v>
    <v>       0.45917171       0.51259896       0.41029744 </v>
    <v>       0.59334889       0.53895187       0.54814781 </v>
    <v>       0.40888037       0.40303438       0.41033245 </v>
    <v>       0.49684908       0.48094881       0.59773120 </v>
   </varray>
  </structure>
  <varray name="forces" >
   <v>       0.14178168      -0.14914770       0.10033659 </v>
   <v>       0.18378969       0.17935661       0.03022333 </v>
   <v>      -0.38571131       0.01239472      -0.06385113 </v>
   <v>      -0.10244719      -0.30257231      -0.45363615 </v>
   <v>       0.09694653       0.04619940       0.33130057 </v>
   <v>      -0.05636245      -0.03555827      -0.11093378 </v>
   <v>      -0.23667703       0.13406343      -0.06922551 </v>
   <v>       0.10463381       0.01360460      -0.02114015 </v>
   <v>       0.37554361       0.15777873       0.28854422 </v>
   <v>      -0.12149735      -0.05611922      -0.03161800 </v>
  </varray>
  <energy>
   <i name="e_fr_energy">    -37.02362123 </i>
   <i name="e_wo_entrp">    -37.07416210 </i>
   <i name="e_0_energy">    -37.04046818 </i>
  </energy>
  <time name="totalsc">  217.74  218.05</time>
 </calculation>
 <calculation>
  <scstep>
   <time name="dav">    5.17    5.18</time>
   <time name="total">    7.96    7.97</time>
   <energy>
    <i name="alphaZ">      5.05286118 </i>
    <i name="ewald">  12293.43706828 </i>
    <i name="hartreedc"> -21347.29105421 </i>
    <i name="XCdc">     60.25687636 </i>
    <i name="pawpsdc">  10081.79245120 </i>
    <i name="pawaedc"> -10245.96356806 </i>
    <i name="eentropy">      0.06228032 </i>
    <i name="bandstr">   -589.34651909 </i>
    <i name="atom">   9704.95859309 </i>
    <i name="e_fr_energy">    -37.04101092 </i>
    <i name="e_wo_entrp">    -37.10329124 </i>
    <i name="e_0_energy">    -37.06177103 </i>
   </energy>
  </scstep>
  <scstep>
   <time name="dav">    6.41    6.42</time>
   <time name="total">    9.14    9.15</time>
   <energy>
    <i name="e_fr_energy">    -37.71106301 </i>
    <i name="e_wo_entrp">    -37.73573414 </i>
    <i name="e_0_energy">    -37.71928672 </i>
   </energy>
  </scstep>
  <scstep>
   <time name="dav">    6.39    6.40</time>
   <time name="total">    9.16    9.18</time>
   <energy>
    <i name="e_fr_energy">    -37.01842742 </i>
    <i name="e_wo_entrp">    -37.06495631 </i>
    <i name="e_0_energy">    -37.03393705 </i>
   </energy>
  </scstep>
  <scstep>
   <time name="dav">    7.08    7.09</time>
   <time name="total">    9.82    9.83</time>
   <energy>
    <i name="e_fr_energy">    -37.04255361 </i>
    <i name="e_wo_entrp">    -37.08815158 </i>
    <i name="e_0_energy">    -37.05775293 </i>
   </energy>
  </scstep>
  <scstep>
   <time name="dav">    6.63    6.64</time>
   <time name="total">    9.40    9.41</time>
   <energy>
    <i name="e_fr_energy">    -37.07123738 </i>
    <i name="e_wo_entrp">    -37.13036394 </i>
    <i name="e_0_energy">    -37.09094623 </i>
   </energy>
  </scstep>
  <scstep>
   <time name="dav">    6.37    6.38</time>
   <time name="total">    9.18    9.19</time>
   <energy>
    <i name="e_fr_energy">    -37.07170796 </i>
    <i name="e_wo_entrp">    -37.11765984 </i>
    <i name="e_0_energy">    -37.08702525 </i>
   </energy>
  </scstep>
  <scstep>
   <time name="dav">    6.19    6.19</time>
   <time name="total">    8.91    8.92</time>
   <energy>
    <i name="e_fr_energy">    -37.06853866 </i>
    <i name="e_wo_entrp">    -37.12494091 </i>
    <i name="e_0_energy">    -37.08733941 </i>
   </energy>
  </scstep>
  <scstep>
   <time name="dav">    6.55    6.56</time>
   <time name="total">    9.29    9.30</time>
   <energy>
    <i name="e_fr_energy">    -37.06925222 </i>
    <i name="e_wo_entrp">    -37.12150002 </i>
    <i name="e_0_energy">    -37.08666816 </i>
   </energy>
  </scstep>
  <scstep>
   <time name="dav">    6.86    6.87</time>
   <time name="total">    9.60    9.61</time>
   <energy>
    <i name="e_fr_energy">    -37.06999183 </i>
    <i name="e_wo_entrp">    -37.12215789 </i>
    <i name="e_0_energy">    -37.08738052 </i>
   </energy>
  </scstep>
  <scstep>
   <time name="dav">    6.37    6.38</time>
   <time name="total">    9.12    9.14</time>
   <energy>
    <i name="e_fr_energy">    -37.07095045 </i>
    <i name="e_wo_entrp">    -37.12179729 </i>
    <i name="e_0_energy">    -37.08789940 </i>
   </energy>
  </scstep>
  <scstep>
   <time name="dav">    6.04    6.04</time>
   <time name="total">    8.83    8.84</time>
   <energy>
    <i name="e_fr_energy">    -37.07013491 </i>
    <i name="e_wo_entrp">    -37.12347040 </i>
    <i name="e_0_energy">    -37.08791341 </i>
   </energy>
  </scstep>
  <scstep>
   <time name="dav">    5.48    5.49</time>
   <time name="total">    8.32    8.34</time>
   <energy>
    <i name="e_fr_energy">    -37.07085236 </i>
    <i name="e_wo_entrp">    -37.12451183 </i>
    <i name="e_0_energy">    -37.08873885 </i>
   </energy>
  </scstep>
  <scstep>
   <time name="dav">    4.14    4.15</time>
   <time name="total">    6.33    6.34</time>
   <energy>
    <i name="alphaZ">      5.05286118 </i>
    <i name="ewald">  12293.43706828 </i>
    <i name="hartreedc"> -21346.59366530 </i>
    <i name="XCdc">     60.21665028 </i>
    <i name="pawpsdc">  10101.13712671 </i>
    <i name="pawaedc"> -10265.53906748 </i>
    <i name="eentropy">      0.05323185 </i>
    <i name="bandstr">   -589.79368439 </i>
    <i name="atom">   9704.95859309 </i>
    <i name="e_fr_energy">    -37.07088578 </i>
    <i name="e_wo_entrp">    -37.12411762 </i>
    <i name="e_0_energy">    -37.08862973 </i>
   </energy>
  </scstep>
  <structure>
   <crystal>
    <varray name="basis" >
     <v>      22.14783652       0.00000000       0.00000000 </v>
     <v>       0.00000000      22.06864480       0.00000000 </v>
     <v>       0.00000000       0.00000000      22.94599038 </v>
    </varray>
    <i name="volume">  11215.37452836 </i>
    <varray name="rec_basis" >
     <v>       0.04515114       0.00000000       0.00000000 </v>
     <v>       0.00000000       0.04531316       0.00000000 </v>
     <v>       0.00000000       0.00000000       0.04358060 </v>
    </varray>
   </crystal>
   <varray name="positions" >
    <v>       0.48789735       0.54855191       0.50919838 </v>
    <v>       0.56374830       0.51055679       0.44781811 </v>
    <v>       0.51933053       0.41668701       0.42383051 </v>
    <v>       0.51188852       0.59026546       0.60035915 </v>
    <v>       0.55910173       0.43449649       0.51482865 </v>
    <v>       0.45685814       0.44502748       0.50081730 </v>
    <v>       0.45871807       0.51337736       0.41018103 </v>
    <v>       0.59386215       0.53914925       0.54793604 </v>
    <v>       0.40971403       0.40311549       0.41110600 </v>
    <v>       0.49621030       0.48064712       0.59780200 </v>
   </varray>
  </structure>
  <varray name="forces" >
   <v>       0.05709490      -0.14079825      -0.03921029 </v>
   <v>       0.11201336       0.10992602      -0.06450537 </v>
   <v>      -0.14817101       0.06843114      -0.07755377 </v>
   <v>      -0.10171150      -0.16303735      -0.30523728 </v>
   <v>       0.09913134       0.03917659       0.27696790 </v>
   <v>      -0.10426105       0.00234304       0.04926880 </v>
   <v>      -0.13939640       0.12457558      -0.01489116 </v>
   <v>       0.14292562      -0.02727803       0.01509255 </v>
   <v>       0.17582329       0.09393727       0.18214043 </v>
   <v>      -0.09344855      -0.10727602      -0.02207181 </v>
  </varray>
  <energy>
   <i name="e_fr_energy">    -37.07088578 </i>
   <i name="e_wo_entrp">    -37.12411762 </i>
   <i name="e_0_energy">    -37.08862973 </i>
  </energy>
  <time name="totalsc">  123.42  123.62</time>
 </calculation>
 <calculation>
  <scstep>
   <time name="dav">    5.17    5.18</time>
   <time name="total">    7.92    7.93</time>
   <energy>
    <i name="alphaZ">      5.05286118 </i>
    <i name="ewald">  12443.07818053 </i>
    <i name="hartreedc"> -21494.58111013 </i>
    <i name="XCdc">     60.62900499 </i>
    <i name="pawpsdc">  10101.30801713 </i>
    <i name="pawaedc"> -10265.71409488 </i>
    <i name="eentropy">      0.07317383 </i>
    <i name="bandstr">   -591.56643885 </i>
    <i name="atom">   9704.95859309 </i>
    <i name="e_fr_energy">    -36.76181310 </i>
    <i name="e_wo_entrp">    -36.83498694 </i>
    <i name="e_0_energy">    -36.78620438 </i>
   </energy>
  </scstep>
  <scstep>
   <time name="dav">    6.10    6.11</time>
   <time name="total">    8.81    8.82</time>
   <energy>
    <i name="e_fr_energy">    -40.67104709 </i>
    <i name="e_wo_entrp">    -40.71611011 </i>
    <i name="e_0_energy">    -40.68606809 </i>
   </energy>
  </scstep>
  <scstep>
   <time name="dav">    6.02    6.03</time>
   <time name="total">    8.75    8.77</time>
   <energy>
    <i name="e_fr_energy">    -38.01186601 </i>
    <i name="e_wo_entrp">    -38.03032867 </i>
    <i name="e_0_energy">    -38.01802023 </i>
   </energy>
  </scstep>
  <scstep>
   <time name="dav">    6.42    6.44</time>
   <time name="total">    9.16    9.19</time>
   <energy>
    <i name="e_fr_energy">    -36.95784929 </i>
    <i name="e_wo_entrp">    -36.98059352 </i>
    <i name="e_0_energy">    -36.96543070 </i>
   </energy>
  </scstep>
  <scstep>
   <time name="dav">    6.96    6.97</time>
   <time name="total">    9.72    9.73</time>
   <energy>
    <i name="e_fr_energy">    -37.03998029 </i>
    <i name="e_wo_entrp">    -37.06570473 </i>
    <i name="e_0_energy">    -37.04855510 </i>
   </energy>
  </scstep>
  <scstep>
   <time name="dav">    6.49    6.49</time>
   <time name="total">    9.22    9.23</time>
   <energy>
    <i name="e_fr_energy">    -37.07685110 </i>
    <i name="e_wo_entrp">    -37.13544233 </i>
    <i name="e_0_energy">    -37.09638151 </i>
   </energy>
  </scstep>
  <scstep>
   <time name="dav">    6.31    6.32</time>
   <time name="total">    9.05    9.07</time>
   <energy>
    <i name="e_fr_energy">    -37.02662376 </i>
    <i name="e_wo_entrp">    -37.07367432 </i>
    <i name="e_0_energy">    -37.04230728 </i>
   </energy>
  </scstep>
  <scstep>
   <time name="dav">    6.98    6.99</time>
   <time name="total">    9.74    9.76</time>
   <energy>
    <i name="e_fr_energy">    -37.04323654 </i>
    <i name="e_wo_entrp">    -37.10206303 </i>
    <i name="e_0_energy">    -37.06284537 </i>
   </energy>
  </scstep>
  <scstep>
   <time name="dav">    6.67    6.67</time>
   <time name="total">    9.44    9.45</time>
   <energy>
    <i name="e_fr_energy">    -37.03858537 </i>
    <i name="e_wo_entrp">    -37.07625573 </i>
    <i name="e_0_energy">    -37.05114216 </i>
   </energy>
  </scstep>
  <scstep>
   <time name="dav">    6.75    6.76</time>
   <time name="total">    9.55    9.56</time>
   <energy>
    <i name="e_fr_energy">    -37.04429012 </i>
    <i name="e_wo_entrp">    -37.08638062 </i>
    <i name="e_0_energy">    -37.05832029 </i>
   </energy>
  </scstep>
  <scstep>
   <time name="dav">    6.48    6.49</time>
   <time name="total">    9.30    9.31</time>
   <energy>
    <i name="e_fr_energy">    -37.04026782 </i>
    <i name="e_wo_entrp">    -37.08936528 </i>
    <i name="e_0_energy">    -37.05663364 </i>
   </energy>
  </scstep>
  <scstep>
   <time name="dav">    6.90    6.91</time>
   <time name="total">    9.67    9.68</time>
   <energy>
    <i name="e_fr_energy">    -37.04227317 </i>
    <i name="e_wo_entrp">    -37.09602017 </i>
    <i name="e_0_energy">    -37.06018884 </i>
   </energy>
  </scstep>
  <scstep>
   <time name="dav">    6.63    6.63</time>
   <time name="total">    9.45    9.46</time>
   <energy>
    <i name="e_fr_energy">    -37.04187083 </i>
    <i name="e_wo_entrp">    -37.09243955 </i>
    <i name="e_0_energy">    -37.05872707 </i>
   </energy>
  </scstep>
  <scstep>
   <time name="dav">    5.37    5.38</time>
   <time name="total">    8.20    8.21</time>
   <energy>
    <i name="e_fr_energy">    -37.04228576 </i>
    <i name="e_wo_entrp">    -37.09200661 </i>
    <i name="e_0_energy">    -37.05885938 </i>
   </energy>
  </scstep>
  <scstep>
   <time name="dav">    4.16    4.17</time>
   <time name="total">    7.01    7.02</time>
   <energy>
    <i name="e_fr_energy">    -37.04293950 </i>
    <i name="e_wo_entrp">    -37.09124409 </i>
    <i name="e_0_energy">    -37.05904103 </i>
   </energy>
  </scstep>
  <scstep>
   <time name="dav">    4.36    4.36</time>
   <time name="total">    7.19    7.20</time>
   <energy>
    <i name="e_fr_energy">    -37.04361742 </i>
    <i name="e_wo_entrp">    -37.09227166 </i>
    <i name="e_0_energy">    -37.05983550 </i>
   </energy>
  </scstep>
  <scstep>
   <time name="dav">    4.03    4.03</time>
   <time name="total">    6.85    6.86</time>
   <energy>
    <i name="e_fr_energy">    -37.04392981 </i>
    <i name="e_wo_entrp">    -37.09238176 </i>
    <i name="e_0_energy">    -37.06008046 </i>
   </energy>
  </scstep>
  <scstep>
   <time name="dav">    4.14    4.15</time>
   <time name="total">    6.97    6.99</time>
   <energy>
    <i name="e_fr_energy">    -37.04424939 </i>
    <i name="e_wo_entrp">    -37.09289566 </i>
    <i name="e_0_energy">    -37.06046481 </i>
   </energy>
  </scstep>
  <scstep>
   <time name="dav">    4.13    4.14</time>
   <time name="total">    6.97    6.98</time>
   <energy>
    <i name="e_fr_energy">    -37.04456875 </i>
    <i name="e_wo_entrp">    -37.09292120 </i>
    <i name="e_0_energy">    -37.06068623 </i>
   </energy>
  </scstep>
  <scstep>
   <time name="dav">    4.15    4.16</time>
   <time name="total">    7.01    7.03</time>
   <energy>
    <i name="e_fr_energy">    -37.04485805 </i>
    <i name="e_wo_entrp">    -37.09336768 </i>
    <i name="e_0_energy">    -37.06102792 </i>
   </energy>
  </scstep>
  <scstep>
   <time name="dav">    4.04    4.04</time>
   <time name="total">    6.92    6.92</time>
   <energy>
    <i name="e_fr_energy">    -37.04510038 </i>
    <i name="e_wo_entrp">    -37.09361379 </i>
    <i name="e_0_energy">    -37.06127151 </i>
   </energy>
  </scstep>
  <scstep>
   <time name="dav">    4.04    4.05</time>
   <time name="total">    6.93    6.94</time>
   <energy>
    <i name="e_fr_energy">    -37.04529647 </i>
    <i name="e_wo_entrp">    -37.09388856 </i>
    <i name="e_0_energy">    -37.06149383 </i>
   </energy>
  </scstep>
  <scstep>
   <time name="dav">    3.94    3.94</time>
   <time name="total">    6.86    6.88</time>
   <energy>
    <i name="e_fr_energy">    -37.04553462 </i>
    <i name="e_wo_entrp">    -37.09407156 </i>
    <i name="e_0_energy">    -37.06171360 </i>
   </energy>
  </scstep>
  <scstep>
   <time name="dav">    4.05    4.05</time>
   <time name="total">    6.94    6.95</time>
   <energy>
    <i name="e_fr_energy">    -37.04579307 </i>
    <i name="e_wo_entrp">    -37.09434908 </i>
    <i name="e_0_energy">    -37.06197841 </i>
   </energy>
  </scstep>
  <scstep>
   <time name="dav">    4.03    4.03</time>
   <time name="total">    6.95    6.97</time>
   <energy>
    <i name="e_fr_energy">    -37.04609244 </i>
    <i name="e_wo_entrp">    -37.09465399 </i>
    <i name="e_0_energy">    -37.06227962 </i>
   </energy>
  </scstep>
  <scstep>
   <time name="dav">    4.00    4.01</time>
   <time name="total">    6.94    6.96</time>
   <energy>
    <i name="e_fr_energy">    -37.04629048 </i>
    <i name="e_wo_entrp">    -37.09487333 </i>
    <i name="e_0_energy">    -37.06248476 </i>
   </energy>
  </scstep>
  <scstep>
   <time name="dav">    4.04    4.05</time>
   <time name="total">    7.03    7.04</time>
   <energy>
    <i name="e_fr_energy">    -37.04644721 </i>
    <i name="e_wo_entrp">    -37.09503749 </i>
    <i name="e_0_energy">    -37.06264397 </i>
   </energy>
  </scstep>
  <scstep>
   <time name="dav">    3.92    3.93</time>
   <time name="total">    6.91    6.92</time>
   <energy>
    <i name="e_fr_energy">    -37.04660547 </i>
    <i name="e_wo_entrp">    -37.09520308 </i>
    <i name="e_0_energy">    -37.06280467 </i>
   </energy>
  </scstep>
  <scstep>
   <time name="dav">    4.04    4.05</time>
   <time name="total">    7.04    7.05</time>
   <energy>
    <i name="e_fr_energy">    -37.04672329 </i>
    <i name="e_wo_entrp">    -37.09532989 </i>
    <i name="e_0_energy">    -37.06292549 </i>
   </energy>
  </scstep>
  <scstep>
   <time name="dav">    3.92    3.93</time>
   <time name="total">    6.10    6.11</time>
   <energy>
    <i name="alphaZ">      5.05286118 </i>
    <i name="ewald">  12443.07818053 </i>
    <i name="hartreedc"> -21491.91568435 </i>
    <i name="XCdc">     60.48228185 </i>
    <i name="pawpsdc">  10169.90986235 </i>
    <i name="pawaedc"> -10335.16990733 </i>
    <i name="eentropy">      0.04861022 </i>
    <i name="bandstr">   -593.49159068 </i>
    <i name="atom">   9704.95859309 </i>
    <i name="e_fr_energy">    -37.04679314 </i>
    <i name="e_wo_entrp">    -37.09540336 </i>
    <i name="e_0_energy">    -37.06299655 </i>
   </energy>
  </scstep>
  <structure>
   <crystal>
    <varray name="basis" >
     <v>      22.14783652       0.00000000       0.00000000 </v>
     <v>       0.00000000      22.06864480       0.00000000 </v>
     <v>       0.00000000       0.00000000      22.94599038 </v>
    </varray>
    <i name="volume">  11215.37452836 </i>
    <varray name="rec_basis" >
     <v>       0.04515114       0.00000000       0.00000000 </v>
     <v>       0.00000000       0.04531316       0.00000000 </v>
     <v>       0.00000000       0.00000000       0.04358060 </v>
    </varray>
   </crystal>
   <varray name="positions" >
    <v>       0.48932446       0.54712478       0.50982438 </v>
    <v>       0.56468816       0.51123290       0.44880183 </v>
    <v>       0.51655623       0.41750995       0.42447455 </v>
    <v>       0.51091821       0.58772057       0.59645725 </v>
    <v>       0.55917611       0.43507122       0.51589700 </v>
    <v>       0.45744651       0.44480440       0.49994720 </v>
    <v>       0.45744382       0.51556384       0.40985405 </v>
    <v>       0.59530386       0.53970368       0.54734121 </v>
    <v>       0.41205577       0.40334332       0.41327885 </v>
    <v>       0.49441600       0.47979968       0.59800085 </v>
   </varray>
  </structure>
  <varray name="forces" >
   <v>      -0.23636229      -0.20288953      -0.60614637 </v>
   <v>      -0.06177442      -0.08455337      -0.34791023 </v>
   <v>       0.81886226       0.23149182      -0.21239148 </v>
   <v>      -0.08367883       0.34080477       0.29918294 </v>
   <v>       0.10797109       0.02401212       0.13082086 </v>
   <v>      -0.27675456       0.19902966       0.67025721 </v>
   <v>       0.11474053       0.04967370       0.14783896 </v>
   <v>       0.30084510      -0.12584634       0.12238529 </v>
   <v>      -0.64944420      -0.15980378      -0.23520121 </v>
   <v>      -0.03440467      -0.27191905       0.03116403 </v>
  </varray>
  <energy>
   <i name="e_fr_energy">    -37.04679314 </i>
   <i name="e_wo_entrp">    -37.09540336 </i>
   <i name="e_0_energy">    -37.06299655 </i>
  </energy>
  <time name="totalsc">  247.21  247.62</time>
 </calculation>
 <calculation>
  <scstep>
   <time name="dav">    5.17    5.18</time>
   <time name="total">    7.95    7.96</time>
   <energy>
    <i name="alphaZ">      5.05286118 </i>
    <i name="ewald">  12349.54130451 </i>
    <i name="hartreedc"> -21399.90600269 </i>
    <i name="XCdc">     60.26860561 </i>
    <i name="pawpsdc">  10169.91464830 </i>
    <i name="pawaedc"> -10335.17440855 </i>
    <i name="eentropy">      0.03923926 </i>
    <i name="bandstr">   -591.68267043 </i>
    <i name="atom">   9704.95859309 </i>
    <i name="e_fr_energy">    -36.98782972 </i>
    <i name="e_wo_entrp">    -37.02706898 </i>
    <i name="e_0_energy">    -37.00090947 </i>
   </energy>
  </scstep>
  <scstep>
   <time name="dav">    7.27    7.28</time>
   <time name="total">   10.00   10.01</time>
   <energy>
    <i name="e_fr_energy">    -39.26468332 </i>
    <i name="e_wo_entrp">    -39.21125700 </i>
    <i name="e_0_energy">    -39.24687455 </i>
   </energy>
  </scstep>
  <scstep>
   <time name="dav">    6.11    6.12</time>
   <time name="total">    8.86    8.87</time>
   <energy>
    <i name="e_fr_energy">    -37.02043880 </i>
    <i name="e_wo_entrp">    -37.04622988 </i>
    <i name="e_0_energy">    -37.02903583 </i>
   </energy>
  </scstep>
  <scstep>
   <time name="dav">    6.91    6.92</time>
   <time name="total">    9.70    9.71</time>
   <energy>
    <i name="e_fr_energy">    -37.12638013 </i>
    <i name="e_wo_entrp">    -37.16640257 </i>
    <i name="e_0_energy">    -37.13972094 </i>
   </energy>
  </scstep>
  <scstep>
   <time name="dav">    6.81    6.81</time>
   <time name="total">    9.60    9.61</time>
   <energy>
    <i name="e_fr_energy">    -37.09173171 </i>
    <i name="e_wo_entrp">    -37.11974648 </i>
    <i name="e_0_energy">    -37.10106997 </i>
   </energy>
  </scstep>
  <scstep>
   <time name="dav">    6.12    6.13</time>
   <time name="total">    8.89    8.90</time>
   <energy>
    <i name="e_fr_energy">    -37.08284495 </i>
    <i name="e_wo_entrp">    -37.13536729 </i>
    <i name="e_0_energy">    -37.10035239 </i>
   </energy>
  </scstep>
  <scstep>
   <time name="dav">    6.54    6.55</time>
   <time name="total">    9.33    9.34</time>
   <energy>
    <i name="e_fr_energy">    -37.06356087 </i>
    <i name="e_wo_entrp">    -37.11448049 </i>
    <i name="e_0_energy">    -37.08053408 </i>
   </energy>
  </scstep>
  <scstep>
   <time name="dav">    6.52    6.53</time>
   <time name="total">    9.31    9.32</time>
   <energy>
    <i name="e_fr_energy">    -37.06670534 </i>
    <i name="e_wo_entrp">    -37.12891371 </i>
    <i name="e_0_energy">    -37.08744146 </i>
   </energy>
  </scstep>
  <scstep>
   <time name="dav">    6.80    6.81</time>
   <time name="total">    9.59    9.61</time>
   <energy>
    <i name="e_fr_energy">    -37.06397334 </i>
    <i name="e_wo_entrp">    -37.12775561 </i>
    <i name="e_0_energy">    -37.08523410 </i>
   </energy>
  </scstep>
  <scstep>
   <time name="dav">    6.46    6.47</time>
   <time name="total">    9.28    9.30</time>
   <energy>
    <i name="e_fr_energy">    -37.07068278 </i>
    <i name="e_wo_entrp">    -37.13530211 </i>
    <i name="e_0_energy">    -37.09222256 </i>
   </energy>
  </scstep>
  <scstep>
   <time name="dav">    6.21    6.22</time>
   <time name="total">    9.05    9.06</time>
   <energy>
    <i name="e_fr_energy">    -37.07585383 </i>
    <i name="e_wo_entrp">    -37.13337288 </i>
    <i name="e_0_energy">    -37.09502685 </i>
   </energy>
  </scstep>
  <scstep>
   <time name="dav">    6.67    6.67</time>
   <time name="total">    9.50    9.51</time>
   <energy>
    <i name="e_fr_energy">    -37.08096878 </i>
    <i name="e_wo_entrp">    -37.13788821 </i>
    <i name="e_0_energy">    -37.09994192 </i>
   </energy>
  </scstep>
  <scstep>
   <time name="dav">    6.81    6.82</time>
   <time name="total">    9.60    9.61</time>
   <energy>
    <i name="e_fr_energy">    -37.08913663 </i>
    <i name="e_wo_entrp">    -37.14453534 </i>
    <i name="e_0_energy">    -37.10760287 </i>
   </energy>
  </scstep>
  <scstep>
   <time name="dav">    7.05    7.06</time>
   <time name="total">    9.88    9.90</time>
   <energy>
    <i name="e_fr_energy">    -37.08987433 </i>
    <i name="e_wo_entrp">    -37.14432666 </i>
    <i name="e_0_energy">    -37.10802511 </i>
   </energy>
  </scstep>
  <scstep>
   <time name="dav">    5.98    5.99</time>
   <time name="total">    8.83    8.85</time>
   <energy>
    <i name="e_fr_energy">    -37.08984693 </i>
    <i name="e_wo_entrp">    -37.14146528 </i>
    <i name="e_0_energy">    -37.10705305 </i>
   </energy>
  </scstep>
  <scstep>
   <time name="dav">    5.10    5.10</time>
   <time name="total">    7.91    7.92</time>
   <energy>
    <i name="e_fr_energy">    -37.09090321 </i>
    <i name="e_wo_entrp">    -37.14321713 </i>
    <i name="e_0_energy">    -37.10834118 </i>
   </energy>
  </scstep>
  <scstep>
   <time name="dav">    4.14    4.15</time>
   <time name="total">    7.03    7.04</time>
   <energy>
    <i name="e_fr_energy">    -37.09135935 </i>
    <i name="e_wo_entrp">    -37.14426206 </i>
    <i name="e_0_energy">    -37.10899358 </i>
   </energy>
  </scstep>
  <scstep>
   <time name="dav">    4.40    4.40</time>
   <time name="total">    7.27    7.28</time>
   <energy>
    <i name="e_fr_energy">    -37.09163233 </i>
    <i name="e_wo_entrp">    -37.14480282 </i>
    <i name="e_0_energy">    -37.10935583 </i>
   </energy>
  </scstep>
  <scstep>
   <time name="dav">    4.01    4.02</time>
   <time name="total">    6.89    6.90</time>
   <energy>
    <i name="e_fr_energy">    -37.09177570 </i>
    <i name="e_wo_entrp">    -37.14490576 </i>
    <i name="e_0_energy">    -37.10948572 </i>
   </energy>
  </scstep>
  <scstep>
   <time name="dav">    4.03    4.04</time>
   <time name="total">    6.89    6.90</time>
   <energy>
    <i name="e_fr_energy">    -37.09188158 </i>
    <i name="e_wo_entrp">    -37.14518863 </i>
    <i name="e_0_energy">    -37.10965060 </i>
   </energy>
  </scstep>
  <scstep>
   <time name="dav">    4.11    4.12</time>
   <time name="total">    6.98    6.98</time>
   <energy>
    <i name="e_fr_energy">    -37.09198825 </i>
    <i name="e_wo_entrp">    -37.14525860 </i>
    <i name="e_0_energy">    -37.10974503 </i>
   </energy>
  </scstep>
  <scstep>
   <time name="dav">    4.17    4.17</time>
   <time name="total">    6.36    6.37</time>
   <energy>
    <i name="alphaZ">      5.05286118 </i>
    <i name="ewald">  12349.54130451 </i>
    <i name="hartreedc"> -21401.13408412 </i>
    <i name="XCdc">     60.30980621 </i>
    <i name="pawpsdc">  10124.84527328 </i>
    <i name="pawaedc"> -10289.54347970 </i>
    <i name="eentropy">      0.05326904 </i>
    <i name="bandstr">   -591.17559171 </i>
    <i name="atom">   9704.95859309 </i>
    <i name="e_fr_energy">    -37.09204822 </i>
    <i name="e_wo_entrp">    -37.14531726 </i>
    <i name="e_0_energy">    -37.10980457 </i>
   </energy>
  </scstep>
  <structure>
   <crystal>
    <varray name="basis" >
     <v>      22.14783652       0.00000000       0.00000000 </v>
     <v>       0.00000000      22.06864480       0.00000000 </v>
     <v>       0.00000000       0.00000000      22.94599038 </v>
    </varray>
    <i name="volume">  11215.37452836 </i>
    <varray name="rec_basis" >
     <v>       0.04515114       0.00000000       0.00000000 </v>
     <v>       0.00000000       0.04531316       0.00000000 </v>
     <v>       0.00000000       0.00000000       0.04358060 </v>
    </varray>
   </crystal>
   <varray name="positions" >
    <v>       0.48843837       0.54801089       0.50943570 </v>
    <v>       0.56410460       0.51081310       0.44819104 </v>
    <v>       0.51827880       0.41699898       0.42407467 </v>
    <v>       0.51152068       0.58930070       0.59887995 </v>
    <v>       0.55912993       0.43471437       0.51523366 </v>
    <v>       0.45708119       0.44494291       0.50048745 </v>
    <v>       0.45823501       0.51420625       0.41005708 </v>
    <v>       0.59440870       0.53935943       0.54771054 </v>
    <v>       0.41060178       0.40320186       0.41192972 </v>
    <v>       0.49553009       0.48032586       0.59787738 </v>
[...]
       <r>    -1.6143     2.9371    58.9097 </r>
       <r>    -1.5688     2.6920    59.0323 </r>
       <r>    -1.5233     3.0150    59.1695 </r>
       <r>    -1.4778     3.8620    59.3454 </r>
       <r>    -1.4322     4.9341    59.5700 </r>
       <r>    -1.3867     5.8767    59.8375 </r>
       <r>    -1.3412     6.4647    60.1318 </r>
       <r>    -1.2957     6.6641    60.4352 </r>
       <r>    -1.2501     6.5655    60.7341 </r>
       <r>    -1.2046     6.2653    61.0193 </r>
       <r>    -1.1591     5.7883    61.2828 </r>
       <r>    -1.1136     5.1103    61.5155 </r>
       <r>    -1.0681     4.2608    61.7094 </r>
       <r>    -1.0225     3.4068    61.8645 </r>
       <r>    -0.9770     2.8143    61.9926 </r>
       <r>    -0.9315     2.6838    62.1148 </r>
       <r>    -0.8860     2.9874    62.2508 </r>
       <r>    -0.8404     3.4664    62.4086 </r>
       <r>    -0.7949     3.8155    62.5823 </r>
       <r>    -0.7494     3.9093    62.7603 </r>
       <r>    -0.7039     3.8782    62.9368 </r>
       <r>    -0.6583     3.9732    63.1177 </r>
       <r>    -0.6128     4.3477    63.3156 </r>
       <r>    -0.5673     4.9377    63.5404 </r>
       <r>    -0.5218     5.5129    63.7914 </r>
       <r>    -0.4762     5.8239    64.0565 </r>
       <r>    -0.4307     5.7338    64.3176 </r>
       <r>    -0.3852     5.2799    64.5579 </r>
       <r>    -0.3397     4.6621    64.7702 </r>
       <r>    -0.2941     4.1534    64.9592 </r>
       <r>    -0.2486     3.9473    65.1389 </r>
       <r>    -0.2031     4.0203    65.3220 </r>
       <r>    -0.1576     4.1253    65.5098 </r>
       <r>    -0.1120     3.9515    65.6896 </r>
       <r>    -0.0665     3.3385    65.8416 </r>
       <r>    -0.0210     2.3807    65.9500 </r>
       <r>     0.0245     1.3489    66.0114 </r>
       <r>     0.0701     0.5122    66.0347 </r>
       <r>     0.1156     0.0018    66.0348 </r>
       <r>     0.1611    -0.2070    66.0254 </r>
       <r>     0.2066    -0.2244    66.0152 </r>
       <r>     0.2522    -0.1632    66.0077 </r>
       <r>     0.2977    -0.0945    66.0034 </r>
       <r>     0.3432    -0.0461    66.0013 </r>
       <r>     0.3887    -0.0194    66.0005 </r>
       <r>     0.4342    -0.0071    66.0001 </r>
       <r>     0.4798    -0.0023    66.0000 </r>
       <r>     0.5253    -0.0007    66.0000 </r>
       <r>     0.5708    -0.0002    66.0000 </r>
       <r>     0.6163    -0.0000    66.0000 </r>
       <r>     0.6619    -0.0000    66.0000 </r>
       <r>     0.7074    -0.0000    66.0000 </r>
       <r>     0.7529    -0.0000    66.0000 </r>
       <r>     0.7984    -0.0000    66.0000 </r>
       <r>     0.8440    -0.0000    66.0000 </r>
       <r>     0.8895    -0.0000    66.0000 </r>
       <r>     0.9350    -0.0000    66.0000 </r>
       <r>     0.9805    -0.0000    66.0000 </r>
       <r>     1.0261    -0.0000    66.0000 </r>
       <r>     1.0716    -0.0000    66.0000 </r>
       <r>     1.1171     0.0000    66.0000 </r>
       <r>     1.1626     0.0000    66.0000 </r>
       <r>     1.2082     0.0000    66.0000 </r>
       <r>     1.2537     0.0000    66.0000 </r>
       <r>     1.2992     0.0000    66.0000 </r>
       <r>     1.3447     0.0000    66.0000 </r>
       <r>     1.3903     0.0000    66.0000 </r>
       <r>     1.4358     0.0000    66.0000 </r>
       <r>     1.4813     0.0000    66.0000 </r>
       <r>     1.5268     0.0000    66.0000 </r>
       <r>     1.5724     0.0000    66.0000 </r>
       <r>     1.6179     0.0000    66.0000 </r>
       <r>     1.6634     0.0000    66.0000 </r>
       <r>     1.7089     0.0000    66.0000 </r>
       <r>     1.7545     0.0000    66.0000 </r>
       <r>     1.8000     0.0000    66.0000 </r>
       <r>     1.8455     0.0000    66.0000 </r>
       <r>     1.8910     0.0000    66.0000 </r>
       <r>     1.9365     0.0000    66.0000 </r>
      </set>
      <set comment="spin 2">
       <r>   -11.7207     0.0000     0.0000 </r>
       <r>   -11.6752     0.0000     0.0000 </r>
       <r>   -11.6297     0.0000     0.0000 </r>
       <r>   -11.5842     0.0000     0.0000 </r>
       <r>   -11.5386     0.0000     0.0000 </r>
       <r>   -11.4931     0.0000     0.0000 </r>
       <r>   -11.4476     0.0000     0.0000 </r>
       <r>   -11.4021     0.0000     0.0000 </r>
       <r>   -11.3565     0.0000     0.0000 </r>
       <r>   -11.3110     0.0000     0.0000 </r>
       <r>   -11.2655    -0.0000    -0.0000 </r>
       <r>   -11.2200    -0.0000    -0.0000 </r>
       <r>   -11.1744    -0.0000    -0.0000 </r>
       <r>   -11.1289    -0.0000    -0.0000 </r>
       <r>   -11.0834    -0.0000    -0.0000 </r>
       <r>   -11.0379    -0.0000    -0.0000 </r>
       <r>   -10.9923    -0.0000    -0.0000 </r>
       <r>   -10.9468    -0.0000    -0.0000 </r>
       <r>   -10.9013    -0.0000    -0.0000 </r>
       <r>   -10.8558    -0.0000    -0.0000 </r>
       <r>   -10.8102    -0.0000    -0.0000 </r>
       <r>   -10.7647    -0.0000    -0.0000 </r>
       <r>   -10.7192    -0.0000    -0.0000 </r>
       <r>   -10.6737    -0.0000    -0.0000 </r>
       <r>   -10.6282    -0.0000    -0.0000 </r>
       <r>   -10.5826    -0.0000    -0.0000 </r>
       <r>   -10.5371    -0.0000    -0.0000 </r>
       <r>   -10.4916    -0.0000    -0.0000 </r>
       <r>   -10.4461    -0.0000    -0.0000 </r>
       <r>   -10.4005    -0.0000    -0.0000 </r>
       <r>   -10.3550    -0.0001    -0.0000 </r>
       <r>   -10.3095    -0.0004    -0.0000 </r>
       <r>   -10.2640    -0.0016    -0.0001 </r>
       <r>   -10.2184    -0.0050    -0.0003 </r>
       <r>   -10.1729    -0.0142    -0.0010 </r>
       <r>   -10.1274    -0.0353    -0.0026 </r>
       <r>   -10.0819    -0.0760    -0.0060 </r>
       <r>   -10.0363    -0.1388    -0.0124 </r>
       <r>    -9.9908    -0.2060    -0.0217 </r>
       <r>    -9.9453    -0.2195    -0.0317 </r>
       <r>    -9.8998    -0.0726    -0.0350 </r>
       <r>    -9.8542     0.3611    -0.0186 </r>
       <r>    -9.8087     1.1518     0.0338 </r>
       <r>    -9.7632     2.2214     0.1350 </r>
       <r>    -9.7177     3.3080     0.2856 </r>
       <r>    -9.6721     4.0489     0.4699 </r>
       <r>    -9.6266     4.1590     0.6592 </r>
       <r>    -9.5811     3.5938     0.8228 </r>
       <r>    -9.5356     2.5760     0.9401 </r>
       <r>    -9.4900     1.4653     1.0068 </r>
       <r>    -9.4445     0.5701     1.0328 </r>
       <r>    -9.3990     0.0269     1.0340 </r>
       <r>    -9.3535    -0.1968     1.0250 </r>
       <r>    -9.3079    -0.2201     1.0150 </r>
       <r>    -9.2624    -0.1611     1.0077 </r>
       <r>    -9.2169    -0.0935     1.0034 </r>
       <r>    -9.1714    -0.0456     1.0013 </r>
       <r>    -9.1259    -0.0191     1.0005 </r>
       <r>    -9.0803    -0.0070     1.0001 </r>
       <r>    -9.0348    -0.0023     1.0000 </r>
       <r>    -8.9893    -0.0006     1.0000 </r>
       <r>    -8.9438    -0.0002     1.0000 </r>
       <r>    -8.8982    -0.0000     1.0000 </r>
       <r>    -8.8527    -0.0000     1.0000 </r>
       <r>    -8.8072    -0.0000     1.0000 </r>
       <r>    -8.7617    -0.0001     1.0000 </r>
       <r>    -8.7161    -0.0003     1.0000 </r>
       <r>    -8.6706    -0.0010     0.9999 </r>
       <r>    -8.6251    -0.0035     0.9998 </r>
       <r>    -8.5796    -0.0104     0.9993 </r>
       <r>    -8.5340    -0.0269     0.9981 </r>
       <r>    -8.4885    -0.0607     0.9953 </r>
       <r>    -8.4430    -0.1172     0.9900 </r>
       <r>    -8.3975    -0.1871     0.9815 </r>
       <r>    -8.3519    -0.2274     0.9711 </r>
       <r>    -8.3064    -0.1468     0.9644 </r>
       <r>    -8.2609     0.1788     0.9726 </r>
       <r>    -8.2154     0.8429     1.0109 </r>
       <r>    -8.1698     1.8149     1.0936 </r>
       <r>    -8.1243     2.8816     1.2247 </r>
       <r>    -8.0788     3.7004     1.3932 </r>
       <r>    -8.0333     3.9757     1.5742 </r>
       <r>    -7.9877     3.6582     1.7407 </r>
       <r>    -7.9422     3.0159     1.8780 </r>
       <r>    -7.8967     2.4930     1.9915 </r>
       <r>    -7.8512     2.4331     2.1023 </r>
       <r>    -7.8056     2.8512     2.2321 </r>
       <r>    -7.7601     3.4201     2.3878 </r>
       <r>    -7.7146     3.6894     2.5557 </r>
       <r>    -7.6691     3.3932     2.7102 </r>
       <r>    -7.6235     2.6450     2.8306 </r>
       <r>    -7.5780     1.8987     2.9171 </r>
       <r>    -7.5325     1.7030     2.9946 </r>
       <r>    -7.4870     2.3992     3.1038 </r>
       <r>    -7.4415     3.9277     3.2826 </r>
       <r>    -7.3959     5.8459     3.5487 </r>
       <r>    -7.3504     7.5417     3.8921 </r>
       <r>    -7.3049     8.5198     4.2799 </r>
       <r>    -7.2594     8.5956     4.6712 </r>
       <r>    -7.2138     7.9062     5.0312 </r>
       <r>    -7.1683     6.7828     5.3399 </r>
       <r>    -7.1228     5.6082     5.5953 </r>
       <r>    -7.0773     4.7306     5.8106 </r>
       <r>    -7.0317     4.4033     6.0111 </r>
       <r>    -6.9862     4.7067     6.2253 </r>
       <r>    -6.9407     5.4918     6.4753 </r>
       <r>    -6.8952     6.4385     6.7685 </r>
       <r>    -6.8496     7.2442     7.0982 </r>
       <r>    -6.8041     7.8192     7.4542 </r>
       <r>    -6.7586     8.3257     7.8332 </r>
       <r>    -6.7131     9.0144     8.2436 </r>
       <r>    -6.6675     9.9859     8.6982 </r>
       <r>    -6.6220    11.0653     9.2019 </r>
       <r>    -6.5765    11.8831     9.7429 </r>
       <r>    -6.5310    12.1051    10.2940 </r>
       <r>    -6.4854    11.6668    10.8251 </r>
       <r>    -6.4399    10.8747    11.3202 </r>
       <r>    -6.3944    10.3030    11.7892 </r>
       <r>    -6.3489    10.5080    12.2676 </r>
       <r>    -6.3033    11.6953    12.8000 </r>
       <r>    -6.2578    13.5411    13.4164 </r>
       <r>    -6.2123    15.3144    14.1136 </r>
       <r>    -6.1668    16.2607    14.8539 </r>
       <r>    -6.1212    16.0165    15.5830 </r>
       <r>    -6.0757    14.7951    16.2565 </r>
       <r>    -6.0302    13.2461    16.8596 </r>
       <r>    -5.9847    12.1083    17.4108 </r>
       <r>    -5.9392    11.8746    17.9514 </r>
       <r>    -5.8936    12.6230    18.5260 </r>
       <r>    -5.8481    14.0347    19.1649 </r>
       <r>    -5.8026    15.5395    19.8724 </r>
       <r>    -5.7571    16.5244    20.6246 </r>
       <r>    -5.7115    16.5538    21.3782 </r>
       <r>    -5.6660    15.5482    22.0860 </r>
       <r>    -5.6205    13.8568    22.7169 </r>
       <r>    -5.5750    12.1660    23.2707 </r>
       <r>    -5.5294    11.2286    23.7819 </r>
       <r>    -5.4839    11.4871    24.3048 </r>
       <r>    -5.4384    12.7827    24.8868 </r>
       <r>    -5.3929    14.3776    25.5413 </r>
       <r>    -5.3473    15.3561    26.2404 </r>
       <r>    -5.3018    15.1765    26.9313 </r>
       <r>    -5.2563    13.9857    27.5679 </r>
       <r>    -5.2108    12.4792    28.1361 </r>
       <r>    -5.1652    11.4549    28.6575 </r>
       <r>    -5.1197    11.4165    29.1773 </r>
       <r>    -5.0742    12.4457    29.7438 </r>
       <r>    -5.0287    14.2820    30.3940 </r>
       <r>    -4.9831    16.4416    31.1425 </r>
       <r>    -4.9376    18.3158    31.9763 </r>
       <r>    -4.8921    19.3145    32.8556 </r>
       <r>    -4.8466    19.0907    33.7247 </r>
       <r>    -4.8010    17.7441    34.5325 </r>
       <r>    -4.7555    15.8342    35.2533 </r>
       <r>    -4.7100    14.1281    35.8965 </r>
       <r>    -4.6645    13.2073    36.4977 </r>
       <r>    -4.6189    13.2006    37.0987 </r>
       <r>    -4.5734    13.8349    37.7285 </r>
       <r>    -4.5279    14.7279    38.3990 </r>
       <r>    -4.4824    15.6471    39.1113 </r>
       <r>    -4.4368    16.5297    39.8638 </r>
       <r>    -4.3913    17.3296    40.6527 </r>
       <r>    -4.3458    17.9139    41.4683 </r>
       <r>    -4.3003    18.1259    42.2934 </r>
       <r>    -4.2548    17.9190    43.1092 </r>
       <r>    -4.2092    17.4087    43.9017 </r>
       <r>    -4.1637    16.8079    44.6669 </r>
       <r>    -4.1182    16.3324    45.4104 </r>
       <r>    -4.0727    16.1460    46.1454 </r>
       <r>    -4.0271    16.3270    46.8887 </r>
       <r>    -3.9816    16.8164    47.6542 </r>
       <r>    -3.9361    17.3806    48.4455 </r>
       <r>    -3.8906    17.6696    49.2499 </r>
       <r>    -3.8450    17.3856    50.0413 </r>
       <r>    -3.7995    16.4605    50.7907 </r>
       <r>    -3.7540    15.0867    51.4775 </r>
       <r>    -3.7085    13.5528    52.0945 </r>
       <r>    -3.6629    12.0081    52.6411 </r>
       <r>    -3.6174    10.3637    53.1129 </r>
       <r>    -3.5719     8.4279    53.4966 </r>
       <r>    -3.5264     6.1544    53.7768 </r>
       <r>    -3.4808     3.7801    53.9489 </r>
       <r>    -3.4353     1.7407    54.0281 </r>
       <r>    -3.3898     0.4502    54.0486 </r>
       <r>    -3.3443     0.1138    54.0538 </r>
       <r>    -3.2987     0.6600    54.0838 </r>
       <r>    -3.2532     1.7725    54.1645 </r>
       <r>    -3.2077     2.9809    54.3002 </r>
       <r>    -3.1622     3.8026    54.4734 </r>
       <r>    -3.1166     3.9207    54.6518 </r>
       <r>    -3.0711     3.3256    54.8032 </r>
       <r>    -3.0256     2.3277    54.9092 </r>
       <r>    -2.9801     1.4128    54.9735 </r>
       <r>    -2.9345     1.0135    55.0197 </r>
       <r>    -2.8890     1.3087    55.0792 </r>
       <r>    -2.8435     2.1449    55.1769 </r>
       <r>    -2.7980     3.1117    55.3185 </r>
       <r>    -2.7525     3.7494    55.4892 </r>
       <r>    -2.7069     3.7977    55.6621 </r>
       <r>    -2.6614     3.3466    55.8145 </r>
       <r>    -2.6159     2.7793    55.9410 </r>
       <r>    -2.5704     2.5248    56.0559 </r>
       <r>    -2.5248     2.7725    56.1822 </r>
       <r>    -2.4793     3.3456    56.3345 </r>
       <r>    -2.4338     3.8188    56.5083 </r>
       <r>    -2.3883     3.7977    56.6812 </r>
       <r>    -2.3427     3.1657    56.8253 </r>
       <r>    -2.2972     2.1483    56.9231 </r>
       <r>    -2.2517     1.1799    56.9768 </r>
       <r>    -2.2062     0.6817    57.0079 </r>
       <r>    -2.1606     0.8730    57.0476 </r>
       <r>    -2.1151     1.6830    57.1242 </r>
       <r>    -2.0696     2.7755    57.2506 </r>
       <r>    -2.0241     3.6802    57.4181 </r>
       <r>    -1.9785     3.9967    57.6001 </r>
       <r>    -1.9330     3.5853    57.7633 </r>
       <r>    -1.8875     2.6407    57.8835 </r>
       <r>    -1.8420     1.5972    57.9562 </r>
       <r>    -1.7964     0.9207    57.9981 </r>
       <r>    -1.7509     0.8982    58.0390 </r>
       <r>    -1.7054     1.5213    58.1083 </r>
       <r>    -1.6599     2.5068    58.2224 </r>
       <r>    -1.6143     3.4478    58.3793 </r>
       <r>    -1.5688     4.0293    58.5628 </r>
       <r>    -1.5233     4.1857    58.7533 </r>
       <r>    -1.4778     4.0921    58.9396 </r>
       <r>    -1.4322     3.9925    59.1214 </r>
       <r>    -1.3867     4.0116    59.3040 </r>
       <r>    -1.3412     4.1157    59.4914 </r>
       <r>    -1.2957     4.2395    59.6844 </r>
       <r>    -1.2501     4.4240    59.8858 </r>
       <r>    -1.2046     4.8071    60.1046 </r>
       <r>    -1.1591     5.4621    60.3533 </r>
       <r>    -1.1136     6.2463    60.6376 </r>
       <r>    -1.0681     6.8126    60.9478 </r>
       <r>    -1.0225     6.7971    61.2572 </r>
       <r>    -0.9770     6.0508    61.5326 </r>
       <r>    -0.9315     4.7612    61.7494 </r>
       <r>    -0.8860     3.3840    61.9035 </r>
       <r>    -0.8404     2.4211    62.0137 </r>
       <r>    -0.7949     2.1695    62.1124 </r>
       <r>    -0.7494     2.5858    62.2301 </r>
       <r>    -0.7039     3.3504    62.3827 </r>
       <r>    -0.6583     4.0841    62.5686 </r>
       <r>    -0.6128     4.5605    62.7762 </r>
       <r>    -0.5673     4.7704    62.9934 </r>
       <r>    -0.5218     4.8256    63.2131 </r>
       <r>    -0.4762     4.8264    63.4328 </r>
       <r>    -0.4307     4.8136    63.6519 </r>
       <r>    -0.3852     4.8065    63.8707 </r>
       <r>    -0.3397     4.8392    64.0910 </r>
       <r>    -0.2941     4.9439    64.3161 </r>
       <r>    -0.2486     5.1150    64.5490 </r>
       <r>    -0.2031     5.3026    64.7904 </r>
       <r>    -0.1576     5.4280    65.0375 </r>
       <r>    -0.1120     5.3899    65.2828 </r>
       <r>    -0.0665     5.0735    65.5138 </r>
       <r>    -0.0210     4.3987    65.7140 </r>
       <r>     0.0245     3.3959    65.8686 </r>
       <r>     0.0701     2.2348    65.9704 </r>
       <r>     0.1156     1.1590    66.0231 </r>
       <r>     0.1611     0.3648    66.0397 </r>
       <r>     0.2066    -0.0817    66.0360 </r>
       <r>     0.2522    -0.2408    66.0251 </r>
       <r>     0.2977    -0.2311    66.0145 </r>
       <r>     0.3432    -0.1598    66.0073 </r>
       <r>     0.3887    -0.0899    66.0032 </r>
       <r>     0.4342    -0.0429    66.0012 </r>
       <r>     0.4798    -0.0177    66.0004 </r>
       <r>     0.5253    -0.0064    66.0001 </r>
       <r>     0.5708    -0.0020    66.0000 </r>
       <r>     0.6163    -0.0006    66.0000 </r>
       <r>     0.6619    -0.0001    66.0000 </r>
       <r>     0.7074    -0.0000    66.0000 </r>
       <r>     0.7529    -0.0000    66.0000 </r>
       <r>     0.7984    -0.0000    66.0000 </r>
       <r>     0.8440    -0.0000    66.0000 </r>
       <r>     0.8895    -0.0000    66.0000 </r>
       <r>     0.9350    -0.0000    66.0000 </r>
       <r>     0.9805    -0.0000    66.0000 </r>
       <r>     1.0261    -0.0000    66.0000 </r>
       <r>     1.0716    -0.0000    66.0000 </r>
       <r>     1.1171    -0.0000    66.0000 </r>
       <r>     1.1626    -0.0000    66.0000 </r>
       <r>     1.2082     0.0000    66.0000 </r>
       <r>     1.2537     0.0000    66.0000 </r>
       <r>     1.2992     0.0000    66.0000 </r>
       <r>     1.3447     0.0000    66.0000 </r>
       <r>     1.3903     0.0000    66.0000 </r>
       <r>     1.4358     0.0000    66.0000 </r>
       <r>     1.4813     0.0000    66.0000 </r>
       <r>     1.5268     0.0000    66.0000 </r>
       <r>     1.5724     0.0000    66.0000 </r>
       <r>     1.6179     0.0000    66.0000 </r>
       <r>     1.6634     0.0000    66.0000 </r>
       <r>     1.7089     0.0000    66.0000 </r>
       <r>     1.7545     0.0000    66.0000 </r>
       <r>     1.8000     0.0000    66.0000 </r>
       <r>     1.8455     0.0000    66.0000 </r>
       <r>     1.8910     0.0000    66.0000 </r>
       <r>     1.9365     0.0000    66.0000 </r>
      </set>
     </set>
    </array>
   </total>
  </dos>
 </calculation>
 <structure name="finalpos" >
  <crystal>
   <varray name="basis" >
    <v>      22.14783652       0.00000000       0.00000000 </v>
    <v>       0.00000000      22.06864480       0.00000000 </v>
    <v>       0.00000000       0.00000000      22.94599038 </v>
   </varray>
   <i name="volume">  11215.37452836 </i>
   <varray name="rec_basis" >
    <v>       0.04515114       0.00000000       0.00000000 </v>
    <v>       0.00000000       0.04531316       0.00000000 </v>
    <v>       0.00000000       0.00000000       0.04358060 </v>
   </varray>
  </crystal>
  <varray name="positions" >
   <v>       0.48028319       0.52920445       0.49332020 </v>
   <v>       0.57118263       0.51723139       0.44501249 </v>
   <v>       0.51492073       0.42691378       0.44043404 </v>
   <v>       0.51638153       0.55278990       0.58106612 </v>
   <v>       0.55335202       0.46468307       0.53268531 </v>
   <v>       0.44557073       0.43639977       0.51726714 </v>
   <v>       0.47050413       0.51724404       0.38849116 </v>
   <v>       0.61433428       0.56178297       0.53260945 </v>
   <v>       0.40634918       0.42200937       0.41812088 </v>
   <v>       0.48445071       0.45361560       0.61487037 </v>
  </varray>
 </structure>
</modeling>
