unknown system                          
            1
    22.147837    0.000000    0.000000
     0.000000   22.068645    0.000000
     0.000000    0.000000   22.945990
   Ni   Pd
     6     4
Direct configuration=     1
   0.48616122  0.55011162  0.50921083
   0.56462437  0.51225434  0.44509009
   0.52024674  0.41413759  0.42024137
   0.51293387  0.59222623  0.60398459
   0.56101157  0.43355757  0.51830059
   0.45357789  0.44499684  0.50141502
   0.45780954  0.50887068  0.40981200
   0.59124612  0.53754944  0.54952387
   0.41005679  0.40586946  0.40986163
   0.49966101  0.48230057  0.59643719
Direct configuration=     2
   0.48679854  0.54956586  0.50908871
   0.56399609  0.51124847  0.44632407
   0.52028382  0.41530859  0.42198499
   0.51257064  0.59167885  0.60282402
   0.56000671  0.43393865  0.51630142
   0.45517150  0.44505396  0.50126558
   0.45851645  0.51080550  0.41006392
   0.59233737  0.53827724  0.54880975
   0.40944628  0.40439818  0.41010597
   0.49820174  0.48159906  0.59710873
Direct configuration=     3
   0.48738930  0.54905996  0.50897552
   0.56341371  0.51031609  0.44746791
   0.52031818  0.41639404  0.42360124
   0.51223395  0.59117145  0.60174823
   0.55907526  0.43429189  0.51444831
   0.45664868  0.44510690  0.50112706
   0.45917171  0.51259896  0.41029744
   0.59334889  0.53895187  0.54814781
   0.40888037  0.40303438  0.41033245
   0.49684908  0.48094881  0.59773120
Direct configuration=     4
   0.48789735  0.54855191  0.50919838
   0.56374830  0.51055679  0.44781811
   0.51933053  0.41668701  0.42383051
   0.51188852  0.59026546  0.60035915
   0.55910173  0.43449649  0.51482865
   0.45685814  0.44502748  0.50081730
   0.45871807  0.51337736  0.41018103
   0.59386215  0.53914925  0.54793604
   0.40971403  0.40311549  0.41110600
   0.49621030  0.48064712  0.59780200
Direct configuration=     5
   0.48932446  0.54712478  0.50982438
   0.56468816  0.51123290  0.44880183
   0.51655623  0.41750995  0.42447455
   0.51091821  0.58772057  0.59645725
   0.55917611  0.43507122  0.51589700
   0.45744651  0.44480440  0.49994720
   0.45744382  0.51556384  0.40985405
   0.59530386  0.53970368  0.54734121
   0.41205577  0.40334332  0.41327885
   0.49441600  0.47979968  0.59800085
Direct configuration=     6
   0.48843837  0.54801089  0.50943570
   0.56410460  0.51081310  0.44819104
   0.51827880  0.41699898  0.42407467
   0.51152068  0.58930070  0.59887995
   0.55912993  0.43471437  0.51523366
   0.45708119  0.44494291  0.50048745
   0.45823501  0.51420625  0.41005708
   0.59440870  0.53935943  0.54771054
   0.41060178  0.40320186  0.41192972
   0.49553009  0.48032586  0.59787738
Direct configuration=     7
   0.48850346  0.54734189  0.50884976
   0.56435704  0.51101504  0.44781403
   0.51840549  0.41752904  0.42382576
   0.51107117  0.58902451  0.59805445
   0.55946839  0.43488723  0.51604396
   0.45664664  0.44509840  0.50112434
   0.45795153  0.51481096  0.41015260
   0.59520458  0.53920860  0.54778438
   0.41063487  0.40326321  0.41234960
   0.49508596  0.47969546  0.59787829
Direct configuration=     8
   0.48857102  0.54664749  0.50824157
   0.56461907  0.51122465  0.44742270
   0.51853701  0.41807923  0.42356739
   0.51060458  0.58873784  0.59719759
   0.55981971  0.43506666  0.51688506
   0.45619558  0.44525980  0.50178543
   0.45765728  0.51543864  0.41025174
   0.59603069  0.53905203  0.54786102
   0.41066922  0.40332689  0.41278544
   0.49462497  0.47904112  0.59787924
Direct configuration=     9
   0.48887376  0.54594613  0.50757846
   0.56488785  0.51103706  0.44720423
   0.51877061  0.41932921  0.42410158
   0.51022925  0.58814778  0.59607997
   0.55961837  0.43579118  0.51691284
   0.45610629  0.44490827  0.50219954
   0.45748930  0.51572994  0.41033375
   0.59648615  0.53880456  0.54803793
   0.41056769  0.40362579  0.41330718
   0.49429985  0.47855443  0.59812171
Direct configuration=    10
   0.48915716  0.54528957  0.50695770
   0.56513947  0.51086146  0.44699971
   0.51898930  0.42049935  0.42460166
   0.50987790  0.58759541  0.59503373
   0.55942989  0.43646942  0.51693886
   0.45602270  0.44457919  0.50258719
   0.45733206  0.51600264  0.41041052
   0.59691251  0.53857290  0.54820354
   0.41047265  0.40390560  0.41379559
   0.49399550  0.47809882  0.59834869
Direct configuration=    11
   0.48954923  0.54463515  0.50654513
   0.56627791  0.51150630  0.44668795
   0.51858182  0.42116085  0.42492541
   0.50956470  0.58676760  0.59384298
   0.55914421  0.43730352  0.51700639
   0.45574907  0.44373895  0.50306255
   0.45702062  0.51610371  0.40995697
   0.59721405  0.53844843  0.54845158
   0.41047109  0.40446882  0.41435109
   0.49375642  0.47774102  0.59904713
Direct configuration=    12
   0.48983559  0.54415718  0.50624380
   0.56710940  0.51197727  0.44646025
   0.51828422  0.42164399  0.42516186
   0.50933595  0.58616299  0.59297329
   0.55893556  0.43791273  0.51705572
   0.45554922  0.44312527  0.50340974
   0.45679316  0.51617752  0.40962570
   0.59743428  0.53835753  0.54863275
   0.41046995  0.40488019  0.41475682
   0.49358180  0.47747970  0.59955725
Direct configuration=    13
   0.48996288  0.54311661  0.50546164
   0.56804841  0.51266355  0.44614287
   0.51794401  0.42209918  0.42522849
   0.50907050  0.58575759  0.59246112
   0.55874672  0.43868290  0.51711268
   0.45532723  0.44272890  0.50422448
   0.45690590  0.51616568  0.40921099
   0.59787533  0.53840550  0.54887526
   0.41003020  0.40519747  0.41489376
   0.49341796  0.47705698  0.60026588
Direct configuration=    14
   0.49020387  0.54114667  0.50398093
   0.56982609  0.51396277  0.44554201
   0.51729997  0.42296093  0.42535464
   0.50856796  0.58499012  0.59149151
   0.55838920  0.44014095  0.51722053
   0.45490697  0.44197854  0.50576690
   0.45711933  0.51614325  0.40842588
   0.59871028  0.53849631  0.54933436
   0.40919768  0.40579812  0.41515300
   0.49310778  0.47625670  0.60160743
Direct configuration=    15
   0.49038633  0.53971037  0.50360278
   0.57045582  0.51430192  0.44533767
   0.51685142  0.42382345  0.42567549
   0.50829211  0.58419837  0.59077657
   0.55822123  0.44136200  0.51718930
   0.45460625  0.44173366  0.50652599
   0.45765132  0.51586851  0.40744923
   0.59916646  0.53887145  0.54963645
   0.40851126  0.40626079  0.41531905
   0.49318693  0.47574383  0.60236465
Direct configuration=    16
   0.49057232  0.53824625  0.50321730
   0.57109776  0.51464765  0.44512938
   0.51639418  0.42470268  0.42600255
   0.50801091  0.58339127  0.59004778
   0.55805000  0.44260669  0.51715747
   0.45429970  0.44148403  0.50729979
   0.45819361  0.51558846  0.40645367
   0.59963148  0.53925385  0.54994438
   0.40781155  0.40673243  0.41548832
   0.49326763  0.47522103  0.60313654
Direct configuration=    17
   0.49047325  0.53778421  0.50338637
   0.57115870  0.51461763  0.44502235
   0.51610299  0.42482463  0.42642232
   0.50784179  0.58267532  0.58956684
   0.55803588  0.44326030  0.51752300
   0.45375920  0.44102656  0.50720115
   0.45871610  0.51567353  0.40541141
   0.59993858  0.53992187  0.55003072
   0.40756541  0.40735589  0.41589544
   0.49373722  0.47473443  0.60341758
Direct configuration=    18
   0.49039459  0.53741735  0.50352061
   0.57120709  0.51459379  0.44493737
   0.51587179  0.42492145  0.42675560
   0.50770751  0.58210687  0.58918499
   0.55802467  0.44377924  0.51781321
   0.45333006  0.44066335  0.50712284
   0.45913095  0.51574107  0.40458389
   0.60018240  0.54045226  0.55009926
   0.40736999  0.40785089  0.41621868
   0.49411006  0.47434809  0.60364072
Direct configuration=    19
   0.48996296  0.53690404  0.50308610
   0.57102802  0.51453615  0.44491323
   0.51586056  0.42469714  0.42719498
   0.50754686  0.58171285  0.58916381
   0.55792216  0.44427310  0.51831958
   0.45303455  0.44037958  0.50723517
   0.45983604  0.51607486  0.40394919
   0.60053970  0.54111705  0.54992883
   0.40700356  0.40846180  0.41642495
   0.49459473  0.47371779  0.60366135
Direct configuration=    20
   0.48906045  0.53583075  0.50217756
   0.57065358  0.51441563  0.44486276
   0.51583707  0.42422812  0.42811370
   0.50721095  0.58088897  0.58911951
   0.55770781  0.44530574  0.51937836
   0.45241666  0.43978623  0.50747004
   0.46131032  0.51677277  0.40262206
   0.60128678  0.54250710  0.54957247
   0.40623737  0.40973917  0.41685623
   0.49560813  0.47239987  0.60370448
Direct configuration=    21
   0.48838092  0.53546838  0.50207398
   0.57049043  0.51443880  0.44491154
   0.51581114  0.42380946  0.42869841
   0.50713399  0.57997111  0.58886633
   0.55773670  0.44591161  0.51981651
   0.45232552  0.43945576  0.50813677
   0.46234157  0.51689785  0.40185940
   0.60135814  0.54330837  0.54887536
   0.40583792  0.41083839  0.41678919
   0.49591281  0.47177462  0.60384969
Direct configuration=    22
   0.48685038  0.53465220  0.50184067
   0.57012295  0.51449099  0.44502142
   0.51575274  0.42286651  0.43001537
   0.50696064  0.57790378  0.58829607
   0.55780178  0.44727624  0.52080337
   0.45212023  0.43871142  0.50963847
   0.46466428  0.51717956  0.40014163
   0.60151887  0.54511309  0.54730524
   0.40493822  0.41331421  0.41663818
   0.49659904  0.47036635  0.60417677
Direct configuration=    23
   0.48637248  0.53440932  0.50168088
   0.57001500  0.51457822  0.44501965
   0.51558809  0.42267429  0.43048473
   0.50691317  0.57727848  0.58815120
   0.55792331  0.44759037  0.52087743
   0.45200989  0.43833744  0.50997772
   0.46543615  0.51706349  0.39968583
   0.60158837  0.54571487  0.54664166
   0.40490997  0.41431751  0.41668630
   0.49657271  0.46991037  0.60467178
Direct configuration=    24
   0.48493878  0.53368067  0.50120150
   0.56969116  0.51483991  0.44501435
   0.51509414  0.42209763  0.43189282
   0.50677078  0.57540259  0.58771659
   0.55828790  0.44853277  0.52109962
   0.45167886  0.43721550  0.51099548
   0.46775175  0.51671525  0.39831841
   0.60179687  0.54752020  0.54465092
   0.40482520  0.41732742  0.41683066
   0.49649370  0.46854242  0.60615682
Direct configuration=    25
   0.48503353  0.53339537  0.50103973
   0.56980081  0.51501558  0.44486680
   0.51509574  0.42218473  0.43192473
   0.50679392  0.57533752  0.58775388
   0.55807524  0.44851855  0.52120634
   0.45173892  0.43712945  0.51110513
   0.46775856  0.51672295  0.39821280
   0.60188663  0.54767799  0.54439687
   0.40492629  0.41753021  0.41697745
   0.49621949  0.46836200  0.60639344
Direct configuration=    26
   0.48531780  0.53253949  0.50055441
   0.57012979  0.51554257  0.44442416
   0.51510054  0.42244603  0.43202046
   0.50686332  0.57514233  0.58786573
   0.55743723  0.44847589  0.52152651
   0.45191910  0.43687128  0.51143410
   0.46777901  0.51674602  0.39789599
   0.60215594  0.54815138  0.54363470
   0.40522956  0.41813860  0.41741784
   0.49539683  0.46782076  0.60710327
Direct configuration=    27
   0.48551155  0.53237299  0.50056345
   0.57023033  0.51563429  0.44430403
   0.51516498  0.42256380  0.43201748
   0.50690586  0.57496696  0.58779552
   0.55729753  0.44861161  0.52164561
   0.45190422  0.43673999  0.51156414
   0.46776245  0.51680811  0.39776889
   0.60216696  0.54822088  0.54343747
   0.40523850  0.41821805  0.41752790
   0.49514675  0.46773768  0.60725269
Direct configuration=    28
   0.48609278  0.53187349  0.50059056
   0.57053196  0.51590948  0.44394366
   0.51535828  0.42291708  0.43200854
   0.50703348  0.57444085  0.58758486
   0.55687843  0.44901877  0.52200291
   0.45185955  0.43634613  0.51195426
   0.46771280  0.51699436  0.39738759
   0.60220002  0.54842937  0.54284576
   0.40526533  0.41845637  0.41785809
   0.49439651  0.46748845  0.60770094
Direct configuration=    29
   0.48725524  0.53087450  0.50064479
   0.57113521  0.51645985  0.44322291
   0.51574488  0.42362365  0.43199067
   0.50728873  0.57338862  0.58716355
   0.55604022  0.44983309  0.52271750
   0.45177022  0.43555840  0.51273450
   0.46761348  0.51736686  0.39662499
   0.60226613  0.54884637  0.54166234
   0.40531900  0.41893303  0.41851847
   0.49289602  0.46699000  0.60859745
Direct configuration=    30
   0.48958016  0.52887651  0.50075325
   0.57234172  0.51756058  0.44178142
   0.51651809  0.42503678  0.43195492
   0.50779922  0.57128417  0.58632092
   0.55436380  0.45146172  0.52414669
   0.45159156  0.43398295  0.51429498
   0.46741485  0.51811187  0.39509979
   0.60239836  0.54968036  0.53929551
   0.40542633  0.41988633  0.41983922
   0.48989504  0.46599308  0.61039046
Direct configuration=    31
   0.48777511  0.53042773  0.50066905
   0.57140499  0.51670598  0.44290059
   0.51591778  0.42393963  0.43198268
   0.50740288  0.57291805  0.58697513
   0.55566536  0.45019726  0.52303708
   0.45173027  0.43520612  0.51308343
   0.46756906  0.51753345  0.39628394
   0.60229570  0.54903285  0.54113311
   0.40534300  0.41914619  0.41881380
   0.49222498  0.46676708  0.60899838
Direct configuration=    32
   0.48800083  0.53012047  0.50051985
   0.57151547  0.51674755  0.44263084
   0.51595519  0.42424218  0.43204052
   0.50747024  0.57257405  0.58689858
   0.55555078  0.45054734  0.52327715
   0.45161053  0.43494620  0.51323428
   0.46761304  0.51762549  0.39618487
   0.60244738  0.54919207  0.54087396
   0.40534961  0.41925618  0.41897768
   0.49181605  0.46662283  0.60923944
Direct configuration=    33
   0.48867799  0.52919866  0.50007227
   0.57184691  0.51687225  0.44182161
   0.51606743  0.42514984  0.43221407
   0.50767234  0.57154204  0.58666894
   0.55520704  0.45159757  0.52399735
   0.45125132  0.43416644  0.51368683
   0.46774496  0.51790162  0.39588764
   0.60290241  0.54966974  0.54009652
   0.40536945  0.41958614  0.41946933
   0.49058927  0.46619007  0.60996261
Direct configuration=    34
   0.48841670  0.52918133  0.49982767
   0.57186397  0.51673382  0.44169226
   0.51595733  0.42533030  0.43239183
   0.50770141  0.57133296  0.58666571
   0.55538446  0.45171726  0.52416819
   0.45117732  0.43410623  0.51368826
   0.46780975  0.51792893  0.39594243
   0.60316766  0.54984646  0.54009532
   0.40535938  0.41960286  0.41944113
   0.49049115  0.46609422  0.60996436
Direct configuration=    35
   0.48763282  0.52912932  0.49909390
   0.57191514  0.51631853  0.44130421
   0.51562704  0.42587168  0.43292513
   0.50778863  0.57070574  0.58665603
   0.55591669  0.45207631  0.52468070
   0.45095532  0.43392561  0.51369256
   0.46800410  0.51801086  0.39610678
   0.60396340  0.55037660  0.54009172
   0.40532918  0.41965301  0.41935653
   0.49019681  0.46580670  0.60996962
Direct configuration=    36
   0.48741720  0.52916549  0.49910503
   0.57196176  0.51614576  0.44144093
   0.51551745  0.42593696  0.43328321
   0.50793384  0.57029354  0.58641209
   0.55605912  0.45241379  0.52487212
   0.45094478  0.43395825  0.51376497
   0.46795494  0.51813611  0.39588868
   0.60416365  0.55059980  0.54000052
   0.40526436  0.41964655  0.41922458
   0.49011203  0.46557809  0.60988504
Direct configuration=    37
   0.48683385  0.52926336  0.49913517
   0.57208788  0.51567835  0.44181083
   0.51522094  0.42611358  0.43425196
   0.50832671  0.56917834  0.58575212
   0.55644445  0.45332682  0.52538998
   0.45091629  0.43404657  0.51396088
   0.46782192  0.51847497  0.39529864
   0.60470542  0.55120367  0.53975380
   0.40508900  0.41962907  0.41886761
   0.48988267  0.46495963  0.60965620
Direct configuration=    38
   0.48669180  0.52918785  0.49880987
   0.57199583  0.51562128  0.44209434
   0.51508678  0.42615243  0.43457257
   0.50857741  0.56878556  0.58559258
   0.55644592  0.45373647  0.52556418
   0.45076257  0.43408994  0.51398608
   0.46783805  0.51848959  0.39512330
   0.60503713  0.55157144  0.53954373
   0.40515866  0.41971173  0.41879824
   0.48973497  0.46452806  0.60979230
Direct configuration=    39
   0.48626563  0.52896135  0.49783397
   0.57171971  0.51545007  0.44294488
   0.51468430  0.42626897  0.43553438
   0.50932952  0.56760722  0.58511395
   0.55645033  0.45496541  0.52608679
   0.45030139  0.43422005  0.51406166
   0.46788644  0.51853345  0.39459727
   0.60603226  0.55267477  0.53891355
   0.40536764  0.41995970  0.41859013
   0.48929190  0.46323335  0.61020060
Direct configuration=    40
   0.48541330  0.52850833  0.49588216
   0.57116745  0.51510765  0.44464597
   0.51387935  0.42650207  0.43745802
   0.51083373  0.56525054  0.58415671
   0.55645916  0.45742329  0.52713200
   0.44937903  0.43448027  0.51421282
   0.46798324  0.51862119  0.39354520
   0.60802251  0.55488142  0.53765318
   0.40578561  0.42045565  0.41817390
   0.48840576  0.46064394  0.61101721
Direct configuration=    41
   0.48599009  0.52881490  0.49720298
   0.57154117  0.51533937  0.44349482
   0.51442407  0.42634433  0.43615626
   0.50981580  0.56684534  0.58480449
   0.55645319  0.45576001  0.52642469
   0.45000320  0.43430418  0.51411053
   0.46791774  0.51856182  0.39425715
   0.60667567  0.55338814  0.53850609
   0.40550277  0.42012003  0.41845557
   0.48900542  0.46239624  0.61046460
Direct configuration=    42
   0.48585632  0.52881506  0.49706647
   0.57152676  0.51537491  0.44358835
   0.51439751  0.42633647  0.43629240
   0.50998486  0.56650008  0.58468442
   0.55639430  0.45600254  0.52660573
   0.44986319  0.43434317  0.51419035
   0.46795115  0.51854506  0.39409873
   0.60692447  0.55365549  0.53834848
   0.40553830  0.42017959  0.41842092
   0.48889229  0.46212197  0.61058133
Direct configuration=    43
   0.48545501  0.52881557  0.49665694
   0.57148351  0.51548152  0.44386897
   0.51431782  0.42631290  0.43670083
   0.51049202  0.56546431  0.58432419
   0.55621762  0.45673016  0.52714887
   0.44944314  0.43446015  0.51442981
   0.46805139  0.51849478  0.39362345
   0.60767085  0.55445754  0.53787563
   0.40564489  0.42035828  0.41831697
   0.48855287  0.46129915  0.61093151
Direct configuration=    44
   0.48465239  0.52881659  0.49583787
   0.57139703  0.51569474  0.44443020
   0.51415845  0.42626576  0.43751767
   0.51150634  0.56339275  0.58360374
   0.55586428  0.45818539  0.52823515
   0.44860305  0.43469410  0.51490875
   0.46825187  0.51839423  0.39267289
   0.60916362  0.55606163  0.53692995
   0.40585808  0.42071564  0.41810907
   0.48787403  0.45965353  0.61163188
Direct configuration=    45
   0.48304716  0.52881863  0.49419975
   0.57122405  0.51612117  0.44555266
   0.51383969  0.42617148  0.43915135
   0.51353498  0.55924964  0.58216284
   0.55515759  0.46109584  0.53040770
   0.44692287  0.43516201  0.51586661
   0.46865283  0.51819313  0.39077178
   0.61214915  0.55926981  0.53503858
   0.40628444  0.42143036  0.41769328
   0.48651636  0.45636227  0.61303262
Direct configuration=    46
   0.48207192  0.52895477  0.49388941
   0.57120944  0.51651290  0.44536207
   0.51422113  0.42643339  0.43960394
   0.51453936  0.55697038  0.58177587
   0.55452051  0.46236156  0.53121134
   0.44644578  0.43559874  0.51636077
   0.46930604  0.51785825  0.38996709
   0.61292015  0.56015656  0.53418148
   0.40630728  0.42163466  0.41784416
   0.48578752  0.45539314  0.61368105
Direct configuration=    47
   0.48054473  0.52916795  0.49340343
   0.57118655  0.51712634  0.44506360
   0.51481844  0.42684354  0.44031267
   0.51611218  0.55340113  0.58116990
   0.55352287  0.46434364  0.53246980
   0.44569867  0.43628265  0.51713462
   0.47032896  0.51733385  0.38870696
   0.61412752  0.56154517  0.53283930
   0.40634305  0.42195459  0.41808042
   0.48464616  0.45387549  0.61469648
Direct configuration=    48
   0.47749033  0.52959431  0.49243146
   0.57114078  0.51835321  0.44446667
   0.51601307  0.42766385  0.44173014
   0.51925783  0.54626263  0.57995794
   0.55152758  0.46830780  0.53498673
   0.44420446  0.43765048  0.51868231
   0.47237479  0.51628503  0.38618670
   0.61654225  0.56432240  0.53015494
   0.40641459  0.42259444  0.41855295
   0.48236346  0.45084021  0.61672734
Direct configuration=    49
   0.48028319  0.52920445  0.49332020
   0.57118263  0.51723139  0.44501249
   0.51492073  0.42691378  0.44043404
   0.51638153  0.55278990  0.58106612
   0.55335202  0.46468307  0.53268531
   0.44557073  0.43639977  0.51726714
   0.47050413  0.51724404  0.38849116
   0.61433428  0.56178297  0.53260945
   0.40634918  0.42200937  0.41812088
   0.48445071  0.45361560  0.61487037
