  16  16   0   0
  0.9242021E+03  0.2364122E-08  0.2480268E-08  0.2521845E-08  0.5000000E-15
   1.0000000000000000E-004
  CAR 
 unknown system                          
      2.30040364    -11.15368549  301     -4.23424358      1.00000000
    -11.154  0.0000E+00  0.0000E+00  0.0000E+00  0.0000E+00
    -11.109  0.0000E+00  0.0000E+00  0.0000E+00  0.0000E+00
    -11.064  0.0000E+00  0.0000E+00  0.0000E+00  0.0000E+00
    -11.019  0.0000E+00  0.0000E+00  0.0000E+00  0.0000E+00
    -10.974  0.0000E+00  0.0000E+00  0.0000E+00  0.0000E+00
    -10.929  0.0000E+00  0.0000E+00  0.0000E+00  0.0000E+00
    -10.885  0.0000E+00  0.0000E+00  0.0000E+00  0.0000E+00
    -10.840  0.0000E+00  0.0000E+00  0.0000E+00  0.0000E+00
    -10.795 -0.2932E-30  0.0000E+00 -0.1315E-31  0.0000E+00
    -10.750 -0.1046E-28  0.0000E+00 -0.4824E-30  0.0000E+00
    -10.705 -0.3457E-27 -0.1203E-29 -0.1599E-28 -0.5393E-31
    -10.660 -0.1032E-25 -0.4120E-28 -0.4788E-27 -0.1902E-29
    -10.616 -0.2782E-24 -0.1309E-26 -0.1296E-25 -0.6060E-28
    -10.571 -0.6773E-23 -0.3755E-25 -0.3167E-24 -0.1745E-26
    -10.526 -0.1489E-21 -0.9730E-24 -0.6995E-23 -0.4538E-25
    -10.481 -0.2956E-20 -0.2277E-22 -0.1396E-21 -0.1067E-23
    -10.436 -0.5297E-19 -0.4811E-21 -0.2515E-20 -0.2264E-22
    -10.391 -0.8569E-18 -0.9179E-20 -0.4094E-19 -0.4343E-21
    -10.346 -0.1251E-16 -0.1581E-18 -0.6019E-18 -0.7524E-20
    -10.302 -0.1598E-15 -0.2457E-17 -0.7769E-17 -0.1177E-18
    -10.257 -0.1894E-14 -0.3323E-16 -0.9269E-16 -0.1608E-17
    -10.212 -0.2024E-13 -0.4226E-15 -0.1000E-14 -0.2056E-16
    -10.167 -0.1949E-12 -0.4813E-14 -0.9742E-14 -0.2364E-15
    -10.122 -0.1691E-11 -0.4939E-13 -0.8558E-13 -0.2451E-14
    -10.077 -0.1321E-10 -0.4568E-12 -0.6781E-12 -0.2294E-13
    -10.033 -0.9290E-10 -0.3805E-11 -0.4844E-11 -0.1936E-12
     -9.988 -0.5874E-09 -0.2854E-10 -0.3119E-10 -0.1473E-11
     -9.943 -0.3338E-08 -0.1926E-09 -0.1809E-09 -0.1011E-10
     -9.898 -0.1702E-07 -0.1168E-08 -0.9443E-09 -0.6250E-10
     -9.853 -0.7784E-07 -0.6366E-08 -0.4435E-08 -0.3480E-09
     -9.808 -0.3186E-06 -0.3113E-07 -0.1872E-07 -0.1744E-08
     -9.763 -0.1164E-05 -0.1364E-06 -0.7094E-07 -0.7859E-08
     -9.719 -0.3789E-05 -0.5342E-06 -0.2409E-06 -0.3182E-07
     -9.674 -0.1094E-04 -0.1867E-05 -0.7314E-06 -0.1156E-06
     -9.629 -0.2782E-04 -0.5803E-05 -0.1979E-05 -0.3758E-06
     -9.584 -0.6178E-04 -0.1596E-04 -0.4749E-05 -0.1092E-05
     -9.539 -0.1178E-03 -0.3857E-04 -0.1003E-04 -0.2821E-05
     -9.494 -0.1867E-03 -0.8093E-04 -0.1840E-04 -0.6451E-05
     -9.450 -0.2268E-03 -0.1444E-03 -0.2858E-04 -0.1293E-04
     -9.405 -0.1506E-03 -0.2094E-03 -0.3533E-04 -0.2232E-04
     -9.360  0.1624E-03 -0.2173E-03 -0.2805E-04 -0.3206E-04
     -9.315  0.8090E-03 -0.6369E-04  0.8232E-05 -0.3492E-04
     -9.270  0.1774E-02  0.3721E-03  0.8779E-04 -0.1823E-04
     -9.225  0.2868E-02  0.1155E-02  0.2164E-03  0.3357E-04
     -9.180  0.3757E-02  0.2209E-02  0.3849E-03  0.1326E-03
     -9.136  0.4098E-02  0.3282E-02  0.5687E-03  0.2798E-03
     -9.091  0.3726E-02  0.4028E-02  0.7358E-03  0.4605E-03
     -9.046  0.2749E-02  0.4164E-02  0.8591E-03  0.6472E-03
     -9.001  0.1524E-02  0.3631E-02  0.9274E-03  0.8101E-03
     -8.956  0.5187E-03  0.2618E-02  0.9507E-03  0.9275E-03
     -8.911  0.1585E-03  0.1455E-02  0.9578E-03  0.9927E-03
     -8.866  0.7161E-03  0.4390E-03  0.9899E-03  0.1012E-02
     -8.822  0.2234E-02 -0.2649E-03  0.1090E-02  0.1001E-02
     -8.777  0.4480E-02 -0.6102E-03  0.1291E-02  0.9731E-03
     -8.732  0.6971E-02 -0.5737E-03  0.1604E-02  0.9474E-03
     -8.687  0.9111E-02 -0.8075E-04  0.2012E-02  0.9438E-03
     -8.642  0.1042E-01  0.9806E-03  0.2480E-02  0.9878E-03
     -8.597  0.1074E-01  0.2659E-02  0.2961E-02  0.1107E-02
     -8.553  0.1029E-01  0.4823E-02  0.3423E-02  0.1323E-02
     -8.508  0.9534E-02  0.7121E-02  0.3851E-02  0.1643E-02
     -8.463  0.8936E-02  0.9071E-02  0.4251E-02  0.2050E-02
     -8.418  0.8776E-02  0.1025E-01  0.4645E-02  0.2509E-02
     -8.373  0.9057E-02  0.1051E-01  0.5051E-02  0.2980E-02
     -8.328  0.9575E-02  0.1001E-01  0.5481E-02  0.3429E-02
     -8.283  0.1008E-01  0.9182E-02  0.5933E-02  0.3841E-02
     -8.239  0.1043E-01  0.8464E-02  0.6400E-02  0.4221E-02
     -8.194  0.1057E-01  0.8106E-02  0.6875E-02  0.4584E-02
     -8.149  0.1048E-01  0.8120E-02  0.7345E-02  0.4948E-02
     -8.104  0.1001E-01  0.8391E-02  0.7794E-02  0.5325E-02
     -8.059  0.8964E-02  0.8830E-02  0.8196E-02  0.5721E-02
     -8.014  0.7299E-02  0.9418E-02  0.8523E-02  0.6143E-02
     -7.970  0.5323E-02  0.1011E-01  0.8762E-02  0.6596E-02
     -7.925  0.3650E-02  0.1070E-01  0.8926E-02  0.7076E-02
     -7.880  0.2900E-02  0.1083E-01  0.9056E-02  0.7562E-02
     -7.835  0.3328E-02  0.1013E-01  0.9205E-02  0.8016E-02
     -7.790  0.4651E-02  0.8570E-02  0.9413E-02  0.8400E-02
     -7.745  0.6232E-02  0.6526E-02  0.9693E-02  0.8693E-02
     -7.700  0.7523E-02  0.4726E-02  0.1003E-01  0.8905E-02
     -7.656  0.8447E-02  0.3860E-02  0.1041E-01  0.9078E-02
     -7.611  0.9430E-02  0.4186E-02  0.1083E-01  0.9266E-02
     -7.566  0.1103E-01  0.5370E-02  0.1133E-01  0.9507E-02
     -7.521  0.1342E-01  0.6708E-02  0.1193E-01  0.9808E-02
     -7.476  0.1621E-01  0.7590E-02  0.1266E-01  0.1015E-01
     -7.431  0.1867E-01  0.7916E-02  0.1349E-01  0.1050E-01
     -7.387  0.2026E-01  0.8142E-02  0.1440E-01  0.1087E-01
     -7.342  0.2101E-01  0.8933E-02  0.1534E-01  0.1127E-01
     -7.297  0.2148E-01  0.1067E-01  0.1631E-01  0.1175E-01
     -7.252  0.2224E-01  0.1316E-01  0.1730E-01  0.1234E-01
     -7.207  0.2340E-01  0.1581E-01  0.1835E-01  0.1305E-01
     -7.162  0.2453E-01  0.1799E-01  0.1945E-01  0.1385E-01
     -7.117  0.2499E-01  0.1948E-01  0.2057E-01  0.1473E-01
     -7.073  0.2433E-01  0.2052E-01  0.2167E-01  0.1565E-01
     -7.028  0.2262E-01  0.2151E-01  0.2268E-01  0.1661E-01
     -6.983  0.2036E-01  0.2265E-01  0.2359E-01  0.1763E-01
     -6.938  0.1811E-01  0.2372E-01  0.2441E-01  0.1869E-01
     -6.893  0.1631E-01  0.2423E-01  0.2514E-01  0.1978E-01
     -6.848  0.1523E-01  0.2380E-01  0.2582E-01  0.2085E-01
     -6.804  0.1495E-01  0.2242E-01  0.2649E-01  0.2185E-01
     -6.759  0.1537E-01  0.2046E-01  0.2718E-01  0.2277E-01
     -6.714  0.1623E-01  0.1844E-01  0.2791E-01  0.2360E-01
     -6.669  0.1708E-01  0.1676E-01  0.2867E-01  0.2435E-01
     -6.624  0.1751E-01  0.1559E-01  0.2946E-01  0.2505E-01
     -6.579  0.1736E-01  0.1503E-01  0.3024E-01  0.2572E-01
     -6.534  0.1684E-01  0.1511E-01  0.3099E-01  0.2640E-01
     -6.490  0.1636E-01  0.1585E-01  0.3173E-01  0.2711E-01
     -6.445  0.1634E-01  0.1705E-01  0.3246E-01  0.2787E-01
     -6.400  0.1690E-01  0.1826E-01  0.3322E-01  0.2869E-01
     -6.355  0.1783E-01  0.1888E-01  0.3402E-01  0.2954E-01
     -6.310  0.1872E-01  0.1849E-01  0.3486E-01  0.3037E-01
     -6.265  0.1918E-01  0.1715E-01  0.3572E-01  0.3114E-01
     -6.221  0.1906E-01  0.1541E-01  0.3657E-01  0.3183E-01
     -6.176  0.1848E-01  0.1409E-01  0.3740E-01  0.3246E-01
     -6.131  0.1770E-01  0.1382E-01  0.3819E-01  0.3308E-01
     -6.086  0.1691E-01  0.1472E-01  0.3895E-01  0.3374E-01
     -6.041  0.1610E-01  0.1640E-01  0.3967E-01  0.3448E-01
     -5.996  0.1509E-01  0.1811E-01  0.4035E-01  0.3529E-01
     -5.951  0.1379E-01  0.1917E-01  0.4097E-01  0.3615E-01
     -5.907  0.1243E-01  0.1925E-01  0.4153E-01  0.3701E-01
     -5.862  0.1149E-01  0.1848E-01  0.4204E-01  0.3784E-01
     -5.817  0.1142E-01  0.1725E-01  0.4255E-01  0.3861E-01
     -5.772  0.1234E-01  0.1594E-01  0.4311E-01  0.3933E-01
     -5.727  0.1393E-01  0.1470E-01  0.4373E-01  0.3999E-01
     -5.682  0.1563E-01  0.1355E-01  0.4443E-01  0.4060E-01
     -5.638  0.1696E-01  0.1254E-01  0.4519E-01  0.4116E-01
     -5.593  0.1782E-01  0.1200E-01  0.4599E-01  0.4170E-01
     -5.548  0.1844E-01  0.1238E-01  0.4682E-01  0.4225E-01
     -5.503  0.1928E-01  0.1389E-01  0.4768E-01  0.4287E-01
     -5.458  0.2065E-01  0.1622E-01  0.4861E-01  0.4360E-01
     -5.413  0.2250E-01  0.1859E-01  0.4962E-01  0.4443E-01
     -5.368  0.2443E-01  0.2021E-01  0.5072E-01  0.4534E-01
     -5.324  0.2590E-01  0.2074E-01  0.5188E-01  0.4627E-01
     -5.279  0.2672E-01  0.2056E-01  0.5307E-01  0.4719E-01
     -5.234  0.2721E-01  0.2043E-01  0.5429E-01  0.4811E-01
     -5.189  0.2801E-01  0.2099E-01  0.5555E-01  0.4905E-01
     -5.144  0.2960E-01  0.2231E-01  0.5688E-01  0.5005E-01
     -5.099  0.3184E-01  0.2387E-01  0.5831E-01  0.5112E-01
     -5.054  0.3397E-01  0.2500E-01  0.5983E-01  0.5224E-01
     -5.010  0.3499E-01  0.2537E-01  0.6140E-01  0.5338E-01
     -4.965  0.3432E-01  0.2528E-01  0.6294E-01  0.5451E-01
     -4.920  0.3215E-01  0.2545E-01  0.6438E-01  0.5566E-01
     -4.875  0.2949E-01  0.2644E-01  0.6570E-01  0.5684E-01
     -4.830  0.2772E-01  0.2825E-01  0.6695E-01  0.5811E-01
     -4.785  0.2801E-01  0.3021E-01  0.6820E-01  0.5946E-01
     -4.741  0.3072E-01  0.3146E-01  0.6958E-01  0.6087E-01
     -4.696  0.3520E-01  0.3147E-01  0.7116E-01  0.6229E-01
     -4.651  0.3988E-01  0.3044E-01  0.7295E-01  0.6365E-01
     -4.606  0.4290E-01  0.2915E-01  0.7487E-01  0.6496E-01
     -4.561  0.4282E-01  0.2849E-01  0.7679E-01  0.6624E-01
     -4.516  0.3927E-01  0.2894E-01  0.7855E-01  0.6753E-01
     -4.471  0.3308E-01  0.3030E-01  0.8004E-01  0.6889E-01
     -4.427  0.2584E-01  0.3188E-01  0.8119E-01  0.7032E-01
     -4.382  0.1917E-01  0.3288E-01  0.8205E-01  0.7180E-01
     -4.337  0.1403E-01  0.3280E-01  0.8268E-01  0.7327E-01
     -4.292  0.1044E-01  0.3168E-01  0.8315E-01  0.7469E-01
     -4.247  0.7873E-02  0.3000E-01  0.8351E-01  0.7603E-01
     -4.202  0.5710E-02  0.2839E-01  0.8376E-01  0.7731E-01
     -4.158  0.3714E-02  0.2718E-01  0.8393E-01  0.7853E-01
     -4.113  0.2068E-02  0.2617E-01  0.8402E-01  0.7970E-01
     -4.068  0.1118E-02  0.2473E-01  0.8407E-01  0.8081E-01
     -4.023  0.1053E-02  0.2227E-01  0.8412E-01  0.8181E-01
     -3.978  0.1736E-02  0.1866E-01  0.8420E-01  0.8265E-01
     -3.933  0.2777E-02  0.1435E-01  0.8432E-01  0.8329E-01
     -3.888  0.3745E-02  0.1018E-01  0.8449E-01  0.8375E-01
     -3.844  0.4388E-02  0.6896E-02  0.8468E-01  0.8406E-01
     -3.799  0.4698E-02  0.4858E-02  0.8490E-01  0.8427E-01
     -3.754  0.4801E-02  0.3942E-02  0.8511E-01  0.8445E-01
     -3.709  0.4776E-02  0.3743E-02  0.8533E-01  0.8462E-01
     -3.664  0.4564E-02  0.3861E-02  0.8553E-01  0.8479E-01
     -3.619  0.4031E-02  0.4069E-02  0.8571E-01  0.8497E-01
     -3.575  0.3136E-02  0.4281E-02  0.8585E-01  0.8517E-01
     -3.530  0.2023E-02  0.4419E-02  0.8594E-01  0.8536E-01
     -3.485  0.9879E-03  0.4330E-02  0.8599E-01  0.8556E-01
     -3.440  0.3473E-03  0.3862E-02  0.8600E-01  0.8573E-01
     -3.395  0.3109E-03  0.2990E-02  0.8602E-01  0.8586E-01
     -3.350  0.9043E-03  0.1893E-02  0.8606E-01  0.8595E-01
     -3.305  0.1946E-02  0.8847E-03  0.8614E-01  0.8599E-01
     -3.261  0.3084E-02  0.2807E-03  0.8628E-01  0.8600E-01
     -3.216  0.3900E-02  0.2799E-03  0.8646E-01  0.8601E-01
     -3.171  0.4079E-02  0.8977E-03  0.8664E-01  0.8605E-01
     -3.126  0.3542E-02  0.1950E-02  0.8680E-01  0.8614E-01
     -3.081  0.2482E-02  0.3086E-02  0.8691E-01  0.8628E-01
     -3.036  0.1263E-02  0.3892E-02  0.8697E-01  0.8646E-01
     -2.992  0.2749E-03  0.4049E-02  0.8698E-01  0.8664E-01
     -2.947 -0.1734E-03  0.3482E-02  0.8697E-01  0.8679E-01
     -2.902  0.1183E-03  0.2393E-02  0.8698E-01  0.8690E-01
     -2.857  0.1219E-02  0.1176E-02  0.8703E-01  0.8695E-01
     -2.812  0.3007E-02  0.2749E-03  0.8717E-01  0.8697E-01
     -2.767  0.5108E-02  0.6053E-04  0.8739E-01  0.8697E-01
     -2.722  0.6931E-02  0.7519E-03  0.8771E-01  0.8700E-01
     -2.678  0.7869E-02  0.2336E-02  0.8806E-01  0.8711E-01
     -2.633  0.7583E-02  0.4490E-02  0.8840E-01  0.8731E-01
     -2.588  0.6201E-02  0.6601E-02  0.8868E-01  0.8760E-01
     -2.543  0.4276E-02  0.7944E-02  0.8887E-01  0.8796E-01
     -2.498  0.2532E-02  0.8018E-02  0.8898E-01  0.8832E-01
     -2.453  0.1533E-02  0.6820E-02  0.8905E-01  0.8863E-01
     -2.409  0.1462E-02  0.4872E-02  0.8912E-01  0.8884E-01
     -2.364  0.2110E-02  0.2967E-02  0.8921E-01  0.8898E-01
     -2.319  0.3048E-02  0.1769E-02  0.8935E-01  0.8906E-01
     -2.274  0.3890E-02  0.1531E-02  0.8952E-01  0.8913E-01
     -2.229  0.4489E-02  0.2052E-02  0.8972E-01  0.8922E-01
     -2.184  0.4957E-02  0.2875E-02  0.8995E-01  0.8935E-01
     -2.139  0.5499E-02  0.3598E-02  0.9019E-01  0.8951E-01
     -2.095  0.6188E-02  0.4113E-02  0.9047E-01  0.8969E-01
     -2.050  0.6853E-02  0.4619E-02  0.9078E-01  0.8990E-01
     -2.005  0.7157E-02  0.5386E-02  0.9110E-01  0.9014E-01
     -1.960  0.6806E-02  0.6458E-02  0.9140E-01  0.9043E-01
     -1.915  0.5733E-02  0.7506E-02  0.9166E-01  0.9077E-01
     -1.870  0.4145E-02  0.7992E-02  0.9185E-01  0.9113E-01
     -1.826  0.2439E-02  0.7505E-02  0.9196E-01  0.9146E-01
     -1.781  0.1031E-02  0.6041E-02  0.9200E-01  0.9173E-01
     -1.736  0.2215E-03  0.4009E-02  0.9201E-01  0.9191E-01
     -1.691  0.1340E-03  0.2003E-02  0.9202E-01  0.9200E-01
     -1.646  0.7046E-03  0.5228E-03  0.9205E-01  0.9203E-01
     -1.601  0.1720E-02 -0.1758E-03  0.9213E-01  0.9202E-01
     -1.556  0.2895E-02 -0.7703E-04  0.9226E-01  0.9201E-01
     -1.512  0.3990E-02  0.6756E-03  0.9244E-01  0.9204E-01
     -1.467  0.4917E-02  0.1851E-02  0.9266E-01  0.9213E-01
     -1.422  0.5751E-02  0.3190E-02  0.9291E-01  0.9227E-01
     -1.377  0.6595E-02  0.4472E-02  0.9321E-01  0.9247E-01
     -1.332  0.7401E-02  0.5580E-02  0.9354E-01  0.9272E-01
     -1.287  0.7909E-02  0.6504E-02  0.9390E-01  0.9301E-01
     -1.243  0.7767E-02  0.7255E-02  0.9424E-01  0.9334E-01
     -1.198  0.6788E-02  0.7757E-02  0.9455E-01  0.9369E-01
     -1.153  0.5116E-02  0.7823E-02  0.9478E-01  0.9404E-01
     -1.108  0.3202E-02  0.7256E-02  0.9492E-01  0.9436E-01
     -1.063  0.1605E-02  0.6012E-02  0.9499E-01  0.9463E-01
     -1.018  0.7527E-03  0.4292E-02  0.9503E-01  0.9482E-01
     -0.973  0.8006E-03  0.2499E-02  0.9506E-01  0.9494E-01
     -0.929  0.1609E-02  0.1100E-02  0.9514E-01  0.9499E-01
     -0.884  0.2834E-02  0.4646E-03  0.9526E-01  0.9501E-01
     -0.839  0.4067E-02  0.7583E-03  0.9545E-01  0.9504E-01
     -0.794  0.4982E-02  0.1898E-02  0.9567E-01  0.9513E-01
     -0.749  0.5439E-02  0.3556E-02  0.9591E-01  0.9529E-01
     -0.704  0.5512E-02  0.5235E-02  0.9616E-01  0.9552E-01
     -0.659  0.5465E-02  0.6422E-02  0.9641E-01  0.9581E-01
     -0.615  0.5673E-02  0.6813E-02  0.9666E-01  0.9611E-01
     -0.570  0.6469E-02  0.6492E-02  0.9695E-01  0.9641E-01
     -0.525  0.7930E-02  0.5947E-02  0.9731E-01  0.9667E-01
     -0.480  0.9735E-02  0.5846E-02  0.9774E-01  0.9693E-01
     -0.435  0.1123E-01  0.6652E-02  0.9825E-01  0.9723E-01
     -0.390  0.1174E-01  0.8296E-02  0.9877E-01  0.9760E-01
     -0.346  0.1099E-01  0.1016E-01  0.9926E-01  0.9806E-01
     -0.301  0.9269E-02  0.1139E-01  0.9968E-01  0.9857E-01
     -0.256  0.7227E-02  0.1142E-01  0.1000E+00  0.9908E-01
     -0.211  0.5497E-02  0.1025E-01  0.1003E+00  0.9954E-01
     -0.166  0.4418E-02  0.8387E-02  0.1004E+00  0.9992E-01
     -0.121  0.4040E-02  0.6482E-02  0.1006E+00  0.1002E+00
     -0.076  0.4307E-02  0.5024E-02  0.1008E+00  0.1004E+00
     -0.032  0.5184E-02  0.4249E-02  0.1011E+00  0.1006E+00
      0.013  0.6586E-02  0.4254E-02  0.1014E+00  0.1008E+00
      0.058  0.8243E-02  0.5081E-02  0.1017E+00  0.1010E+00
      0.103  0.9674E-02  0.6638E-02  0.1022E+00  0.1013E+00
      0.148  0.1035E-01  0.8565E-02  0.1026E+00  0.1017E+00
      0.193  0.9967E-02  0.1023E-01  0.1031E+00  0.1022E+00
      0.237  0.8550E-02  0.1098E-01  0.1034E+00  0.1027E+00
      0.282  0.6459E-02  0.1043E-01  0.1037E+00  0.1031E+00
      0.327  0.4200E-02  0.8674E-02  0.1039E+00  0.1035E+00
      0.372  0.2227E-02  0.6227E-02  0.1040E+00  0.1038E+00
      0.417  0.8049E-03  0.3735E-02  0.1041E+00  0.1040E+00
      0.462 -0.1662E-04  0.1712E-02  0.1041E+00  0.1041E+00
      0.507 -0.3541E-03  0.3915E-03  0.1040E+00  0.1041E+00
      0.551 -0.3921E-03 -0.2658E-03  0.1040E+00  0.1041E+00
      0.596 -0.2994E-03 -0.4562E-03  0.1040E+00  0.1040E+00
      0.641 -0.1850E-03 -0.4028E-03  0.1040E+00  0.1040E+00
      0.686 -0.9736E-04 -0.2726E-03  0.1040E+00  0.1040E+00
      0.731 -0.4458E-04 -0.1542E-03  0.1040E+00  0.1040E+00
      0.776 -0.1797E-04 -0.7531E-04  0.1040E+00  0.1040E+00
      0.820 -0.6418E-05 -0.3228E-04  0.1040E+00  0.1040E+00
      0.865 -0.2041E-05 -0.1224E-04  0.1040E+00  0.1040E+00
      0.910 -0.5794E-06 -0.4130E-05  0.1040E+00  0.1040E+00
      0.955 -0.1472E-06 -0.1244E-05  0.1040E+00  0.1040E+00
      1.000 -0.3351E-07 -0.3352E-06  0.1040E+00  0.1040E+00
      1.045 -0.6845E-08 -0.8097E-07  0.1040E+00  0.1040E+00
      1.090 -0.1256E-08 -0.1755E-07  0.1040E+00  0.1040E+00
      1.134 -0.2073E-09 -0.3418E-08  0.1040E+00  0.1040E+00
      1.179 -0.3076E-10 -0.5984E-09  0.1040E+00  0.1040E+00
      1.224 -0.4110E-11 -0.9425E-10  0.1040E+00  0.1040E+00
      1.269 -0.4945E-12 -0.1336E-10  0.1040E+00  0.1040E+00
      1.314 -0.5361E-13 -0.1706E-11  0.1040E+00  0.1040E+00
      1.359 -0.5238E-14 -0.1963E-12  0.1040E+00  0.1040E+00
      1.403 -0.4605E-15 -0.2035E-13  0.1040E+00  0.1040E+00
      1.448 -0.3466E-16 -0.1896E-14  0.1040E+00  0.1040E+00
      1.493 -0.4951E-17 -0.1584E-15  0.1040E+00  0.1040E+00
      1.538  0.0000E+00 -0.1485E-16  0.1040E+00  0.1040E+00
      1.583  0.0000E+00  0.0000E+00  0.1040E+00  0.1040E+00
      1.628  0.0000E+00  0.0000E+00  0.1040E+00  0.1040E+00
      1.673  0.0000E+00  0.0000E+00  0.1040E+00  0.1040E+00
      1.717  0.0000E+00  0.0000E+00  0.1040E+00  0.1040E+00
      1.762  0.0000E+00  0.0000E+00  0.1040E+00  0.1040E+00
      1.807  0.0000E+00  0.0000E+00  0.1040E+00  0.1040E+00
      1.852  0.0000E+00  0.0000E+00  0.1040E+00  0.1040E+00
      1.897  0.0000E+00  0.0000E+00  0.1040E+00  0.1040E+00
      1.942  0.0000E+00  0.0000E+00  0.1040E+00  0.1040E+00
      1.986  0.0000E+00  0.0000E+00  0.1040E+00  0.1040E+00
      2.031  0.0000E+00  0.0000E+00  0.1040E+00  0.1040E+00
      2.076  0.0000E+00  0.0000E+00  0.1040E+00  0.1040E+00
      2.121  0.0000E+00  0.0000E+00  0.1040E+00  0.1040E+00
      2.166  0.0000E+00  0.0000E+00  0.1040E+00  0.1040E+00
      2.211  0.0000E+00  0.0000E+00  0.1040E+00  0.1040E+00
      2.256  0.0000E+00  0.0000E+00  0.1040E+00  0.1040E+00
      2.300  0.0000E+00  0.0000E+00  0.1040E+00  0.1040E+00
