   16   16 1000    2
  0.9242021E+03  0.2364122E-08  0.2480268E-08  0.2521845E-08  0.5000000E-15
   1.0000000000000000E-004
  CAR 
 unknown system                          
    160      1    104
 
  0.1262379E-14  0.1262379E-14  0.1262379E-14  0.1000000E+01
    1       -9.153685     -9.081411   1.000000   1.000000
    2       -8.713190     -8.507496   1.000000   1.000000
    3       -8.659321     -8.419028   1.000000   1.000000
    4       -8.561105     -8.348603   1.000000   1.000000
    5       -8.430537     -8.189553   1.000000   1.000000
    6       -8.304802     -8.093039   1.000000   1.000000
    7       -8.253720     -7.965868   1.000000   1.000000
    8       -8.092201     -7.863958   1.000000   1.000000
    9       -8.065087     -7.821391   1.000000   1.000000
   10       -7.724902     -7.510053   1.000000   1.000000
   11       -7.712133     -7.498080   1.000000   1.000000
   12       -7.503209     -7.295644   1.000000   1.000000
   13       -7.482948     -7.213303   1.000000   1.000000
   14       -7.422736     -7.172216   1.000000   1.000000
   15       -7.394790     -7.169597   1.000000   1.000000
   16       -7.371400     -7.080708   1.000000   1.000000
   17       -7.286490     -7.037673   1.000000   1.000000
   18       -7.213710     -6.949955   1.000000   1.000000
   19       -7.186527     -6.944376   1.000000   1.000000
   20       -7.150931     -6.898491   1.000000   1.000000
   21       -7.127129     -6.885803   1.000000   1.000000
   22       -7.092635     -6.827172   1.000000   1.000000
   23       -7.068784     -6.795352   1.000000   1.000000
   24       -6.962049     -6.693195   1.000000   1.000000
   25       -6.952970     -6.677953   1.000000   1.000000
   26       -6.867048     -6.588020   1.000000   1.000000
   27       -6.814790     -6.542513   1.000000   1.000000
   28       -6.694199     -6.436776   1.000000   1.000000
   29       -6.668631     -6.386720   1.000000   1.000000
   30       -6.659725     -6.371009   1.000000   1.000000
   31       -6.558892     -6.312960   1.000000   1.000000
   32       -6.521376     -6.272025   1.000000   1.000000
   33       -6.432065     -6.177834   1.000000   1.000000
   34       -6.364812     -6.060726   1.000000   1.000000
   35       -6.331414     -6.041590   1.000000   1.000000
   36       -6.270346     -5.980865   1.000000   1.000000
   37       -6.241515     -5.939584   1.000000   1.000000
   38       -6.164928     -5.872379   1.000000   1.000000
   39       -6.129075     -5.863024   1.000000   1.000000
   40       -6.022233     -5.730609   1.000000   1.000000
   41       -5.973796     -5.677795   1.000000   1.000000
   42       -5.970104     -5.667207   1.000000   1.000000
   43       -5.791115     -5.490168   1.000000   1.000000
   44       -5.729131     -5.445276   1.000000   1.000000
   45       -5.692636     -5.407400   1.000000   1.000000
   46       -5.613514     -5.365582   1.000000   1.000000
   47       -5.567642     -5.327029   1.000000   1.000000
   48       -5.538744     -5.300150   1.000000   1.000000
   49       -5.451635     -5.195579   1.000000   1.000000
   50       -5.391247     -5.147116   1.000000   1.000000
   51       -5.358403     -5.120634   1.000000   1.000000
   52       -5.338767     -5.069021   1.000000   1.000000
   53       -5.327867     -5.046208   1.000000   1.000000
   54       -5.276806     -5.022144   1.000000   1.000000
   55       -5.242967     -5.008205   1.000000   1.000000
   56       -5.192102     -4.917707   1.000000   1.000007
   57       -5.130919     -4.861692   1.000000   1.000042
   58       -5.110304     -4.839015   1.000000   1.000082
   59       -5.083682     -4.825034   1.000000   1.000121
   60       -5.052914     -4.756341   1.000000   1.000697
   61       -5.021515     -4.734859   1.000000   1.001142
   62       -5.018975     -4.730844   1.000000   1.001249
   63       -4.990106     -4.714758   1.000001   1.001770
   64       -4.953322     -4.681251   1.000002   1.003481
   65       -4.948994     -4.651357   1.000003   1.006005
   66       -4.901571     -4.564758   1.000013   1.020657
   67       -4.850917     -4.543121   1.000058   1.025637
   68       -4.811550     -4.496352   1.000174   1.034451
   69       -4.762689     -4.477321   1.000599   1.035444
   70       -4.733733     -4.470375   1.001171   1.035140
   71       -4.679011     -4.412590   1.003633   1.009939
   72       -4.652401     -4.368338   1.005897   0.949139
   73       -4.640479     -4.353011   1.007219   0.917229
   74       -4.638927     -4.348666   1.007407   0.907108
   75       -4.603199     -4.307298   1.012770   0.787445
   76       -4.597382     -4.283815   1.013836   0.702781
   77       -4.583642     -4.252454   1.016549   0.576703
   78       -4.557131     -4.162299   1.022400   0.216315
   79       -4.527879     -4.154289   1.029044   0.189795
   80       -4.516200     -4.105536   1.031409   0.061405
   81       -4.473776     -4.062683   1.035341  -0.003393
   82       -4.447075     -4.054199   1.030568  -0.011436
   83       -4.294416     -4.021623   0.742285  -0.030497
   84       -4.269402     -3.929495   0.646251  -0.026581
   85       -3.889243     -3.719395  -0.017471  -0.000826
   86       -3.663929     -3.489772  -0.000209  -0.000001
   87       -3.205079     -3.025686  -0.000000  -0.000000
   88       -2.717390     -2.552748  -0.000000  -0.000000
   89       -2.654469     -2.525771  -0.000000  -0.000000
   90       -2.287575     -2.152824  -0.000000  -0.000000
   91       -2.072145     -1.909950  -0.000000  -0.000000
   92       -1.956272     -1.854127  -0.000000  -0.000000
   93       -1.508835     -1.378022  -0.000000  -0.000000
   94       -1.311355     -1.206316  -0.000000  -0.000000
   95       -1.229341     -1.101088  -0.000000  -0.000000
   96       -0.830245     -0.693306  -0.000000  -0.000000
   97       -0.658643     -0.586742  -0.000000  -0.000000
   98       -0.452765     -0.346461  -0.000000  -0.000000
   99       -0.418779     -0.314222  -0.000000  -0.000000
  100       -0.367586     -0.258257  -0.000000  -0.000000
  101       -0.149582     -0.060249  -0.000000  -0.000000
  102        0.071375      0.176562  -0.000000  -0.000000
  103        0.122053      0.200082  -0.000000  -0.000000
  104        0.229680      0.300404  -0.000000  -0.000000
