       N       E                     dE             d eps       ncg     rms          rms(c)
DAV:   1     0.143596818794E+04    0.14360E+04   -0.26864E+04   416   0.731E+02
DAV:   2     0.756101939822E+03   -0.67987E+03   -0.61135E+03   800   0.874E+01
DAV:   3     0.145966455205E+03   -0.61014E+03   -0.56519E+03   696   0.825E+01
DAV:   4    -0.394189809504E+02   -0.18539E+03   -0.16874E+03   576   0.509E+01
DAV:   5    -0.636209767870E+02   -0.24202E+02   -0.19023E+02   560   0.180E+01    0.288E+01
DAV:   6    -0.550804263473E+02    0.85406E+01   -0.46565E+01   448   0.160E+01    0.182E+01
DAV:   7    -0.550683830898E+02    0.12043E-01   -0.50645E+01   456   0.388E+01    0.262E+01
DAV:   8    -0.524092070618E+02    0.26592E+01   -0.19082E+01   456   0.227E+01    0.206E+01
DAV:   9    -0.502950211613E+02    0.21142E+01   -0.17673E+01   472   0.215E+01    0.168E+01
DAV:  10    -0.491478859291E+02    0.11471E+01   -0.10822E+01   480   0.168E+01    0.138E+01
DAV:  11    -0.489155177787E+02    0.23237E+00   -0.64220E+00   464   0.131E+01    0.104E+01
DAV:  12    -0.489508994740E+02   -0.35382E-01   -0.22443E+00   456   0.698E+00    0.510E+00
DAV:  13    -0.498570590063E+02   -0.90616E+00   -0.54896E-01   448   0.407E+00    0.387E+00
DAV:  14    -0.512112842146E+02   -0.13542E+01   -0.44090E-01   440   0.318E+00    0.313E+00
DAV:  15    -0.538757349601E+02   -0.26645E+01   -0.86834E-01   440   0.343E+00    0.340E+00
DAV:  16    -0.548333370366E+02   -0.95760E+00   -0.38026E-01   456   0.304E+00    0.234E+00
DAV:  17    -0.560240096168E+02   -0.11907E+01   -0.28846E-01   440   0.233E+00    0.134E+00
DAV:  18    -0.567189973639E+02   -0.69499E+00   -0.12205E-01   504   0.147E+00    0.133E+00
DAV:  19    -0.570554525143E+02   -0.33646E+00   -0.38435E-02   448   0.839E-01    0.115E+00
DAV:  20    -0.574828651040E+02   -0.42741E+00   -0.40666E-02   440   0.841E-01    0.939E-01
DAV:  21    -0.581154629477E+02   -0.63260E+00   -0.75312E-02   440   0.984E-01    0.889E-01
DAV:  22    -0.586666515318E+02   -0.55119E+00   -0.51420E-02   472   0.734E-01    0.796E-01
DAV:  23    -0.592354184937E+02   -0.56877E+00   -0.52296E-02   440   0.757E-01    0.705E-01
DAV:  24    -0.598016245350E+02   -0.56621E+00   -0.52490E-02   472   0.664E-01    0.449E-01
DAV:  25    -0.601885245283E+02   -0.38690E+00   -0.28081E-02   440   0.541E-01    0.394E-01
DAV:  26    -0.605494554810E+02   -0.36093E+00   -0.24445E-02   448   0.448E-01    0.284E-01
DAV:  27    -0.608208888438E+02   -0.27143E+00   -0.12209E-02   472   0.366E-01    0.265E-01
DAV:  28    -0.610773944721E+02   -0.25651E+00   -0.82848E-03   448   0.293E-01    0.218E-01
DAV:  29    -0.613219671175E+02   -0.24457E+00   -0.91079E-03   472   0.229E-01    0.141E-01
DAV:  30    -0.614379690180E+02   -0.11600E+00   -0.25736E-03   480   0.170E-01    0.121E-01
DAV:  31    -0.614923268832E+02   -0.54358E-01   -0.10968E-03   440   0.137E-01    0.905E-02
DAV:  32    -0.615443831430E+02   -0.52056E-01   -0.98271E-04   424   0.879E-02    0.648E-02
DAV:  33    -0.615815220967E+02   -0.37139E-01   -0.49908E-04   368   0.807E-02    0.592E-02
DAV:  34    -0.616009106326E+02   -0.19389E-01   -0.23375E-04   328   0.637E-02    0.393E-02
DAV:  35    -0.616162295147E+02   -0.15319E-01   -0.19894E-04   328   0.387E-02    0.238E-02
DAV:  36    -0.616252406237E+02   -0.90111E-02   -0.10466E-04   320   0.238E-02    0.159E-02
DAV:  37    -0.616285192234E+02   -0.32786E-02   -0.82429E-05   312   0.219E-02    0.145E-02
DAV:  38    -0.616300267694E+02   -0.15075E-02   -0.37724E-05   304   0.203E-02    0.102E-02
DAV:  39    -0.616313544161E+02   -0.13276E-02   -0.45922E-05   304   0.138E-02    0.679E-03
DAV:  40    -0.616322837955E+02   -0.92938E-03   -0.23352E-05   304   0.978E-03    0.573E-03
DAV:  41    -0.616329887190E+02   -0.70492E-03   -0.14016E-05   304   0.962E-03    0.564E-03
DAV:  42    -0.616334792551E+02   -0.49054E-03   -0.87943E-06   288   0.768E-03    0.378E-03
DAV:  43    -0.616340369537E+02   -0.55770E-03   -0.75605E-06   296   0.498E-03    0.227E-03
DAV:  44    -0.616344249461E+02   -0.38799E-03   -0.39243E-06   288   0.343E-03    0.142E-03
DAV:  45    -0.616345617258E+02   -0.13678E-03   -0.17389E-06   280   0.238E-03    0.987E-04
DAV:  46    -0.616346431443E+02   -0.81418E-04   -0.98528E-07   280   0.169E-03
   1 F= -.61634643E+02 E0= -.61658720E+02  d E =-.616346E+02  mag=     7.4535
       N       E                     dE             d eps       ncg     rms          rms(c)
DAV:   1    -0.618033059005E+02   -0.16874E+00   -0.22147E+02   416   0.391E+01    0.410E+00
DAV:   2    -0.622063209541E+02   -0.40302E+00   -0.38487E+00   432   0.753E+00    0.534E+00
DAV:   3    -0.621455625271E+02    0.60758E-01   -0.10411E+00   432   0.689E+00    0.426E+00
DAV:   4    -0.621147696518E+02    0.30793E-01   -0.36676E-01   440   0.412E+00    0.376E+00
DAV:   5    -0.620611832469E+02    0.53586E-01   -0.19915E-01   440   0.301E+00    0.196E+00
DAV:   6    -0.620639376562E+02   -0.27544E-02   -0.13383E-01   440   0.223E+00    0.175E+00
DAV:   7    -0.620557316639E+02    0.82060E-02   -0.52277E-02   456   0.179E+00    0.136E+00
DAV:   8    -0.620481693807E+02    0.75623E-02   -0.26491E-02   448   0.120E+00    0.474E-01
DAV:   9    -0.620498176276E+02   -0.16482E-02   -0.50984E-03   448   0.440E-01    0.295E-01
DAV:  10    -0.620502880617E+02   -0.47043E-03   -0.17940E-03   448   0.297E-01    0.182E-01
DAV:  11    -0.620516076846E+02   -0.13196E-02   -0.84067E-04   440   0.145E-01    0.893E-02
DAV:  12    -0.620521018596E+02   -0.49418E-03   -0.25112E-04   304   0.100E-01    0.736E-02
DAV:  13    -0.620525888793E+02   -0.48702E-03   -0.12598E-04   296   0.660E-02    0.470E-02
DAV:  14    -0.620530639496E+02   -0.47507E-03   -0.46082E-05   296   0.412E-02    0.354E-02
DAV:  15    -0.620536816066E+02   -0.61766E-03   -0.28479E-05   304   0.255E-02    0.260E-02
DAV:  16    -0.620540537336E+02   -0.37213E-03   -0.18763E-05   296   0.241E-02    0.146E-02
DAV:  17    -0.620543939856E+02   -0.34025E-03   -0.11353E-05   296   0.132E-02    0.708E-03
DAV:  18    -0.620546011978E+02   -0.20721E-03   -0.55094E-06   280   0.882E-03    0.577E-03
DAV:  19    -0.620550449141E+02   -0.44372E-03   -0.70828E-06   296   0.707E-03    0.383E-03
DAV:  20    -0.620553778638E+02   -0.33295E-03   -0.56461E-06   296   0.555E-03    0.414E-03
DAV:  21    -0.620556277448E+02   -0.24988E-03   -0.43250E-06   296   0.518E-03    0.319E-03
DAV:  22    -0.620558200270E+02   -0.19228E-03   -0.33343E-06   296   0.357E-03    0.247E-03
DAV:  23    -0.620559587020E+02   -0.13868E-03   -0.22414E-06   288   0.336E-03    0.207E-03
DAV:  24    -0.620561373826E+02   -0.17868E-03   -0.28937E-06   296   0.316E-03    0.145E-03
DAV:  25    -0.620562189776E+02   -0.81595E-04   -0.17189E-06   288   0.278E-03
   2 F= -.62056219E+02 E0= -.62074815E+02  d E =-.421576E+00  mag=     7.3885
       N       E                     dE             d eps       ncg     rms          rms(c)
DAV:   1    -0.620546097340E+02    0.15276E-02   -0.14840E+01   432   0.100E+01    0.984E-01
DAV:   2    -0.620828183046E+02   -0.28209E-01   -0.27026E-01   448   0.199E+00    0.147E+00
DAV:   3    -0.620766938730E+02    0.61244E-02   -0.76486E-02   448   0.177E+00    0.104E+00
DAV:   4    -0.620760481797E+02    0.64569E-03   -0.27253E-02   440   0.983E-01    0.989E-01
DAV:   5    -0.620718802984E+02    0.41679E-02   -0.13495E-02   432   0.737E-01    0.425E-01
DAV:   6    -0.620724861477E+02   -0.60585E-03   -0.66722E-03   440   0.521E-01    0.427E-01
DAV:   7    -0.620717639930E+02    0.72215E-03   -0.33745E-03   448   0.438E-01    0.326E-01
DAV:   8    -0.620713600934E+02    0.40390E-03   -0.14102E-03   432   0.278E-01    0.903E-02
DAV:   9    -0.620715294648E+02   -0.16937E-03   -0.28818E-04   312   0.112E-01    0.666E-02
DAV:  10    -0.620715839396E+02   -0.54475E-04   -0.98368E-05   288   0.697E-02
   3 F= -.62071584E+02 E0= -.62088217E+02  d E =-.436941E+00  mag=     7.3784
       N       E                     dE             d eps       ncg     rms          rms(c)
DAV:   1    -0.620819823285E+02   -0.10453E-01   -0.19907E+01   416   0.114E+01    0.941E-01
DAV:   2    -0.621158597891E+02   -0.33877E-01   -0.31508E-01   448   0.220E+00    0.147E+00
DAV:   3    -0.621084759828E+02    0.73838E-02   -0.56371E-02   440   0.163E+00    0.721E-01
DAV:   4    -0.621099861225E+02   -0.15101E-02   -0.26948E-02   448   0.966E-01    0.979E-01
DAV:   5    -0.621057244004E+02    0.42617E-02   -0.15023E-02   440   0.734E-01    0.518E-01
DAV:   6    -0.621059590536E+02   -0.23465E-03   -0.10014E-02   448   0.522E-01    0.521E-01
DAV:   7    -0.621050936787E+02    0.86537E-03   -0.59066E-03   464   0.491E-01    0.384E-01
DAV:   8    -0.621043108121E+02    0.78287E-03   -0.22510E-03   472   0.353E-01    0.115E-01
DAV:   9    -0.621044863992E+02   -0.17559E-03   -0.62980E-04   344   0.153E-01    0.120E-01
DAV:  10    -0.621045072762E+02   -0.20877E-04   -0.25237E-04   288   0.106E-01
   4 F= -.62104507E+02 E0= -.62121464E+02  d E =-.329233E-01  mag=     7.3576
       N       E                     dE             d eps       ncg     rms          rms(c)
DAV:   1    -0.621032434412E+02    0.12430E-02   -0.17310E+00   432   0.337E+00    0.276E-01
DAV:   2    -0.621064976414E+02   -0.32542E-02   -0.29010E-02   456   0.674E-01    0.449E-01
DAV:   3    -0.621056211059E+02    0.87654E-03   -0.52658E-03   456   0.505E-01    0.197E-01
DAV:   4    -0.621058259816E+02   -0.20488E-03   -0.20958E-03   448   0.265E-01    0.266E-01
DAV:   5    -0.621054944175E+02    0.33156E-03   -0.10022E-03   368   0.190E-01    0.131E-01
DAV:   6    -0.621055778099E+02   -0.83392E-04   -0.76560E-04   352   0.144E-01
   5 F= -.62105578E+02 E0= -.62122621E+02  d E =-.339939E-01  mag=     7.3462
       N       E                     dE             d eps       ncg     rms          rms(c)
DAV:   1    -0.621096811391E+02   -0.41867E-02   -0.59455E+00   416   0.634E+00    0.373E-01
DAV:   2    -0.621208488321E+02   -0.11168E-01   -0.99016E-02   448   0.125E+00    0.849E-01
DAV:   3    -0.621174952090E+02    0.33536E-02   -0.15887E-02   448   0.834E-01    0.337E-01
DAV:   4    -0.621181711616E+02   -0.67595E-03   -0.60987E-03   448   0.438E-01    0.437E-01
DAV:   5    -0.621173705576E+02    0.80060E-03   -0.23333E-03   456   0.304E-01    0.169E-01
DAV:   6    -0.621175168671E+02   -0.14631E-03   -0.62088E-04   400   0.159E-01    0.151E-01
DAV:   7    -0.621177684773E+02   -0.25161E-03   -0.91913E-04   456   0.176E-01    0.171E-01
DAV:   8    -0.621177788176E+02   -0.10340E-04   -0.53212E-04   328   0.159E-01
   6 F= -.62117779E+02 E0= -.62134391E+02  d E =-.122010E-01  mag=     7.3378
       N       E                     dE             d eps       ncg     rms          rms(c)
DAV:   1    -0.620660686835E+02    0.51700E-01   -0.53592E+01   416   0.191E+01    0.119E+00
DAV:   2    -0.621841810301E+02   -0.11811E+00   -0.92603E-01   440   0.410E+00    0.329E+00
DAV:   3    -0.621363738395E+02    0.47807E-01   -0.17625E-01   440   0.296E+00    0.114E+00
DAV:   4    -0.621371919515E+02   -0.81811E-03   -0.49044E-02   448   0.139E+00    0.105E+00
DAV:   5    -0.621330774323E+02    0.41145E-02   -0.16841E-02   448   0.878E-01    0.607E-01
DAV:   6    -0.621319756197E+02    0.11018E-02   -0.52713E-03   440   0.460E-01    0.388E-01
DAV:   7    -0.621323523064E+02   -0.37669E-03   -0.70432E-03   448   0.467E-01    0.458E-01
DAV:   8    -0.621314373934E+02    0.91491E-03   -0.42895E-03   440   0.433E-01    0.176E-01
DAV:   9    -0.621318762752E+02   -0.43888E-03   -0.15039E-03   448   0.237E-01    0.183E-01
DAV:  10    -0.621319424933E+02   -0.66218E-04   -0.60540E-04   312   0.155E-01
   7 F= -.62131942E+02 E0= -.62147155E+02  d E =-.263647E-01  mag=     7.3313
       N       E                     dE             d eps       ncg     rms          rms(c)
DAV:   1    -0.621292854825E+02    0.25908E-02   -0.12486E+01   416   0.922E+00    0.590E-01
DAV:   2    -0.621591727967E+02   -0.29887E-01   -0.21809E-01   448   0.200E+00    0.166E+00
DAV:   3    -0.621450504005E+02    0.14122E-01   -0.42506E-02   432   0.149E+00    0.506E-01
DAV:   4    -0.621467732099E+02   -0.17228E-02   -0.11751E-02   432   0.663E-01    0.594E-01
DAV:   5    -0.621450268909E+02    0.17463E-02   -0.45921E-03   440   0.423E-01    0.199E-01
DAV:   6    -0.621452776252E+02   -0.25073E-03   -0.15927E-03   440   0.244E-01    0.237E-01
DAV:   7    -0.621450182657E+02    0.25936E-03   -0.17541E-03   456   0.242E-01    0.193E-01
DAV:   8    -0.621448716361E+02    0.14663E-03   -0.77692E-04   432   0.190E-01    0.873E-02
DAV:   9    -0.621449388203E+02   -0.67184E-04   -0.18183E-04   304   0.923E-02
   8 F= -.62144939E+02 E0= -.62158938E+02  d E =-.129963E-01  mag=     7.3181
       N       E                     dE             d eps       ncg     rms          rms(c)
DAV:   1    -0.621332252193E+02    0.11646E-01   -0.12604E+01   416   0.927E+00    0.606E-01
DAV:   2    -0.621631747132E+02   -0.29949E-01   -0.22053E-01   440   0.204E+00    0.170E+00
DAV:   3    -0.621483270251E+02    0.14848E-01   -0.42928E-02   432   0.153E+00    0.493E-01
DAV:   4    -0.621497847350E+02   -0.14577E-02   -0.10946E-02   432   0.668E-01    0.610E-01
DAV:   5    -0.621477246059E+02    0.20601E-02   -0.47263E-03   432   0.428E-01    0.208E-01
DAV:   6    -0.621477207980E+02    0.38079E-05   -0.17919E-03   448   0.258E-01    0.254E-01
DAV:   7    -0.621467909386E+02    0.92986E-03   -0.20865E-03   432   0.263E-01    0.210E-01
DAV:   8    -0.621463297655E+02    0.46117E-03   -0.96513E-04   440   0.208E-01    0.108E-01
DAV:   9    -0.621463635862E+02   -0.33821E-04   -0.40120E-04   296   0.124E-01
   9 F= -.62146364E+02 E0= -.62159061E+02  d E =-.144211E-01  mag=     7.2928
       N       E                     dE             d eps       ncg     rms          rms(c)
DAV:   1    -0.621417530754E+02    0.45767E-02   -0.83831E+00   424   0.750E+00    0.563E-01
DAV:   2    -0.621661882647E+02   -0.24435E-01   -0.16223E-01   440   0.194E+00    0.160E+00
DAV:   3    -0.621513826312E+02    0.14806E-01   -0.37201E-02   424   0.148E+00    0.405E-01
DAV:   4    -0.621530329527E+02   -0.16503E-02   -0.85980E-03   448   0.582E-01    0.582E-01
DAV:   5    -0.621511553303E+02    0.18776E-02   -0.45094E-03   448   0.401E-01    0.179E-01
DAV:   6    -0.621509842345E+02    0.17110E-03   -0.95498E-04   448   0.199E-01    0.179E-01
DAV:   7    -0.621503946279E+02    0.58961E-03   -0.15122E-03   448   0.214E-01    0.228E-01
DAV:   8    -0.621499173967E+02    0.47723E-03   -0.10534E-03   368   0.197E-01    0.102E-01
DAV:   9    -0.621499708993E+02   -0.53503E-04   -0.19200E-04   272   0.901E-02
  10 F= -.62149971E+02 E0= -.62161733E+02  d E =-.360731E-02  mag=     7.2602
       N       E                     dE             d eps       ncg     rms          rms(c)
DAV:   1    -0.621497618614E+02    0.15554E-03   -0.42080E-01   432   0.168E+00    0.136E-01
DAV:   2    -0.621514105958E+02   -0.16487E-02   -0.87218E-03   440   0.455E-01    0.375E-01
DAV:   3    -0.621506160528E+02    0.79454E-03   -0.22218E-03   424   0.351E-01    0.813E-02
DAV:   4    -0.621509002290E+02   -0.28418E-03   -0.49776E-04   312   0.142E-01    0.154E-01
DAV:   5    -0.621509091061E+02   -0.88770E-05   -0.25696E-04   272   0.104E-01
  11 F= -.62150909E+02 E0= -.62162490E+02  d E =-.454552E-02  mag=     7.2481
       N       E                     dE             d eps       ncg     rms          rms(c)
DAV:   1    -0.621461297281E+02    0.47705E-02   -0.70436E+00   416   0.691E+00    0.424E-01
DAV:   2    -0.621606891990E+02   -0.14559E-01   -0.11857E-01   440   0.146E+00    0.103E+00
DAV:   3    -0.621554230321E+02    0.52662E-02   -0.21782E-02   432   0.102E+00    0.334E-01
DAV:   4    -0.621562724062E+02   -0.84937E-03   -0.51676E-03   432   0.447E-01    0.395E-01
DAV:   5    -0.621556568239E+02    0.61558E-03   -0.15194E-03   432   0.294E-01    0.190E-01
DAV:   6    -0.621557844223E+02   -0.12760E-03   -0.92225E-04   408   0.189E-01    0.196E-01
DAV:   7    -0.621559909676E+02   -0.20655E-03   -0.12193E-03   432   0.208E-01    0.200E-01
DAV:   8    -0.621560642772E+02   -0.73310E-04   -0.89241E-04   384   0.182E-01
  12 F= -.62156064E+02 E0= -.62165996E+02  d E =-.515517E-02  mag=     7.2284
       N       E                     dE             d eps       ncg     rms          rms(c)
DAV:   1    -0.621562082920E+02   -0.21732E-03   -0.98224E-02   440   0.823E-01    0.898E-02
DAV:   2    -0.621572263247E+02   -0.10180E-02   -0.30417E-03   448   0.306E-01    0.324E-01
DAV:   3    -0.621566834747E+02    0.54285E-03   -0.14490E-03   440   0.265E-01    0.545E-02
DAV:   4    -0.621569654875E+02   -0.28201E-03   -0.18473E-04   256   0.788E-02    0.542E-02
DAV:   5    -0.621571269599E+02   -0.16147E-03   -0.77487E-05   256   0.574E-02    0.418E-02
DAV:   6    -0.621572507342E+02   -0.12377E-03   -0.19601E-05   264   0.328E-02    0.173E-02
DAV:   7    -0.621574393395E+02   -0.18861E-03   -0.13888E-05   248   0.233E-02    0.250E-02
DAV:   8    -0.621577606123E+02   -0.32127E-03   -0.11901E-05   264   0.210E-02    0.165E-02
DAV:   9    -0.621579753280E+02   -0.21472E-03   -0.71246E-06   264   0.152E-02    0.111E-02
DAV:  10    -0.621581286475E+02   -0.15332E-03   -0.40347E-06   240   0.985E-03    0.453E-03
DAV:  11    -0.621582644879E+02   -0.13584E-03   -0.22732E-06   256   0.448E-03    0.431E-03
DAV:  12    -0.621584467720E+02   -0.18228E-03   -0.19445E-06   240   0.357E-03    0.316E-03
DAV:  13    -0.621586946641E+02   -0.24789E-03   -0.30061E-06   272   0.367E-03    0.357E-03
DAV:  14    -0.621590651217E+02   -0.37046E-03   -0.57570E-06   256   0.430E-03    0.309E-03
DAV:  15    -0.621594383346E+02   -0.37321E-03   -0.86758E-06   288   0.464E-03    0.262E-03
DAV:  16    -0.621596558700E+02   -0.21754E-03   -0.69274E-06   288   0.448E-03    0.194E-03
DAV:  17    -0.621598228659E+02   -0.16700E-03   -0.68515E-06   296   0.355E-03    0.162E-03
DAV:  18    -0.621598988729E+02   -0.76007E-04   -0.44407E-06   280   0.302E-03
  13 F= -.62159899E+02 E0= -.62169756E+02  d E =-.898977E-02  mag=     7.1943
       N       E                     dE             d eps       ncg     rms          rms(c)
DAV:   1    -0.621599035900E+02   -0.80724E-04   -0.14429E+00   432   0.312E+00    0.164E-01
DAV:   2    -0.621619258224E+02   -0.20222E-02   -0.22255E-02   456   0.536E-01    0.267E-01
DAV:   3    -0.621619212526E+02    0.45698E-05   -0.30091E-03   448   0.339E-01    0.217E-01
DAV:   4    -0.621617894714E+02    0.13178E-03   -0.77948E-04   376   0.186E-01    0.132E-01
DAV:   5    -0.621617406172E+02    0.48854E-04   -0.17456E-04   272   0.108E-01
  14 F= -.62161741E+02 E0= -.62171815E+02  d E =-.184174E-02  mag=     7.1950
       N       E                     dE             d eps       ncg     rms          rms(c)
DAV:   1    -0.621594717111E+02    0.23178E-02   -0.25761E+00   440   0.417E+00    0.234E-01
DAV:   2    -0.621637270457E+02   -0.42553E-02   -0.40138E-02   440   0.755E-01    0.510E-01
DAV:   3    -0.621627247621E+02    0.10023E-02   -0.70009E-03   440   0.523E-01    0.236E-01
DAV:   4    -0.621626565721E+02    0.68190E-04   -0.10170E-03   440   0.191E-01    0.139E-01
DAV:   5    -0.621626189620E+02    0.37610E-04   -0.39723E-04   320   0.140E-01
  15 F= -.62162619E+02 E0= -.62172987E+02  d E =-.272009E-02  mag=     7.1972
       N       E                     dE             d eps       ncg     rms          rms(c)
DAV:   1    -0.621627552100E+02   -0.98638E-04   -0.71373E-01   440   0.218E+00    0.172E-01
DAV:   2    -0.621660047011E+02   -0.32495E-02   -0.14717E-02   456   0.618E-01    0.715E-01
DAV:   3    -0.621631967210E+02    0.28080E-02   -0.52457E-03   448   0.524E-01    0.123E-01
DAV:   4    -0.621636525882E+02   -0.45587E-03   -0.65792E-04   432   0.148E-01    0.117E-01
DAV:   5    -0.621636107891E+02    0.41799E-04   -0.18635E-04   256   0.998E-02
  16 F= -.62163611E+02 E0= -.62174075E+02  d E =-.991827E-03  mag=     7.1984
       N       E                     dE             d eps       ncg     rms          rms(c)
DAV:   1    -0.621603483448E+02    0.33042E-02   -0.34395E+00   416   0.476E+00    0.296E-01
DAV:   2    -0.621671851774E+02   -0.68368E-02   -0.58868E-02   432   0.100E+00    0.725E-01
DAV:   3    -0.621645477688E+02    0.26374E-02   -0.11295E-02   432   0.711E-01    0.211E-01
DAV:   4    -0.621649552405E+02   -0.40747E-03   -0.25276E-03   432   0.294E-01    0.257E-01
DAV:   5    -0.621646460604E+02    0.30918E-03   -0.10067E-03   384   0.208E-01    0.108E-01
DAV:   6    -0.621647923748E+02   -0.14631E-03   -0.47290E-04   336   0.142E-01    0.147E-01
DAV:   7    -0.621648063267E+02   -0.13952E-04   -0.60299E-04   392   0.151E-01
  17 F= -.62164806E+02 E0= -.62175795E+02  d E =-.218736E-02  mag=     7.1985
       N       E                     dE             d eps       ncg     rms          rms(c)
DAV:   1    -0.621644656634E+02    0.32671E-03   -0.97538E-01   448   0.255E+00    0.146E-01
DAV:   2    -0.621664091241E+02   -0.19435E-02   -0.16252E-02   448   0.508E-01    0.414E-01
DAV:   3    -0.621657131580E+02    0.69597E-03   -0.30142E-03   440   0.375E-01    0.167E-01
DAV:   4    -0.621657658530E+02   -0.52695E-04   -0.58391E-04   384   0.160E-01
  18 F= -.62165766E+02 E0= -.62176714E+02  d E =-.959526E-03  mag=     7.1985
       N       E                     dE             d eps       ncg     rms          rms(c)
DAV:   1    -0.621628015918E+02    0.29116E-02   -0.32156E+00   416   0.463E+00    0.245E-01
DAV:   2    -0.621683557370E+02   -0.55541E-02   -0.50189E-02   448   0.886E-01    0.580E-01
DAV:   3    -0.621668985300E+02    0.14572E-02   -0.72149E-03   432   0.581E-01    0.248E-01
DAV:   4    -0.621669388990E+02   -0.40369E-04   -0.17076E-03   440   0.264E-01    0.228E-01
DAV:   5    -0.621667084337E+02    0.23047E-03   -0.54921E-04   320   0.166E-01    0.937E-02
DAV:   6    -0.621667391840E+02   -0.30750E-04   -0.34722E-04   344   0.110E-01
  19 F= -.62166739E+02 E0= -.62177182E+02  d E =-.193286E-02  mag=     7.1968
       N       E                     dE             d eps       ncg     rms          rms(c)
DAV:   1    -0.621667822623E+02   -0.73829E-04   -0.49095E-01   448   0.181E+00    0.150E-01
DAV:   2    -0.621691376211E+02   -0.23554E-02   -0.12720E-02   448   0.556E-01    0.589E-01
DAV:   3    -0.621671567530E+02    0.19809E-02   -0.58972E-03   448   0.471E-01    0.891E-02
DAV:   4    -0.621673856324E+02   -0.22888E-03   -0.43331E-04   384   0.110E-01    0.615E-02
DAV:   5    -0.621673877779E+02   -0.21454E-05   -0.11492E-04   280   0.753E-02
  20 F= -.62167388E+02 E0= -.62177756E+02  d E =-.648594E-03  mag=     7.1946
       N       E                     dE             d eps       ncg     rms          rms(c)
DAV:   1    -0.621672140061E+02    0.17163E-03   -0.37717E-01   432   0.158E+00    0.106E-01
DAV:   2    -0.621681531248E+02   -0.93912E-03   -0.62063E-03   440   0.344E-01    0.336E-01
DAV:   3    -0.621675419249E+02    0.61120E-03   -0.15314E-03   432   0.261E-01    0.910E-02
DAV:   4    -0.621676174714E+02   -0.75546E-04   -0.23560E-04   264   0.105E-01
  21 F= -.62167617E+02 E0= -.62177956E+02  d E =-.878287E-03  mag=     7.1916
