 vasp.6.1.2 22Jul20 (build Aug  2 2021 21:04:21) gamma-only                      
 executed on             LinuxPGI date 2021.12.17  00:18:08
 running on   16 total cores
 distrk:  each k-point on   16 cores,    1 groups
 distr:  one band on NCORE=   8 cores,    2 groups


--------------------------------------------------------------------------------------------------------


 INCAR:
 POTCAR:    PAW_PBE Pd 04Jan2005                  
 -----------------------------------------------------------------------------
|                                                                             |
|           W    W    AA    RRRRR   N    N  II  N    N   GGGG   !!!           |
|           W    W   A  A   R    R  NN   N  II  NN   N  G    G  !!!           |
|           W    W  A    A  R    R  N N  N  II  N N  N  G       !!!           |
|           W WW W  AAAAAA  RRRRR   N  N N  II  N  N N  G  GGG   !            |
|           WW  WW  A    A  R   R   N   NN  II  N   NN  G    G                |
|           W    W  A    A  R    R  N    N  II  N    N   GGGG   !!!           |
|                                                                             |
|     You use a magnetic or noncollinear calculation, but did not specify     |
|     the initial magnetic moment with the MAGMOM tag. Note that a            |
|     default of 1 will be used for all atoms. This ferromagnetic setup       |
|     may break the symmetry of the crystal, in particular it may rule        |
|     out finding an antiferromagnetic solution. Thence, we recommend         |
|     setting the initial magnetic moment manually or verifying carefully     |
|     that this magnetic setup is desired.                                    |
|                                                                             |
 -----------------------------------------------------------------------------

 POTCAR:    PAW_PBE Pd 04Jan2005                  
   SHA256 =  dd6f6f02930356371984e2b707ff5e456046761dc76b07c1eba30abd15eb3c39 Pd/POTCAR             
   COPYR  = (c) Copyright 04Jan2005 Georg Kresse                                                    
   COPYR  = This file is part of the software VASP. Any use, copying, and all other rights are regul
   COPYR  = If you do not have a valid VASP license, you may not use, copy or distribute this file. 
   VRHFIN =Pd : s1 d9                                                                               
   LEXCH  = PE                                                                                      
   EATOM  =   809.7530 eV,   59.5152 Ry                                                             
                                                                                                    
   TITEL  = PAW_PBE Pd 04Jan2005                                                                    
   LULTRA =        F    use ultrasoft PP ?                                                          
   IUNSCR =        1    unscreen: 0-lin 1-nonlin 2-no                                               
   RPACOR =    2.000    partial core radius                                                         
   POMASS =  106.420; ZVAL   =   10.000    mass and valenz                                          
   RCORE  =    2.600    outmost cutoff radius                                                       
   RWIGS  =    2.710; RWIGS  =    1.434    wigner-seitz radius (au A)                               
   ENMAX  =  250.925; ENMIN  =  188.194 eV                                                          
   ICORE  =        3    local potential                                                             
   LCOR   =        T    correct aug charges                                                         
   LPAW   =        T    paw PP                                                                      
   EAUG   =  416.230                                                                                
   DEXC   =    0.000                                                                                
   RMAX   =    2.653    core radius for proj-oper                                                   
   RAUG   =    1.300    factor for augmentation sphere                                              
   RDEP   =    2.734    radius for radial grids                                                     
   RDEPT  =    2.103    core radius for aug-charge                                                  
                                                                                                    
   Atomic configuration                                                                             
   12 entries                                                                                       
     n  l   j            E        occ.                                                              
     1  0  0.50    -24164.6631   2.0000                                                             
     2  0  0.50     -3530.9218   2.0000                                                             
     2  1  1.50     -3165.6822   6.0000                                                             
     3  0  0.50      -639.4577   2.0000                                                             
     3  1  1.50      -519.4532   6.0000                                                             
     3  2  2.50      -328.9757  10.0000                                                             
     4  0  0.50       -88.7014   2.0000                                                             
     4  1  1.50       -54.4540   6.0000                                                             
     4  2  2.50        -6.6878   9.0000                                                             
     5  0  0.50        -4.3543   1.0000                                                             
     5  1  0.50        -1.3606   0.0000                                                             
     4  3  2.50        -1.3606   0.0000                                                             
   Description                                                                                      
     l       E           TYP  RCUT    TYP  RCUT                                                     
     2     -6.6878251     23  2.400                                                                 
     2     -8.0484077     23  2.400                                                                 
     0     -4.3542939     23  2.400                                                                 
     0      4.3406793     23  2.400                                                                 
     1     -4.0817478     23  2.600                                                                 
     1     15.8380318     23  2.600                                                                 
     3     -4.0817478     23  2.400                                                                 
  local pseudopotential read in
  partial core-charges read in
  partial kinetic energy density read in
  atomic valenz-charges read in
  non local Contribution for L=            2  read in
    real space projection operators read in
  non local Contribution for L=            2  read in
    real space projection operators read in
  non local Contribution for L=            0  read in
    real space projection operators read in
  non local Contribution for L=            0  read in
    real space projection operators read in
  non local Contribution for L=            1  read in
    real space projection operators read in
  non local Contribution for L=            1  read in
    real space projection operators read in
    PAW grid and wavefunctions read in
 
   number of l-projection  operators is LMAX  =            6
   number of lm-projection operators is LMMAX =           18
 
  PAW_PBE Pd 04Jan2005                  :
 energy of atom  1       EATOM= -809.7530
 kinetic energy error for atom=    0.0091 (will be added to EATOM!!)
 
 
 POSCAR: Pd
  positions in cartesian coordinates
  No initial velocities read in
 exchange correlation table for  LEXCH =        8
   RHO(1)=    0.500       N(1)  =     2000
   RHO(2)=  100.500       N(2)  =     4000
 


--------------------------------------------------------------------------------------------------------


 ion  position               nearest neighbor table
   1  0.490  0.536  0.375-   6 2.56   3 2.62   2 2.63   5 2.64   4 2.66   7 2.74
   2  0.386  0.514  0.402-   7 2.56   5 2.60   1 2.63   6 2.64   8 2.93
   3  0.562  0.519  0.452-  10 2.58   4 2.59   1 2.62  15 2.66  11 2.76   7 2.87   5 2.91
   4  0.525  0.616  0.438-   7 2.57   3 2.59   6 2.63   1 2.66  15 2.78
   5  0.466  0.449  0.431-  10 2.59   2 2.60   1 2.64   8 2.66   9 2.79   7 2.83   3 2.91
   6  0.423  0.614  0.396-   1 2.56   7 2.58   4 2.63   2 2.64
   7  0.449  0.553  0.475-   2 2.56   4 2.57   6 2.58  10 2.63  13 2.64   8 2.67  15 2.68   1 2.74
                             5 2.83   3 2.87
   8  0.392  0.466  0.508-  10 2.63   9 2.65   5 2.66   7 2.67  12 2.73  13 2.73   2 2.93
   9  0.458  0.380  0.518-  10 2.55  12 2.60   8 2.65  14 2.74   5 2.79
  10  0.502  0.474  0.525-  14 2.54   9 2.55  11 2.55   3 2.58   5 2.59   7 2.63   8 2.63  15 2.63
                            12 2.64  16 2.64  13 2.65
  11  0.605  0.490  0.550-  10 2.55  16 2.60  15 2.65  14 2.74   3 2.76
  12  0.439  0.437  0.603-   9 2.60  13 2.63  14 2.63  10 2.64  16 2.70   8 2.73
  13  0.434  0.540  0.578-  12 2.63  16 2.63   7 2.64  10 2.65   8 2.73  15 2.74
  14  0.544  0.404  0.587-  10 2.54  16 2.63  12 2.63   9 2.74  11 2.74
  15  0.536  0.574  0.539-  10 2.63  11 2.65   3 2.66   7 2.68  13 2.74  16 2.74   4 2.78
  16  0.527  0.503  0.622-  11 2.60  13 2.63  14 2.63  10 2.64  12 2.70  15 2.74
 

IMPORTANT INFORMATION: All symmetrisations will be switched off!
NOSYMM: (Re-)initialisation of all symmetry stuff for point group C_1.


----------------------------------------------------------------------------------------

                                     Primitive cell                                     

  volume of cell :   14787.2338

  direct lattice vectors                    reciprocal lattice vectors
    23.641224178  0.000000000  0.000000000     0.042298994  0.000000000  0.000000000
     0.000000000 24.802680812  0.000000000     0.000000000  0.040318222  0.000000000
     0.000000000  0.000000000 25.218447836     0.000000000  0.000000000  0.039653511

  length of vectors
    23.641224178 24.802680812 25.218447836     0.042298994  0.040318222  0.039653511

  position of ions in fractional coordinates (direct lattice)
     0.490349607  0.536124820  0.375257423
     0.385532882  0.513805394  0.402106888
     0.562397063  0.519055406  0.452198969
     0.524859720  0.616128754  0.437692712
     0.466155146  0.449122434  0.430956375
     0.422925481  0.613850189  0.395934250
     0.448661056  0.552720880  0.475239957
     0.391934130  0.466097117  0.508348540
     0.458118327  0.380345355  0.517997568
     0.501581969  0.474201415  0.524748291
     0.604745158  0.490067622  0.550146991
     0.438882229  0.436914213  0.602995741
     0.434202860  0.539714848  0.578420937
     0.543527225  0.404371830  0.587350408
     0.536202011  0.574025071  0.539448150
     0.527366201  0.503091153  0.622375059

  ion indices of the primitive-cell ions
   primitive index   ion index
                 1           1
                 2           2
                 3           3
                 4           4
                 5           5
                 6           6
                 7           7
                 8           8
                 9           9
                10          10
                11          11
                12          12
                13          13
                14          14
                15          15
                16          16

----------------------------------------------------------------------------------------

 
 
 KPOINTS: KPOINTS created by Atomic Simulation Env

Automatic generation of k-mesh.
Space group operators:
 irot       det(A)        alpha          n_x          n_y          n_z        tau_x        tau_y        tau_z
    1     1.000000     0.000000     1.000000     0.000000     0.000000     0.000000     0.000000     0.000000
 
 Subroutine IBZKPT returns following result:
 ===========================================
 
 Found      1 irreducible k-points:
 
 Following reciprocal coordinates:
            Coordinates               Weight
  0.000000  0.000000  0.000000      1.000000
 
 Following cartesian coordinates:
            Coordinates               Weight
  0.000000  0.000000  0.000000      1.000000
 


--------------------------------------------------------------------------------------------------------




 Dimension of arrays:
   k-points           NKPTS =      1   k-points in BZ     NKDIM =      1   number of bands    NBANDS=    104
   number of dos      NEDOS =    301   number of ions     NIONS =     16
   non local maximal  LDIM  =      6   non local SUM 2l+1 LMDIM =     18
   total plane-waves  NPLWV = ******
   max r-space proj   IRMAX =      1   max aug-charges    IRDMAX=   6448
   dimension x,y,z NGX =   120 NGY =  126 NGZ =  126
   dimension x,y,z NGXF=   240 NGYF=  252 NGZF=  252
   support grid    NGXF=   240 NGYF=  252 NGZF=  252
   ions per type =              16
   NGX,Y,Z   is equivalent  to a cutoff of   8.44,  8.45,  8.31 a.u.
   NGXF,Y,Z  is equivalent  to a cutoff of  16.88, 16.89, 16.61 a.u.

 SYSTEM =  unknown system                          
 POSCAR =  Pd                                      

 Startparameter for this run:
   NWRITE =      2    write-flag & timer
   PREC   = normal    normal or accurate (medium, high low for compatibility)
   ISTART =      0    job   : 0-new  1-cont  2-samecut
   ICHARG =      2    charge: 1-file 2-atom 10-const
   ISPIN  =      2    spin polarized calculation?
   LNONCOLLINEAR =      F non collinear calculations
   LSORBIT =      F    spin-orbit coupling
   INIWAV =      1    electr: 0-lowe 1-rand  2-diag
   LASPH  =      F    aspherical Exc in radial PAW
   METAGGA=      F    non-selfconsistent MetaGGA calc.

 Electronic Relaxation 1
   ENCUT  =  400.0 eV  29.40 Ry    5.42 a.u.  38.55 40.45 41.12*2*pi/ulx,y,z
   ENINI  =  400.0     initial cutoff
   ENAUG  =  416.2 eV  augmentation charge cutoff
   NELM   =     60;   NELMIN=  2; NELMDL=  0     # of ELM steps 
   EDIFF  = 0.1E-03   stopping-criterion for ELM
   LREAL  =      F    real-space projection
   NLSPLINE    = F    spline interpolate recip. space projectors
   LCOMPAT=      F    compatible to vasp.4.4
   GGA_COMPAT  = T    GGA compatible to vasp.4.4-vasp.4.6
   LMAXPAW     = -100 max onsite density
   LMAXMIX     =    2 max onsite mixed and CHGCAR
   VOSKOWN=      0    Vosko Wilk Nusair interpolation
   ROPT   =    0.00000
 Ionic relaxation
   EDIFFG = 0.1E-02   stopping-criterion for IOM
   NSW    =   1000    number of steps for IOM
   NBLOCK =      1;   KBLOCK =   1000    inner block; outer block 
   IBRION =      2    ionic relax: 0-MD 1-quasi-New 2-CG
   NFREE  =      1    steps in history (QN), initial steepest desc. (CG)
   ISIF   =      0    stress and relaxation
   IWAVPR =     11    prediction:  0-non 1-charg 2-wave 3-comb
   ISYM   =      0    0-nonsym 1-usesym 2-fastsym
   LCORR  =      T    Harris-Foulkes like correction to forces

   POTIM  = 0.5000    time-step for ionic-motion
   TEIN   =    0.0    initial temperature
   TEBEG  =    0.0;   TEEND  =   0.0 temperature during run
   SMASS  =  -3.00    Nose mass-parameter (am)
   estimated Nose-frequenzy (Omega)   =  0.10E-29 period in steps = 0.13E+47 mass=  -0.128E-25a.u.
   SCALEE = 1.0000    scale energy and forces
   NPACO  =    256;   APACO  = 16.0  distance and # of slots for P.C.
   PSTRESS=    0.0 pullay stress

  Mass of Ions in am
   POMASS = 106.42
  Ionic Valenz
   ZVAL   =  10.00
  Atomic Wigner-Seitz radii
   RWIGS  =  -1.00
  virtual crystal weights 
   VCA    =   1.00
   NELECT =     160.0000    total number of electrons
   NUPDOWN=      -1.0000    fix difference up-down

 DOS related values:
   EMIN   =  10.00;   EMAX   =-10.00  energy-range for DOS
   EFERMI =   0.00
   ISMEAR =     1;   SIGMA  =   0.20  broadening in eV -4-tet -1-fermi 0-gaus

 Electronic relaxation 2 (details)
   IALGO  =     38    algorithm
   LDIAG  =      T    sub-space diagonalisation (order eigenvalues)
   LSUBROT=      F    optimize rotation matrix (better conditioning)
   TURBO    =      0    0=normal 1=particle mesh
   IRESTART =      0    0=no restart 2=restart with 2 vectors
   NREBOOT  =      0    no. of reboots
   NMIN     =      0    reboot dimension
   EREF     =   0.00    reference energy to select bands
   IMIX   =      4    mixing-type and parameters
     AMIX     =   0.40;   BMIX     =  1.00
     AMIX_MAG =   1.60;   BMIX_MAG =  1.00
     AMIN     =   0.10
     WC   =   100.;   INIMIX=   1;  MIXPRE=   1;  MAXMIX= -45

 Intra band minimization:
   WEIMIN = 0.0010     energy-eigenvalue tresh-hold
   EBREAK =  0.24E-06  absolut break condition
   DEPER  =   0.30     relativ break condition  

   TIME   =   0.40     timestep for ELM

  volume/ion in A,a.u.               =     924.20      6236.82
  Fermi-wavevector in a.u.,A,eV,Ry     =   0.362092  0.684255  1.783870  0.131111
  Thomas-Fermi vector in A             =   1.283109
 
 Write flags
   LWAVE        =      F    write WAVECAR
   LDOWNSAMPLE  =      F    k-point downsampling of WAVECAR
   LCHARG       =      F    write CHGCAR
   LVTOT        =      F    write LOCPOT, total local potential
   LVHAR        =      F    write LOCPOT, Hartree potential only
   LELF         =      F    write electronic localiz. function (ELF)
   LORBIT       =      0    0 simple, 1 ext, 2 COOP (PROOUT), +10 PAW based schemes


 Dipole corrections
   LMONO  =      F    monopole corrections only (constant potential shift)
   LDIPOL =      F    correct potential (dipole corrections)
   IDIPOL =      0    1-x, 2-y, 3-z, 4-all directions 
   EPSILON=  1.0000000 bulk dielectric constant

 Exchange correlation treatment:
   GGA     =    PE    GGA type
   LEXCH   =     8    internal setting for exchange type
   VOSKOWN=      0    Vosko Wilk Nusair interpolation
   LHFCALC =     F    Hartree Fock is set to
   LHFONE  =     F    Hartree Fock one center treatment
   AEXX    =    0.0000 exact exchange contribution

 Linear response parameters
   LEPSILON=     F    determine dielectric tensor
   LRPA    =     F    only Hartree local field effects (RPA)
   LNABLA  =     F    use nabla operator in PAW spheres
   LVEL    =     F    velocity operator in full k-point grid
   LINTERFAST=   F  fast interpolation
   KINTER  =     0    interpolate to denser k-point grid
   CSHIFT  =0.1000    complex shift for real part using Kramers Kronig
   OMEGAMAX=  -1.0    maximum frequency
   DEG_THRESHOLD= 0.2000000E-02 threshold for treating states as degnerate
   RTIME   =   -0.100 relaxation time in fs
  (WPLASMAI=    0.000 imaginary part of plasma frequency in eV, 0.658/RTIME)
   DFIELD  = 0.0000000 0.0000000 0.0000000 field for delta impulse in time
 
 Orbital magnetization related:
   ORBITALMAG=     F  switch on orbital magnetization
   LCHIMAG   =     F  perturbation theory with respect to B field
   DQ        =  0.001000  dq finite difference perturbation B field
   LLRAUG    =     F  two centre corrections for induced B field



--------------------------------------------------------------------------------------------------------


 conjugate gradient relaxation of ions
 charge density and potential will be updated during run
 spin polarized calculation
 Variant of blocked Davidson
 Davidson routine will perform the subspace rotation
 perform sub-space diagonalisation
    after iterative eigenvector-optimisation
 modified Broyden-mixing scheme, WC =      100.0
 initial mixing is a Kerker type mixing with AMIX =  0.4000 and BMIX =      1.0000
 Hartree-type preconditioning will be used
 using additional bands            24
 reciprocal scheme for non local part
 use partial core corrections
 calculate Harris-corrections to forces 
   (improved forces if not selfconsistent)
 use gradient corrections 
 use of overlap-Matrix (Vanderbilt PP)
 Methfessel and Paxton  Order N= 1 SIGMA  =   0.20


--------------------------------------------------------------------------------------------------------


  energy-cutoff  :      400.00
  volume of cell :    14787.23
      direct lattice vectors                 reciprocal lattice vectors
    23.641224178  0.000000000  0.000000000     0.042298994  0.000000000  0.000000000
     0.000000000 24.802680812  0.000000000     0.000000000  0.040318222  0.000000000
     0.000000000  0.000000000 25.218447836     0.000000000  0.000000000  0.039653511

  length of vectors
    23.641224178 24.802680812 25.218447836     0.042298994  0.040318222  0.039653511


 
 k-points in units of 2pi/SCALE and weight: KPOINTS created by Atomic Simulation Env
   0.00000000  0.00000000  0.00000000       1.000
 
 k-points in reciprocal lattice and weights: KPOINTS created by Atomic Simulation Env
   0.00000000  0.00000000  0.00000000       1.000
 
 position of ions in fractional coordinates (direct lattice) 
   0.49034961  0.53612482  0.37525742
   0.38553288  0.51380539  0.40210689
   0.56239706  0.51905541  0.45219897
   0.52485972  0.61612875  0.43769271
   0.46615515  0.44912243  0.43095637
   0.42292548  0.61385019  0.39593425
   0.44866106  0.55272088  0.47523996
   0.39193413  0.46609712  0.50834854
   0.45811833  0.38034535  0.51799757
   0.50158197  0.47420141  0.52474829
   0.60474516  0.49006762  0.55014699
   0.43888223  0.43691421  0.60299574
   0.43420286  0.53971485  0.57842094
   0.54352723  0.40437183  0.58735041
   0.53620201  0.57402507  0.53944815
   0.52736620  0.50309115  0.62237506
 
 position of ions in cartesian coordinates  (Angst):
  11.59246500 13.29733280  9.46340975
   9.11446929 12.74375117 10.14051158
  13.29575504 12.87396555 11.40375610
  12.40832631 15.28164483 11.03793083
  11.02047831 11.13944036 10.86805086
   9.99847611 15.22513031  9.98484722
  10.60689661 13.70895957 11.98481406
   9.26580263 11.56045802 12.81976114
  10.83047806  9.43358444 13.06309465
  11.85801177 11.76146633 13.23333740
  14.29691586 12.15499081 13.87385321
  10.37571316 10.83664377 15.20661664
  10.26508715 13.38637511 14.58687822
  12.84964898 10.02950544 14.81206561
  12.67647194 14.23736060 13.60404503
  12.46758257 12.47800929 15.69533297
 


--------------------------------------------------------------------------------------------------------


 use parallel FFT for orbitals z direction half grid
 k-point   1 :   0.0000 0.0000 0.0000  plane waves:  134362

 maximum and minimum number of plane-waves per node :     16805    16783

 maximum number of plane-waves:    134362
 maximum index in each direction: 
   IXMAX=   38   IYMAX=   40   IZMAX=   41
   IXMIN=  -38   IYMIN=  -40   IZMIN=    0


 parallel 3D FFT for wavefunctions:
    minimum data exchange during FFTs selected (reduces bandwidth)
 parallel 3D FFT for charge:
    minimum data exchange during FFTs selected (reduces bandwidth)


 total amount of memory used by VASP MPI-rank0   190207. kBytes
=======================================================================

   base      :      30000. kBytes
   nonl-proj :       6716. kBytes
   fftplans  :      37353. kBytes
   grid      :      88139. kBytes
   one-center:         31. kBytes
   wavefun   :      27968. kBytes
 
     INWAV:  cpu time    0.0001: real time    0.0001
 Broyden mixing: mesh for mixing (old mesh)
   NGX = 77   NGY = 81   NGZ = 83
  (NGX  =240   NGY  =252   NGZ  =252)
  gives a total of 517671 points

 initial charge density was supplied:
 charge density of overlapping atoms calculated
 number of electron     160.0000000 magnetization      16.0000000
 keeping initial charge density in first step


--------------------------------------------------------------------------------------------------------


 Maximum index for augmentation-charges           403 (set IRDMAX)


--------------------------------------------------------------------------------------------------------


 First call to EWALD:  gamma=   0.072
 Maximum number of real-space cells 3x 3x 3
 Maximum number of reciprocal cells 3x 3x 3

    FEWALD:  cpu time    0.0064: real time    0.0064


--------------------------------------- Iteration      1(   1)  ---------------------------------------


    POTLOK:  cpu time    3.1629: real time    3.1711
    SETDIJ:  cpu time    0.0320: real time    0.0320
     EDDAV:  cpu time   12.4741: real time   12.5037
       DOS:  cpu time    0.0100: real time    0.0100
    --------------------------------------------
      LOOP:  cpu time   15.6791: real time   15.7168

 eigenvalue-minimisations  :   416
 total energy-change (2. order) : 0.1435968E+04  (-0.2686368E+04)
 number of electron     160.0000000 magnetization      16.0000000
 augmentation part      160.0000000 magnetization      16.0000000

 Free energy of the ion-electron system (eV)
  ---------------------------------------------------
  alpha Z        PSCENC =        11.28328521
  Ewald energy   TEWEN  =     27037.15535030
  -Hartree energ DENC   =    -39325.48450184
  -exchange      EXHF   =         0.00000000
  -V(xc)+E(xc)   XCENC  =      -478.87079451
  PAW double counting   =     12906.36685261   -11910.91650437
  entropy T*S    EENTRO =         0.01074532
  eigenvalues    EBANDS =       240.52147394
  atomic energy  EATOM  =     12955.90228127
  Solvation  Ediel_sol  =         0.00000000
  ---------------------------------------------------
  free energy    TOTEN  =      1435.96818794 eV

  energy without entropy =     1435.95744261  energy(sigma->0) =     1435.96460616


--------------------------------------------------------------------------------------------------------




--------------------------------------- Iteration      1(   2)  ---------------------------------------


     EDDAV:  cpu time   20.6361: real time   20.6725
       DOS:  cpu time    0.0069: real time    0.0069
    --------------------------------------------
      LOOP:  cpu time   20.6430: real time   20.6794

 eigenvalue-minimisations  :   800
 total energy-change (2. order) :-0.6798662E+03  (-0.6113482E+03)
 number of electron     160.0000000 magnetization      16.0000000
 augmentation part      160.0000000 magnetization      16.0000000

 Free energy of the ion-electron system (eV)
  ---------------------------------------------------
  alpha Z        PSCENC =        11.28328521
  Ewald energy   TEWEN  =     27037.15535030
  -Hartree energ DENC   =    -39325.48450184
  -exchange      EXHF   =         0.00000000
  -V(xc)+E(xc)   XCENC  =      -478.87079451
  PAW double counting   =     12906.36685261   -11910.91650437
  entropy T*S    EENTRO =         0.03217385
  eigenvalues    EBANDS =      -439.36620271
  atomic energy  EATOM  =     12955.90228127
  Solvation  Ediel_sol  =         0.00000000
  ---------------------------------------------------
  free energy    TOTEN  =       756.10193982 eV

  energy without entropy =      756.06976597  energy(sigma->0) =      756.09121520


--------------------------------------------------------------------------------------------------------




--------------------------------------- Iteration      1(   3)  ---------------------------------------


     EDDAV:  cpu time   18.2176: real time   18.2425
       DOS:  cpu time    0.0088: real time    0.0088
    --------------------------------------------
      LOOP:  cpu time   18.2264: real time   18.2513

 eigenvalue-minimisations  :   696
 total energy-change (2. order) :-0.6101355E+03  (-0.5651898E+03)
 number of electron     160.0000000 magnetization      16.0000000
 augmentation part      160.0000000 magnetization      16.0000000

 Free energy of the ion-electron system (eV)
  ---------------------------------------------------
  alpha Z        PSCENC =        11.28328521
  Ewald energy   TEWEN  =     27037.15535030
  -Hartree energ DENC   =    -39325.48450184
  -exchange      EXHF   =         0.00000000
  -V(xc)+E(xc)   XCENC  =      -478.87079451
  PAW double counting   =     12906.36685261   -11910.91650437
  entropy T*S    EENTRO =         0.00646289
  eigenvalues    EBANDS =     -1049.47597636
  atomic energy  EATOM  =     12955.90228127
  Solvation  Ediel_sol  =         0.00000000
  ---------------------------------------------------
  free energy    TOTEN  =       145.96645520 eV

  energy without entropy =      145.95999231  energy(sigma->0) =      145.96430091


--------------------------------------------------------------------------------------------------------




--------------------------------------- Iteration      1(   4)  ---------------------------------------


     EDDAV:  cpu time   15.7287: real time   15.7486
       DOS:  cpu time    0.0095: real time    0.0095
    --------------------------------------------
      LOOP:  cpu time   15.7381: real time   15.7581

 eigenvalue-minimisations  :   576
 total energy-change (2. order) :-0.1853854E+03  (-0.1687353E+03)
 number of electron     160.0000000 magnetization      16.0000000
 augmentation part      160.0000000 magnetization      16.0000000

 Free energy of the ion-electron system (eV)
  ---------------------------------------------------
  alpha Z        PSCENC =        11.28328521
  Ewald energy   TEWEN  =     27037.15535030
  -Hartree energ DENC   =    -39325.48450184
  -exchange      EXHF   =         0.00000000
  -V(xc)+E(xc)   XCENC  =      -478.87079451
  PAW double counting   =     12906.36685261   -11910.91650437
  entropy T*S    EENTRO =         0.02751748
  eigenvalues    EBANDS =     -1234.88246710
  atomic energy  EATOM  =     12955.90228127
  Solvation  Ediel_sol  =         0.00000000
  ---------------------------------------------------
  free energy    TOTEN  =       -39.41898095 eV

  energy without entropy =      -39.44649843  energy(sigma->0) =      -39.42815344


--------------------------------------------------------------------------------------------------------




--------------------------------------- Iteration      1(   5)  ---------------------------------------


     EDDAV:  cpu time   15.5482: real time   15.5817
       DOS:  cpu time    0.0095: real time    0.0095
    CHARGE:  cpu time    1.0942: real time    1.0951
    MIXING:  cpu time    0.0622: real time    0.0623
    --------------------------------------------
      LOOP:  cpu time   16.7141: real time   16.7485

 eigenvalue-minimisations  :   560
 total energy-change (2. order) :-0.2420200E+02  (-0.1902303E+02)
 number of electron     160.0000033 magnetization      15.0740295
 augmentation part       67.5993014 magnetization      12.1713698

 Broyden mixing:
  rms(total) = 0.28781E+01    rms(broyden)= 0.28780E+01
  rms(prec ) = 0.29231E+01
  weight for this iteration     100.00

 Free energy of the ion-electron system (eV)
  ---------------------------------------------------
  alpha Z        PSCENC =        11.28328521
  Ewald energy   TEWEN  =     27037.15535030
  -Hartree energ DENC   =    -39325.48450184
  -exchange      EXHF   =         0.00000000
  -V(xc)+E(xc)   XCENC  =      -478.87079451
  PAW double counting   =     12906.36685261   -11910.91650437
  entropy T*S    EENTRO =         0.03616796
  eigenvalues    EBANDS =     -1259.09311342
  atomic energy  EATOM  =     12955.90228127
  Solvation  Ediel_sol  =         0.00000000
  ---------------------------------------------------
  free energy    TOTEN  =       -63.62097679 eV

  energy without entropy =      -63.65714474  energy(sigma->0) =      -63.63303277


--------------------------------------------------------------------------------------------------------




--------------------------------------- Iteration      1(   6)  ---------------------------------------


    POTLOK:  cpu time    3.1670: real time    3.1794
    SETDIJ:  cpu time    0.0307: real time    0.0307
     EDDAV:  cpu time   13.0691: real time   13.0848
       DOS:  cpu time    0.0030: real time    0.0030
    CHARGE:  cpu time    1.0625: real time    1.0635
    MIXING:  cpu time    0.0583: real time    0.0584
    --------------------------------------------
      LOOP:  cpu time   17.3906: real time   17.4197

 eigenvalue-minimisations  :   448
 total energy-change (2. order) : 0.8540550E+01  (-0.4656476E+01)
 number of electron     160.0000024 magnetization      14.4709296
 augmentation part       68.7322371 magnetization       9.5249557

 Broyden mixing:
  rms(total) = 0.18226E+01    rms(broyden)= 0.18225E+01
  rms(prec ) = 0.19261E+01
  weight for this iteration     100.00

 eigenvalues of (default mixing * dielectric matrix)
  average eigenvalue GAMMA=   0.7678
  0.7678

 Free energy of the ion-electron system (eV)
  ---------------------------------------------------
  alpha Z        PSCENC =        11.28328521
  Ewald energy   TEWEN  =     27037.15535030
  -Hartree energ DENC   =    -39389.99128466
  -exchange      EXHF   =         0.00000000
  -V(xc)+E(xc)   XCENC  =      -474.34277590
  PAW double counting   =     13886.23078080   -12902.16802483
  entropy T*S    EENTRO =        -0.00941357
  eigenvalues    EBANDS =     -1179.14062496
  atomic energy  EATOM  =     12955.90228127
  Solvation  Ediel_sol  =         0.00000000
  ---------------------------------------------------
  free energy    TOTEN  =       -55.08042635 eV

  energy without entropy =      -55.07101277  energy(sigma->0) =      -55.07728849


--------------------------------------------------------------------------------------------------------




--------------------------------------- Iteration      1(   7)  ---------------------------------------


    POTLOK:  cpu time    3.1476: real time    3.1571
    SETDIJ:  cpu time    0.0315: real time    0.0315
     EDDAV:  cpu time   13.2347: real time   13.2597
       DOS:  cpu time    0.0119: real time    0.0119
    CHARGE:  cpu time    1.0874: real time    1.0885
    MIXING:  cpu time    0.0640: real time    0.0640
    --------------------------------------------
      LOOP:  cpu time   17.5771: real time   17.6128

 eigenvalue-minimisations  :   456
 total energy-change (2. order) : 0.1204326E-01  (-0.5064471E+01)
 number of electron     160.0000035 magnetization      13.8288509
 augmentation part       68.0864495 magnetization       9.6121858

 Broyden mixing:
  rms(total) = 0.26226E+01    rms(broyden)= 0.26224E+01
  rms(prec ) = 0.28000E+01
  weight for this iteration     100.00

 eigenvalues of (default mixing * dielectric matrix)
  average eigenvalue GAMMA=   0.7499
  1.1782  0.3217

 Free energy of the ion-electron system (eV)
  ---------------------------------------------------
  alpha Z        PSCENC =        11.28328521
  Ewald energy   TEWEN  =     27037.15535030
  -Hartree energ DENC   =    -39444.30947079
  -exchange      EXHF   =         0.00000000
  -V(xc)+E(xc)   XCENC  =      -468.82152789
  PAW double counting   =     14370.64686232   -13390.07399034
  entropy T*S    EENTRO =        -0.02062646
  eigenvalues    EBANDS =     -1126.83054671
  atomic energy  EATOM  =     12955.90228127
  Solvation  Ediel_sol  =         0.00000000
  ---------------------------------------------------
  free energy    TOTEN  =       -55.06838309 eV

  energy without entropy =      -55.04775663  energy(sigma->0) =      -55.06150760


--------------------------------------------------------------------------------------------------------




--------------------------------------- Iteration      1(   8)  ---------------------------------------


    POTLOK:  cpu time    3.1358: real time    3.1383
    SETDIJ:  cpu time    0.0333: real time    0.0333
     EDDAV:  cpu time   13.2379: real time   13.2617
       DOS:  cpu time    0.0084: real time    0.0085
    CHARGE:  cpu time    1.0768: real time    1.0776
    MIXING:  cpu time    0.0670: real time    0.0670
    --------------------------------------------
      LOOP:  cpu time   17.5591: real time   17.5864

 eigenvalue-minimisations  :   456
 total energy-change (2. order) : 0.2659176E+01  (-0.1908239E+01)
 number of electron     160.0000036 magnetization      13.5731753
 augmentation part       67.7567935 magnetization       8.9699031

 Broyden mixing:
  rms(total) = 0.20579E+01    rms(broyden)= 0.20577E+01
  rms(prec ) = 0.23318E+01
  weight for this iteration     100.00

 eigenvalues of (default mixing * dielectric matrix)
  average eigenvalue GAMMA=   0.6710
  1.3728  0.3201  0.3201

 Free energy of the ion-electron system (eV)
  ---------------------------------------------------
  alpha Z        PSCENC =        11.28328521
  Ewald energy   TEWEN  =     27037.15535030
  -Hartree energ DENC   =    -39495.80447557
  -exchange      EXHF   =         0.00000000
  -V(xc)+E(xc)   XCENC  =      -467.13400303
  PAW double counting   =     14767.19304098   -13790.41639787
  entropy T*S    EENTRO =        -0.00278469
  eigenvalues    EBANDS =     -1070.58550366
  atomic energy  EATOM  =     12955.90228127
  Solvation  Ediel_sol  =         0.00000000
  ---------------------------------------------------
  free energy    TOTEN  =       -52.40920706 eV

  energy without entropy =      -52.40642237  energy(sigma->0) =      -52.40827883


--------------------------------------------------------------------------------------------------------




--------------------------------------- Iteration      1(   9)  ---------------------------------------


    POTLOK:  cpu time    3.1309: real time    3.1362
    SETDIJ:  cpu time    0.0321: real time    0.0322
     EDDAV:  cpu time   13.5063: real time   13.5335
       DOS:  cpu time    0.0051: real time    0.0051
    CHARGE:  cpu time    1.1043: real time    1.1052
    MIXING:  cpu time    0.0775: real time    0.0775
    --------------------------------------------
      LOOP:  cpu time   17.8561: real time   17.8898

 eigenvalue-minimisations  :   472
 total energy-change (2. order) : 0.2114186E+01  (-0.1767290E+01)
 number of electron     160.0000028 magnetization      13.3479394
 augmentation part       67.9121251 magnetization       8.6225871

 Broyden mixing:
  rms(total) = 0.16810E+01    rms(broyden)= 0.16807E+01
  rms(prec ) = 0.18897E+01
  weight for this iteration     100.00

 eigenvalues of (default mixing * dielectric matrix)
  average eigenvalue GAMMA=   0.6116
  1.4512  0.4176  0.4176  0.1600

 Free energy of the ion-electron system (eV)
  ---------------------------------------------------
  alpha Z        PSCENC =        11.28328521
  Ewald energy   TEWEN  =     27037.15535030
  -Hartree energ DENC   =    -39507.00403611
  -exchange      EXHF   =         0.00000000
  -V(xc)+E(xc)   XCENC  =      -467.39333605
  PAW double counting   =     14872.58112505   -13897.13073074
  entropy T*S    EENTRO =        -0.03992630
  eigenvalues    EBANDS =     -1055.64903378
  atomic energy  EATOM  =     12955.90228127
  Solvation  Ediel_sol  =         0.00000000
  ---------------------------------------------------
  free energy    TOTEN  =       -50.29502116 eV

  energy without entropy =      -50.25509486  energy(sigma->0) =      -50.28171239


--------------------------------------------------------------------------------------------------------




--------------------------------------- Iteration      1(  10)  ---------------------------------------


    POTLOK:  cpu time    3.1315: real time    3.1406
    SETDIJ:  cpu time    0.0321: real time    0.0321
     EDDAV:  cpu time   13.7048: real time   13.7196
       DOS:  cpu time    0.0085: real time    0.0085
    CHARGE:  cpu time    1.0676: real time    1.0703
    MIXING:  cpu time    0.0735: real time    0.0736
    --------------------------------------------
      LOOP:  cpu time   18.0180: real time   18.0447

 eigenvalue-minimisations  :   480
 total energy-change (2. order) : 0.1147135E+01  (-0.1082173E+01)
 number of electron     160.0000034 magnetization      13.0921290
 augmentation part       68.2281151 magnetization       8.4926787

 Broyden mixing:
  rms(total) = 0.13816E+01    rms(broyden)= 0.13814E+01
  rms(prec ) = 0.15470E+01
  weight for this iteration     100.00

 eigenvalues of (default mixing * dielectric matrix)
  average eigenvalue GAMMA=   0.5937
  1.5517  0.5242  0.5242  0.1842  0.1842

 Free energy of the ion-electron system (eV)
  ---------------------------------------------------
  alpha Z        PSCENC =        11.28328521
  Ewald energy   TEWEN  =     27037.15535030
  -Hartree energ DENC   =    -39508.96711326
  -exchange      EXHF   =         0.00000000
  -V(xc)+E(xc)   XCENC  =      -467.76168073
  PAW double counting   =     14928.84879862   -13954.14012119
  entropy T*S    EENTRO =        -0.02022426
  eigenvalues    EBANDS =     -1051.44846190
  atomic energy  EATOM  =     12955.90228127
  Solvation  Ediel_sol  =         0.00000000
  ---------------------------------------------------
  free energy    TOTEN  =       -49.14788593 eV

  energy without entropy =      -49.12766167  energy(sigma->0) =      -49.14114451


--------------------------------------------------------------------------------------------------------




--------------------------------------- Iteration      1(  11)  ---------------------------------------


    POTLOK:  cpu time    3.1455: real time    3.1538
    SETDIJ:  cpu time    0.0257: real time    0.0257
     EDDAV:  cpu time   13.3620: real time   13.3859
       DOS:  cpu time    0.0070: real time    0.0070
    CHARGE:  cpu time    1.0772: real time    1.0783
    MIXING:  cpu time    0.0815: real time    0.0815
    --------------------------------------------
      LOOP:  cpu time   17.6988: real time   17.7322

 eigenvalue-minimisations  :   464
 total energy-change (2. order) : 0.2323682E+00  (-0.6422038E+00)
 number of electron     160.0000031 magnetization      12.9647404
 augmentation part       68.3617401 magnetization       8.3231785

 Broyden mixing:
  rms(total) = 0.10449E+01    rms(broyden)= 0.10447E+01
  rms(prec ) = 0.11613E+01
  weight for this iteration     100.00

 eigenvalues of (default mixing * dielectric matrix)
  average eigenvalue GAMMA=   0.5381
  1.5680  0.5575  0.5575  0.2038  0.2038  0.1381

 Free energy of the ion-electron system (eV)
  ---------------------------------------------------
  alpha Z        PSCENC =        11.28328521
  Ewald energy   TEWEN  =     27037.15535030
  -Hartree energ DENC   =    -39515.68043346
  -exchange      EXHF   =         0.00000000
  -V(xc)+E(xc)   XCENC  =      -468.35609405
  PAW double counting   =     14978.14459015   -14003.82334943
  entropy T*S    EENTRO =         0.01147416
  eigenvalues    EBANDS =     -1043.55262192
  atomic energy  EATOM  =     12955.90228127
  Solvation  Ediel_sol  =         0.00000000
  ---------------------------------------------------
  free energy    TOTEN  =       -48.91551778 eV

  energy without entropy =      -48.92699194  energy(sigma->0) =      -48.91934250


--------------------------------------------------------------------------------------------------------




--------------------------------------- Iteration      1(  12)  ---------------------------------------


    POTLOK:  cpu time    3.1380: real time    3.1440
    SETDIJ:  cpu time    0.0342: real time    0.0342
     EDDAV:  cpu time   13.0807: real time   13.1041
       DOS:  cpu time    0.0100: real time    0.0101
    CHARGE:  cpu time    1.0728: real time    1.0737
    MIXING:  cpu time    0.0881: real time    0.0882
    --------------------------------------------
      LOOP:  cpu time   17.4239: real time   17.4543

 eigenvalue-minimisations  :   456
 total energy-change (2. order) :-0.3538170E-01  (-0.2244309E+00)
 number of electron     160.0000031 magnetization      12.8134019
 augmentation part       68.3456429 magnetization       8.0016574

 Broyden mixing:
  rms(total) = 0.51032E+00    rms(broyden)= 0.51020E+00
  rms(prec ) = 0.53970E+00
  weight for this iteration     100.00

 eigenvalues of (default mixing * dielectric matrix)
  average eigenvalue GAMMA=   0.4988
  1.5697  0.5668  0.5668  0.2345  0.1986  0.1986  0.1565

 Free energy of the ion-electron system (eV)
  ---------------------------------------------------
  alpha Z        PSCENC =        11.28328521
  Ewald energy   TEWEN  =     27037.15535030
  -Hartree energ DENC   =    -39522.23244650
  -exchange      EXHF   =         0.00000000
  -V(xc)+E(xc)   XCENC  =      -468.76376855
  PAW double counting   =     14998.36600089   -14024.06814881
  entropy T*S    EENTRO =         0.03560148
  eigenvalues    EBANDS =     -1036.62905476
  atomic energy  EATOM  =     12955.90228127
  Solvation  Ediel_sol  =         0.00000000
  ---------------------------------------------------
  free energy    TOTEN  =       -48.95089947 eV

  energy without entropy =      -48.98650095  energy(sigma->0) =      -48.96276663


--------------------------------------------------------------------------------------------------------




--------------------------------------- Iteration      1(  13)  ---------------------------------------


    POTLOK:  cpu time    3.1425: real time    3.1513
    SETDIJ:  cpu time    0.0321: real time    0.0321
     EDDAV:  cpu time   12.9234: real time   12.9459
       DOS:  cpu time    0.0073: real time    0.0073
    CHARGE:  cpu time    1.0777: real time    1.0800
    MIXING:  cpu time    0.0927: real time    0.0928
    --------------------------------------------
      LOOP:  cpu time   17.2757: real time   17.3093

 eigenvalue-minimisations  :   448
 total energy-change (2. order) :-0.9061595E+00  (-0.5489593E-01)
 number of electron     160.0000032 magnetization      12.6230459
 augmentation part       68.2554712 magnetization       7.7982399

 Broyden mixing:
  rms(total) = 0.38683E+00    rms(broyden)= 0.38678E+00
  rms(prec ) = 0.41573E+00
  weight for this iteration     100.00

 eigenvalues of (default mixing * dielectric matrix)
  average eigenvalue GAMMA=   0.4873
  1.5367  0.5743  0.5743  0.3428  0.3428  0.1937  0.1937  0.1399

 Free energy of the ion-electron system (eV)
  ---------------------------------------------------
  alpha Z        PSCENC =        11.28328521
  Ewald energy   TEWEN  =     27037.15535030
  -Hartree energ DENC   =    -39530.60604562
  -exchange      EXHF   =         0.00000000
  -V(xc)+E(xc)   XCENC  =      -469.38661048
  PAW double counting   =     15017.43650531   -14043.07217923
  entropy T*S    EENTRO =         0.03195879
  eigenvalues    EBANDS =     -1028.60160455
  atomic energy  EATOM  =     12955.90228127
  Solvation  Ediel_sol  =         0.00000000
  ---------------------------------------------------
  free energy    TOTEN  =       -49.85705901 eV

  energy without entropy =      -49.88901780  energy(sigma->0) =      -49.86771194


--------------------------------------------------------------------------------------------------------




--------------------------------------- Iteration      1(  14)  ---------------------------------------


    POTLOK:  cpu time    3.1072: real time    3.1094
    SETDIJ:  cpu time    0.0330: real time    0.0330
     EDDAV:  cpu time   12.6981: real time   12.7173
       DOS:  cpu time    0.0090: real time    0.0090
    CHARGE:  cpu time    1.0530: real time    1.0541
    MIXING:  cpu time    0.1067: real time    0.1067
    --------------------------------------------
      LOOP:  cpu time   17.0070: real time   17.0295

 eigenvalue-minimisations  :   440
 total energy-change (2. order) :-0.1354225E+01  (-0.4408986E-01)
 number of electron     160.0000032 magnetization      12.1677604
 augmentation part       68.2113172 magnetization       7.5037785

 Broyden mixing:
  rms(total) = 0.31284E+00    rms(broyden)= 0.31281E+00
  rms(prec ) = 0.32976E+00
  weight for this iteration     100.00

 eigenvalues of (default mixing * dielectric matrix)
  average eigenvalue GAMMA=   0.5912
  1.5419  0.8637  0.8637  0.8617  0.4467  0.2065  0.2065  0.1862  0.1443

 Free energy of the ion-electron system (eV)
  ---------------------------------------------------
  alpha Z        PSCENC =        11.28328521
  Ewald energy   TEWEN  =     27037.15535030
  -Hartree energ DENC   =    -39537.17485028
  -exchange      EXHF   =         0.00000000
  -V(xc)+E(xc)   XCENC  =      -470.33179410
  PAW double counting   =     15026.63356561   -14052.20148925
  entropy T*S    EENTRO =         0.05674608
  eigenvalues    EBANDS =     -1022.53437905
  atomic energy  EATOM  =     12955.90228127
  Solvation  Ediel_sol  =         0.00000000
  ---------------------------------------------------
  free energy    TOTEN  =       -51.21128421 eV

  energy without entropy =      -51.26803029  energy(sigma->0) =      -51.23019957


--------------------------------------------------------------------------------------------------------




--------------------------------------- Iteration      1(  15)  ---------------------------------------


    POTLOK:  cpu time    3.1102: real time    3.1125
    SETDIJ:  cpu time    0.0297: real time    0.0298
     EDDAV:  cpu time   12.6752: real time   12.6933
       DOS:  cpu time    0.0057: real time    0.0098
    CHARGE:  cpu time    1.0828: real time    1.0837
    MIXING:  cpu time    0.1044: real time    0.1045
    --------------------------------------------
      LOOP:  cpu time   17.0081: real time   17.0335

 eigenvalue-minimisations  :   440
 total energy-change (2. order) :-0.2664451E+01  (-0.8683392E-01)
 number of electron     160.0000032 magnetization      11.9087100
 augmentation part       68.1763484 magnetization       7.5520941

 Broyden mixing:
  rms(total) = 0.33975E+00    rms(broyden)= 0.33971E+00
  rms(prec ) = 0.37325E+00
  weight for this iteration     100.00

 eigenvalues of (default mixing * dielectric matrix)
  average eigenvalue GAMMA=   0.5914
  1.6747  0.9498  0.9027  0.9027  0.4238  0.2892  0.2376  0.1955  0.1955  0.1421

 Free energy of the ion-electron system (eV)
  ---------------------------------------------------
  alpha Z        PSCENC =        11.28328521
  Ewald energy   TEWEN  =     27037.15535030
  -Hartree energ DENC   =    -39548.51778009
  -exchange      EXHF   =         0.00000000
  -V(xc)+E(xc)   XCENC  =      -472.29974140
  PAW double counting   =     15041.88811120   -14067.71999323
  entropy T*S    EENTRO =         0.02068541
  eigenvalues    EBANDS =     -1011.58793363
  atomic energy  EATOM  =     12955.90228127
  Solvation  Ediel_sol  =         0.00000000
  ---------------------------------------------------
  free energy    TOTEN  =       -53.87573496 eV

  energy without entropy =      -53.89642037  energy(sigma->0) =      -53.88263010


--------------------------------------------------------------------------------------------------------




--------------------------------------- Iteration      1(  16)  ---------------------------------------


    POTLOK:  cpu time    3.1224: real time    3.1367
    SETDIJ:  cpu time    0.0301: real time    0.0301
     EDDAV:  cpu time   13.1553: real time   13.1757
       DOS:  cpu time    0.0092: real time    0.0092
    CHARGE:  cpu time    1.0785: real time    1.0794
    MIXING:  cpu time    0.1117: real time    0.1118
    --------------------------------------------
      LOOP:  cpu time   17.5071: real time   17.5428

 eigenvalue-minimisations  :   456
 total energy-change (2. order) :-0.9576021E+00  (-0.3802633E-01)
 number of electron     160.0000031 magnetization      11.5050198
 augmentation part       68.1591715 magnetization       7.2827156

 Broyden mixing:
  rms(total) = 0.23410E+00    rms(broyden)= 0.23406E+00
  rms(prec ) = 0.25939E+00
  weight for this iteration     100.00

 eigenvalues of (default mixing * dielectric matrix)
  average eigenvalue GAMMA=   0.6379
  1.8943  1.1341  1.1341  0.7018  0.7018  0.4704  0.2030  0.2030  0.2289  0.2031
  0.1427

 Free energy of the ion-electron system (eV)
  ---------------------------------------------------
  alpha Z        PSCENC =        11.28328521
  Ewald energy   TEWEN  =     27037.15535030
  -Hartree energ DENC   =    -39553.66115782
  -exchange      EXHF   =         0.00000000
  -V(xc)+E(xc)   XCENC  =      -473.04986512
  PAW double counting   =     15046.23784754   -14072.28592874
  entropy T*S    EENTRO =         0.04154003
  eigenvalues    EBANDS =     -1006.45668970
  atomic energy  EATOM  =     12955.90228127
  Solvation  Ediel_sol  =         0.00000000
  ---------------------------------------------------
  free energy    TOTEN  =       -54.83333704 eV

  energy without entropy =      -54.87487707  energy(sigma->0) =      -54.84718371


--------------------------------------------------------------------------------------------------------




--------------------------------------- Iteration      1(  17)  ---------------------------------------


    POTLOK:  cpu time    3.1035: real time    3.1122
    SETDIJ:  cpu time    0.0317: real time    0.0317
     EDDAV:  cpu time   12.7437: real time   12.7604
       DOS:  cpu time    0.0080: real time    0.0080
    CHARGE:  cpu time    1.0740: real time    1.0773
    MIXING:  cpu time    0.1132: real time    0.1132
    --------------------------------------------
      LOOP:  cpu time   17.0741: real time   17.1028

 eigenvalue-minimisations  :   440
 total energy-change (2. order) :-0.1190673E+01  (-0.2884552E-01)
 number of electron     160.0000032 magnetization      11.2566584
 augmentation part       68.1783526 magnetization       7.1950757

 Broyden mixing:
  rms(total) = 0.13368E+00    rms(broyden)= 0.13365E+00
  rms(prec ) = 0.14327E+00
  weight for this iteration     100.00

 eigenvalues of (default mixing * dielectric matrix)
  average eigenvalue GAMMA=   0.6458
  2.0455  1.2271  1.2271  0.6979  0.6979  0.4345  0.4345  0.1426  0.2016  0.2016
  0.1996  0.2402

 Free energy of the ion-electron system (eV)
  ---------------------------------------------------
  alpha Z        PSCENC =        11.28328521
  Ewald energy   TEWEN  =     27037.15535030
  -Hartree energ DENC   =    -39560.40645404
  -exchange      EXHF   =         0.00000000
  -V(xc)+E(xc)   XCENC  =      -474.00056028
  PAW double counting   =     15043.21329100   -14069.50723787
  entropy T*S    EENTRO =         0.05224720
  eigenvalues    EBANDS =      -999.71621241
  atomic energy  EATOM  =     12955.90228127
  Solvation  Ediel_sol  =         0.00000000
  ---------------------------------------------------
  free energy    TOTEN  =       -56.02400962 eV

  energy without entropy =      -56.07625682  energy(sigma->0) =      -56.04142535


--------------------------------------------------------------------------------------------------------




--------------------------------------- Iteration      1(  18)  ---------------------------------------


    POTLOK:  cpu time    3.1187: real time    3.1212
    SETDIJ:  cpu time    0.0313: real time    0.0313
     EDDAV:  cpu time   14.6000: real time   14.6202
       DOS:  cpu time    0.0059: real time    0.0059
    CHARGE:  cpu time    1.0816: real time    1.0828
    MIXING:  cpu time    0.1273: real time    0.1274
    --------------------------------------------
      LOOP:  cpu time   18.9647: real time   18.9888

 eigenvalue-minimisations  :   504
 total energy-change (2. order) :-0.6949877E+00  (-0.1220524E-01)
 number of electron     160.0000031 magnetization      11.1031663
 augmentation part       68.1728067 magnetization       7.1379156

 Broyden mixing:
  rms(total) = 0.13343E+00    rms(broyden)= 0.13340E+00
  rms(prec ) = 0.14170E+00
  weight for this iteration     100.00

 eigenvalues of (default mixing * dielectric matrix)
  average eigenvalue GAMMA=   0.6276
  2.0799  1.2490  1.2490  0.6940  0.6940  0.4621  0.4621  0.3078  0.1426  0.2046
  0.2046  0.2047  0.2047

 Free energy of the ion-electron system (eV)
  ---------------------------------------------------
  alpha Z        PSCENC =        11.28328521
  Ewald energy   TEWEN  =     27037.15535030
  -Hartree energ DENC   =    -39564.58072122
  -exchange      EXHF   =         0.00000000
  -V(xc)+E(xc)   XCENC  =      -474.53823897
  PAW double counting   =     15040.70713269   -14067.07719046
  entropy T*S    EENTRO =         0.04867087
  eigenvalues    EBANDS =      -995.61956706
  atomic energy  EATOM  =     12955.90228127
  Solvation  Ediel_sol  =         0.00000000
  ---------------------------------------------------
  free energy    TOTEN  =       -56.71899736 eV

  energy without entropy =      -56.76766823  energy(sigma->0) =      -56.73522099


--------------------------------------------------------------------------------------------------------




--------------------------------------- Iteration      1(  19)  ---------------------------------------


    POTLOK:  cpu time    3.1112: real time    3.1141
    SETDIJ:  cpu time    0.0299: real time    0.0300
     EDDAV:  cpu time   13.0276: real time   13.0508
       DOS:  cpu time    0.0068: real time    0.0068
    CHARGE:  cpu time    1.0941: real time    1.0949
    MIXING:  cpu time    0.1322: real time    0.1323
    --------------------------------------------
      LOOP:  cpu time   17.4019: real time   17.4289

 eigenvalue-minimisations  :   448
 total energy-change (2. order) :-0.3364552E+00  (-0.3843520E-02)
 number of electron     160.0000032 magnetization      10.8911501
 augmentation part       68.1633040 magnetization       6.9746909

 Broyden mixing:
  rms(total) = 0.11533E+00    rms(broyden)= 0.11533E+00
  rms(prec ) = 0.12484E+00
  weight for this iteration     100.00

 eigenvalues of (default mixing * dielectric matrix)
  average eigenvalue GAMMA=   0.6540
  2.0515  1.3525  1.3525  0.7182  0.7182  0.6243  0.6243  0.4509  0.1426  0.2023
  0.2023  0.2849  0.2038  0.2282

 Free energy of the ion-electron system (eV)
  ---------------------------------------------------
  alpha Z        PSCENC =        11.28328521
  Ewald energy   TEWEN  =     27037.15535030
  -Hartree energ DENC   =    -39566.90955654
  -exchange      EXHF   =         0.00000000
  -V(xc)+E(xc)   XCENC  =      -474.79959216
  PAW double counting   =     15038.78836378   -14065.19553430
  entropy T*S    EENTRO =         0.05396596
  eigenvalues    EBANDS =      -993.33401604
  atomic energy  EATOM  =     12955.90228127
  Solvation  Ediel_sol  =         0.00000000
  ---------------------------------------------------
  free energy    TOTEN  =       -57.05545251 eV

  energy without entropy =      -57.10941848  energy(sigma->0) =      -57.07344117


--------------------------------------------------------------------------------------------------------




--------------------------------------- Iteration      1(  20)  ---------------------------------------


    POTLOK:  cpu time    3.1507: real time    3.1604
    SETDIJ:  cpu time    0.0304: real time    0.0304
     EDDAV:  cpu time   12.8630: real time   12.8901
       DOS:  cpu time    0.0107: real time    0.0107
    CHARGE:  cpu time    1.1042: real time    1.1081
    MIXING:  cpu time    0.1522: real time    0.1523
    --------------------------------------------
      LOOP:  cpu time   17.3112: real time   17.3519

 eigenvalue-minimisations  :   440
 total energy-change (2. order) :-0.4274126E+00  (-0.4066567E-02)
 number of electron     160.0000032 magnetization      10.5605485
 augmentation part       68.1682008 magnetization       6.7160021

 Broyden mixing:
  rms(total) = 0.93904E-01    rms(broyden)= 0.93900E-01
  rms(prec ) = 0.10237E+00
  weight for this iteration     100.00

 eigenvalues of (default mixing * dielectric matrix)
  average eigenvalue GAMMA=   0.6783
  2.1722  1.4322  1.4322  0.8575  0.8575  0.6892  0.6892  0.4566  0.3250  0.1426
  0.2026  0.2026  0.2903  0.2099  0.2148

 Free energy of the ion-electron system (eV)
  ---------------------------------------------------
  alpha Z        PSCENC =        11.28328521
  Ewald energy   TEWEN  =     27037.15535030
  -Hartree energ DENC   =    -39568.80096891
  -exchange      EXHF   =         0.00000000
  -V(xc)+E(xc)   XCENC  =      -475.16210890
  PAW double counting   =     15031.68364585   -14058.14659412
  entropy T*S    EENTRO =         0.05322279
  eigenvalues    EBANDS =      -991.45097858
  atomic energy  EATOM  =     12955.90228127
  Solvation  Ediel_sol  =         0.00000000
  ---------------------------------------------------
  free energy    TOTEN  =       -57.48286510 eV

  energy without entropy =      -57.53608789  energy(sigma->0) =      -57.50060603


--------------------------------------------------------------------------------------------------------




--------------------------------------- Iteration      1(  21)  ---------------------------------------


    POTLOK:  cpu time    3.1206: real time    3.1227
    SETDIJ:  cpu time    0.0301: real time    0.0301
     EDDAV:  cpu time   12.9073: real time   12.9231
       DOS:  cpu time    0.0082: real time    0.0082
    CHARGE:  cpu time    1.0791: real time    1.0801
    MIXING:  cpu time    0.1532: real time    0.1533
    --------------------------------------------
      LOOP:  cpu time   17.2984: real time   17.3176

 eigenvalue-minimisations  :   440
 total energy-change (2. order) :-0.6325978E+00  (-0.7531196E-02)
 number of electron     160.0000032 magnetization      10.2204100
 augmentation part       68.1657459 magnetization       6.4749709

 Broyden mixing:
  rms(total) = 0.88896E-01    rms(broyden)= 0.88884E-01
  rms(prec ) = 0.94172E-01
  weight for this iteration     100.00

 eigenvalues of (default mixing * dielectric matrix)
  average eigenvalue GAMMA=   0.6910
  2.4252  1.5475  1.5475  0.7988  0.7988  0.6778  0.6778  0.5827  0.4666  0.3227
  0.1426  0.2026  0.2026  0.2412  0.2106  0.2106

 Free energy of the ion-electron system (eV)
  ---------------------------------------------------
  alpha Z        PSCENC =        11.28328521
  Ewald energy   TEWEN  =     27037.15535030
  -Hartree energ DENC   =    -39572.40378383
  -exchange      EXHF   =         0.00000000
  -V(xc)+E(xc)   XCENC  =      -475.69336434
  PAW double counting   =     15022.91434419   -14049.44500962
  entropy T*S    EENTRO =         0.05372614
  eigenvalues    EBANDS =      -987.88229226
  atomic energy  EATOM  =     12955.90228127
  Solvation  Ediel_sol  =         0.00000000
  ---------------------------------------------------
  free energy    TOTEN  =       -58.11546295 eV

  energy without entropy =      -58.16918909  energy(sigma->0) =      -58.13337166


--------------------------------------------------------------------------------------------------------




--------------------------------------- Iteration      1(  22)  ---------------------------------------


    POTLOK:  cpu time    3.1245: real time    3.1277
    SETDIJ:  cpu time    0.0311: real time    0.0311
     EDDAV:  cpu time   13.4677: real time   13.4898
       DOS:  cpu time    0.0061: real time    0.0061
    CHARGE:  cpu time    1.0968: real time    1.0977
    MIXING:  cpu time    0.1695: real time    0.1696
    --------------------------------------------
      LOOP:  cpu time   17.8957: real time   17.9219

 eigenvalue-minimisations  :   472
 total energy-change (2. order) :-0.5511886E+00  (-0.5141999E-02)
 number of electron     160.0000032 magnetization       9.8365320
 augmentation part       68.1598031 magnetization       6.1647507

 Broyden mixing:
  rms(total) = 0.79584E-01    rms(broyden)= 0.79579E-01
  rms(prec ) = 0.84727E-01
  weight for this iteration     100.00

 eigenvalues of (default mixing * dielectric matrix)
  average eigenvalue GAMMA=   0.6973
  2.7500  1.3415  1.3415  0.9941  0.7593  0.7593  0.7762  0.7762  0.4602  0.3803
  0.3054  0.1426  0.2026  0.2026  0.2093  0.2155  0.2369

 Free energy of the ion-electron system (eV)
  ---------------------------------------------------
  alpha Z        PSCENC =        11.28328521
  Ewald energy   TEWEN  =     27037.15535030
  -Hartree energ DENC   =    -39575.91276968
  -exchange      EXHF   =         0.00000000
  -V(xc)+E(xc)   XCENC  =      -476.16959908
  PAW double counting   =     15016.89927146   -14043.50660002
  entropy T*S    EENTRO =         0.05728223
  eigenvalues    EBANDS =      -984.37515321
  atomic energy  EATOM  =     12955.90228127
  Solvation  Ediel_sol  =         0.00000000
  ---------------------------------------------------
  free energy    TOTEN  =       -58.66665153 eV

  energy without entropy =      -58.72393376  energy(sigma->0) =      -58.68574561


--------------------------------------------------------------------------------------------------------




--------------------------------------- Iteration      1(  23)  ---------------------------------------


    POTLOK:  cpu time    3.2937: real time    3.2980
    SETDIJ:  cpu time    0.0325: real time    0.0325
     EDDAV:  cpu time   12.9045: real time   12.9283
       DOS:  cpu time    0.0103: real time    0.0103
    CHARGE:  cpu time    1.1087: real time    1.1097
    MIXING:  cpu time    0.1854: real time    0.1855
    --------------------------------------------
      LOOP:  cpu time   17.5351: real time   17.5643

 eigenvalue-minimisations  :   440
 total energy-change (2. order) :-0.5687670E+00  (-0.5229625E-02)
 number of electron     160.0000032 magnetization       9.4179891
 augmentation part       68.1671595 magnetization       5.8322302

 Broyden mixing:
  rms(total) = 0.70481E-01    rms(broyden)= 0.70474E-01
  rms(prec ) = 0.75345E-01
  weight for this iteration     100.00

 eigenvalues of (default mixing * dielectric matrix)
  average eigenvalue GAMMA=   0.7554
  3.2605  1.6450  1.3907  1.3907  0.8077  0.8077  0.7312  0.7312  0.5118  0.5118
  0.3339  0.1426  0.2026  0.2026  0.2694  0.2113  0.2113  0.2362

 Free energy of the ion-electron system (eV)
  ---------------------------------------------------
  alpha Z        PSCENC =        11.28328521
  Ewald energy   TEWEN  =     27037.15535030
  -Hartree energ DENC   =    -39579.23528721
  -exchange      EXHF   =         0.00000000
  -V(xc)+E(xc)   XCENC  =      -476.65029591
  PAW double counting   =     15009.43612003   -14036.07867112
  entropy T*S    EENTRO =         0.06202085
  eigenvalues    EBANDS =      -981.11022191
  atomic energy  EATOM  =     12955.90228127
  Solvation  Ediel_sol  =         0.00000000
  ---------------------------------------------------
  free energy    TOTEN  =       -59.23541849 eV

  energy without entropy =      -59.29743934  energy(sigma->0) =      -59.25609211


--------------------------------------------------------------------------------------------------------




--------------------------------------- Iteration      1(  24)  ---------------------------------------


    POTLOK:  cpu time    3.1365: real time    3.6974
    SETDIJ:  cpu time    0.0356: real time    0.0357
     EDDAV:  cpu time   13.6213: real time   13.6452
       DOS:  cpu time    0.0078: real time    0.0078
    CHARGE:  cpu time    1.0957: real time    1.0966
    MIXING:  cpu time    0.1836: real time    0.1837
    --------------------------------------------
      LOOP:  cpu time   18.0805: real time   18.6663

 eigenvalue-minimisations  :   472
 total energy-change (2. order) :-0.5662060E+00  (-0.5249016E-02)
 number of electron     160.0000032 magnetization       9.0704883
 augmentation part       68.1665291 magnetization       5.5670444

 Broyden mixing:
  rms(total) = 0.44915E-01    rms(broyden)= 0.44908E-01
  rms(prec ) = 0.46923E-01
  weight for this iteration     100.00

 eigenvalues of (default mixing * dielectric matrix)
  average eigenvalue GAMMA=   0.8092
  4.0712  1.8713  1.5262  1.5262  0.8037  0.8037  0.7135  0.7135  0.5301  0.5301
  0.4785  0.3363  0.1426  0.2026  0.2026  0.2659  0.2109  0.2109  0.2345

 Free energy of the ion-electron system (eV)
  ---------------------------------------------------
  alpha Z        PSCENC =        11.28328521
  Ewald energy   TEWEN  =     27037.15535030
  -Hartree energ DENC   =    -39581.80214543
  -exchange      EXHF   =         0.00000000
  -V(xc)+E(xc)   XCENC  =      -477.16358837
  PAW double counting   =     15002.10669710   -14028.77986843
  entropy T*S    EENTRO =         0.06658448
  eigenvalues    EBANDS =      -978.57022065
  atomic energy  EATOM  =     12955.90228127
  Solvation  Ediel_sol  =         0.00000000
  ---------------------------------------------------
  free energy    TOTEN  =       -59.80162453 eV

  energy without entropy =      -59.86820901  energy(sigma->0) =      -59.82381936


--------------------------------------------------------------------------------------------------------




--------------------------------------- Iteration      1(  25)  ---------------------------------------


    POTLOK:  cpu time    3.1375: real time    3.1415
    SETDIJ:  cpu time    0.0316: real time    0.0316
     EDDAV:  cpu time   13.3092: real time   13.3832
       DOS:  cpu time    0.0068: real time    0.0068
    CHARGE:  cpu time    1.0764: real time    1.0774
    MIXING:  cpu time    0.1997: real time    0.1998
    --------------------------------------------
      LOOP:  cpu time   17.7612: real time   17.8403

 eigenvalue-minimisations  :   440
 total energy-change (2. order) :-0.3869000E+00  (-0.2808055E-02)
 number of electron     160.0000032 magnetization       8.7187707
 augmentation part       68.1705995 magnetization       5.2773706

 Broyden mixing:
  rms(total) = 0.39359E-01    rms(broyden)= 0.39355E-01
  rms(prec ) = 0.41773E-01
  weight for this iteration     100.00

 eigenvalues of (default mixing * dielectric matrix)
  average eigenvalue GAMMA=   0.8603
  4.9783  1.9896  1.6278  1.6278  0.7991  0.7991  0.7532  0.7532  0.6325  0.6325
  0.4848  0.3446  0.3134  0.1426  0.2026  0.2026  0.2654  0.2110  0.2110  0.2345

 Free energy of the ion-electron system (eV)
  ---------------------------------------------------
  alpha Z        PSCENC =        11.28328521
  Ewald energy   TEWEN  =     27037.15535030
  -Hartree energ DENC   =    -39583.52465795
  -exchange      EXHF   =         0.00000000
  -V(xc)+E(xc)   XCENC  =      -477.51713809
  PAW double counting   =     14996.15674770   -14022.81100664
  entropy T*S    EENTRO =         0.07060973
  eigenvalues    EBANDS =      -976.90399606
  atomic energy  EATOM  =     12955.90228127
  Solvation  Ediel_sol  =         0.00000000
  ---------------------------------------------------
  free energy    TOTEN  =       -60.18852453 eV

  energy without entropy =      -60.25913426  energy(sigma->0) =      -60.21206111


--------------------------------------------------------------------------------------------------------




--------------------------------------- Iteration      1(  26)  ---------------------------------------


    POTLOK:  cpu time    3.1655: real time    3.1676
    SETDIJ:  cpu time    0.0322: real time    0.0322
     EDDAV:  cpu time   13.1885: real time   13.1996
       DOS:  cpu time    0.0067: real time    0.0067
    CHARGE:  cpu time    1.0909: real time    1.0924
    MIXING:  cpu time    0.2098: real time    0.2100
    --------------------------------------------
      LOOP:  cpu time   17.6937: real time   17.7083

 eigenvalue-minimisations  :   448
 total energy-change (2. order) :-0.3609310E+00  (-0.2444520E-02)
 number of electron     160.0000032 magnetization       8.4646699
 augmentation part       68.1654420 magnetization       5.0845089

 Broyden mixing:
  rms(total) = 0.28395E-01    rms(broyden)= 0.28390E-01
  rms(prec ) = 0.29849E-01
  weight for this iteration     100.00

 eigenvalues of (default mixing * dielectric matrix)
  average eigenvalue GAMMA=   0.8976
  5.9174  2.0187  1.6228  1.6228  0.7992  0.7992  0.7809  0.7809  0.7041  0.7041
  0.4981  0.4981  0.3390  0.1426  0.3030  0.2026  0.2026  0.2563  0.2109  0.2109
  0.2345

 Free energy of the ion-electron system (eV)
  ---------------------------------------------------
  alpha Z        PSCENC =        11.28328521
  Ewald energy   TEWEN  =     27037.15535030
  -Hartree energ DENC   =    -39584.74450924
  -exchange      EXHF   =         0.00000000
  -V(xc)+E(xc)   XCENC  =      -477.86266845
  PAW double counting   =     14992.01342586   -14018.62423540
  entropy T*S    EENTRO =         0.07072724
  eigenvalues    EBANDS =      -975.74311228
  atomic energy  EATOM  =     12955.90228127
  Solvation  Ediel_sol  =         0.00000000
  ---------------------------------------------------
  free energy    TOTEN  =       -60.54945548 eV

  energy without entropy =      -60.62018272  energy(sigma->0) =      -60.57303123


--------------------------------------------------------------------------------------------------------




--------------------------------------- Iteration      1(  27)  ---------------------------------------


    POTLOK:  cpu time    3.1299: real time    3.1319
    SETDIJ:  cpu time    0.0317: real time    0.0318
     EDDAV:  cpu time   13.5998: real time   13.6154
       DOS:  cpu time    0.0079: real time    0.0079
    CHARGE:  cpu time    1.1020: real time    1.1029
    MIXING:  cpu time    0.2150: real time    0.2152
    --------------------------------------------
      LOOP:  cpu time   18.0864: real time   18.1051

 eigenvalue-minimisations  :   472
 total energy-change (2. order) :-0.2714334E+00  (-0.1220898E-02)
 number of electron     160.0000032 magnetization       8.2398302
 augmentation part       68.1673324 magnetization       4.9052822

 Broyden mixing:
  rms(total) = 0.26503E-01    rms(broyden)= 0.26499E-01
  rms(prec ) = 0.28055E-01
  weight for this iteration     100.00

 eigenvalues of (default mixing * dielectric matrix)
  average eigenvalue GAMMA=   0.9222
  6.6825  2.0523  1.5298  1.5298  0.9610  0.9610  0.7985  0.7985  0.7505  0.7505
  0.5220  0.5220  0.3596  0.3259  0.1426  0.2026  0.2026  0.2818  0.2110  0.2110
  0.2579  0.2354

 Free energy of the ion-electron system (eV)
  ---------------------------------------------------
  alpha Z        PSCENC =        11.28328521
  Ewald energy   TEWEN  =     27037.15535030
  -Hartree energ DENC   =    -39585.22537777
  -exchange      EXHF   =         0.00000000
  -V(xc)+E(xc)   XCENC  =      -478.12776890
  PAW double counting   =     14990.26479346   -14016.84695834
  entropy T*S    EENTRO =         0.07123041
  eigenvalues    EBANDS =      -975.29772448
  atomic energy  EATOM  =     12955.90228127
  Solvation  Ediel_sol  =         0.00000000
  ---------------------------------------------------
  free energy    TOTEN  =       -60.82088884 eV

  energy without entropy =      -60.89211925  energy(sigma->0) =      -60.84463231


--------------------------------------------------------------------------------------------------------




--------------------------------------- Iteration      1(  28)  ---------------------------------------


    POTLOK:  cpu time    3.1350: real time    3.1411
    SETDIJ:  cpu time    0.0290: real time    0.0290
     EDDAV:  cpu time   13.0644: real time   13.0749
       DOS:  cpu time    0.0099: real time    0.0099
    CHARGE:  cpu time    1.0998: real time    1.1006
    MIXING:  cpu time    0.2389: real time    0.2390
    --------------------------------------------
      LOOP:  cpu time   17.5769: real time   17.5946

 eigenvalue-minimisations  :   448
 total energy-change (2. order) :-0.2565056E+00  (-0.8284822E-03)
 number of electron     160.0000032 magnetization       7.9964515
 augmentation part       68.1707923 magnetization       4.6971519

 Broyden mixing:
  rms(total) = 0.21849E-01    rms(broyden)= 0.21846E-01
  rms(prec ) = 0.23965E-01
  weight for this iteration     100.00

 eigenvalues of (default mixing * dielectric matrix)
  average eigenvalue GAMMA=   0.9918
  7.7957  2.0046  1.6772  1.6772  1.2210  1.2210  0.7994  0.7994  0.7386  0.7386
  0.7111  0.5233  0.5233  0.3455  0.1426  0.2026  0.2026  0.3144  0.2109  0.2109
  0.2662  0.2355  0.2503

 Free energy of the ion-electron system (eV)
  ---------------------------------------------------
  alpha Z        PSCENC =        11.28328521
  Ewald energy   TEWEN  =     27037.15535030
  -Hartree energ DENC   =    -39585.14185298
  -exchange      EXHF   =         0.00000000
  -V(xc)+E(xc)   XCENC  =      -478.39117395
  PAW double counting   =     14989.10307167   -14015.66139091
  entropy T*S    EENTRO =         0.07169852
  eigenvalues    EBANDS =      -975.39866359
  atomic energy  EATOM  =     12955.90228127
  Solvation  Ediel_sol  =         0.00000000
  ---------------------------------------------------
  free energy    TOTEN  =       -61.07739447 eV

  energy without entropy =      -61.14909299  energy(sigma->0) =      -61.10129398


--------------------------------------------------------------------------------------------------------




--------------------------------------- Iteration      1(  29)  ---------------------------------------


    POTLOK:  cpu time    3.1317: real time    3.1350
    SETDIJ:  cpu time    0.0309: real time    0.0309
     EDDAV:  cpu time   13.6726: real time   13.6833
       DOS:  cpu time    0.0061: real time    0.0061
    CHARGE:  cpu time    1.0529: real time    1.0537
    MIXING:  cpu time    0.2418: real time    0.2420
    --------------------------------------------
      LOOP:  cpu time   18.1360: real time   18.1510

 eigenvalue-minimisations  :   472
 total energy-change (2. order) :-0.2445726E+00  (-0.9107946E-03)
 number of electron     160.0000032 magnetization       7.8502307
 augmentation part       68.1701168 magnetization       4.5895940

 Broyden mixing:
  rms(total) = 0.14100E-01    rms(broyden)= 0.14098E-01
  rms(prec ) = 0.15568E-01
  weight for this iteration     100.00

 eigenvalues of (default mixing * dielectric matrix)
  average eigenvalue GAMMA=   1.0350
  8.5738  2.5259  1.9739  1.4879  1.4879  0.7983  0.7983  0.8246  0.8246  0.7598
  0.7598  0.6108  0.5181  0.5181  0.1426  0.3441  0.2026  0.2026  0.3153  0.2109
  0.2109  0.2666  0.2355  0.2479

 Free energy of the ion-electron system (eV)
  ---------------------------------------------------
  alpha Z        PSCENC =        11.28328521
  Ewald energy   TEWEN  =     27037.15535030
  -Hartree energ DENC   =    -39584.29289680
  -exchange      EXHF   =         0.00000000
  -V(xc)+E(xc)   XCENC  =      -478.64081497
  PAW double counting   =     14989.51939615   -14016.02226306
  entropy T*S    EENTRO =         0.07224765
  eigenvalues    EBANDS =      -976.29855287
  atomic energy  EATOM  =     12955.90228127
  Solvation  Ediel_sol  =         0.00000000
  ---------------------------------------------------
  free energy    TOTEN  =       -61.32196712 eV

  energy without entropy =      -61.39421477  energy(sigma->0) =      -61.34604967


--------------------------------------------------------------------------------------------------------




--------------------------------------- Iteration      1(  30)  ---------------------------------------


    POTLOK:  cpu time    3.1634: real time    3.1656
    SETDIJ:  cpu time    0.0291: real time    0.0292
     EDDAV:  cpu time   13.7968: real time   13.8082
       DOS:  cpu time    0.0060: real time    0.0060
    CHARGE:  cpu time    1.0980: real time    1.0990
    MIXING:  cpu time    0.2470: real time    0.2472
    --------------------------------------------
      LOOP:  cpu time   18.3402: real time   18.3551

 eigenvalue-minimisations  :   480
 total energy-change (2. order) :-0.1160019E+00  (-0.2573639E-03)
 number of electron     160.0000032 magnetization       7.7735788
 augmentation part       68.1713045 magnetization       4.5278945

 Broyden mixing:
  rms(total) = 0.12093E-01    rms(broyden)= 0.12091E-01
  rms(prec ) = 0.13311E-01
  weight for this iteration     100.00

 eigenvalues of (default mixing * dielectric matrix)
  average eigenvalue GAMMA=   1.0462
  9.0109  2.6531  2.0448  1.4946  1.4946  0.9313  0.9313  0.7969  0.7969  0.7389
  0.7389  0.6011  0.6011  0.4720  0.4720  0.1426  0.3425  0.2026  0.2026  0.3149
[...]
     69      -4.7627      1.00060
     70      -4.7337      1.00117
     71      -4.6790      1.00363
     72      -4.6524      1.00590
     73      -4.6405      1.00722
     74      -4.6389      1.00741
     75      -4.6032      1.01277
     76      -4.5974      1.01384
     77      -4.5836      1.01655
     78      -4.5571      1.02240
     79      -4.5279      1.02904
     80      -4.5162      1.03141
     81      -4.4738      1.03534
     82      -4.4471      1.03057
     83      -4.2944      0.74229
     84      -4.2694      0.64625
     85      -3.8892     -0.01747
     86      -3.6639     -0.00021
     87      -3.2051     -0.00000
     88      -2.7174     -0.00000
     89      -2.6545     -0.00000
     90      -2.2876     -0.00000
     91      -2.0721     -0.00000
     92      -1.9563     -0.00000
     93      -1.5088     -0.00000
     94      -1.3114     -0.00000
     95      -1.2293     -0.00000
     96      -0.8302     -0.00000
     97      -0.6586     -0.00000
     98      -0.4528     -0.00000
     99      -0.4188     -0.00000
    100      -0.3676     -0.00000
    101      -0.1496     -0.00000
    102       0.0714     -0.00000
    103       0.1221     -0.00000
    104       0.2297     -0.00000

 spin component 2

 k-point     1 :       0.0000    0.0000    0.0000
  band No.  band energies     occupation 
      1      -9.0814      1.00000
      2      -8.5075      1.00000
      3      -8.4190      1.00000
      4      -8.3486      1.00000
      5      -8.1896      1.00000
      6      -8.0930      1.00000
      7      -7.9659      1.00000
      8      -7.8640      1.00000
      9      -7.8214      1.00000
     10      -7.5101      1.00000
     11      -7.4981      1.00000
     12      -7.2956      1.00000
     13      -7.2133      1.00000
     14      -7.1722      1.00000
     15      -7.1696      1.00000
     16      -7.0807      1.00000
     17      -7.0377      1.00000
     18      -6.9500      1.00000
     19      -6.9444      1.00000
     20      -6.8985      1.00000
     21      -6.8858      1.00000
     22      -6.8272      1.00000
     23      -6.7954      1.00000
     24      -6.6932      1.00000
     25      -6.6780      1.00000
     26      -6.5880      1.00000
     27      -6.5425      1.00000
     28      -6.4368      1.00000
     29      -6.3867      1.00000
     30      -6.3710      1.00000
     31      -6.3130      1.00000
     32      -6.2720      1.00000
     33      -6.1778      1.00000
     34      -6.0607      1.00000
     35      -6.0416      1.00000
     36      -5.9809      1.00000
     37      -5.9396      1.00000
     38      -5.8724      1.00000
     39      -5.8630      1.00000
     40      -5.7306      1.00000
     41      -5.6778      1.00000
     42      -5.6672      1.00000
     43      -5.4902      1.00000
     44      -5.4453      1.00000
     45      -5.4074      1.00000
     46      -5.3656      1.00000
     47      -5.3270      1.00000
     48      -5.3001      1.00000
     49      -5.1956      1.00000
     50      -5.1471      1.00000
     51      -5.1206      1.00000
     52      -5.0690      1.00000
     53      -5.0462      1.00000
     54      -5.0221      1.00000
     55      -5.0082      1.00000
     56      -4.9177      1.00001
     57      -4.8617      1.00004
     58      -4.8390      1.00008
     59      -4.8250      1.00012
     60      -4.7563      1.00070
     61      -4.7349      1.00114
     62      -4.7308      1.00125
     63      -4.7148      1.00177
     64      -4.6813      1.00348
     65      -4.6514      1.00600
     66      -4.5648      1.02066
     67      -4.5431      1.02564
     68      -4.4964      1.03445
     69      -4.4773      1.03544
     70      -4.4704      1.03514
     71      -4.4126      1.00994
     72      -4.3683      0.94914
     73      -4.3530      0.91723
     74      -4.3487      0.90711
     75      -4.3073      0.78745
     76      -4.2838      0.70278
     77      -4.2525      0.57670
     78      -4.1623      0.21632
     79      -4.1543      0.18980
     80      -4.1055      0.06141
     81      -4.0627     -0.00339
     82      -4.0542     -0.01144
     83      -4.0216     -0.03050
     84      -3.9295     -0.02658
     85      -3.7194     -0.00083
     86      -3.4898     -0.00000
     87      -3.0257     -0.00000
     88      -2.5527     -0.00000
     89      -2.5258     -0.00000
     90      -2.1528     -0.00000
     91      -1.9100     -0.00000
     92      -1.8541     -0.00000
     93      -1.3780     -0.00000
     94      -1.2063     -0.00000
     95      -1.1011     -0.00000
     96      -0.6933     -0.00000
     97      -0.5867     -0.00000
     98      -0.3465     -0.00000
     99      -0.3142     -0.00000
    100      -0.2583     -0.00000
    101      -0.0602     -0.00000
    102       0.1766     -0.00000
    103       0.2001     -0.00000
    104       0.3004     -0.00000


--------------------------------------------------------------------------------------------------------


 soft charge-density along one line, spin component            1
         0         1         2         3         4         5         6         7         8         9
 total charge-density along one line
 
 soft charge-density along one line, spin component            2
         0         1         2         3         4         5         6         7         8         9
 total charge-density along one line
 
 pseudopotential strength for first ion, spin component:            1
 -8.771  -0.028  -0.022   0.013  -0.013  -8.730  -0.027  -0.021
 -0.028  -8.648  -0.017   0.006  -0.019  -0.027  -8.612  -0.017
 -0.022  -0.017  -8.615  -0.008  -0.020  -0.021  -0.017  -8.580
  0.013   0.006  -0.008  -8.654  -0.032   0.013   0.005  -0.007
 -0.013  -0.019  -0.020  -0.032  -8.720  -0.012  -0.018  -0.019
 -8.730  -0.027  -0.021   0.013  -0.012  -8.666  -0.026  -0.020
 -0.027  -8.612  -0.017   0.005  -0.018  -0.026  -8.554  -0.016
 -0.021  -0.017  -8.580  -0.007  -0.019  -0.020  -0.016  -8.524
  0.013   0.005  -0.007  -8.618  -0.030   0.012   0.005  -0.007
 -0.012  -0.018  -0.019  -0.030  -8.681  -0.011  -0.017  -0.018
 -0.006  -0.004  -0.028   0.014  -0.004  -0.006  -0.004  -0.027
 -0.011  -0.007  -0.048   0.023  -0.007  -0.010  -0.006  -0.047
  0.010  -0.024   0.005  -0.000   0.008   0.010  -0.023   0.004
 -0.000  -0.007  -0.030   0.012   0.000  -0.000  -0.007  -0.029
 -0.007  -0.000  -0.006  -0.024   0.013  -0.007  -0.000  -0.006
  0.012  -0.026   0.006  -0.000   0.010   0.011  -0.025   0.005
 -0.000  -0.009  -0.033   0.014   0.000  -0.000  -0.008  -0.032
 -0.008  -0.000  -0.007  -0.026   0.015  -0.008  -0.000  -0.007
 pseudopotential strength for first ion, spin component:            2
 -8.529  -0.009  -0.009   0.005   0.008  -8.498  -0.009  -0.008
 -0.009  -8.485   0.005   0.009  -0.006  -0.009  -8.456   0.005
 -0.009   0.005  -8.459  -0.013  -0.007  -0.008   0.005  -8.431
  0.005   0.009  -0.013  -8.478  -0.023   0.005   0.008  -0.012
  0.008  -0.006  -0.007  -0.023  -8.546   0.007  -0.006  -0.007
 -8.498  -0.009  -0.008   0.005   0.007  -8.445  -0.008  -0.008
 -0.009  -8.456   0.005   0.008  -0.006  -0.008  -8.404   0.005
 -0.008   0.005  -8.431  -0.012  -0.007  -0.008   0.005  -8.380
  0.005   0.008  -0.012  -8.449  -0.022   0.005   0.008  -0.012
  0.007  -0.006  -0.007  -0.022  -8.514   0.007  -0.006  -0.007
 -0.002  -0.001  -0.014   0.006  -0.002  -0.002  -0.001  -0.013
 -0.004  -0.002  -0.023   0.010  -0.003  -0.004  -0.002  -0.022
  0.011  -0.026   0.004  -0.000   0.008   0.011  -0.025   0.004
 -0.000  -0.008  -0.032   0.013  -0.000  -0.000  -0.007  -0.030
 -0.007  -0.000  -0.006  -0.027   0.013  -0.006  -0.000  -0.006
  0.013  -0.030   0.004  -0.000   0.009   0.012  -0.028   0.004
 -0.000  -0.009  -0.035   0.015  -0.000  -0.000  -0.009  -0.034
 -0.008  -0.000  -0.007  -0.030   0.015  -0.008  -0.000  -0.007
 total augmentation occupancy for first ion, spin component:            1
  2.061  -0.115   0.012   0.102   0.011  -0.861   0.099  -0.063  -0.064  -0.016   0.068  -0.022   0.088  -0.006  -0.042   0.007
 -0.115   2.661  -0.137   0.002  -0.192   0.097  -1.165   0.040  -0.002   0.124  -0.097   0.013  -0.244  -0.019  -0.022  -0.024
  0.012  -0.137   2.524   0.105  -0.162  -0.061   0.041  -0.994  -0.098   0.082   0.414  -0.109   0.039  -0.139  -0.106   0.004
  0.102   0.002   0.105   2.435  -0.308  -0.066  -0.004  -0.097  -1.048   0.187  -0.084   0.030  -0.020   0.007  -0.220  -0.000
  0.011  -0.192  -0.162  -0.308   2.217  -0.014   0.121   0.079   0.182  -0.903   0.014  -0.008   0.059   0.017   0.105   0.006
 -0.861   0.097  -0.061  -0.066  -0.014   1.387  -0.098   0.090   0.044   0.004  -0.055   0.003  -0.144   0.014   0.058   0.011
  0.099  -1.165   0.041  -0.004   0.121  -0.098   1.534   0.019  -0.001  -0.081   0.065  -0.019   0.335   0.034   0.022  -0.024
 -0.063   0.040  -0.994  -0.097   0.079   0.090   0.019   1.345   0.091  -0.028  -0.223   0.000  -0.038   0.203   0.131   0.002
 -0.064  -0.002  -0.098  -1.048   0.182   0.044  -0.001   0.091   1.489  -0.103   0.031   0.015   0.020  -0.019   0.321  -0.001
 -0.016   0.124   0.082   0.187  -0.903   0.004  -0.081  -0.028  -0.103   1.396  -0.008  -0.004  -0.056  -0.010  -0.109   0.004
  0.068  -0.097   0.414  -0.084   0.014  -0.055   0.065  -0.223   0.031  -0.008   1.723  -0.254   0.049   0.280  -0.105  -0.004
 -0.022   0.013  -0.109   0.030  -0.008   0.003  -0.019   0.000   0.015  -0.004  -0.254   0.044  -0.008  -0.049   0.018   0.000
  0.088  -0.244   0.039  -0.020   0.059  -0.144   0.335  -0.038   0.020  -0.056   0.049  -0.008   0.142   0.000  -0.002  -0.009
 -0.006  -0.019  -0.139   0.007   0.017   0.014   0.034   0.203  -0.019  -0.010   0.280  -0.049   0.000   0.108   0.007  -0.001
 -0.042  -0.022  -0.106  -0.220   0.105   0.058   0.022   0.131   0.321  -0.109  -0.105   0.018  -0.002   0.007   0.139   0.000
  0.007  -0.024   0.004  -0.000   0.006   0.011  -0.024   0.002  -0.001   0.004  -0.004   0.000  -0.009  -0.001   0.000   0.002
  0.001  -0.003  -0.034   0.011   0.001  -0.001  -0.006  -0.018   0.006  -0.000  -0.035   0.008  -0.001  -0.010   0.001   0.000
 -0.004  -0.000  -0.004  -0.023   0.012  -0.005  -0.001  -0.008  -0.025   0.007   0.011  -0.002   0.000   0.001  -0.009   0.000
 total augmentation occupancy for first ion, spin component:            2
  0.887   0.150   0.086  -0.069   0.116  -0.427  -0.077  -0.041   0.036  -0.055   0.078  -0.017   0.010  -0.006   0.003   0.003
  0.150   0.325   0.120  -0.001   0.105  -0.078  -0.139  -0.054   0.002  -0.059   0.061  -0.010  -0.018  -0.007   0.000  -0.004
  0.086   0.120   0.253  -0.017   0.091  -0.041  -0.055  -0.103   0.007  -0.048   0.087  -0.043  -0.012  -0.002   0.001  -0.000
 -0.069  -0.001  -0.017   0.386   0.102   0.038   0.004   0.007  -0.168  -0.061  -0.063   0.021   0.002  -0.002  -0.024  -0.000
  0.116   0.105   0.091   0.102   0.485  -0.056  -0.056  -0.047  -0.059  -0.231   0.038  -0.009  -0.007  -0.005  -0.005   0.001
 -0.427  -0.078  -0.041   0.038  -0.056   0.159   0.036   0.014  -0.016   0.024  -0.031   0.006  -0.001   0.002  -0.003  -0.001
 -0.077  -0.139  -0.055   0.004  -0.056   0.036   0.023   0.023  -0.000   0.027  -0.023   0.003   0.004   0.002  -0.001   0.002
 -0.041  -0.054  -0.103   0.007  -0.047   0.014   0.023   0.009  -0.003   0.021  -0.008   0.001   0.006  -0.003  -0.002   0.000
  0.036   0.002   0.007  -0.168  -0.059  -0.016  -0.000  -0.003   0.038   0.031   0.013  -0.001  -0.002   0.001   0.006   0.000
 -0.055  -0.059  -0.048  -0.061  -0.231   0.024   0.027   0.021   0.031   0.071  -0.013   0.002   0.005   0.002   0.004  -0.001
  0.078   0.061   0.087  -0.063   0.038  -0.031  -0.023  -0.008   0.013  -0.013  -0.001  -0.002  -0.009  -0.004   0.008   0.000
 -0.017  -0.010  -0.043   0.021  -0.009   0.006   0.003   0.001  -0.001   0.002  -0.002   0.004   0.001   0.001  -0.001  -0.000
  0.010  -0.018  -0.012   0.002  -0.007  -0.001   0.004   0.006  -0.002   0.005  -0.009   0.001  -0.000   0.001  -0.000   0.000
 -0.006  -0.007  -0.002  -0.002  -0.005   0.002   0.002  -0.003   0.001   0.002  -0.004   0.001   0.001  -0.002  -0.000   0.000
  0.003   0.000   0.001  -0.024  -0.005  -0.003  -0.001  -0.002   0.006   0.004   0.008  -0.001  -0.000  -0.000  -0.000   0.000
  0.003  -0.004  -0.000  -0.000   0.001  -0.001   0.002   0.000   0.000  -0.001   0.000  -0.000   0.000   0.000   0.000   0.000
 -0.002  -0.003  -0.005   0.003  -0.001   0.001   0.002   0.003  -0.002   0.001  -0.003   0.001   0.000   0.000  -0.000   0.000
 -0.001  -0.000  -0.001  -0.005   0.002   0.000   0.000   0.000   0.002  -0.001   0.001  -0.000   0.000   0.000   0.000   0.000


------------------------ aborting loop because EDIFF is reached ----------------------------------------


    CHARGE:  cpu time    1.1133: real time    1.1178
    FORLOC:  cpu time    0.1422: real time    0.1423
    FORNL :  cpu time    8.4308: real time    8.4361
    FORCOR:  cpu time    3.0628: real time    3.0689
    FORHAR:  cpu time    0.4307: real time    0.4310
    MIXING:  cpu time    0.0574: real time    0.0575
    OFIELD:  cpu time    0.0001: real time    0.0000

 VOLUME and BASIS-vectors are now :
 -----------------------------------------------------------------------------
  energy-cutoff  :      400.00
  volume of cell :    14787.23
      direct lattice vectors                 reciprocal lattice vectors
    23.641224178  0.000000000  0.000000000     0.042298994  0.000000000  0.000000000
     0.000000000 24.802680812  0.000000000     0.000000000  0.040318222  0.000000000
     0.000000000  0.000000000 25.218447836     0.000000000  0.000000000  0.039653511

  length of vectors
    23.641224178 24.802680812 25.218447836     0.042298994  0.040318222  0.039653511


 FORCES acting on ions
    electron-ion (+dipol)            ewald-force                    non-local-force                 convergence-correction
 -----------------------------------------------------------------------------------------------
   -.231E+03 -.216E+02 0.103E+04   0.229E+03 0.225E+02 -.103E+04   0.186E+01 -.817E+00 -.506E+01   0.837E-01 -.811E-01 0.341E-01
   0.861E+03 0.843E+02 0.627E+03   -.856E+03 -.834E+02 -.624E+03   -.552E+01 -.906E+00 -.326E+01   -.272E-01 -.908E-02 -.610E-01
   -.902E+03 0.333E+02 0.517E+03   0.898E+03 -.316E+02 -.514E+03   0.353E+01 -.167E+01 -.269E+01   0.822E-01 -.644E-01 0.304E-01
   -.438E+03 -.925E+03 0.314E+03   0.435E+03 0.919E+03 -.312E+03   0.294E+01 0.564E+01 -.123E+01   0.184E-01 0.246E-01 -.735E-01
   0.527E+01 0.738E+03 0.736E+03   -.698E+01 -.735E+03 -.733E+03   0.161E+01 -.313E+01 -.316E+01   0.793E-01 -.113E+00 0.369E-01
   0.456E+03 -.759E+03 0.545E+03   -.452E+03 0.753E+03 -.542E+03   -.395E+01 0.602E+01 -.296E+01   0.263E-01 -.259E-02 -.849E-01
   0.456E+03 -.587E+03 -.200E+01   -.455E+03 0.586E+03 0.148E+01   -.576E+00 0.575E+00 0.451E+00   0.514E-02 0.512E-01 0.621E-01
   0.101E+04 0.293E+03 -.726E+02   -.101E+04 -.293E+03 0.720E+02   -.470E+01 -.707E+00 0.484E+00   0.304E-01 -.706E-01 0.156E+00
   0.185E+03 0.107E+04 0.788E+02   -.185E+03 -.106E+04 -.779E+02   -.791E+00 -.650E+01 -.108E+01   0.493E-01 -.262E-01 0.119E+00
   -.232E+03 0.308E+03 -.296E+02   0.232E+03 -.308E+03 0.298E+02   -.980E-01 0.187E+00 -.144E+00   0.929E-01 -.153E+00 -.104E-01
   -.106E+04 0.965E+02 -.225E+03   0.105E+04 -.957E+02 0.224E+03   0.654E+01 -.754E+00 0.702E+00   -.850E-02 -.747E-01 0.907E-01
   0.539E+03 0.478E+03 -.831E+03   -.536E+03 -.476E+03 0.826E+03   -.306E+01 -.233E+01 0.460E+01   0.128E+00 -.679E-01 0.450E-01
   0.618E+03 -.570E+03 -.721E+03   -.614E+03 0.567E+03 0.718E+03   -.349E+01 0.363E+01 0.272E+01   0.168E-01 -.755E-01 0.140E+00
   -.508E+03 0.807E+03 -.500E+03   0.504E+03 -.802E+03 0.498E+03   0.356E+01 -.525E+01 0.217E+01   -.369E-01 -.211E-02 -.521E-02
   -.456E+03 -.856E+03 -.430E+03   0.454E+03 0.852E+03 0.428E+03   0.147E+01 0.408E+01 0.197E+01   0.271E-01 -.720E-01 0.121E+00
   -.311E+03 -.188E+03 -.104E+04   0.310E+03 0.187E+03 0.103E+04   0.146E+01 0.120E+01 0.569E+01   0.107E-01 -.158E+00 0.335E-01
 -----------------------------------------------------------------------------------------------
   -.136E+01 0.164E+01 0.143E+00   -.398E-12 0.000E+00 -.227E-12   0.786E+00 -.734E+00 -.786E+00   0.578E+00 -.895E+00 0.633E+00
 
 
 POSITION                                       TOTAL-FORCE (eV/Angst)
 -----------------------------------------------------------------------------------
     11.61544     13.22852      9.52949         0.003066     -0.011548      0.024790
      9.04734     12.66264     10.27303        -0.001935      0.000422      0.008045
     13.47321     12.87358     11.40105         0.029663      0.019687      0.001671
     12.45745     15.30230     11.09647         0.000881      0.007921      0.006751
     11.02141     10.97604     10.81170        -0.019589     -0.020502     -0.024659
      9.96537     15.22907      9.95546         0.005299     -0.004342     -0.019523
     10.55095     13.80989     12.07173        -0.019324      0.010771     -0.006101
      9.20323     11.60057     12.79078        -0.012977      0.015402      0.006210
     10.82461      9.38143     12.96553        -0.010471     -0.009884      0.003178
     11.87628     11.78079     13.12096         0.016887     -0.018117      0.043740
     14.37784     12.15275     13.82996         0.000223      0.007166      0.001737
     10.32038     10.84427     15.17292         0.026484      0.010216     -0.015640
     10.18745     13.47654     14.63344         0.004375     -0.009599      0.009081
     12.85957     10.00341     14.79641        -0.011641      0.020684     -0.009557
     12.67720     14.30603     13.63170        -0.008321      0.003460      0.008366
     12.46485     12.52078     15.69768        -0.002620     -0.021737     -0.038089
 -----------------------------------------------------------------------------------
    total drift:                               -0.001042      0.012479     -0.008578


--------------------------------------------------------------------------------------------------------



  FREE ENERGIE OF THE ION-ELECTRON SYSTEM (eV)
  ---------------------------------------------------
  free  energy   TOTEN  =       -62.16761747 eV

  energy  without entropy=      -62.19863168  energy(sigma->0) =      -62.17795554
 
 d Force = 0.2545817E-03[ 0.103E-03, 0.407E-03]  d Energy = 0.2296935E-03 0.249E-04
 d Force =-0.7296344E+00[-0.725E+00,-0.734E+00]  d Ewald  =-0.7296355E+00 0.115E-05


--------------------------------------------------------------------------------------------------------


    POTLOK:  cpu time    3.1370: real time    3.1688


--------------------------------------------------------------------------------------------------------




--------------------------------------------------------------------------------------------------------


  
 reached required accuracy - stopping structural energy minimisation
     LOOP+:  cpu time   80.1275: real time   80.2421
    4ORBIT:  cpu time    0.0000: real time    0.0000

 total amount of memory used by VASP MPI-rank0   190207. kBytes
=======================================================================

   base      :      30000. kBytes
   nonl-proj :       6716. kBytes
   fftplans  :      37353. kBytes
   grid      :      88139. kBytes
   one-center:         31. kBytes
   wavefun   :      27968. kBytes
 
  
  
 General timing and accounting informations for this job:
 ========================================================
  
                  Total CPU time used (sec):     3774.825
                            User time (sec):     3754.323
                          System time (sec):       20.502
                         Elapsed time (sec):     3785.652
  
                   Maximum memory used (kb):      397976.
                   Average memory used (kb):           0.
  
                          Minor page faults:      6485069
                          Major page faults:       130543
                 Voluntary context switches:         6401
