<?xml version="1.0" encoding="ISO-8859-1"?>
<modeling>
 <generator>
  <i name="program" type="string">vasp </i>
  <i name="version" type="string">6.1.2  </i>
  <i name="subversion" type="string">22Jul20 (build Aug  2 2021 21:04:21) gamma-only                       parallel </i>
  <i name="platform" type="string">LinuxPGI </i>
  <i name="date" type="string">2021 12 17 </i>
  <i name="time" type="string">00:18:08 </i>
 </generator>
 <incar>
  <i type="int" name="ISPIN">     2</i>
  <i type="int" name="IBRION">     2</i>
  <i type="int" name="NSW">  1000</i>
  <i type="int" name="ISIF">     0</i>
  <i type="int" name="ISYM">     0</i>
  <i name="ENCUT">    400.00000000</i>
  <i type="logical" name="LREAL"> F  </i>
  <i type="int" name="ISMEAR">     1</i>
  <i name="SIGMA">      0.20000000</i>
  <i type="logical" name="LWAVE"> F  </i>
  <i type="logical" name="LCHARG"> F  </i>
  <i type="int" name="KPAR">     1</i>
  <i type="int" name="NCORE">     8</i>
  <i type="string" name="GGA"> PE</i>
  <i type="int" name="ISPIN">     2</i>
 </incar>
 <structure name="primitive_cell" >
  <crystal>
   <varray name="basis" >
    <v>      23.64122418       0.00000000       0.00000000 </v>
    <v>       0.00000000      24.80268081       0.00000000 </v>
    <v>       0.00000000       0.00000000      25.21844784 </v>
   </varray>
   <i name="volume">  14787.23375885 </i>
   <varray name="rec_basis" >
    <v>       0.04229899       0.00000000       0.00000000 </v>
    <v>       0.00000000       0.04031822       0.00000000 </v>
    <v>       0.00000000       0.00000000       0.03965351 </v>
   </varray>
  </crystal>
  <varray name="positions" >
   <v>       0.49034961       0.53612482       0.37525742 </v>
   <v>       0.38553288       0.51380539       0.40210689 </v>
   <v>       0.56239706       0.51905541       0.45219897 </v>
   <v>       0.52485972       0.61612875       0.43769271 </v>
   <v>       0.46615515       0.44912243       0.43095637 </v>
   <v>       0.42292548       0.61385019       0.39593425 </v>
   <v>       0.44866106       0.55272088       0.47523996 </v>
   <v>       0.39193413       0.46609712       0.50834854 </v>
   <v>       0.45811833       0.38034535       0.51799757 </v>
   <v>       0.50158197       0.47420141       0.52474829 </v>
   <v>       0.60474516       0.49006762       0.55014699 </v>
   <v>       0.43888223       0.43691421       0.60299574 </v>
   <v>       0.43420286       0.53971485       0.57842094 </v>
   <v>       0.54352723       0.40437183       0.58735041 </v>
   <v>       0.53620201       0.57402507       0.53944815 </v>
   <v>       0.52736620       0.50309115       0.62237506 </v>
  </varray>
 </structure>
 <varray name="primitive_index" >
  <v type="int" >        1 </v>
  <v type="int" >        2 </v>
  <v type="int" >        3 </v>
  <v type="int" >        4 </v>
  <v type="int" >        5 </v>
  <v type="int" >        6 </v>
  <v type="int" >        7 </v>
  <v type="int" >        8 </v>
  <v type="int" >        9 </v>
  <v type="int" >       10 </v>
  <v type="int" >       11 </v>
  <v type="int" >       12 </v>
  <v type="int" >       13 </v>
  <v type="int" >       14 </v>
  <v type="int" >       15 </v>
  <v type="int" >       16 </v>
 </varray>
 <kpoints>
  <generation param="Gamma">
   <v type="int" name="divisions">       1        1        1 </v>
   <v name="usershift">      0.00000000       0.00000000       0.00000000 </v>
   <v name="genvec1">      1.00000000       0.00000000       0.00000000 </v>
   <v name="genvec2">      0.00000000       1.00000000       0.00000000 </v>
   <v name="genvec3">      0.00000000       0.00000000       1.00000000 </v>
   <v name="shift">      0.00000000       0.00000000       0.00000000 </v>
  </generation>
  <varray name="kpointlist" >
   <v>       0.00000000       0.00000000       0.00000000 </v>
  </varray>
  <varray name="weights" >
   <v>       1.00000000 </v>
  </varray>
 </kpoints>
 <parameters>
  <separator name="general" >
   <i type="string" name="SYSTEM">unknown system</i>
   <i type="logical" name="LCOMPAT"> F  </i>
  </separator>
  <separator name="electronic" >
   <i type="string" name="PREC">normal</i>
   <i name="ENMAX">    400.00000000</i>
   <i name="ENAUG">    416.23000000</i>
   <i name="EDIFF">      0.00010000</i>
   <i type="int" name="IALGO">    38</i>
   <i type="int" name="IWAVPR">    11</i>
   <i type="int" name="NBANDS">   104</i>
   <i type="int" name="NBANDSLOW">    -1</i>
   <i type="int" name="NBANDSHIGH">    -1</i>
   <i name="NELECT">    160.00000000</i>
   <i type="int" name="TURBO">     0</i>
   <i type="int" name="IRESTART">     0</i>
   <i type="int" name="NREBOOT">     0</i>
   <i type="int" name="NMIN">     0</i>
   <i name="EREF">      0.00000000</i>
   <separator name="electronic smearing" >
    <i type="int" name="ISMEAR">     1</i>
    <i name="SIGMA">      0.20000000</i>
    <i name="KSPACING">      0.50000000</i>
    <i type="logical" name="KGAMMA"> T  </i>
    <i type="logical" name="KBLOWUP"> T  </i>
   </separator>
   <separator name="electronic projectors" >
    <i type="logical" name="LREAL"> F  </i>
    <v name="ROPT">      0.00000000</v>
    <i type="int" name="LMAXPAW">  -100</i>
    <i type="int" name="LMAXMIX">     2</i>
    <i type="logical" name="NLSPLINE"> F  </i>
   </separator>
   <separator name="electronic startup" >
    <i type="int" name="ISTART">     0</i>
    <i type="int" name="ICHARG">     2</i>
    <i type="int" name="INIWAV">     1</i>
   </separator>
   <separator name="electronic spin" >
    <i type="int" name="ISPIN">     2</i>
    <i type="logical" name="LNONCOLLINEAR"> F  </i>
    <v name="MAGMOM">      1.00000000      1.00000000      1.00000000      1.00000000      1.00000000      1.00000000      1.00000000      1.00000000      1.00000000      1.00000000      1.00000000      1.00000000      1.00000000      1.00000000      1.00000000      1.00000000</v>
    <i name="NUPDOWN">     -1.00000000</i>
    <i type="logical" name="LSORBIT"> F  </i>
    <v name="SAXIS">      0.00000000      0.00000000      1.00000000</v>
    <i type="logical" name="LSPIRAL"> F  </i>
    <v name="QSPIRAL">      0.00000000      0.00000000      0.00000000</v>
    <i type="logical" name="LZEROZ"> F  </i>
   </separator>
   <separator name="electronic exchange-correlation" >
    <i type="logical" name="LASPH"> F  </i>
    <i type="logical" name="LMETAGGA"> F  </i>
   </separator>
   <separator name="electronic convergence" >
    <i type="int" name="NELM">    60</i>
    <i type="int" name="NELMDL">     0</i>
    <i type="int" name="NELMIN">     2</i>
    <i name="ENINI">    400.00000000</i>
    <separator name="electronic convergence detail" >
     <i type="logical" name="LDIAG"> T  </i>
     <i type="logical" name="LSUBROT"> F  </i>
     <i name="WEIMIN">      0.00100000</i>
     <i name="EBREAK">      0.00000024</i>
     <i name="DEPER">      0.30000000</i>
     <i type="int" name="NRMM">     4</i>
     <i name="TIME">      0.40000000</i>
    </separator>
   </separator>
   <separator name="electronic mixer" >
    <i name="AMIX">      0.40000000</i>
    <i name="BMIX">      1.00000000</i>
    <i name="AMIN">      0.10000000</i>
    <i name="AMIX_MAG">      1.60000000</i>
    <i name="BMIX_MAG">      1.00000000</i>
    <separator name="electronic mixer details" >
     <i type="int" name="IMIX">     4</i>
     <i type="logical" name="MIXFIRST"> F  </i>
     <i type="int" name="MAXMIX">   -45</i>
     <i name="WC">    100.00000000</i>
     <i type="int" name="INIMIX">     1</i>
     <i type="int" name="MIXPRE">     1</i>
     <i type="int" name="MREMOVE">     5</i>
    </separator>
   </separator>
   <separator name="electronic dipolcorrection" >
    <i type="logical" name="LDIPOL"> F  </i>
    <i type="logical" name="LMONO"> F  </i>
    <i type="int" name="IDIPOL">     0</i>
    <i name="EPSILON">      1.00000000</i>
    <v name="DIPOL">   -100.00000000   -100.00000000   -100.00000000</v>
    <i name="EFIELD">      0.00000000</i>
   </separator>
  </separator>
  <separator name="grids" >
   <i type="int" name="NGX">   120</i>
   <i type="int" name="NGY">   126</i>
   <i type="int" name="NGZ">   126</i>
   <i type="int" name="NGXF">   240</i>
   <i type="int" name="NGYF">   252</i>
   <i type="int" name="NGZF">   252</i>
   <i type="logical" name="ADDGRID"> F  </i>
  </separator>
  <separator name="ionic" >
   <i type="int" name="NSW">  1000</i>
   <i type="int" name="IBRION">     2</i>
   <i type="int" name="MDALGO">     0</i>
   <i type="int" name="ISIF">     0</i>
   <i name="PSTRESS">      0.00000000</i>
   <i name="EDIFFG">      0.00100000</i>
   <i type="int" name="NFREE">     1</i>
   <i name="POTIM">      0.50000000</i>
   <i name="SMASS">     -3.00000000</i>
   <i name="SCALEE">      1.00000000</i>
  </separator>
  <separator name="ionic md" >
   <i name="TEBEG">      0.00010000</i>
   <i name="TEEND">      0.00010000</i>
   <i type="int" name="NBLOCK">     1</i>
   <i type="int" name="KBLOCK">  1000</i>
   <i type="int" name="NPACO">   256</i>
   <i name="APACO">     16.00000000</i>
  </separator>
  <separator name="symmetry" >
   <i type="int" name="ISYM">     0</i>
   <i name="SYMPREC">      0.00001000</i>
  </separator>
  <separator name="dos" >
   <i type="int" name="LORBIT">     0</i>
   <v name="RWIGS">     -1.00000000</v>
   <i type="int" name="NEDOS">   301</i>
   <i name="EMIN">     10.00000000</i>
   <i name="EMAX">    -10.00000000</i>
   <i name="EFERMI">      0.00000000</i>
  </separator>
  <separator name="writing" >
   <i type="int" name="NWRITE">     2</i>
   <i type="logical" name="LWAVE"> F  </i>
   <i type="logical" name="LDOWNSAMPLE"> F  </i>
   <i type="logical" name="LCHARG"> F  </i>
   <i type="logical" name="LPARD"> F  </i>
   <i type="logical" name="LVTOT"> F  </i>
   <i type="logical" name="LVHAR"> F  </i>
   <i type="logical" name="LELF"> F  </i>
   <i type="logical" name="LOPTICS"> F  </i>
   <v name="STM">      0.00000000      0.00000000      0.00000000      0.00000000      0.00000000      0.00000000      0.00000000</v>
  </separator>
  <separator name="performance" >
   <i type="int" name="NPAR">     2</i>
   <i type="int" name="NSIM">     4</i>
   <i type="int" name="NBLK">    -1</i>
   <i type="logical" name="LPLANE"> T  </i>
   <i type="logical" name="LSCALAPACK"> T  </i>
   <i type="logical" name="LSCAAWARE"> F  </i>
   <i type="logical" name="LSCALU"> F  </i>
   <i type="logical" name="LASYNC"> F  </i>
   <i type="logical" name="LORBITALREAL"> F  </i>
  </separator>
  <separator name="miscellaneous" >
   <i type="int" name="IDIOT">     3</i>
   <i type="int" name="PHON_NSTRUCT">    -1</i>
   <i type="logical" name="LMUSIC"> F  </i>
   <v name="POMASS">    106.42000000</v>
   <v name="DARWINR">      0.00000000</v>
   <v name="DARWINV">      1.00000000</v>
   <i type="logical" name="LCORR"> T  </i>
  </separator>
  <i type="logical" name="GGA_COMPAT"> T  </i>
  <i type="logical" name="LBERRY"> F  </i>
  <i type="int" name="ICORELEVEL">     0</i>
  <i type="logical" name="LDAU"> F  </i>
  <i type="int" name="I_CONSTRAINED_M">     0</i>
  <separator name="electronic exchange-correlation" >
   <i type="string" name="GGA">PE</i>
   <i type="int" name="VOSKOWN">     0</i>
   <i type="logical" name="LHFCALC"> F  </i>
   <i type="string" name="PRECFOCK"></i>
   <i type="logical" name="LSYMGRAD"> F  </i>
   <i type="logical" name="LHFONE"> F  </i>
   <i type="logical" name="LRHFCALC"> F  </i>
   <i type="logical" name="LTHOMAS"> F  </i>
   <i type="logical" name="LMODELHF"> F  </i>
   <i type="logical" name="LFOCKACE"> F  </i>
   <i name="ENCUT4O">     -1.00000000</i>
   <i type="int" name="EXXOEP">     0</i>
   <i type="int" name="FOURORBIT">     0</i>
   <i name="AEXX">      0.00000000</i>
   <i name="HFALPHA">      0.00000000</i>
   <i name="MCALPHA">      0.00000000</i>
   <i name="ALDAX">      1.00000000</i>
   <i name="AGGAX">      1.00000000</i>
   <i name="ALDAC">      1.00000000</i>
   <i name="AGGAC">      1.00000000</i>
   <i type="int" name="NKREDX">     1</i>
   <i type="int" name="NKREDY">     1</i>
   <i type="int" name="NKREDZ">     1</i>
   <i type="logical" name="SHIFTRED"> F  </i>
   <i type="logical" name="ODDONLY"> F  </i>
   <i type="logical" name="EVENONLY"> F  </i>
   <i type="int" name="LMAXFOCK">     0</i>
   <i type="int" name="NMAXFOCKAE">     0</i>
   <i type="logical" name="LFOCKAEDFT"> F  </i>
   <i name="HFSCREEN">      0.00000000</i>
   <i name="HFSCREENC">      0.00000000</i>
   <i type="int" name="NBANDSGWLOW">     0</i>
  </separator>
  <separator name="vdW DFT" >
   <i type="logical" name="LUSE_VDW"> F  </i>
   <i name="Zab_VDW">     -0.84910000</i>
   <i name="PARAM1">      0.12340000</i>
   <i name="PARAM2">      1.00000000</i>
   <i name="PARAM3">      0.00000000</i>
  </separator>
  <separator name="model GW" >
   <i type="int" name="MODEL_GW">     0</i>
   <i name="MODEL_EPS0">    554.52126596</i>
   <i name="MODEL_ALPHA">      1.00000000</i>
  </separator>
  <separator name="linear response parameters" >
   <i type="logical" name="LEPSILON"> F  </i>
   <i type="logical" name="LRPA"> F  </i>
   <i type="logical" name="LNABLA"> F  </i>
   <i type="logical" name="LVEL"> F  </i>
   <i type="int" name="KINTER">     0</i>
   <i name="CSHIFT">      0.10000000</i>
   <i name="OMEGAMAX">     -1.00000000</i>
   <i name="DEG_THRESHOLD">      0.00200000</i>
   <i name="RTIME">     -0.10000000</i>
   <i name="WPLASMAI">      0.00000000</i>
   <v name="DFIELD">      0.00000000      0.00000000      0.00000000</v>
   <v name="WPLASMA">      0.00000000      0.00000000      0.00000000      0.00000000      0.00000000      0.00000000      0.00000000      0.00000000      0.00000000</v>
  </separator>
  <separator name="orbital magnetization" >
   <i type="logical" name="NUCIND"> F  </i>
   <v name="MAGPOS">      0.00000000      0.00000000      0.00000000</v>
   <i type="logical" name="LNICSALL"> T  </i>
   <i type="logical" name="ORBITALMAG"> F  </i>
   <i type="logical" name="LMAGBLOCH"> F  </i>
   <i type="logical" name="LCHIMAG"> F  </i>
   <i type="logical" name="LGAUGE"> T  </i>
   <i type="int" name="MAGATOM">     0</i>
   <v name="MAGDIPOL">      0.00000000      0.00000000      0.00000000</v>
   <v name="AVECCONST">      0.00000000      0.00000000      0.00000000</v>
  </separator>
  <separator name="response functions" >
   <i type="logical" name="LFINITE_TEMPERATURE"> F  </i>
   <i type="logical" name="LADDER"> F  </i>
   <i type="logical" name="LRPAFORCE"> F  </i>
   <i type="logical" name="LFXC"> F  </i>
   <i type="logical" name="LHARTREE"> T  </i>
   <i type="int" name="IBSE">     0</i>
   <v type="int" name="KPOINT">    -1     0     0     0</v>
   <i type="logical" name="LTCTC"> F  </i>
   <i type="logical" name="LTCTE"> F  </i>
   <i type="logical" name="LTETE"> F  </i>
   <i type="logical" name="LTRIPLET"> F  </i>
   <i type="logical" name="LFXCEPS"> F  </i>
   <i type="logical" name="LFXHEG"> F  </i>
   <i type="int" name="NATURALO">     2</i>
   <i type="logical" name="LHOLEGF"> F  </i>
   <i type="logical" name="L2ORDER"> F  </i>
   <i type="logical" name="LDMP1"> F  </i>
   <i type="logical" name="LMP2LT"> F  </i>
   <i type="logical" name="LSMP2LT"> F  </i>
   <i type="logical" name="LGWLF"> F  </i>
   <i name="ENCUTGW">     -2.00000000</i>
   <i name="ENCUTGWSOFT">     -2.00000000</i>
   <i name="ENCUTLF">     -1.00000000</i>
   <i type="logical" name="LESF_SPLINES"> F  </i>
   <i type="int" name="LMAXMP2">    -1</i>
   <i name="SCISSOR">      0.00000000</i>
   <i type="int" name="NOMEGA">     0</i>
   <i type="int" name="NOMEGAR">     0</i>
   <i type="int" name="NBANDSGW">    -1</i>
   <i type="int" name="NBANDSO">    -1</i>
   <i type="int" name="NBANDSV">    -1</i>
   <i type="int" name="NELM">     1</i>
   <i type="int" name="NELMHF">     1</i>
   <i type="int" name="DIM">     3</i>
   <i type="int" name="IESPILON">     4</i>
   <i type="int" name="ANTIRES">     0</i>
   <i name="OMEGAMAX">    -30.00000000</i>
   <i name="OMEGAMIN">    -30.00000000</i>
   <i name="OMEGATL">   -200.00000000</i>
   <i type="int" name="OMEGAGRID">     0</i>
   <i name="CSHIFT">     -0.10000000</i>
   <i type="logical" name="LSELFENERGY"> F  </i>
   <i type="logical" name="LSPECTRAL"> F  </i>
   <i type="logical" name="LSPECTRALGW"> F  </i>
   <i type="logical" name="LSINGLES"> F  </i>
   <i type="logical" name="LFERMIGW"> F  </i>
   <i type="logical" name="ODDONLYGW"> F  </i>
   <i type="logical" name="EVENONLYGW"> F  </i>
   <i type="int" name="NKREDLFX">     1</i>
   <i type="int" name="NKREDLFY">     1</i>
   <i type="int" name="NKREDLFZ">     1</i>
   <i type="int" name="MAXMEM">  2800</i>
   <i type="int" name="TELESCOPE">     0</i>
   <i type="int" name="NTAUPAR">    -1</i>
   <i type="int" name="NOMEGAPAR">    -1</i>
   <i name="LAMBDA">      1.00000000</i>
  </separator>
  <separator name="External order field" >
   <i name="OFIELD_KAPPA">      0.00000000</i>
   <v name="OFIELD_K">      0.00000000      0.00000000      0.00000000</v>
   <i name="OFIELD_Q6_NEAR">      0.00000000</i>
   <i name="OFIELD_Q6_FAR">      0.00000000</i>
   <i name="OFIELD_A">      0.00000000</i>
  </separator>
 </parameters>
 <atominfo>
  <atoms>      16 </atoms>
  <types>       1 </types>
  <array name="atoms" >
   <dimension dim="1">ion</dimension>
   <field type="string">element</field>
   <field type="int">atomtype</field>
   <set>
    <rc><c>Pd</c><c>   1</c></rc>
    <rc><c>Pd</c><c>   1</c></rc>
    <rc><c>Pd</c><c>   1</c></rc>
    <rc><c>Pd</c><c>   1</c></rc>
    <rc><c>Pd</c><c>   1</c></rc>
    <rc><c>Pd</c><c>   1</c></rc>
    <rc><c>Pd</c><c>   1</c></rc>
    <rc><c>Pd</c><c>   1</c></rc>
    <rc><c>Pd</c><c>   1</c></rc>
    <rc><c>Pd</c><c>   1</c></rc>
    <rc><c>Pd</c><c>   1</c></rc>
    <rc><c>Pd</c><c>   1</c></rc>
    <rc><c>Pd</c><c>   1</c></rc>
    <rc><c>Pd</c><c>   1</c></rc>
    <rc><c>Pd</c><c>   1</c></rc>
    <rc><c>Pd</c><c>   1</c></rc>
   </set>
  </array>
  <array name="atomtypes" >
   <dimension dim="1">type</dimension>
   <field type="int">atomspertype</field>
   <field type="string">element</field>
   <field>mass</field>
   <field>valence</field>
   <field type="string">pseudopotential</field>
   <set>
    <rc><c>  16</c><c>Pd</c><c>    106.42000000</c><c>     10.00000000</c><c>  PAW_PBE Pd 04Jan2005                  </c></rc>
   </set>
  </array>
 </atominfo>
 <structure name="initialpos" >
  <crystal>
   <varray name="basis" >
    <v>      23.64122418       0.00000000       0.00000000 </v>
    <v>       0.00000000      24.80268081       0.00000000 </v>
    <v>       0.00000000       0.00000000      25.21844784 </v>
   </varray>
   <i name="volume">  14787.23375885 </i>
   <varray name="rec_basis" >
    <v>       0.04229899       0.00000000       0.00000000 </v>
    <v>       0.00000000       0.04031822       0.00000000 </v>
    <v>       0.00000000       0.00000000       0.03965351 </v>
   </varray>
  </crystal>
  <varray name="positions" >
   <v>       0.49034961       0.53612482       0.37525742 </v>
   <v>       0.38553288       0.51380539       0.40210689 </v>
   <v>       0.56239706       0.51905541       0.45219897 </v>
   <v>       0.52485972       0.61612875       0.43769271 </v>
   <v>       0.46615515       0.44912243       0.43095637 </v>
   <v>       0.42292548       0.61385019       0.39593425 </v>
   <v>       0.44866106       0.55272088       0.47523996 </v>
   <v>       0.39193413       0.46609712       0.50834854 </v>
   <v>       0.45811833       0.38034535       0.51799757 </v>
   <v>       0.50158197       0.47420141       0.52474829 </v>
   <v>       0.60474516       0.49006762       0.55014699 </v>
   <v>       0.43888223       0.43691421       0.60299574 </v>
   <v>       0.43420286       0.53971485       0.57842094 </v>
   <v>       0.54352723       0.40437183       0.58735041 </v>
   <v>       0.53620201       0.57402507       0.53944815 </v>
   <v>       0.52736620       0.50309115       0.62237506 </v>
  </varray>
 </structure>
 <calculation>
  <scstep>
   <time name="dav">   12.47   12.50</time>
   <time name="total">   15.68   15.72</time>
   <energy>
    <i name="alphaZ">     11.28328521 </i>
    <i name="ewald">  27037.15535030 </i>
    <i name="hartreedc"> -39325.48450184 </i>
    <i name="XCdc">   -478.87079451 </i>
    <i name="pawpsdc">  12906.36685261 </i>
    <i name="pawaedc"> -11910.91650437 </i>
    <i name="eentropy">      0.01074532 </i>
    <i name="bandstr">    240.52147394 </i>
    <i name="atom">  12955.90228127 </i>
    <i name="e_fr_energy">   1435.96818794 </i>
    <i name="e_wo_entrp">   1435.95744261 </i>
    <i name="e_0_energy">   1435.96460616 </i>
   </energy>
  </scstep>
  <scstep>
   <time name="dav">   20.64   20.67</time>
   <time name="total">   20.64   20.68</time>
   <energy>
    <i name="e_fr_energy">    756.10193982 </i>
    <i name="e_wo_entrp">    756.06976597 </i>
    <i name="e_0_energy">    756.09121520 </i>
   </energy>
  </scstep>
  <scstep>
   <time name="dav">   18.22   18.24</time>
   <time name="total">   18.23   18.25</time>
   <energy>
    <i name="e_fr_energy">    145.96645520 </i>
    <i name="e_wo_entrp">    145.95999231 </i>
    <i name="e_0_energy">    145.96430091 </i>
   </energy>
  </scstep>
  <scstep>
   <time name="dav">   15.73   15.75</time>
   <time name="total">   15.74   15.76</time>
   <energy>
    <i name="e_fr_energy">    -39.41898095 </i>
    <i name="e_wo_entrp">    -39.44649843 </i>
    <i name="e_0_energy">    -39.42815344 </i>
   </energy>
  </scstep>
  <scstep>
   <time name="dav">   15.55   15.58</time>
   <time name="total">   16.71   16.75</time>
   <energy>
    <i name="e_fr_energy">    -63.62097679 </i>
    <i name="e_wo_entrp">    -63.65714474 </i>
    <i name="e_0_energy">    -63.63303277 </i>
   </energy>
  </scstep>
  <scstep>
   <time name="dav">   13.07   13.08</time>
   <time name="total">   17.39   17.42</time>
   <energy>
    <i name="e_fr_energy">    -55.08042635 </i>
    <i name="e_wo_entrp">    -55.07101277 </i>
    <i name="e_0_energy">    -55.07728849 </i>
   </energy>
  </scstep>
  <scstep>
   <time name="dav">   13.23   13.26</time>
   <time name="total">   17.58   17.61</time>
   <energy>
    <i name="e_fr_energy">    -55.06838309 </i>
    <i name="e_wo_entrp">    -55.04775663 </i>
    <i name="e_0_energy">    -55.06150760 </i>
   </energy>
  </scstep>
  <scstep>
   <time name="dav">   13.24   13.26</time>
   <time name="total">   17.56   17.59</time>
   <energy>
    <i name="e_fr_energy">    -52.40920706 </i>
    <i name="e_wo_entrp">    -52.40642237 </i>
    <i name="e_0_energy">    -52.40827883 </i>
   </energy>
  </scstep>
  <scstep>
   <time name="dav">   13.51   13.53</time>
   <time name="total">   17.86   17.89</time>
   <energy>
    <i name="e_fr_energy">    -50.29502116 </i>
    <i name="e_wo_entrp">    -50.25509486 </i>
    <i name="e_0_energy">    -50.28171239 </i>
   </energy>
  </scstep>
  <scstep>
   <time name="dav">   13.70   13.72</time>
   <time name="total">   18.02   18.04</time>
   <energy>
    <i name="e_fr_energy">    -49.14788593 </i>
    <i name="e_wo_entrp">    -49.12766167 </i>
    <i name="e_0_energy">    -49.14114451 </i>
   </energy>
  </scstep>
  <scstep>
   <time name="dav">   13.36   13.39</time>
   <time name="total">   17.70   17.73</time>
   <energy>
    <i name="e_fr_energy">    -48.91551778 </i>
    <i name="e_wo_entrp">    -48.92699194 </i>
    <i name="e_0_energy">    -48.91934250 </i>
   </energy>
  </scstep>
  <scstep>
   <time name="dav">   13.08   13.10</time>
   <time name="total">   17.42   17.45</time>
   <energy>
    <i name="e_fr_energy">    -48.95089947 </i>
    <i name="e_wo_entrp">    -48.98650095 </i>
    <i name="e_0_energy">    -48.96276663 </i>
   </energy>
  </scstep>
  <scstep>
   <time name="dav">   12.92   12.95</time>
   <time name="total">   17.28   17.31</time>
   <energy>
    <i name="e_fr_energy">    -49.85705901 </i>
    <i name="e_wo_entrp">    -49.88901780 </i>
    <i name="e_0_energy">    -49.86771194 </i>
   </energy>
  </scstep>
  <scstep>
   <time name="dav">   12.70   12.72</time>
   <time name="total">   17.01   17.03</time>
   <energy>
    <i name="e_fr_energy">    -51.21128421 </i>
    <i name="e_wo_entrp">    -51.26803029 </i>
    <i name="e_0_energy">    -51.23019957 </i>
   </energy>
  </scstep>
  <scstep>
   <time name="dav">   12.68   12.69</time>
   <time name="total">   17.01   17.03</time>
   <energy>
    <i name="e_fr_energy">    -53.87573496 </i>
    <i name="e_wo_entrp">    -53.89642037 </i>
    <i name="e_0_energy">    -53.88263010 </i>
   </energy>
  </scstep>
  <scstep>
   <time name="dav">   13.16   13.18</time>
   <time name="total">   17.51   17.54</time>
   <energy>
    <i name="e_fr_energy">    -54.83333704 </i>
    <i name="e_wo_entrp">    -54.87487707 </i>
    <i name="e_0_energy">    -54.84718371 </i>
   </energy>
  </scstep>
  <scstep>
   <time name="dav">   12.74   12.76</time>
   <time name="total">   17.07   17.10</time>
   <energy>
    <i name="e_fr_energy">    -56.02400962 </i>
    <i name="e_wo_entrp">    -56.07625682 </i>
    <i name="e_0_energy">    -56.04142535 </i>
   </energy>
  </scstep>
  <scstep>
   <time name="dav">   14.60   14.62</time>
   <time name="total">   18.96   18.99</time>
   <energy>
    <i name="e_fr_energy">    -56.71899736 </i>
    <i name="e_wo_entrp">    -56.76766823 </i>
    <i name="e_0_energy">    -56.73522099 </i>
   </energy>
  </scstep>
  <scstep>
   <time name="dav">   13.03   13.05</time>
   <time name="total">   17.40   17.43</time>
   <energy>
    <i name="e_fr_energy">    -57.05545251 </i>
    <i name="e_wo_entrp">    -57.10941848 </i>
    <i name="e_0_energy">    -57.07344117 </i>
   </energy>
  </scstep>
  <scstep>
   <time name="dav">   12.86   12.89</time>
   <time name="total">   17.31   17.35</time>
   <energy>
    <i name="e_fr_energy">    -57.48286510 </i>
    <i name="e_wo_entrp">    -57.53608789 </i>
    <i name="e_0_energy">    -57.50060603 </i>
   </energy>
  </scstep>
  <scstep>
   <time name="dav">   12.91   12.92</time>
   <time name="total">   17.30   17.32</time>
   <energy>
    <i name="e_fr_energy">    -58.11546295 </i>
    <i name="e_wo_entrp">    -58.16918909 </i>
    <i name="e_0_energy">    -58.13337166 </i>
   </energy>
  </scstep>
  <scstep>
   <time name="dav">   13.47   13.49</time>
   <time name="total">   17.90   17.92</time>
   <energy>
    <i name="e_fr_energy">    -58.66665153 </i>
    <i name="e_wo_entrp">    -58.72393376 </i>
    <i name="e_0_energy">    -58.68574561 </i>
   </energy>
  </scstep>
  <scstep>
   <time name="dav">   12.90   12.93</time>
   <time name="total">   17.54   17.56</time>
   <energy>
    <i name="e_fr_energy">    -59.23541849 </i>
    <i name="e_wo_entrp">    -59.29743934 </i>
    <i name="e_0_energy">    -59.25609211 </i>
   </energy>
  </scstep>
  <scstep>
   <time name="dav">   13.62   13.65</time>
   <time name="total">   18.08   18.67</time>
   <energy>
    <i name="e_fr_energy">    -59.80162453 </i>
    <i name="e_wo_entrp">    -59.86820901 </i>
    <i name="e_0_energy">    -59.82381936 </i>
   </energy>
  </scstep>
  <scstep>
   <time name="dav">   13.31   13.38</time>
   <time name="total">   17.76   17.84</time>
   <energy>
    <i name="e_fr_energy">    -60.18852453 </i>
    <i name="e_wo_entrp">    -60.25913426 </i>
    <i name="e_0_energy">    -60.21206111 </i>
   </energy>
  </scstep>
  <scstep>
   <time name="dav">   13.19   13.20</time>
   <time name="total">   17.69   17.71</time>
   <energy>
    <i name="e_fr_energy">    -60.54945548 </i>
    <i name="e_wo_entrp">    -60.62018272 </i>
    <i name="e_0_energy">    -60.57303123 </i>
   </energy>
  </scstep>
  <scstep>
   <time name="dav">   13.60   13.62</time>
   <time name="total">   18.09   18.11</time>
   <energy>
    <i name="e_fr_energy">    -60.82088884 </i>
    <i name="e_wo_entrp">    -60.89211925 </i>
    <i name="e_0_energy">    -60.84463231 </i>
   </energy>
  </scstep>
  <scstep>
   <time name="dav">   13.06   13.07</time>
   <time name="total">   17.58   17.59</time>
   <energy>
    <i name="e_fr_energy">    -61.07739447 </i>
    <i name="e_wo_entrp">    -61.14909299 </i>
    <i name="e_0_energy">    -61.10129398 </i>
   </energy>
  </scstep>
  <scstep>
   <time name="dav">   13.67   13.68</time>
   <time name="total">   18.14   18.15</time>
   <energy>
    <i name="e_fr_energy">    -61.32196712 </i>
    <i name="e_wo_entrp">    -61.39421477 </i>
    <i name="e_0_energy">    -61.34604967 </i>
   </energy>
  </scstep>
  <scstep>
   <time name="dav">   13.80   13.81</time>
   <time name="total">   18.34   18.36</time>
   <energy>
    <i name="e_fr_energy">    -61.43796902 </i>
    <i name="e_wo_entrp">    -61.51023383 </i>
    <i name="e_0_energy">    -61.46205729 </i>
   </energy>
  </scstep>
  <scstep>
   <time name="dav">   12.92   12.93</time>
   <time name="total">   17.45   17.47</time>
   <energy>
    <i name="e_fr_energy">    -61.49232688 </i>
    <i name="e_wo_entrp">    -61.56412505 </i>
    <i name="e_0_energy">    -61.51625960 </i>
   </energy>
  </scstep>
  <scstep>
   <time name="dav">   12.56   12.57</time>
   <time name="total">   17.08   17.11</time>
   <energy>
    <i name="e_fr_energy">    -61.54438314 </i>
    <i name="e_wo_entrp">    -61.61656422 </i>
    <i name="e_0_energy">    -61.56844350 </i>
   </energy>
  </scstep>
  <scstep>
   <time name="dav">   11.42   11.43</time>
   <time name="total">   15.99   16.00</time>
   <energy>
    <i name="e_fr_energy">    -61.58152210 </i>
    <i name="e_wo_entrp">    -61.65402227 </i>
    <i name="e_0_energy">    -61.60568882 </i>
   </energy>
  </scstep>
  <scstep>
   <time name="dav">   10.45   10.46</time>
   <time name="total">   14.98   15.00</time>
   <energy>
    <i name="e_fr_energy">    -61.60091063 </i>
    <i name="e_wo_entrp">    -61.67320713 </i>
    <i name="e_0_energy">    -61.62500946 </i>
   </energy>
  </scstep>
  <scstep>
   <time name="dav">   10.46   10.47</time>
   <time name="total">   14.98   15.00</time>
   <energy>
    <i name="e_fr_energy">    -61.61622951 </i>
    <i name="e_wo_entrp">    -61.68840295 </i>
    <i name="e_0_energy">    -61.64028733 </i>
   </energy>
  </scstep>
  <scstep>
   <time name="dav">   10.25   10.26</time>
   <time name="total">   14.79   14.81</time>
   <energy>
    <i name="e_fr_energy">    -61.62524062 </i>
    <i name="e_wo_entrp">    -61.69744170 </i>
    <i name="e_0_energy">    -61.64930765 </i>
   </energy>
  </scstep>
  <scstep>
   <time name="dav">   10.10   10.11</time>
   <time name="total">   14.69   14.71</time>
   <energy>
    <i name="e_fr_energy">    -61.62851922 </i>
    <i name="e_wo_entrp">    -61.70078972 </i>
    <i name="e_0_energy">    -61.65260939 </i>
   </energy>
  </scstep>
  <scstep>
   <time name="dav">    9.94    9.95</time>
   <time name="total">   14.57   14.58</time>
   <energy>
    <i name="e_fr_energy">    -61.63002677 </i>
    <i name="e_wo_entrp">    -61.70226503 </i>
    <i name="e_0_energy">    -61.65410619 </i>
   </energy>
  </scstep>
  <scstep>
   <time name="dav">    9.97    9.98</time>
   <time name="total">   14.55   14.57</time>
   <energy>
    <i name="e_fr_energy">    -61.63135442 </i>
    <i name="e_wo_entrp">    -61.70359392 </i>
    <i name="e_0_energy">    -61.65543425 </i>
   </energy>
  </scstep>
  <scstep>
   <time name="dav">    9.95    9.96</time>
   <time name="total">   14.54   14.56</time>
   <energy>
    <i name="e_fr_energy">    -61.63228380 </i>
    <i name="e_wo_entrp">    -61.70450786 </i>
    <i name="e_0_energy">    -61.65635848 </i>
   </energy>
  </scstep>
  <scstep>
   <time name="dav">    9.99   10.00</time>
   <time name="total">   14.60   14.62</time>
   <energy>
    <i name="e_fr_energy">    -61.63298872 </i>
    <i name="e_wo_entrp">    -61.70521881 </i>
    <i name="e_0_energy">    -61.65706542 </i>
   </energy>
  </scstep>
  <scstep>
   <time name="dav">    9.59    9.60</time>
   <time name="total">   14.25   14.27</time>
   <energy>
    <i name="e_fr_energy">    -61.63347926 </i>
    <i name="e_wo_entrp">    -61.70570898 </i>
    <i name="e_0_energy">    -61.65755583 </i>
   </energy>
  </scstep>
  <scstep>
   <time name="dav">    9.84    9.85</time>
   <time name="total">   14.52   14.53</time>
   <energy>
    <i name="e_fr_energy">    -61.63403695 </i>
    <i name="e_wo_entrp">    -61.70627024 </i>
    <i name="e_0_energy">    -61.65811472 </i>
   </energy>
  </scstep>
  <scstep>
   <time name="dav">    9.76    9.77</time>
   <time name="total">   14.45   14.47</time>
   <energy>
    <i name="e_fr_energy">    -61.63442495 </i>
    <i name="e_wo_entrp">    -61.70665411 </i>
    <i name="e_0_energy">    -61.65850134 </i>
   </energy>
  </scstep>
  <scstep>
   <time name="dav">    9.45    9.46</time>
   <time name="total">   14.13   14.15</time>
   <energy>
    <i name="e_fr_energy">    -61.63456173 </i>
    <i name="e_wo_entrp">    -61.70679206 </i>
    <i name="e_0_energy">    -61.65863850 </i>
   </energy>
  </scstep>
  <scstep>
   <time name="dav">    9.42    9.43</time>
   <time name="total">   12.54   12.56</time>
   <energy>
    <i name="alphaZ">     11.28328521 </i>
    <i name="ewald">  27037.15535030 </i>
    <i name="hartreedc"> -39576.83346330 </i>
    <i name="XCdc">   -479.00521373 </i>
    <i name="pawpsdc">  14993.50119394 </i>
    <i name="pawaedc"> -14019.93486675 </i>
    <i name="eentropy">      0.07223001 </i>
    <i name="bandstr">   -983.77544008 </i>
    <i name="atom">  12955.90228127 </i>
    <i name="e_fr_energy">    -61.63464314 </i>
    <i name="e_wo_entrp">    -61.70687315 </i>
    <i name="e_0_energy">    -61.65871981 </i>
   </energy>
  </scstep>
  <structure>
   <crystal>
    <varray name="basis" >
     <v>      23.64122418       0.00000000       0.00000000 </v>
     <v>       0.00000000      24.80268081       0.00000000 </v>
     <v>       0.00000000       0.00000000      25.21844784 </v>
    </varray>
    <i name="volume">  14787.23375885 </i>
    <varray name="rec_basis" >
     <v>       0.04229899       0.00000000       0.00000000 </v>
     <v>       0.00000000       0.04031822       0.00000000 </v>
     <v>       0.00000000       0.00000000       0.03965351 </v>
    </varray>
   </crystal>
   <varray name="positions" >
    <v>       0.49034961       0.53612482       0.37525742 </v>
    <v>       0.38553288       0.51380539       0.40210689 </v>
    <v>       0.56239706       0.51905541       0.45219897 </v>
    <v>       0.52485972       0.61612875       0.43769271 </v>
    <v>       0.46615515       0.44912243       0.43095637 </v>
    <v>       0.42292548       0.61385019       0.39593425 </v>
    <v>       0.44866106       0.55272088       0.47523996 </v>
    <v>       0.39193413       0.46609712       0.50834854 </v>
    <v>       0.45811833       0.38034535       0.51799757 </v>
    <v>       0.50158197       0.47420141       0.52474829 </v>
    <v>       0.60474516       0.49006762       0.55014699 </v>
    <v>       0.43888223       0.43691421       0.60299574 </v>
    <v>       0.43420286       0.53971485       0.57842094 </v>
    <v>       0.54352723       0.40437183       0.58735041 </v>
    <v>       0.53620201       0.57402507       0.53944815 </v>
    <v>       0.52736620       0.50309115       0.62237506 </v>
   </varray>
  </structure>
  <varray name="forces" >
   <v>       0.48411989      -0.31122191      -0.84464272 </v>
   <v>      -0.85107111      -0.37117539      -0.10278504 </v>
   <v>       0.75844725      -0.41156940      -0.16948374 </v>
   <v>       0.51107200       0.68392717       0.18988541 </v>
   <v>       0.27430462      -0.77049186      -0.28531535 </v>
   <v>      -0.51747783       0.74907046      -0.27948839 </v>
   <v>      -0.44349603       0.37726865       0.82401539 </v>
   <v>      -0.80875828       0.12607068      -0.12045422 </v>
   <v>      -0.01757485      -0.76922070      -0.51714708 </v>
   <v>       0.33870801      -0.15853911      -1.07375199 </v>
   <v>       0.89927186      -0.09229104      -0.28767173 </v>
   <v>      -0.77366719      -0.31361777       0.81207669 </v>
   <v>      -0.67246119       0.80091205       0.26046432 </v>
   <v>       0.56088494      -0.82317817       0.38282445 </v>
   <v>       0.05986258       0.77698044       0.18240854 </v>
   <v>       0.19783533       0.50707591       1.02906545 </v>
  </varray>
  <energy>
   <i name="e_fr_energy">    -61.63464314 </i>
   <i name="e_wo_entrp">    -61.70687315 </i>
   <i name="e_0_energy">    -61.65871981 </i>
  </energy>
  <time name="totalsc">  784.73  786.45</time>
 </calculation>
 <calculation>
  <scstep>
   <time name="dav">   12.35   12.36</time>
   <time name="total">   16.66   16.67</time>
   <energy>
    <i name="alphaZ">     11.28328521 </i>
    <i name="ewald">  26366.80136721 </i>
    <i name="hartreedc"> -38916.40400030 </i>
    <i name="XCdc">   -480.72477238 </i>
    <i name="pawpsdc">  14993.50749367 </i>
    <i name="pawaedc"> -14019.94112347 </i>
    <i name="eentropy">      0.05451603 </i>
    <i name="bandstr">   -972.28235314 </i>
    <i name="atom">  12955.90228127 </i>
    <i name="e_fr_energy">    -61.80330590 </i>
    <i name="e_wo_entrp">    -61.85782193 </i>
    <i name="e_0_energy">    -61.82147791 </i>
   </energy>
  </scstep>
  <scstep>
   <time name="dav">   12.61   12.62</time>
   <time name="total">   16.85   16.87</time>
   <energy>
    <i name="e_fr_energy">    -62.20632095 </i>
    <i name="e_wo_entrp">    -62.25643290 </i>
    <i name="e_0_energy">    -62.22302494 </i>
   </energy>
  </scstep>
  <scstep>
   <time name="dav">   12.70   12.71</time>
   <time name="total">   16.96   16.98</time>
   <energy>
    <i name="e_fr_energy">    -62.14556253 </i>
    <i name="e_wo_entrp">    -62.19932898 </i>
    <i name="e_0_energy">    -62.16348468 </i>
   </energy>
  </scstep>
  <scstep>
   <time name="dav">   12.84   12.85</time>
   <time name="total">   17.15   17.16</time>
   <energy>
    <i name="e_fr_energy">    -62.11476965 </i>
    <i name="e_wo_entrp">    -62.17333601 </i>
    <i name="e_0_energy">    -62.13429177 </i>
   </energy>
  </scstep>
  <scstep>
   <time name="dav">   12.81   12.82</time>
   <time name="total">   17.12   17.14</time>
   <energy>
    <i name="e_fr_energy">    -62.06118325 </i>
    <i name="e_wo_entrp">    -62.12270262 </i>
    <i name="e_0_energy">    -62.08168971 </i>
   </energy>
  </scstep>
  <scstep>
   <time name="dav">   12.77   12.78</time>
   <time name="total">   17.09   17.11</time>
   <energy>
    <i name="e_fr_energy">    -62.06393766 </i>
    <i name="e_wo_entrp">    -62.10301931 </i>
    <i name="e_0_energy">    -62.07696487 </i>
   </energy>
  </scstep>
  <scstep>
   <time name="dav">   13.13   13.14</time>
   <time name="total">   17.43   17.45</time>
   <energy>
    <i name="e_fr_energy">    -62.05573166 </i>
    <i name="e_wo_entrp">    -62.11479526 </i>
    <i name="e_0_energy">    -62.07541953 </i>
   </energy>
  </scstep>
  <scstep>
   <time name="dav">   12.97   12.98</time>
   <time name="total">   17.34   17.35</time>
   <energy>
    <i name="e_fr_energy">    -62.04816938 </i>
    <i name="e_wo_entrp">    -62.10519099 </i>
    <i name="e_0_energy">    -62.06717658 </i>
   </energy>
  </scstep>
  <scstep>
   <time name="dav">   13.01   13.03</time>
   <time name="total">   17.35   17.37</time>
   <energy>
    <i name="e_fr_energy">    -62.04981763 </i>
    <i name="e_wo_entrp">    -62.10548916 </i>
    <i name="e_0_energy">    -62.06837481 </i>
   </energy>
  </scstep>
  <scstep>
   <time name="dav">   12.96   12.97</time>
   <time name="total">   17.28   17.29</time>
   <energy>
    <i name="e_fr_energy">    -62.05028806 </i>
    <i name="e_wo_entrp">    -62.10656728 </i>
    <i name="e_0_energy">    -62.06904780 </i>
   </energy>
  </scstep>
  <scstep>
   <time name="dav">   12.81   12.82</time>
   <time name="total">   17.14   17.15</time>
   <energy>
    <i name="e_fr_energy">    -62.05160768 </i>
    <i name="e_wo_entrp">    -62.10773040 </i>
    <i name="e_0_energy">    -62.07031526 </i>
   </energy>
  </scstep>
  <scstep>
   <time name="dav">    9.92    9.93</time>
   <time name="total">   14.26   14.27</time>
   <energy>
    <i name="e_fr_energy">    -62.05210186 </i>
    <i name="e_wo_entrp">    -62.10785619 </i>
    <i name="e_0_energy">    -62.07068664 </i>
   </energy>
  </scstep>
  <scstep>
   <time name="dav">    9.77    9.78</time>
   <time name="total">   14.09   14.10</time>
   <energy>
    <i name="e_fr_energy">    -62.05258888 </i>
    <i name="e_wo_entrp">    -62.10825220 </i>
    <i name="e_0_energy">    -62.07114332 </i>
   </energy>
  </scstep>
  <scstep>
   <time name="dav">    9.86    9.86</time>
   <time name="total">   14.22   14.24</time>
   <energy>
    <i name="e_fr_energy">    -62.05306395 </i>
    <i name="e_wo_entrp">    -62.10891991 </i>
    <i name="e_0_energy">    -62.07168260 </i>
   </energy>
  </scstep>
  <scstep>
   <time name="dav">   10.00   10.01</time>
   <time name="total">   14.37   14.39</time>
   <energy>
    <i name="e_fr_energy">    -62.05368161 </i>
    <i name="e_wo_entrp">    -62.10950177 </i>
    <i name="e_0_energy">    -62.07228833 </i>
   </energy>
  </scstep>
  <scstep>
   <time name="dav">    9.78    9.79</time>
   <time name="total">   14.13   14.15</time>
   <energy>
    <i name="e_fr_energy">    -62.05405373 </i>
    <i name="e_wo_entrp">    -62.10982720 </i>
    <i name="e_0_energy">    -62.07264489 </i>
   </energy>
  </scstep>
  <scstep>
   <time name="dav">    9.94    9.95</time>
   <time name="total">   14.36   14.37</time>
   <energy>
    <i name="e_fr_energy">    -62.05439399 </i>
    <i name="e_wo_entrp">    -62.11010239 </i>
    <i name="e_0_energy">    -62.07296345 </i>
   </energy>
  </scstep>
  <scstep>
   <time name="dav">    9.41    9.42</time>
   <time name="total">   13.85   13.86</time>
   <energy>
    <i name="e_fr_energy">    -62.05460120 </i>
    <i name="e_wo_entrp">    -62.11033884 </i>
    <i name="e_0_energy">    -62.07318041 </i>
   </energy>
  </scstep>
  <scstep>
   <time name="dav">    9.86    9.87</time>
   <time name="total">   14.29   14.30</time>
   <energy>
    <i name="e_fr_energy">    -62.05504491 </i>
    <i name="e_wo_entrp">    -62.11082981 </i>
    <i name="e_0_energy">    -62.07363988 </i>
   </energy>
  </scstep>
  <scstep>
   <time name="dav">    9.91    9.92</time>
   <time name="total">   14.35   14.37</time>
   <energy>
    <i name="e_fr_energy">    -62.05537786 </i>
    <i name="e_wo_entrp">    -62.11116168 </i>
    <i name="e_0_energy">    -62.07397247 </i>
   </energy>
  </scstep>
  <scstep>
   <time name="dav">    9.83    9.84</time>
   <time name="total">   14.28   14.29</time>
   <energy>
    <i name="e_fr_energy">    -62.05562774 </i>
    <i name="e_wo_entrp">    -62.11141868 </i>
    <i name="e_0_energy">    -62.07422472 </i>
   </energy>
  </scstep>
  <scstep>
   <time name="dav">    9.83    9.84</time>
   <time name="total">   14.36   14.37</time>
   <energy>
    <i name="e_fr_energy">    -62.05582003 </i>
    <i name="e_wo_entrp">    -62.11160036 </i>
    <i name="e_0_energy">    -62.07441347 </i>
   </energy>
  </scstep>
  <scstep>
   <time name="dav">    9.63    9.64</time>
   <time name="total">   14.07   14.08</time>
   <energy>
    <i name="e_fr_energy">    -62.05595870 </i>
    <i name="e_wo_entrp">    -62.11173509 </i>
    <i name="e_0_energy">    -62.07455083 </i>
   </energy>
  </scstep>
  <scstep>
   <time name="dav">    9.72    9.73</time>
   <time name="total">   14.17   14.19</time>
   <energy>
    <i name="e_fr_energy">    -62.05613738 </i>
    <i name="e_wo_entrp">    -62.11191815 </i>
    <i name="e_0_energy">    -62.07473097 </i>
   </energy>
  </scstep>
  <scstep>
   <time name="dav">    9.64    9.65</time>
   <time name="total">   12.82   12.83</time>
   <energy>
    <i name="alphaZ">     11.28328521 </i>
    <i name="ewald">  26366.80136721 </i>
    <i name="hartreedc"> -38926.99479460 </i>
    <i name="XCdc">   -480.46520512 </i>
    <i name="pawpsdc">  14706.88211898 </i>
    <i name="pawaedc"> -13729.36464930 </i>
    <i name="eentropy">      0.05578759 </i>
    <i name="bandstr">   -966.15641021 </i>
    <i name="atom">  12955.90228127 </i>
    <i name="e_fr_energy">    -62.05621898 </i>
    <i name="e_wo_entrp">    -62.11200657 </i>
    <i name="e_0_energy">    -62.07481484 </i>
   </energy>
  </scstep>
  <structure>
   <crystal>
    <varray name="basis" >
     <v>      23.64122418       0.00000000       0.00000000 </v>
     <v>       0.00000000      24.80268081       0.00000000 </v>
     <v>       0.00000000       0.00000000      25.21844784 </v>
    </varray>
    <i name="volume">  14787.23375885 </i>
    <varray name="rec_basis" >
     <v>       0.04229899       0.00000000       0.00000000 </v>
     <v>       0.00000000       0.04031822       0.00000000 </v>
     <v>       0.00000000       0.00000000       0.03965351 </v>
    </varray>
   </crystal>
   <varray name="positions" >
    <v>       0.49133751       0.53551948       0.37364163 </v>
    <v>       0.38379617       0.51308344       0.40191026 </v>
    <v>       0.56394476       0.51825488       0.45187475 </v>
    <v>       0.52590262       0.61745903       0.43805596 </v>
    <v>       0.46671490       0.44762378       0.43041057 </v>
    <v>       0.42186951       0.61530717       0.39539959 </v>
    <v>       0.44775605       0.55345469       0.47681629 </v>
    <v>       0.39028377       0.46634233       0.50811811 </v>
    <v>       0.45808246       0.37884918       0.51700827 </v>
    <v>       0.50227314       0.47389305       0.52269421 </v>
    <v>       0.60658023       0.48988811       0.54959668 </v>
    <v>       0.43730347       0.43630421       0.60454924 </v>
    <v>       0.43283063       0.54127267       0.57891920 </v>
    <v>       0.54467178       0.40277070       0.58808275 </v>
    <v>       0.53632417       0.57553634       0.53979710 </v>
    <v>       0.52776991       0.50407745       0.62434365 </v>
   </varray>
  </structure>
  <varray name="forces" >
   <v>       0.02725814      -0.01384057      -0.09633654 </v>
   <v>      -0.13028305      -0.11724344       0.15123315 </v>
   <v>       0.43298256      -0.01562260      -0.17289535 </v>
   <v>       0.08494765       0.07889457       0.12697406 </v>
   <v>      -0.02207387      -0.34557918      -0.29285066 </v>
   <v>      -0.06175016       0.05693519      -0.02330788 </v>
   <v>      -0.23674247       0.35482735      -0.07823942 </v>
   <v>      -0.26621743       0.05809138      -0.06722078 </v>
   <v>      -0.00393502      -0.18254908      -0.18099354 </v>
   <v>       0.14547107      -0.27333548       0.27194717 </v>
   <v>       0.23460138      -0.02133729      -0.11294636 </v>
   <v>      -0.08772773      -0.01168379       0.04787651 </v>
   <v>      -0.16674416       0.16719513       0.17279475 </v>
   <v>       0.02789225      -0.06074984       0.10500489 </v>
   <v>       0.01593313       0.23546195       0.08140089 </v>
   <v>       0.00638770       0.09053569       0.06755911 </v>
  </varray>
  <energy>
   <i name="e_fr_energy">    -62.05621898 </i>
   <i name="e_wo_entrp">    -62.11200657 </i>
   <i name="e_0_energy">    -62.07481484 </i>
  </energy>
  <time name="totalsc">  403.82  404.23</time>
 </calculation>
 <calculation>
  <scstep>
   <time name="dav">   12.72   12.73</time>
   <time name="total">   17.05   17.07</time>
   <energy>
    <i name="alphaZ">     11.28328521 </i>
    <i name="ewald">  26196.51080119 </i>
    <i name="hartreedc"> -38758.90358247 </i>
    <i name="XCdc">   -480.88762169 </i>
    <i name="pawpsdc">  14706.88055978 </i>
    <i name="pawaedc"> -13729.36303131 </i>
    <i name="eentropy">      0.04976880 </i>
    <i name="bandstr">   -963.52707051 </i>
    <i name="atom">  12955.90228127 </i>
    <i name="e_fr_energy">    -62.05460973 </i>
    <i name="e_wo_entrp">    -62.10437853 </i>
    <i name="e_0_energy">    -62.07119933 </i>
   </energy>
  </scstep>
  <scstep>
   <time name="dav">   12.99   13.00</time>
   <time name="total">   17.29   17.30</time>
   <energy>
    <i name="e_fr_energy">    -62.08281830 </i>
    <i name="e_wo_entrp">    -62.12990201 </i>
    <i name="e_0_energy">    -62.09851287 </i>
   </energy>
  </scstep>
  <scstep>
   <time name="dav">   13.06   13.08</time>
   <time name="total">   17.32   17.34</time>
   <energy>
    <i name="e_fr_energy">    -62.07669387 </i>
    <i name="e_wo_entrp">    -62.12587783 </i>
    <i name="e_0_energy">    -62.09308852 </i>
   </energy>
  </scstep>
  <scstep>
   <time name="dav">   12.85   12.86</time>
   <time name="total">   17.15   17.16</time>
   <energy>
    <i name="e_fr_energy">    -62.07604818 </i>
    <i name="e_wo_entrp">    -62.12686137 </i>
    <i name="e_0_energy">    -62.09298591 </i>
   </energy>
  </scstep>
  <scstep>
   <time name="dav">   12.78   12.79</time>
   <time name="total">   17.09   17.12</time>
   <energy>
    <i name="e_fr_energy">    -62.07188030 </i>
    <i name="e_wo_entrp">    -62.12368339 </i>
    <i name="e_0_energy">    -62.08914800 </i>
   </energy>
  </scstep>
  <scstep>
   <time name="dav">   12.85   12.87</time>
   <time name="total">   17.16   17.18</time>
   <energy>
    <i name="e_fr_energy">    -62.07248615 </i>
    <i name="e_wo_entrp">    -62.11876082 </i>
    <i name="e_0_energy">    -62.08791104 </i>
   </energy>
  </scstep>
  <scstep>
   <time name="dav">   13.11   13.12</time>
   <time name="total">   17.49   17.50</time>
   <energy>
    <i name="e_fr_energy">    -62.07176399 </i>
    <i name="e_wo_entrp">    -62.12220163 </i>
    <i name="e_0_energy">    -62.08857654 </i>
   </energy>
  </scstep>
  <scstep>
   <time name="dav">   12.76   12.77</time>
   <time name="total">   17.10   17.11</time>
   <energy>
    <i name="e_fr_energy">    -62.07136009 </i>
    <i name="e_wo_entrp">    -62.12141762 </i>
    <i name="e_0_energy">    -62.08804593 </i>
   </energy>
  </scstep>
  <scstep>
   <time name="dav">   10.22   10.23</time>
   <time name="total">   14.61   14.63</time>
   <energy>
    <i name="e_fr_energy">    -62.07152946 </i>
    <i name="e_wo_entrp">    -62.12132292 </i>
    <i name="e_0_energy">    -62.08812728 </i>
   </energy>
  </scstep>
  <scstep>
   <time name="dav">    9.71    9.72</time>
   <time name="total">   12.87   12.88</time>
   <energy>
    <i name="alphaZ">     11.28328521 </i>
    <i name="ewald">  26196.51080119 </i>
    <i name="hartreedc"> -38761.14745173 </i>
    <i name="XCdc">   -480.82190249 </i>
    <i name="pawpsdc">  14641.89438181 </i>
    <i name="pawaedc"> -13663.42758046 </i>
    <i name="eentropy">      0.04989833 </i>
    <i name="bandstr">   -962.31529708 </i>
    <i name="atom">  12955.90228127 </i>
    <i name="e_fr_energy">    -62.07158394 </i>
    <i name="e_wo_entrp">    -62.12148227 </i>
    <i name="e_0_energy">    -62.08821672 </i>
   </energy>
  </scstep>
  <structure>
   <crystal>
    <varray name="basis" >
     <v>      23.64122418       0.00000000       0.00000000 </v>
     <v>       0.00000000      24.80268081       0.00000000 </v>
     <v>       0.00000000       0.00000000      25.21844784 </v>
    </varray>
    <i name="volume">  14787.23375885 </i>
    <varray name="rec_basis" >
     <v>       0.04229899       0.00000000       0.00000000 </v>
     <v>       0.00000000       0.04031822       0.00000000 </v>
     <v>       0.00000000       0.00000000       0.03965351 </v>
    </varray>
   </crystal>
   <varray name="positions" >
    <v>       0.49159423       0.53536217       0.37322175 </v>
    <v>       0.38334487       0.51289583       0.40185917 </v>
    <v>       0.56434695       0.51804685       0.45179050 </v>
    <v>       0.52617363       0.61780472       0.43815035 </v>
    <v>       0.46686035       0.44723434       0.43026874 </v>
    <v>       0.42159510       0.61568579       0.39526065 </v>
    <v>       0.44752088       0.55364538       0.47722592 </v>
    <v>       0.38985490       0.46640605       0.50805823 </v>
    <v>       0.45807314       0.37846038       0.51675119 </v>
    <v>       0.50245275       0.47381291       0.52216044 </v>
    <v>       0.60705709       0.48984146       0.54945367 </v>
    <v>       0.43689322       0.43614569       0.60495293 </v>
    <v>       0.43247404       0.54167748       0.57904868 </v>
    <v>       0.54496920       0.40235463       0.58827305 </v>
    <v>       0.53635591       0.57592906       0.53988777 </v>
    <v>       0.52787481       0.50433374       0.62485521 </v>
   </varray>
  </structure>
  <varray name="forces" >
   <v>      -0.06405640       0.04235272       0.06181959 </v>
   <v>       0.02446764      -0.06324835       0.20807998 </v>
   <v>       0.36469075       0.07119852      -0.17384514 </v>
   <v>      -0.00764162      -0.05148788       0.11530686 </v>
   <v>      -0.08960512      -0.25524472      -0.29468003 </v>
   <v>       0.03365625      -0.08857033       0.03341817 </v>
   <v>      -0.19131877       0.34740069      -0.26943981 </v>
   <v>      -0.14569936       0.04539293      -0.05791498 </v>
   <v>       0.00113299      -0.05334360      -0.11035479 </v>
   <v>       0.10604598      -0.29571028       0.54535805 </v>
   <v>       0.09290504      -0.00773015      -0.07901424 </v>
   <v>       0.05400973       0.05353721      -0.10974054 </v>
   <v>      -0.06197532       0.03441425       0.15968283 </v>
   <v>      -0.08389466       0.09813320       0.04194693 </v>
   <v>       0.00386731       0.11714659       0.05771024 </v>
   <v>      -0.03658444       0.00575920      -0.12833311 </v>
  </varray>
  <energy>
   <i name="e_fr_energy">    -62.07158394 </i>
   <i name="e_wo_entrp">    -62.12148227 </i>
   <i name="e_0_energy">    -62.08821672 </i>
  </energy>
  <time name="totalsc">  182.93  183.14</time>
 </calculation>
 <calculation>
  <scstep>
   <time name="dav">   12.33   12.34</time>
   <time name="total">   16.69   16.71</time>
   <energy>
    <i name="alphaZ">     11.28328521 </i>
    <i name="ewald">  26089.31308964 </i>
    <i name="hartreedc"> -38655.36533393 </i>
    <i name="XCdc">   -481.04754166 </i>
    <i name="pawpsdc">  14642.16452782 </i>
    <i name="pawaedc"> -13663.70042509 </i>
    <i name="eentropy">      0.05240425 </i>
    <i name="bandstr">   -960.68426984 </i>
    <i name="atom">  12955.90228127 </i>
    <i name="e_fr_energy">    -62.08198233 </i>
    <i name="e_wo_entrp">    -62.13438658 </i>
    <i name="e_0_energy">    -62.09945041 </i>
   </energy>
  </scstep>
  <scstep>
   <time name="dav">   13.02   13.03</time>
   <time name="total">   17.30   17.33</time>
   <energy>
    <i name="e_fr_energy">    -62.11585979 </i>
    <i name="e_wo_entrp">    -62.15937534 </i>
    <i name="e_0_energy">    -62.13036497 </i>
   </energy>
  </scstep>
  <scstep>
   <time name="dav">   12.82   12.84</time>
   <time name="total">   17.15   17.17</time>
   <energy>
    <i name="e_fr_energy">    -62.10847598 </i>
    <i name="e_wo_entrp">    -62.16195794 </i>
    <i name="e_0_energy">    -62.12630330 </i>
   </energy>
  </scstep>
  <scstep>
   <time name="dav">   13.07   13.09</time>
   <time name="total">   17.35   17.36</time>
   <energy>
    <i name="e_fr_energy">    -62.10998612 </i>
    <i name="e_wo_entrp">    -62.16277497 </i>
    <i name="e_0_energy">    -62.12758240 </i>
   </energy>
  </scstep>
  <scstep>
   <time name="dav">   12.84   12.85</time>
   <time name="total">   17.21   17.22</time>
   <energy>
    <i name="e_fr_energy">    -62.10572440 </i>
    <i name="e_wo_entrp">    -62.15535806 </i>
    <i name="e_0_energy">    -62.12226895 </i>
   </energy>
  </scstep>
  <scstep>
   <time name="dav">   13.04   13.05</time>
   <time name="total">   17.41   17.44</time>
   <energy>
    <i name="e_fr_energy">    -62.10595905 </i>
    <i name="e_wo_entrp">    -62.15677036 </i>
    <i name="e_0_energy">    -62.12289616 </i>
   </energy>
  </scstep>
  <scstep>
   <time name="dav">   13.59   13.60</time>
   <time name="total">   17.96   17.98</time>
   <energy>
    <i name="e_fr_energy">    -62.10509368 </i>
    <i name="e_wo_entrp">    -62.15396588 </i>
    <i name="e_0_energy">    -62.12138441 </i>
   </energy>
  </scstep>
  <scstep>
   <time name="dav">   13.65   13.66</time>
   <time name="total">   18.01   18.02</time>
   <energy>
    <i name="e_fr_energy">    -62.10431081 </i>
    <i name="e_wo_entrp">    -62.15543384 </i>
    <i name="e_0_energy">    -62.12135182 </i>
   </energy>
  </scstep>
  <scstep>
   <time name="dav">   10.81   10.83</time>
   <time name="total">   15.15   15.17</time>
   <energy>
    <i name="e_fr_energy">    -62.10448640 </i>
    <i name="e_wo_entrp">    -62.15545921 </i>
    <i name="e_0_energy">    -62.12147734 </i>
   </energy>
  </scstep>
  <scstep>
   <time name="dav">    9.66    9.67</time>
   <time name="total">   12.84   12.85</time>
   <energy>
    <i name="alphaZ">     11.28328521 </i>
    <i name="ewald">  26089.31308964 </i>
    <i name="hartreedc"> -38656.92360001 </i>
    <i name="XCdc">   -481.01802296 </i>
    <i name="pawpsdc">  14606.28346898 </i>
    <i name="pawaedc"> -13627.30221575 </i>
    <i name="eentropy">      0.05087156 </i>
    <i name="bandstr">   -959.69366521 </i>
    <i name="atom">  12955.90228127 </i>
    <i name="e_fr_energy">    -62.10450728 </i>
    <i name="e_wo_entrp">    -62.15537883 </i>
    <i name="e_0_energy">    -62.12146446 </i>
   </energy>
  </scstep>
  <structure>
   <crystal>
    <varray name="basis" >
     <v>      23.64122418       0.00000000       0.00000000 </v>
     <v>       0.00000000      24.80268081       0.00000000 </v>
     <v>       0.00000000       0.00000000      25.21844784 </v>
    </varray>
    <i name="volume">  14787.23375885 </i>
    <varray name="rec_basis" >
     <v>       0.04229899       0.00000000       0.00000000 </v>
     <v>       0.00000000       0.04031822       0.00000000 </v>
     <v>       0.00000000       0.00000000       0.03965351 </v>
    </varray>
   </crystal>
   <varray name="positions" >
    <v>       0.49154011       0.53539773       0.37320976 </v>
    <v>       0.38325080       0.51270547       0.40226131 </v>
    <v>       0.56526046       0.51812496       0.45141328 </v>
    <v>       0.52624526       0.61781166       0.43841306 </v>
    <v>       0.46671525       0.44658557       0.42962965 </v>
    <v>       0.42157821       0.61562755       0.39528277 </v>
    <v>       0.44703378       0.55441815       0.47681675 </v>
    <v>       0.38940282       0.46651963       0.50792223 </v>
    <v>       0.45807255       0.37822493       0.51644560 </v>
    <v>       0.50273874       0.47318182       0.52308454 </v>
    <v>       0.60741143       0.48981049       0.54924821 </v>
    <v>       0.43687589       0.43620375       0.60486322 </v>
    <v>       0.43222516       0.54187940       0.57941209 </v>
    <v>       0.54488572       0.40242027       0.58841929 </v>
    <v>       0.53637452       0.57629633       0.54003336 </v>
    <v>       0.52783036       0.50442878       0.62476312 </v>
   </varray>
  </structure>
  <varray name="forces" >
   <v>      -0.04712536       0.01173606       0.10990786 </v>
   <v>       0.02730505      -0.08048345       0.19247862 </v>
   <v>       0.12930983       0.02349131       0.00205211 </v>
   <v>       0.00935811      -0.07704761       0.10864546 </v>
   <v>      -0.02902767      -0.10454728      -0.05190850 </v>
   <v>       0.01625468      -0.03802122      -0.02987477 </v>
   <v>      -0.02845210       0.05416787       0.03476447 </v>
   <v>       0.03632360       0.07189262      -0.07063458 </v>
   <v>      -0.02689256      -0.00531560      -0.10556179 </v>
   <v>      -0.04919793       0.07746669      -0.02654726 </v>
   <v>       0.04264127       0.03149901      -0.07766303 </v>
   <v>       0.01160233       0.03455629      -0.09837361 </v>
   <v>      -0.00897863       0.00651835       0.02075272 </v>
   <v>      -0.02342830       0.00282129       0.10886081 </v>
   <v>      -0.05016372      -0.04172918      -0.01864776 </v>
   <v>      -0.00952860       0.03299484      -0.09825074 </v>
  </varray>
  <energy>
   <i name="e_fr_energy">    -62.10450728 </i>
   <i name="e_wo_entrp">    -62.15537883 </i>
   <i name="e_0_energy">    -62.12146446 </i>
  </energy>
  <time name="totalsc">  184.76  185.01</time>
 </calculation>
 <calculation>
  <scstep>
   <time name="dav">   12.71   12.72</time>
   <time name="total">   17.08   17.09</time>
   <energy>
    <i name="alphaZ">     11.28328521 </i>
    <i name="ewald">  26057.93355480 </i>
    <i name="hartreedc"> -38625.95564861 </i>
    <i name="XCdc">   -481.08235561 </i>
    <i name="pawpsdc">  14606.36530638 </i>
    <i name="pawaedc"> -13627.38458626 </i>
    <i name="eentropy">      0.05162822 </i>
    <i name="bandstr">   -959.21670884 </i>
    <i name="atom">  12955.90228127 </i>
    <i name="e_fr_energy">    -62.10324344 </i>
    <i name="e_wo_entrp">    -62.15487167 </i>
    <i name="e_0_energy">    -62.12045285 </i>
   </energy>
  </scstep>
  <scstep>
   <time name="dav">   13.11   13.12</time>
   <time name="total">   17.46   17.48</time>
   <energy>
    <i name="e_fr_energy">    -62.10649764 </i>
    <i name="e_wo_entrp">    -62.15528462 </i>
    <i name="e_0_energy">    -62.12275997 </i>
   </energy>
  </scstep>
  <scstep>
   <time name="dav">   13.10   13.12</time>
   <time name="total">   17.43   17.45</time>
   <energy>
    <i name="e_fr_energy">    -62.10562111 </i>
    <i name="e_wo_entrp">    -62.15744190 </i>
    <i name="e_0_energy">    -62.12289470 </i>
   </energy>
  </scstep>
  <scstep>
   <time name="dav">   12.97   12.98</time>
   <time name="total">   17.29   17.31</time>
   <energy>
    <i name="e_fr_energy">    -62.10582598 </i>
    <i name="e_wo_entrp">    -62.15743526 </i>
    <i name="e_0_energy">    -62.12302907 </i>
   </energy>
  </scstep>
  <scstep>
   <time name="dav">   11.21   11.22</time>
   <time name="total">   15.56   15.58</time>
   <energy>
    <i name="e_fr_energy">    -62.10549442 </i>
    <i name="e_wo_entrp">    -62.15634247 </i>
    <i name="e_0_energy">    -62.12244377 </i>
   </energy>
  </scstep>
  <scstep>
   <time name="dav">   10.87   10.88</time>
   <time name="total">   14.04   14.06</time>
   <energy>
    <i name="alphaZ">     11.28328521 </i>
    <i name="ewald">  26057.93355480 </i>
    <i name="hartreedc"> -38626.38808240 </i>
    <i name="XCdc">   -481.07379219 </i>
    <i name="pawpsdc">  14598.85764163 </i>
    <i name="pawaedc"> -13619.75931678 </i>
    <i name="eentropy">      0.05112947 </i>
    <i name="bandstr">   -958.91227881 </i>
    <i name="atom">  12955.90228127 </i>
    <i name="e_fr_energy">    -62.10557781 </i>
    <i name="e_wo_entrp">    -62.15670728 </i>
    <i name="e_0_energy">    -62.12262097 </i>
   </energy>
  </scstep>
  <structure>
   <crystal>
    <varray name="basis" >
     <v>      23.64122418       0.00000000       0.00000000 </v>
     <v>       0.00000000      24.80268081       0.00000000 </v>
     <v>       0.00000000       0.00000000      25.21844784 </v>
    </varray>
    <i name="volume">  14787.23375885 </i>
    <varray name="rec_basis" >
     <v>       0.04229899       0.00000000       0.00000000 </v>
     <v>       0.00000000       0.04031822       0.00000000 </v>
     <v>       0.00000000       0.00000000       0.03965351 </v>
    </varray>
   </crystal>
   <varray name="positions" >
    <v>       0.49152413       0.53540823       0.37320622 </v>
    <v>       0.38322301       0.51264926       0.40238007 </v>
    <v>       0.56553024       0.51814803       0.45130188 </v>
    <v>       0.52626641       0.61781371       0.43849064 </v>
    <v>       0.46667240       0.44639398       0.42944091 </v>
    <v>       0.42157323       0.61561035       0.39528931 </v>
    <v>       0.44688994       0.55464636       0.47669592 </v>
    <v>       0.38926932       0.46655317       0.50788207 </v>
    <v>       0.45807237       0.37815540       0.51635536 </v>
    <v>       0.50282320       0.47299545       0.52335743 </v>
    <v>       0.60751607       0.48980135       0.54918754 </v>
    <v>       0.43687077       0.43622089       0.60483673 </v>
    <v>       0.43215167       0.54193903       0.57951941 </v>
    <v>       0.54486107       0.40243966       0.58846247 </v>
    <v>       0.53638002       0.57640479       0.54007636 </v>
    <v>       0.52781723       0.50445685       0.62473593 </v>
   </varray>
  </structure>
  <varray name="forces" >
   <v>      -0.04540351       0.00481353       0.12530982 </v>
   <v>       0.03414264      -0.08291429       0.18777310 </v>
   <v>       0.06214586       0.01476670       0.04782342 </v>
   <v>       0.01095026      -0.08722546       0.10367210 </v>
   <v>      -0.01764486      -0.05845145       0.01577362 </v>
   <v>       0.01356507      -0.02696392      -0.04968573 </v>
   <v>       0.01122912      -0.02233527       0.12134149 </v>
   <v>       0.09175334       0.08076768      -0.07584465 </v>
   <v>      -0.03855416       0.00465455      -0.10726935 </v>
   <v>      -0.09360451       0.17994487      -0.18473685 </v>
   <v>       0.03911967       0.04368014      -0.07790568 </v>
   <v>      -0.00849944       0.02822445      -0.09176341 </v>
   <v>       0.00692877      -0.00297486      -0.02508621 </v>
   <v>       0.00227803      -0.03847163       0.13311047 </v>
   <v>      -0.06682038      -0.08400666      -0.04192104 </v>
   <v>      -0.00158589       0.04649162      -0.08059109 </v>
  </varray>
  <energy>
   <i name="e_fr_energy">    -62.10557781 </i>
   <i name="e_wo_entrp">    -62.15670728 </i>
   <i name="e_0_energy">    -62.12262097 </i>
  </energy>
  <time name="totalsc">  116.61  116.75</time>
 </calculation>
 <calculation>
  <scstep>
   <time name="dav">   12.34   12.35</time>
   <time name="total">   16.66   16.68</time>
   <energy>
    <i name="alphaZ">     11.28328521 </i>
    <i name="ewald">  26062.43576036 </i>
    <i name="hartreedc"> -38630.99783330 </i>
    <i name="XCdc">   -481.07246600 </i>
    <i name="pawpsdc">  14597.09091494 </i>
    <i name="pawaedc"> -13617.97273249 </i>
    <i name="eentropy">      0.05043378 </i>
    <i name="bandstr">   -958.82932491 </i>
    <i name="atom">  12955.90228127 </i>
    <i name="e_fr_energy">    -62.10968114 </i>
    <i name="e_wo_entrp">    -62.16011492 </i>
    <i name="e_0_energy">    -62.12649240 </i>
   </energy>
  </scstep>
  <scstep>
   <time name="dav">   13.09   13.10</time>
   <time name="total">   17.37   17.39</time>
   <energy>
    <i name="e_fr_energy">    -62.12084883 </i>
    <i name="e_wo_entrp">    -62.16889082 </i>
    <i name="e_0_energy">    -62.13686283 </i>
   </energy>
  </scstep>
  <scstep>
   <time name="dav">   13.09   13.10</time>
   <time name="total">   17.40   17.42</time>
   <energy>
    <i name="e_fr_energy">    -62.11749521 </i>
    <i name="e_wo_entrp">    -62.16868340 </i>
    <i name="e_0_energy">    -62.13455794 </i>
   </energy>
  </scstep>
  <scstep>
   <time name="dav">   12.61   12.62</time>
   <time name="total">   16.97   16.98</time>
   <energy>
    <i name="e_fr_energy">    -62.11817116 </i>
    <i name="e_wo_entrp">    -62.16688511 </i>
    <i name="e_0_energy">    -62.13440914 </i>
   </energy>
  </scstep>
  <scstep>
   <time name="dav">   11.63   11.64</time>
   <time name="total">   15.79   15.81</time>
   <energy>
    <i name="e_fr_energy">    -62.11737056 </i>
    <i name="e_wo_entrp">    -62.16719980 </i>
    <i name="e_0_energy">    -62.13398030 </i>
   </energy>
  </scstep>
  <scstep>
   <time name="dav">    9.88    9.90</time>
   <time name="total">   13.64   13.66</time>
   <energy>
    <i name="e_fr_energy">    -62.11751687 </i>
    <i name="e_wo_entrp">    -62.16763013 </i>
    <i name="e_0_energy">    -62.13422129 </i>
   </energy>
  </scstep>
  <scstep>
   <time name="dav">   10.89   10.90</time>
   <time name="total">   14.71   14.72</time>
   <energy>
    <i name="e_fr_energy">    -62.11776848 </i>
    <i name="e_wo_entrp">    -62.16730484 </i>
    <i name="e_0_energy">    -62.13428060 </i>
   </energy>
  </scstep>
  <scstep>
   <time name="dav">    8.70    8.71</time>
   <time name="total">   11.50   11.52</time>
   <energy>
    <i name="alphaZ">     11.28328521 </i>
    <i name="ewald">  26062.43576036 </i>
    <i name="hartreedc"> -38630.73282268 </i>
    <i name="XCdc">   -481.07777949 </i>
    <i name="pawpsdc">  14595.86789093 </i>
    <i name="pawaedc"> -13616.76898924 </i>
    <i name="eentropy">      0.04983517 </i>
    <i name="bandstr">   -959.07724035 </i>
    <i name="atom">  12955.90228127 </i>
    <i name="e_fr_energy">    -62.11777882 </i>
    <i name="e_wo_entrp">    -62.16761399 </i>
    <i name="e_0_energy">    -62.13439054 </i>
   </energy>
  </scstep>
  <structure>
   <crystal>
    <varray name="basis" >
     <v>      23.64122418       0.00000000       0.00000000 </v>
     <v>       0.00000000      24.80268081       0.00000000 </v>
     <v>       0.00000000       0.00000000      25.21844784 </v>
    </varray>
    <i name="volume">  14787.23375885 </i>
    <varray name="rec_basis" >
     <v>       0.04229899       0.00000000       0.00000000 </v>
     <v>       0.00000000       0.04031822       0.00000000 </v>
     <v>       0.00000000       0.00000000       0.03965351 </v>
    </varray>
   </crystal>
   <varray name="positions" >
    <v>       0.49140357       0.53543006       0.37346945 </v>
    <v>       0.38327050       0.51240860       0.40290910 </v>
    <v>       0.56596418       0.51820505       0.45128296 </v>
    <v>       0.52631426       0.61762691       0.43879576 </v>
    <v>       0.46658580       0.44605947       0.42926979 </v>
    <v>       0.42159866       0.61553326       0.39519050 </v>
    <v>       0.44675942       0.55484553       0.47682346 </v>
    <v>       0.38933308       0.46676458       0.50767686 </v>
    <v>       0.45798453       0.37809006       0.51602884 </v>
    <v>       0.50270201       0.47318321       0.52325975 </v>
    <v>       0.60771852       0.48988608       0.54895568 </v>
    <v>       0.43684590       0.43630065       0.60461241 </v>
    <v>       0.43208769       0.54199727       0.57958236 </v>
    <v>       0.54483950       0.40237732       0.58879301 </v>
    <v>       0.53623407       0.57634041       0.54003366 </v>
    <v>       0.52779938       0.50458804       0.62453467 </v>
   </varray>
  </structure>
  <varray name="forces" >
   <v>      -0.01718934      -0.02240071       0.11936395 </v>
   <v>      -0.00463425      -0.07722797       0.16107934 </v>
   <v>       0.03776068      -0.00569323       0.05779656 </v>
   <v>       0.01868906      -0.05499957       0.08754443 </v>
   <v>       0.01243114      -0.05586480       0.03690632 </v>
   <v>       0.00186805      -0.01119788      -0.04356149 </v>
   <v>       0.01953944      -0.01850452       0.12093804 </v>
   <v>       0.07838879       0.05785281      -0.05942170 </v>
   <v>      -0.01722925       0.04340533      -0.08114094 </v>
   <v>      -0.04647788       0.11920736      -0.18605942 </v>
   <v>      -0.01249901       0.03055241      -0.06651944 </v>
   <v>       0.00201996       0.02072758      -0.09847014 </v>
   <v>      -0.00542407       0.00951691      -0.01448696 </v>
   <v>      -0.02697761       0.01553418       0.07661107 </v>
   <v>      -0.04819714      -0.08001158      -0.02524273 </v>
   <v>       0.00793145       0.02910368      -0.08533690 </v>
  </varray>
  <energy>
   <i name="e_fr_energy">    -62.11777882 </i>
   <i name="e_wo_entrp">    -62.16761399 </i>
   <i name="e_0_energy">    -62.13439054 </i>
  </energy>
  <time name="totalsc">  140.56  140.73</time>
 </calculation>
 <calculation>
  <scstep>
   <time name="dav">   10.20   10.21</time>
   <time name="total">   13.96   13.99</time>
   <energy>
    <i name="alphaZ">     11.28328521 </i>
    <i name="ewald">  26076.24795076 </i>
    <i name="hartreedc"> -38644.57182440 </i>
    <i name="XCdc">   -481.06740245 </i>
    <i name="pawpsdc">  14595.83875481 </i>
    <i name="pawaedc"> -13616.73978083 </i>
    <i name="eentropy">      0.04814512 </i>
    <i name="bandstr">   -959.00747817 </i>
    <i name="atom">  12955.90228127 </i>
    <i name="e_fr_energy">    -62.06606868 </i>
    <i name="e_wo_entrp">    -62.11421380 </i>
    <i name="e_0_energy">    -62.08211706 </i>
   </energy>
  </scstep>
  <scstep>
   <time name="dav">   10.64   10.65</time>
   <time name="total">   14.32   14.34</time>
   <energy>
    <i name="e_fr_energy">    -62.18418103 </i>
    <i name="e_wo_entrp">    -62.21456614 </i>
    <i name="e_0_energy">    -62.19430940 </i>
   </energy>
  </scstep>
  <scstep>
   <time name="dav">   10.58   10.59</time>
   <time name="total">   14.37   14.39</time>
   <energy>
    <i name="e_fr_energy">    -62.13637384 </i>
    <i name="e_wo_entrp">    -62.18647650 </i>
    <i name="e_0_energy">    -62.15307473 </i>
   </energy>
  </scstep>
  <scstep>
   <time name="dav">   10.78   10.80</time>
   <time name="total">   14.49   14.52</time>
   <energy>
    <i name="e_fr_energy">    -62.13719195 </i>
    <i name="e_wo_entrp">    -62.17974170 </i>
    <i name="e_0_energy">    -62.15137520 </i>
   </energy>
  </scstep>
  <scstep>
   <time name="dav">   10.78   10.81</time>
   <time name="total">   14.50   14.55</time>
   <energy>
    <i name="e_fr_energy">    -62.13307743 </i>
    <i name="e_wo_entrp">    -62.17857273 </i>
    <i name="e_0_energy">    -62.14824253 </i>
   </energy>
  </scstep>
  <scstep>
   <time name="dav">   10.61   10.62</time>
   <time name="total">   14.42   14.44</time>
   <energy>
    <i name="e_fr_energy">    -62.13197562 </i>
    <i name="e_wo_entrp">    -62.17726505 </i>
    <i name="e_0_energy">    -62.14707210 </i>
   </energy>
  </scstep>
  <scstep>
   <time name="dav">   10.78   10.80</time>
   <time name="total">   14.55   14.58</time>
   <energy>
    <i name="e_fr_energy">    -62.13235231 </i>
    <i name="e_wo_entrp">    -62.17685334 </i>
    <i name="e_0_energy">    -62.14718598 </i>
   </energy>
  </scstep>
  <scstep>
   <time name="dav">   10.67   10.69</time>
   <time name="total">   14.46   14.50</time>
   <energy>
    <i name="e_fr_energy">    -62.13143739 </i>
    <i name="e_wo_entrp">    -62.17701541 </i>
    <i name="e_0_energy">    -62.14663006 </i>
   </energy>
  </scstep>
  <scstep>
   <time name="dav">   10.80   10.83</time>
   <time name="total">   14.59   14.63</time>
   <energy>
    <i name="e_fr_energy">    -62.13187628 </i>
    <i name="e_wo_entrp">    -62.17791891 </i>
    <i name="e_0_energy">    -62.14722382 </i>
   </energy>
  </scstep>
  <scstep>
   <time name="dav">    8.42    8.44</time>
   <time name="total">   11.25   11.27</time>
   <energy>
    <i name="alphaZ">     11.28328521 </i>
    <i name="ewald">  26076.24795076 </i>
    <i name="hartreedc"> -38643.30318759 </i>
    <i name="XCdc">   -481.08351061 </i>
    <i name="pawpsdc">  14596.99269329 </i>
    <i name="pawaedc"> -13617.99891173 </i>
    <i name="eentropy">      0.04563708 </i>
    <i name="bandstr">   -960.21818018 </i>
    <i name="atom">  12955.90228127 </i>
    <i name="e_fr_energy">    -62.13194249 </i>
    <i name="e_wo_entrp">    -62.17757957 </i>
    <i name="e_0_energy">    -62.14715485 </i>
   </energy>
  </scstep>
  <structure>
   <crystal>
    <varray name="basis" >
     <v>      23.64122418       0.00000000       0.00000000 </v>
     <v>       0.00000000      24.80268081       0.00000000 </v>
     <v>       0.00000000       0.00000000      25.21844784 </v>
    </varray>
    <i name="volume">  14787.23375885 </i>
    <varray name="rec_basis" >
     <v>       0.04229899       0.00000000       0.00000000 </v>
     <v>       0.00000000       0.04031822       0.00000000 </v>
     <v>       0.00000000       0.00000000       0.03965351 </v>
    </varray>
   </crystal>
   <varray name="positions" >
    <v>       0.49104189       0.53549553       0.37425914 </v>
    <v>       0.38341295       0.51168662       0.40449618 </v>
    <v>       0.56726600       0.51837612       0.45122620 </v>
    <v>       0.52645778       0.61706653       0.43971110 </v>
    <v>       0.46632600       0.44505595       0.42875642 </v>
    <v>       0.42167494       0.61530199       0.39489408 </v>
    <v>       0.44636787       0.55544303       0.47720605 </v>
    <v>       0.38952439       0.46739881       0.50706121 </v>
    <v>       0.45772101       0.37789404       0.51504928 </v>
    <v>       0.50233845       0.47374649       0.52296672 </v>
    <v>       0.60832588       0.49014028       0.54826009 </v>
    <v>       0.43677128       0.43653993       0.60393948 </v>
    <v>       0.43189576       0.54217199       0.57977123 </v>
    <v>       0.54477481       0.40219030       0.58978464 </v>
    <v>       0.53579622       0.57614726       0.53990555 </v>
    <v>       0.52774584       0.50498163       0.62393088 </v>
   </varray>
  </structure>
  <varray name="forces" >
   <v>       0.04987093      -0.09668208       0.12080625 </v>
   <v>      -0.08008053      -0.03626925       0.05772834 </v>
   <v>      -0.04379747      -0.06226072       0.06281565 </v>
   <v>       0.01955285       0.01994431       0.01305974 </v>
   <v>       0.09039837      -0.02481444       0.09766966 </v>
   <v>      -0.02308063       0.01433534      -0.01286983 </v>
   <v>       0.02813328       0.00901818       0.10427321 </v>
   <v>       0.03573355      -0.02421669       0.00320796 </v>
   <v>       0.03128755       0.15263628      -0.00348865 </v>
   <v>       0.09404079      -0.07915881      -0.19904961 </v>
   <v>      -0.12411259      -0.00791931      -0.02499572 </v>
   <v>       0.01941645      -0.01091314      -0.11488077 </v>
   <v>      -0.05635416       0.05150327       0.01171207 </v>
   <v>      -0.09915487       0.14746354      -0.08248467 </v>
   <v>       0.01628715      -0.03449066       0.03170686 </v>
   <v>       0.04185934      -0.01817582      -0.06521049 </v>
  </varray>
  <energy>
   <i name="e_fr_energy">    -62.13194249 </i>
   <i name="e_wo_entrp">    -62.17757957 </i>
   <i name="e_0_energy">    -62.14715485 </i>
  </energy>
  <time name="totalsc">  157.49  157.81</time>
 </calculation>
 <calculation>
  <scstep>
   <time name="dav">   10.24   10.25</time>
   <time name="total">   14.00   14.02</time>
   <energy>
    <i name="alphaZ">     11.28328521 </i>
    <i name="ewald">  26133.98387649 </i>
    <i name="hartreedc"> -38700.58863113 </i>
    <i name="XCdc">   -480.97701467 </i>
    <i name="pawpsdc">  14597.02837435 </i>
    <i name="pawaedc"> -13618.03508381 </i>
    <i name="eentropy">      0.04173588 </i>
    <i name="bandstr">   -960.76810907 </i>
    <i name="atom">  12955.90228127 </i>
    <i name="e_fr_energy">    -62.12928548 </i>
    <i name="e_wo_entrp">    -62.17102136 </i>
    <i name="e_0_energy">    -62.14319744 </i>
   </energy>
  </scstep>
  <scstep>
   <time name="dav">   10.73   10.76</time>
   <time name="total">   14.45   14.49</time>
   <energy>
    <i name="e_fr_energy">    -62.15917280 </i>
    <i name="e_wo_entrp">    -62.20426985 </i>
    <i name="e_0_energy">    -62.17420515 </i>
   </energy>
  </scstep>
  <scstep>
   <time name="dav">   10.42   10.45</time>
   <time name="total">   14.15   14.18</time>
   <energy>
    <i name="e_fr_energy">    -62.14505040 </i>
    <i name="e_wo_entrp">    -62.18405962 </i>
    <i name="e_0_energy">    -62.15805347 </i>
   </energy>
  </scstep>
  <scstep>
   <time name="dav">   10.44   10.45</time>
   <time name="total">   14.22   14.25</time>
   <energy>
    <i name="e_fr_energy">    -62.14677321 </i>
    <i name="e_wo_entrp">    -62.19111812 </i>
    <i name="e_0_energy">    -62.16155485 </i>
   </energy>
  </scstep>
  <scstep>
   <time name="dav">   10.53   10.56</time>
   <time name="total">   14.30   14.32</time>
   <energy>
    <i name="e_fr_energy">    -62.14502689 </i>
    <i name="e_wo_entrp">    -62.18739153 </i>
    <i name="e_0_energy">    -62.15914844 </i>
   </energy>
[...]
       <r>    -0.8389     4.0666    95.4455 </r>
       <r>    -0.7940     4.9824    95.6689 </r>
       <r>    -0.7492     5.4394    95.9129 </r>
       <r>    -0.7043     5.5120    96.1601 </r>
       <r>    -0.6595     5.4651    96.4052 </r>
       <r>    -0.6146     5.6734    96.6596 </r>
       <r>    -0.5698     6.4686    96.9497 </r>
       <r>    -0.5250     7.9300    97.3053 </r>
       <r>    -0.4801     9.7347    97.7419 </r>
       <r>    -0.4353    11.2255    98.2453 </r>
       <r>    -0.3904    11.7367    98.7717 </r>
       <r>    -0.3456    10.9906    99.2646 </r>
       <r>    -0.3007     9.2695    99.6803 </r>
       <r>    -0.2559     7.2266   100.0044 </r>
       <r>    -0.2110     5.4969   100.2509 </r>
       <r>    -0.1662     4.4184   100.4491 </r>
       <r>    -0.1213     4.0401   100.6302 </r>
       <r>    -0.0765     4.3074   100.8234 </r>
       <r>    -0.0316     5.1836   101.0559 </r>
       <r>     0.0132     6.5859   101.3512 </r>
       <r>     0.0581     8.2431   101.7209 </r>
       <r>     0.1029     9.6738   102.1548 </r>
       <r>     0.1477    10.3543   102.6191 </r>
       <r>     0.1926     9.9672   103.0661 </r>
       <r>     0.2374     8.5496   103.4495 </r>
       <r>     0.2823     6.4589   103.7392 </r>
       <r>     0.3271     4.2001   103.9276 </r>
       <r>     0.3720     2.2265   104.0274 </r>
       <r>     0.4168     0.8049   104.0635 </r>
       <r>     0.4617    -0.0166   104.0628 </r>
       <r>     0.5065    -0.3541   104.0469 </r>
       <r>     0.5514    -0.3921   104.0293 </r>
       <r>     0.5962    -0.2994   104.0159 </r>
       <r>     0.6411    -0.1850   104.0076 </r>
       <r>     0.6859    -0.0974   104.0032 </r>
       <r>     0.7308    -0.0446   104.0012 </r>
       <r>     0.7756    -0.0180   104.0004 </r>
       <r>     0.8205    -0.0064   104.0001 </r>
       <r>     0.8653    -0.0020   104.0000 </r>
       <r>     0.9101    -0.0006   104.0000 </r>
       <r>     0.9550    -0.0001   104.0000 </r>
       <r>     0.9998    -0.0000   104.0000 </r>
       <r>     1.0447    -0.0000   104.0000 </r>
       <r>     1.0895    -0.0000   104.0000 </r>
       <r>     1.1344    -0.0000   104.0000 </r>
       <r>     1.1792    -0.0000   104.0000 </r>
       <r>     1.2241    -0.0000   104.0000 </r>
       <r>     1.2689    -0.0000   104.0000 </r>
       <r>     1.3138    -0.0000   104.0000 </r>
       <r>     1.3586    -0.0000   104.0000 </r>
       <r>     1.4035    -0.0000   104.0000 </r>
       <r>     1.4483    -0.0000   104.0000 </r>
       <r>     1.4932    -0.0000   104.0000 </r>
       <r>     1.5380     0.0000   104.0000 </r>
       <r>     1.5829     0.0000   104.0000 </r>
       <r>     1.6277     0.0000   104.0000 </r>
       <r>     1.6725     0.0000   104.0000 </r>
       <r>     1.7174     0.0000   104.0000 </r>
       <r>     1.7622     0.0000   104.0000 </r>
       <r>     1.8071     0.0000   104.0000 </r>
       <r>     1.8519     0.0000   104.0000 </r>
       <r>     1.8968     0.0000   104.0000 </r>
       <r>     1.9416     0.0000   104.0000 </r>
       <r>     1.9865     0.0000   104.0000 </r>
       <r>     2.0313     0.0000   104.0000 </r>
       <r>     2.0762     0.0000   104.0000 </r>
       <r>     2.1210     0.0000   104.0000 </r>
       <r>     2.1659     0.0000   104.0000 </r>
       <r>     2.2107     0.0000   104.0000 </r>
       <r>     2.2556     0.0000   104.0000 </r>
       <r>     2.3004     0.0000   104.0000 </r>
      </set>
      <set comment="spin 2">
       <r>   -11.1537     0.0000     0.0000 </r>
       <r>   -11.1088     0.0000     0.0000 </r>
       <r>   -11.0640     0.0000     0.0000 </r>
       <r>   -11.0191     0.0000     0.0000 </r>
       <r>   -10.9743     0.0000     0.0000 </r>
       <r>   -10.9295     0.0000     0.0000 </r>
       <r>   -10.8846     0.0000     0.0000 </r>
       <r>   -10.8398     0.0000     0.0000 </r>
       <r>   -10.7949     0.0000     0.0000 </r>
       <r>   -10.7501     0.0000     0.0000 </r>
       <r>   -10.7052    -0.0000    -0.0000 </r>
       <r>   -10.6604    -0.0000    -0.0000 </r>
       <r>   -10.6155    -0.0000    -0.0000 </r>
       <r>   -10.5707    -0.0000    -0.0000 </r>
       <r>   -10.5258    -0.0000    -0.0000 </r>
       <r>   -10.4810    -0.0000    -0.0000 </r>
       <r>   -10.4361    -0.0000    -0.0000 </r>
       <r>   -10.3913    -0.0000    -0.0000 </r>
       <r>   -10.3464    -0.0000    -0.0000 </r>
       <r>   -10.3016    -0.0000    -0.0000 </r>
       <r>   -10.2567    -0.0000    -0.0000 </r>
       <r>   -10.2119    -0.0000    -0.0000 </r>
       <r>   -10.1671    -0.0000    -0.0000 </r>
       <r>   -10.1222    -0.0000    -0.0000 </r>
       <r>   -10.0774    -0.0000    -0.0000 </r>
       <r>   -10.0325    -0.0000    -0.0000 </r>
       <r>    -9.9877    -0.0000    -0.0000 </r>
       <r>    -9.9428    -0.0000    -0.0000 </r>
       <r>    -9.8980    -0.0000    -0.0000 </r>
       <r>    -9.8531    -0.0000    -0.0000 </r>
       <r>    -9.8083    -0.0000    -0.0000 </r>
       <r>    -9.7634    -0.0001    -0.0000 </r>
       <r>    -9.7186    -0.0005    -0.0000 </r>
       <r>    -9.6737    -0.0019    -0.0001 </r>
       <r>    -9.6289    -0.0058    -0.0004 </r>
       <r>    -9.5840    -0.0160    -0.0011 </r>
       <r>    -9.5392    -0.0386    -0.0028 </r>
       <r>    -9.4943    -0.0809    -0.0065 </r>
       <r>    -9.4495    -0.1444    -0.0129 </r>
       <r>    -9.4047    -0.2094    -0.0223 </r>
       <r>    -9.3598    -0.2173    -0.0321 </r>
       <r>    -9.3150    -0.0637    -0.0349 </r>
       <r>    -9.2701     0.3721    -0.0182 </r>
       <r>    -9.2253     1.1551     0.0336 </r>
       <r>    -9.1804     2.2087     0.1326 </r>
       <r>    -9.1356     3.2824     0.2798 </r>
       <r>    -9.0907     4.0280     0.4605 </r>
       <r>    -9.0459     4.1643     0.6472 </r>
       <r>    -9.0010     3.6308     0.8101 </r>
       <r>    -8.9562     2.6179     0.9275 </r>
       <r>    -8.9113     1.4545     0.9927 </r>
       <r>    -8.8665     0.4390     1.0124 </r>
       <r>    -8.8216    -0.2649     1.0005 </r>
       <r>    -8.7768    -0.6102     0.9731 </r>
       <r>    -8.7319    -0.5737     0.9474 </r>
       <r>    -8.6871    -0.0808     0.9438 </r>
       <r>    -8.6423     0.9806     0.9878 </r>
       <r>    -8.5974     2.6589     1.1070 </r>
       <r>    -8.5526     4.8231     1.3233 </r>
       <r>    -8.5077     7.1214     1.6427 </r>
       <r>    -8.4629     9.0713     2.0495 </r>
       <r>    -8.4180    10.2527     2.5093 </r>
       <r>    -8.3732    10.5052     2.9804 </r>
       <r>    -8.3283    10.0082     3.4293 </r>
       <r>    -8.2835     9.1819     3.8411 </r>
       <r>    -8.2386     8.4640     4.2206 </r>
       <r>    -8.1938     8.1057     4.5841 </r>
       <r>    -8.1489     8.1197     4.9483 </r>
       <r>    -8.1041     8.3912     5.3246 </r>
       <r>    -8.0592     8.8302     5.7206 </r>
       <r>    -8.0144     9.4176     6.1430 </r>
       <r>    -7.9696    10.1088     6.5963 </r>
       <r>    -7.9247    10.7008     7.0762 </r>
       <r>    -7.8799    10.8253     7.5617 </r>
       <r>    -7.8350    10.1336     8.0162 </r>
       <r>    -7.7902     8.5696     8.4005 </r>
       <r>    -7.7453     6.5258     8.6931 </r>
       <r>    -7.7005     4.7263     8.9051 </r>
       <r>    -7.6556     3.8603     9.0782 </r>
       <r>    -7.6108     4.1857     9.2659 </r>
       <r>    -7.5659     5.3702     9.5068 </r>
       <r>    -7.5211     6.7077     9.8076 </r>
       <r>    -7.4762     7.5900    10.1480 </r>
       <r>    -7.4314     7.9158    10.5030 </r>
       <r>    -7.3865     8.1419    10.8681 </r>
       <r>    -7.3417     8.9331    11.2688 </r>
       <r>    -7.2968    10.6680    11.7472 </r>
       <r>    -7.2520    13.1635    12.3375 </r>
       <r>    -7.2072    15.8091    13.0465 </r>
       <r>    -7.1623    17.9913    13.8534 </r>
       <r>    -7.1175    19.4836    14.7272 </r>
       <r>    -7.0726    20.5179    15.6473 </r>
       <r>    -7.0278    21.5065    16.6118 </r>
       <r>    -6.9829    22.6459    17.6274 </r>
       <r>    -6.9381    23.7170    18.6911 </r>
       <r>    -6.8932    24.2326    19.7778 </r>
       <r>    -6.8484    23.8022    20.8453 </r>
       <r>    -6.8035    22.4185    21.8507 </r>
       <r>    -6.7587    20.4587    22.7682 </r>
       <r>    -6.7138    18.4397    23.5952 </r>
       <r>    -6.6690    16.7558    24.3466 </r>
       <r>    -6.6241    15.5944    25.0460 </r>
       <r>    -6.5793    15.0269    25.7199 </r>
       <r>    -6.5344    15.1091    26.3975 </r>
       <r>    -6.4896    15.8467    27.1081 </r>
       <r>    -6.4448    17.0513    27.8728 </r>
       <r>    -6.3999    18.2620    28.6918 </r>
       <r>    -6.3551    18.8815    29.5386 </r>
       <r>    -6.3102    18.4931    30.3680 </r>
       <r>    -6.2654    17.1502    31.1371 </r>
       <r>    -6.2205    15.4150    31.8284 </r>
       <r>    -6.1757    14.0935    32.4605 </r>
       <r>    -6.1308    13.8183    33.0802 </r>
       <r>    -6.0860    14.7243    33.7405 </r>
       <r>    -6.0411    16.3976    34.4759 </r>
       <r>    -5.9963    18.1052    35.2879 </r>
       <r>    -5.9514    19.1650    36.1474 </r>
       <r>    -5.9066    19.2520    37.0108 </r>
       <r>    -5.8617    18.4832    37.8397 </r>
       <r>    -5.8169    17.2526    38.6134 </r>
       <r>    -5.7720    15.9387    39.3282 </r>
       <r>    -5.7272    14.7044    39.9876 </r>
       <r>    -5.6824    13.5467    40.5952 </r>
       <r>    -5.6375    12.5370    41.1574 </r>
       <r>    -5.5927    11.9963    41.6954 </r>
       <r>    -5.5478    12.3755    42.2504 </r>
       <r>    -5.5030    13.8899    42.8733 </r>
       <r>    -5.4581    16.2224    43.6009 </r>
       <r>    -5.4133    18.5944    44.4348 </r>
       <r>    -5.3684    20.2066    45.3410 </r>
       <r>    -5.3236    20.7430    46.2712 </r>
       <r>    -5.2787    20.5626    47.1934 </r>
       <r>    -5.2339    20.4336    48.1098 </r>
       <r>    -5.1890    20.9919    49.0512 </r>
       <r>    -5.1442    22.3076    50.0516 </r>
       <r>    -5.0993    23.8698    51.1221 </r>
       <r>    -5.0545    24.9964    52.2431 </r>
       <r>    -5.0097    25.3677    53.3808 </r>
       <r>    -4.9648    25.2844    54.5147 </r>
       <r>    -4.9200    25.4512    55.6561 </r>
       <r>    -4.8751    26.4435    56.8421 </r>
       <r>    -4.8303    28.2472    58.1089 </r>
       <r>    -4.7854    30.2123    59.4638 </r>
       <r>    -4.7406    31.4612    60.8747 </r>
       <r>    -4.6957    31.4730    62.2862 </r>
       <r>    -4.6509    30.4390    63.6513 </r>
       <r>    -4.6060    29.1483    64.9585 </r>
       <r>    -4.5612    28.4940    66.2364 </r>
       <r>    -4.5163    28.9432    67.5344 </r>
       <r>    -4.4715    30.3038    68.8934 </r>
       <r>    -4.4266    31.8817    70.3232 </r>
       <r>    -4.3818    32.8799    71.7978 </r>
       <r>    -4.3369    32.8029    73.2689 </r>
       <r>    -4.2921    31.6788    74.6896 </r>
       <r>    -4.2473    29.9995    76.0350 </r>
       <r>    -4.2024    28.3907    77.3082 </r>
       <r>    -4.1576    27.1842    78.5274 </r>
       <r>    -4.1127    26.1717    79.7011 </r>
       <r>    -4.0679    24.7332    80.8103 </r>
       <r>    -4.0230    22.2732    81.8092 </r>
       <r>    -3.9782    18.6576    82.6459 </r>
       <r>    -3.9333    14.3504    83.2895 </r>
       <r>    -3.8885    10.1769    83.7459 </r>
       <r>    -3.8436     6.8956    84.0551 </r>
       <r>    -3.7988     4.8584    84.2730 </r>
       <r>    -3.7539     3.9422    84.4498 </r>
       <r>    -3.7091     3.7432    84.6177 </r>
       <r>    -3.6642     3.8611    84.7908 </r>
       <r>    -3.6194     4.0686    84.9733 </r>
       <r>    -3.5745     4.2811    85.1653 </r>
       <r>    -3.5297     4.4187    85.3634 </r>
       <r>    -3.4849     4.3304    85.5577 </r>
       <r>    -3.4400     3.8617    85.7308 </r>
       <r>    -3.3952     2.9903    85.8649 </r>
       <r>    -3.3503     1.8933    85.9499 </r>
       <r>    -3.3055     0.8847    85.9895 </r>
       <r>    -3.2606     0.2807    86.0021 </r>
       <r>    -3.2158     0.2799    86.0147 </r>
       <r>    -3.1709     0.8977    86.0549 </r>
       <r>    -3.1261     1.9500    86.1424 </r>
       <r>    -3.0812     3.0861    86.2808 </r>
       <r>    -3.0364     3.8917    86.4553 </r>
       <r>    -2.9915     4.0493    86.6369 </r>
       <r>    -2.9467     3.4824    86.7931 </r>
       <r>    -2.9018     2.3933    86.9004 </r>
       <r>    -2.8570     1.1764    86.9532 </r>
       <r>    -2.8122     0.2749    86.9655 </r>
       <r>    -2.7673     0.0605    86.9682 </r>
       <r>    -2.7225     0.7519    87.0019 </r>
       <r>    -2.6776     2.3355    87.1067 </r>
       <r>    -2.6328     4.4904    87.3081 </r>
       <r>    -2.5879     6.6006    87.6041 </r>
       <r>    -2.5431     7.9437    87.9603 </r>
       <r>    -2.4982     8.0179    88.3199 </r>
       <r>    -2.4534     6.8196    88.6258 </r>
       <r>    -2.4085     4.8724    88.8443 </r>
       <r>    -2.3637     2.9666    88.9773 </r>
       <r>    -2.3188     1.7685    89.0566 </r>
       <r>    -2.2740     1.5312    89.1253 </r>
       <r>    -2.2291     2.0524    89.2173 </r>
       <r>    -2.1843     2.8747    89.3463 </r>
       <r>    -2.1394     3.5975    89.5076 </r>
       <r>    -2.0946     4.1133    89.6921 </r>
       <r>    -2.0498     4.6189    89.8992 </r>
       <r>    -2.0049     5.3864    90.1408 </r>
       <r>    -1.9601     6.4578    90.4304 </r>
       <r>    -1.9152     7.5063    90.7670 </r>
       <r>    -1.8704     7.9917    91.1254 </r>
       <r>    -1.8255     7.5049    91.4620 </r>
       <r>    -1.7807     6.0408    91.7329 </r>
       <r>    -1.7358     4.0089    91.9127 </r>
       <r>    -1.6910     2.0028    92.0025 </r>
       <r>    -1.6461     0.5228    92.0260 </r>
       <r>    -1.6013    -0.1758    92.0181 </r>
       <r>    -1.5564    -0.0770    92.0146 </r>
       <r>    -1.5116     0.6756    92.0449 </r>
       <r>    -1.4667     1.8513    92.1279 </r>
       <r>    -1.4219     3.1901    92.2710 </r>
       <r>    -1.3770     4.4717    92.4715 </r>
       <r>    -1.3322     5.5796    92.7218 </r>
       <r>    -1.2874     6.5036    93.0134 </r>
       <r>    -1.2425     7.2547    93.3388 </r>
       <r>    -1.1977     7.7570    93.6867 </r>
       <r>    -1.1528     7.8228    94.0375 </r>
       <r>    -1.1080     7.2560    94.3629 </r>
       <r>    -1.0631     6.0120    94.6325 </r>
       <r>    -1.0183     4.2916    94.8250 </r>
       <r>    -0.9734     2.4992    94.9371 </r>
       <r>    -0.9286     1.1003    94.9864 </r>
       <r>    -0.8837     0.4646    95.0073 </r>
       <r>    -0.8389     0.7583    95.0413 </r>
       <r>    -0.7940     1.8978    95.1264 </r>
       <r>    -0.7492     3.5560    95.2858 </r>
       <r>    -0.7043     5.2345    95.5206 </r>
       <r>    -0.6595     6.4221    95.8086 </r>
       <r>    -0.6146     6.8133    96.1142 </r>
       <r>    -0.5698     6.4921    96.4053 </r>
       <r>    -0.5250     5.9470    96.6720 </r>
       <r>    -0.4801     5.8462    96.9342 </r>
       <r>    -0.4353     6.6519    97.2325 </r>
       <r>    -0.3904     8.2962    97.6046 </r>
       <r>    -0.3456    10.1566    98.0601 </r>
       <r>    -0.3007    11.3901    98.5709 </r>
       <r>    -0.2559    11.4220    99.0831 </r>
       <r>    -0.2110    10.2531    99.5429 </r>
       <r>    -0.1662     8.3874    99.9191 </r>
       <r>    -0.1213     6.4820   100.2098 </r>
       <r>    -0.0765     5.0240   100.4351 </r>
       <r>    -0.0316     4.2492   100.6257 </r>
       <r>     0.0132     4.2543   100.8165 </r>
       <r>     0.0581     5.0806   101.0443 </r>
       <r>     0.1029     6.6380   101.3420 </r>
       <r>     0.1477     8.5654   101.7261 </r>
       <r>     0.1926    10.2340   102.1851 </r>
       <r>     0.2374    10.9799   102.6775 </r>
       <r>     0.2823    10.4268   103.1451 </r>
       <r>     0.3271     8.6744   103.5341 </r>
       <r>     0.3720     6.2273   103.8134 </r>
       <r>     0.4168     3.7345   103.9809 </r>
       <r>     0.4617     1.7118   104.0577 </r>
       <r>     0.5065     0.3915   104.0752 </r>
       <r>     0.5514    -0.2658   104.0633 </r>
       <r>     0.5962    -0.4562   104.0428 </r>
       <r>     0.6411    -0.4028   104.0248 </r>
       <r>     0.6859    -0.2726   104.0125 </r>
       <r>     0.7308    -0.1542   104.0056 </r>
       <r>     0.7756    -0.0753   104.0023 </r>
       <r>     0.8205    -0.0323   104.0008 </r>
       <r>     0.8653    -0.0122   104.0003 </r>
       <r>     0.9101    -0.0041   104.0001 </r>
       <r>     0.9550    -0.0012   104.0000 </r>
       <r>     0.9998    -0.0003   104.0000 </r>
       <r>     1.0447    -0.0001   104.0000 </r>
       <r>     1.0895    -0.0000   104.0000 </r>
       <r>     1.1344    -0.0000   104.0000 </r>
       <r>     1.1792    -0.0000   104.0000 </r>
       <r>     1.2241    -0.0000   104.0000 </r>
       <r>     1.2689    -0.0000   104.0000 </r>
       <r>     1.3138    -0.0000   104.0000 </r>
       <r>     1.3586    -0.0000   104.0000 </r>
       <r>     1.4035    -0.0000   104.0000 </r>
       <r>     1.4483    -0.0000   104.0000 </r>
       <r>     1.4932    -0.0000   104.0000 </r>
       <r>     1.5380    -0.0000   104.0000 </r>
       <r>     1.5829     0.0000   104.0000 </r>
       <r>     1.6277     0.0000   104.0000 </r>
       <r>     1.6725     0.0000   104.0000 </r>
       <r>     1.7174     0.0000   104.0000 </r>
       <r>     1.7622     0.0000   104.0000 </r>
       <r>     1.8071     0.0000   104.0000 </r>
       <r>     1.8519     0.0000   104.0000 </r>
       <r>     1.8968     0.0000   104.0000 </r>
       <r>     1.9416     0.0000   104.0000 </r>
       <r>     1.9865     0.0000   104.0000 </r>
       <r>     2.0313     0.0000   104.0000 </r>
       <r>     2.0762     0.0000   104.0000 </r>
       <r>     2.1210     0.0000   104.0000 </r>
       <r>     2.1659     0.0000   104.0000 </r>
       <r>     2.2107     0.0000   104.0000 </r>
       <r>     2.2556     0.0000   104.0000 </r>
       <r>     2.3004     0.0000   104.0000 </r>
      </set>
     </set>
    </array>
   </total>
  </dos>
 </calculation>
 <structure name="finalpos" >
  <crystal>
   <varray name="basis" >
    <v>      23.64122418       0.00000000       0.00000000 </v>
    <v>       0.00000000      24.80268081       0.00000000 </v>
    <v>       0.00000000       0.00000000      25.21844784 </v>
   </varray>
   <i name="volume">  14787.23375885 </i>
   <varray name="rec_basis" >
    <v>       0.04229899       0.00000000       0.00000000 </v>
    <v>       0.00000000       0.04031822       0.00000000 </v>
    <v>       0.00000000       0.00000000       0.03965351 </v>
   </varray>
  </crystal>
  <varray name="positions" >
   <v>       0.49132138       0.53335042       0.37787764 </v>
   <v>       0.38269333       0.51053516       0.40736171 </v>
   <v>       0.56990309       0.51903994       0.45209186 </v>
   <v>       0.52693777       0.61696146       0.44001411 </v>
   <v>       0.46619452       0.44253429       0.42872186 </v>
   <v>       0.42152494       0.61400896       0.39476876 </v>
   <v>       0.44629452       0.55679031       0.47868647 </v>
   <v>       0.38928756       0.46771417       0.50719925 </v>
   <v>       0.45786998       0.37824260       0.51412867 </v>
   <v>       0.50235471       0.47498054       0.52029215 </v>
   <v>       0.60816822       0.48997741       0.54840643 </v>
   <v>       0.43654165       0.43722188       0.60165959 </v>
   <v>       0.43091888       0.54335023       0.58026722 </v>
   <v>       0.54394691       0.40331990       0.58672966 </v>
   <v>       0.53623292       0.57679361       0.54054482 </v>
   <v>       0.52725070       0.50481560       0.62246806 </v>
  </varray>
 </structure>
</modeling>
