unknown system                          
            1
    23.641224    0.000000    0.000000
     0.000000   24.802681    0.000000
     0.000000    0.000000   25.218448
   Pd
    16
Direct configuration=     1
   0.49034961  0.53612482  0.37525742
   0.38553288  0.51380539  0.40210689
   0.56239706  0.51905541  0.45219897
   0.52485972  0.61612875  0.43769271
   0.46615515  0.44912243  0.43095637
   0.42292548  0.61385019  0.39593425
   0.44866106  0.55272088  0.47523996
   0.39193413  0.46609712  0.50834854
   0.45811833  0.38034535  0.51799757
   0.50158197  0.47420141  0.52474829
   0.60474516  0.49006762  0.55014699
   0.43888223  0.43691421  0.60299574
   0.43420286  0.53971485  0.57842094
   0.54352723  0.40437183  0.58735041
   0.53620201  0.57402507  0.53944815
   0.52736620  0.50309115  0.62237506
Direct configuration=     2
   0.49133751  0.53551948  0.37364163
   0.38379617  0.51308344  0.40191026
   0.56394476  0.51825488  0.45187475
   0.52590262  0.61745903  0.43805596
   0.46671490  0.44762378  0.43041057
   0.42186951  0.61530717  0.39539959
   0.44775605  0.55345469  0.47681629
   0.39028377  0.46634233  0.50811811
   0.45808246  0.37884918  0.51700827
   0.50227314  0.47389305  0.52269421
   0.60658023  0.48988811  0.54959668
   0.43730347  0.43630421  0.60454924
   0.43283063  0.54127267  0.57891920
   0.54467178  0.40277070  0.58808275
   0.53632417  0.57553634  0.53979710
   0.52776991  0.50407745  0.62434365
Direct configuration=     3
   0.49159423  0.53536217  0.37322175
   0.38334487  0.51289583  0.40185917
   0.56434695  0.51804685  0.45179050
   0.52617363  0.61780472  0.43815035
   0.46686035  0.44723434  0.43026874
   0.42159510  0.61568579  0.39526065
   0.44752088  0.55364538  0.47722592
   0.38985490  0.46640605  0.50805823
   0.45807314  0.37846038  0.51675119
   0.50245275  0.47381291  0.52216044
   0.60705709  0.48984146  0.54945367
   0.43689322  0.43614569  0.60495293
   0.43247404  0.54167748  0.57904868
   0.54496920  0.40235463  0.58827305
   0.53635591  0.57592906  0.53988777
   0.52787481  0.50433374  0.62485521
Direct configuration=     4
   0.49154011  0.53539773  0.37320976
   0.38325080  0.51270547  0.40226131
   0.56526046  0.51812496  0.45141328
   0.52624526  0.61781166  0.43841306
   0.46671525  0.44658557  0.42962965
   0.42157821  0.61562755  0.39528277
   0.44703378  0.55441815  0.47681675
   0.38940282  0.46651963  0.50792223
   0.45807255  0.37822493  0.51644560
   0.50273874  0.47318182  0.52308454
   0.60741143  0.48981049  0.54924821
   0.43687589  0.43620375  0.60486322
   0.43222516  0.54187940  0.57941209
   0.54488572  0.40242027  0.58841929
   0.53637452  0.57629633  0.54003336
   0.52783036  0.50442878  0.62476312
Direct configuration=     5
   0.49152413  0.53540823  0.37320622
   0.38322301  0.51264926  0.40238007
   0.56553024  0.51814803  0.45130188
   0.52626641  0.61781371  0.43849064
   0.46667240  0.44639398  0.42944091
   0.42157323  0.61561035  0.39528931
   0.44688994  0.55464636  0.47669592
   0.38926932  0.46655317  0.50788207
   0.45807237  0.37815540  0.51635536
   0.50282320  0.47299545  0.52335743
   0.60751607  0.48980135  0.54918754
   0.43687077  0.43622089  0.60483673
   0.43215167  0.54193903  0.57951941
   0.54486107  0.40243966  0.58846247
   0.53638002  0.57640479  0.54007636
   0.52781723  0.50445685  0.62473593
Direct configuration=     6
   0.49140357  0.53543006  0.37346945
   0.38327050  0.51240860  0.40290910
   0.56596418  0.51820505  0.45128296
   0.52631426  0.61762691  0.43879576
   0.46658580  0.44605947  0.42926979
   0.42159866  0.61553326  0.39519050
   0.44675942  0.55484553  0.47682346
   0.38933308  0.46676458  0.50767686
   0.45798453  0.37809006  0.51602884
   0.50270201  0.47318321  0.52325975
   0.60771852  0.48988608  0.54895568
   0.43684590  0.43630065  0.60461241
   0.43208769  0.54199727  0.57958236
   0.54483950  0.40237732  0.58879301
   0.53623407  0.57634041  0.54003366
   0.52779938  0.50458804  0.62453467
Direct configuration=     7
   0.49104189  0.53549553  0.37425914
   0.38341295  0.51168662  0.40449618
   0.56726600  0.51837612  0.45122620
   0.52645778  0.61706653  0.43971110
   0.46632600  0.44505595  0.42875642
   0.42167494  0.61530199  0.39489408
   0.44636787  0.55544303  0.47720605
   0.38952439  0.46739881  0.50706121
   0.45772101  0.37789404  0.51504928
   0.50233845  0.47374649  0.52296672
   0.60832588  0.49014028  0.54826009
   0.43677128  0.43653993  0.60393948
   0.43189576  0.54217199  0.57977123
   0.54477481  0.40219030  0.58978464
   0.53579622  0.57614726  0.53990555
   0.52774584  0.50498163  0.62393088
Direct configuration=     8
   0.49107869  0.53523849  0.37484786
   0.38321641  0.51135612  0.40515682
   0.56754228  0.51825101  0.45138577
   0.52656168  0.61694808  0.44003499
   0.46651681  0.44467005  0.42887124
   0.42162935  0.61527064  0.39476479
   0.44632984  0.55565627  0.47762044
   0.38969200  0.46752816  0.50687723
   0.45773261  0.37827078  0.51473229
   0.50250770  0.47369585  0.52231280
   0.60814250  0.49019725  0.54797141
   0.43680636  0.43658363  0.60340410
   0.43166584  0.54237463  0.57986352
   0.54445587  0.40255501  0.58986266
   0.53570799  0.57598768  0.53995491
   0.52785513  0.50505285  0.62355744
Direct configuration=     9
   0.49111567  0.53498021  0.37543942
   0.38301893  0.51102401  0.40582065
   0.56781989  0.51812530  0.45154610
   0.52666608  0.61682906  0.44036044
   0.46670855  0.44428229  0.42898660
   0.42158353  0.61523913  0.39463488
   0.44629162  0.55587054  0.47803683
   0.38986042  0.46765812  0.50669236
   0.45774428  0.37864934  0.51441376
   0.50267778  0.47364497  0.52165572
   0.60795823  0.49025449  0.54768134
   0.43684162  0.43662753  0.60286614
   0.43143481  0.54257826  0.57995626
   0.54413539  0.40292149  0.58994107
   0.53561933  0.57582732  0.54000450
   0.52796495  0.50512443  0.62318218
Direct configuration=    10
   0.49116812  0.53460649  0.37614877
   0.38284013  0.51094060  0.40623411
   0.56805117  0.51809535  0.45141455
   0.52670220  0.61687031  0.44041304
   0.46693595  0.44401583  0.42867974
   0.42163541  0.61496918  0.39474648
   0.44619030  0.55622226  0.47800314
   0.38971540  0.46765857  0.50678914
   0.45779676  0.37861620  0.51426612
   0.50292236  0.47364212  0.52157265
   0.60789496  0.49017209  0.54764800
   0.43677169  0.43679827  0.60242908
   0.43127743  0.54268724  0.58011140
   0.54389197  0.40333302  0.58963954
   0.53567383  0.57585116  0.54024867
   0.52797337  0.50515781  0.62287383
Direct configuration=    11
   0.49117989  0.53452262  0.37630796
   0.38280001  0.51092188  0.40632690
   0.56810307  0.51808863  0.45138502
   0.52671031  0.61687957  0.44042484
   0.46698699  0.44395603  0.42861087
   0.42164705  0.61490860  0.39477153
   0.44616757  0.55630119  0.47799558
   0.38968285  0.46765867  0.50681086
   0.45780854  0.37860877  0.51423299
   0.50297725  0.47364148  0.52155401
   0.60788076  0.49015359  0.54764052
   0.43675599  0.43683659  0.60233099
   0.43124211  0.54271170  0.58014622
   0.54383734  0.40342537  0.58957187
   0.53568606  0.57585651  0.54030346
   0.52797526  0.50516530  0.62280463
Direct configuration=    12
   0.49120079  0.53415147  0.37685753
   0.38265137  0.51085708  0.40663804
   0.56839904  0.51813413  0.45122727
   0.52681888  0.61702113  0.44038690
   0.46711108  0.44372970  0.42835740
   0.42166580  0.61463346  0.39485436
   0.44612923  0.55639175  0.47823689
   0.38965639  0.46767538  0.50698152
   0.45782743  0.37839320  0.51411160
   0.50269689  0.47398290  0.52121610
   0.60815625  0.49004057  0.54774280
   0.43651187  0.43704664  0.60202251
   0.43115682  0.54277939  0.58012872
   0.54382983  0.40350605  0.58918874
   0.53573301  0.57601979  0.54049551
   0.52789640  0.50527385  0.62277238
Direct configuration=    13
   0.49120326  0.53410755  0.37692257
   0.38263378  0.51084942  0.40667486
   0.56843406  0.51813951  0.45120861
   0.52683173  0.61703788  0.44038241
   0.46712577  0.44370292  0.42832740
   0.42166802  0.61460090  0.39486416
   0.44612469  0.55640247  0.47826545
   0.38965326  0.46767736  0.50700171
   0.45782966  0.37836769  0.51409723
   0.50266371  0.47402330  0.52117612
   0.60818885  0.49002720  0.54775490
   0.43648298  0.43707150  0.60198601
   0.43114673  0.54278740  0.58012665
   0.54382894  0.40351560  0.58914340
   0.53573856  0.57603911  0.54051824
   0.52788707  0.50528670  0.62276856
Direct configuration=    14
   0.49114886  0.53409503  0.37690209
   0.38266560  0.51078051  0.40679015
   0.56865334  0.51823821  0.45138911
   0.52687077  0.61699512  0.44039312
   0.46698490  0.44351922  0.42840312
   0.42163998  0.61452991  0.39485550
   0.44620556  0.55641334  0.47837529
   0.38963114  0.46764771  0.50699517
   0.45784597  0.37834111  0.51407150
   0.50258684  0.47422406  0.52105642
   0.60817284  0.49000815  0.54781685
   0.43642637  0.43707846  0.60196815
   0.43111214  0.54289031  0.58012239
   0.54387092  0.40348403  0.58884256
   0.53580721  0.57613513  0.54044616
   0.52781862  0.50525621  0.62279067
Direct configuration=    15
   0.49107624  0.53407831  0.37687476
   0.38270809  0.51068852  0.40694407
   0.56894607  0.51836997  0.45163008
   0.52692289  0.61693803  0.44040743
   0.46679685  0.44327397  0.42850421
   0.42160255  0.61443513  0.39484394
   0.44631352  0.55642786  0.47852193
   0.38960161  0.46760813  0.50698643
   0.45786773  0.37830563  0.51403714
   0.50248422  0.47449206  0.52089662
   0.60815147  0.48998272  0.54789956
   0.43635079  0.43708775  0.60194431
   0.43106597  0.54302770  0.58011670
   0.54392696  0.40344188  0.58844095
   0.53589887  0.57626333  0.54034993
   0.52772724  0.50521551  0.62282019
Direct configuration=    16
   0.49106790  0.53402707  0.37693615
   0.38275303  0.51065845  0.40702898
   0.56910305  0.51846789  0.45169334
   0.52693356  0.61690925  0.44037708
   0.46668701  0.44316199  0.42853072
   0.42158432  0.61437399  0.39485812
   0.44631749  0.55647447  0.47849452
   0.38956333  0.46759004  0.50699123
   0.45788754  0.37831063  0.51404505
   0.50244757  0.47453299  0.52090987
   0.60814098  0.48996182  0.54796866
   0.43636472  0.43710582  0.60190425
   0.43103980  0.54308257  0.58015294
   0.54392106  0.40345437  0.58818437
   0.53597372  0.57635877  0.54035321
   0.52765598  0.50516640  0.62278976
Direct configuration=    17
   0.49104958  0.53391446  0.37707106
   0.38285180  0.51059238  0.40721556
   0.56944804  0.51868308  0.45183236
   0.52695700  0.61684602  0.44031039
   0.46644562  0.44291589  0.42858899
   0.42154427  0.61423960  0.39488929
   0.44632622  0.55657688  0.47843429
   0.38947920  0.46755027  0.50700176
   0.45793107  0.37832162  0.51406245
   0.50236703  0.47462294  0.52093898
   0.60811794  0.48991589  0.54812050
   0.43639532  0.43714552  0.60181623
   0.43098227  0.54320315  0.58023260
   0.54390810  0.40348180  0.58762051
   0.53613822  0.57656852  0.54036041
   0.52749938  0.50505848  0.62272288
Direct configuration=    18
   0.49111702  0.53376918  0.37725736
   0.38283349  0.51056515  0.40726911
   0.56957036  0.51879090  0.45187998
   0.52697344  0.61686247  0.44022646
   0.46636323  0.44281982  0.42860681
   0.42150814  0.61420528  0.39487327
   0.44632275  0.55660338  0.47849355
   0.38942645  0.46757596  0.50704134
   0.45793233  0.37828685  0.51408190
   0.50235513  0.47473565  0.52084813
   0.60811847  0.48991206  0.54821514
   0.43642645  0.43718150  0.60177700
   0.43098037  0.54324030  0.58024182
   0.54391951  0.40345239  0.58734939
   0.53618967  0.57663477  0.54041214
   0.52740426  0.50500083  0.62264485
Direct configuration=    19
   0.49123934  0.53350573  0.37759522
   0.38280030  0.51051579  0.40736623
   0.56979219  0.51898643  0.45196634
   0.52700324  0.61689229  0.44007424
   0.46621380  0.44264560  0.42863914
   0.42144262  0.61414304  0.39484422
   0.44631645  0.55665145  0.47860103
   0.38933077  0.46762256  0.50711312
   0.45793462  0.37822379  0.51411719
   0.50233354  0.47494005  0.52068337
   0.60811942  0.48990511  0.54838678
   0.43648291  0.43724674  0.60170586
   0.43097692  0.54330768  0.58025854
   0.54394021  0.40339905  0.58685769
   0.53628297  0.57675491  0.54050596
   0.52723177  0.50489628  0.62250334
Direct configuration=    20
   0.49128305  0.53342297  0.37774571
   0.38274330  0.51052611  0.40736382
   0.56985128  0.51901495  0.45203322
   0.52696835  0.61692915  0.44004220
   0.46620353  0.44258629  0.42868321
   0.42148649  0.61407159  0.39480401
   0.44630476  0.55672544  0.47864656
   0.38930775  0.46767138  0.50715901
   0.45790017  0.37823382  0.51412331
   0.50234482  0.47496162  0.52047491
   0.60814542  0.48994364  0.54839725
   0.43651421  0.43723349  0.60168120
   0.43094599  0.54333035  0.58026317
   0.54394378  0.40335687  0.58678947
   0.53625630  0.57677553  0.54052667
   0.52724186  0.50485329  0.62248454
Direct configuration=    21
   0.49132138  0.53335042  0.37787764
   0.38269333  0.51053516  0.40736171
   0.56990309  0.51903994  0.45209186
   0.52693777  0.61696146  0.44001411
   0.46619452  0.44253429  0.42872186
   0.42152494  0.61400896  0.39476876
   0.44629452  0.55679031  0.47868647
   0.38928756  0.46771417  0.50719925
   0.45786998  0.37824260  0.51412867
   0.50235471  0.47498054  0.52029215
   0.60816822  0.48997741  0.54840643
   0.43654165  0.43722188  0.60165959
   0.43091888  0.54335023  0.58026722
   0.54394691  0.40331990  0.58672966
   0.53623292  0.57679361  0.54054482
   0.52725070  0.50481560  0.62246806
