  16  16   0   0
  0.9480889E+03  0.2431930E-08  0.2578300E-08  0.2419271E-08  0.5000000E-15
   1.0000000000000000E-004
  CAR 
 unknown system                          
      2.21099588    -11.02462094  301     -4.31431881      1.00000000
    -11.025  0.0000E+00  0.0000E+00  0.0000E+00  0.0000E+00
    -10.981  0.0000E+00  0.0000E+00  0.0000E+00  0.0000E+00
    -10.936  0.0000E+00  0.0000E+00  0.0000E+00  0.0000E+00
    -10.892  0.0000E+00  0.0000E+00  0.0000E+00  0.0000E+00
    -10.848  0.0000E+00  0.0000E+00  0.0000E+00  0.0000E+00
    -10.804  0.0000E+00  0.0000E+00  0.0000E+00  0.0000E+00
    -10.760  0.0000E+00  0.0000E+00  0.0000E+00  0.0000E+00
    -10.716  0.0000E+00  0.0000E+00  0.0000E+00  0.0000E+00
    -10.672  0.0000E+00  0.0000E+00  0.0000E+00  0.0000E+00
    -10.628 -0.6499E-29  0.0000E+00 -0.2867E-30  0.0000E+00
    -10.583 -0.2002E-27 -0.8961E-30 -0.9118E-29 -0.3953E-31
    -10.539 -0.5751E-26 -0.2921E-28 -0.2628E-27 -0.1328E-29
    -10.495 -0.1497E-24 -0.8867E-27 -0.6868E-26 -0.4045E-28
    -10.451 -0.3531E-23 -0.2439E-25 -0.1627E-24 -0.1117E-26
    -10.407 -0.7547E-22 -0.6081E-24 -0.3492E-23 -0.2795E-25
    -10.363 -0.1461E-20 -0.1374E-22 -0.6795E-22 -0.6340E-24
    -10.319 -0.2562E-19 -0.2811E-21 -0.1198E-20 -0.1303E-22
    -10.275 -0.4069E-18 -0.5210E-20 -0.1915E-19 -0.2429E-21
    -10.230 -0.5851E-17 -0.8746E-19 -0.2773E-18 -0.4102E-20
    -10.186 -0.7365E-16 -0.1330E-17 -0.3527E-17 -0.6277E-19
    -10.142 -0.8687E-15 -0.1830E-16 -0.4185E-16 -0.8703E-18
    -10.098 -0.9244E-14 -0.2205E-15 -0.4497E-15 -0.1060E-16
    -10.054 -0.8890E-13 -0.2488E-14 -0.4372E-14 -0.1204E-15
    -10.010 -0.7730E-12 -0.2531E-13 -0.3847E-13 -0.1237E-14
     -9.966 -0.6073E-11 -0.2329E-12 -0.3064E-12 -0.1151E-13
     -9.922 -0.4310E-10 -0.1937E-11 -0.2208E-11 -0.9698E-13
     -9.878 -0.2761E-09 -0.1456E-10 -0.1439E-10 -0.7392E-12
     -9.833 -0.1595E-08 -0.9876E-10 -0.8478E-10 -0.5096E-11
     -9.789 -0.8307E-08 -0.6047E-09 -0.4513E-09 -0.3177E-10
     -9.745 -0.3894E-07 -0.3338E-08 -0.2169E-08 -0.1790E-09
     -9.701 -0.1641E-06 -0.1660E-07 -0.9408E-08 -0.9114E-09
     -9.657 -0.6203E-06 -0.7426E-07 -0.3678E-07 -0.4188E-08
     -9.613 -0.2099E-05 -0.2984E-06 -0.1294E-06 -0.1735E-07
     -9.569 -0.6339E-05 -0.1075E-05 -0.4091E-06 -0.6478E-07
     -9.525 -0.1700E-04 -0.3462E-05 -0.1159E-05 -0.2175E-06
     -9.480 -0.4018E-04 -0.9927E-05 -0.2932E-05 -0.6555E-06
     -9.436 -0.8282E-04 -0.2521E-04 -0.6585E-05 -0.1768E-05
     -9.392 -0.1458E-03 -0.5621E-04 -0.1302E-04 -0.4248E-05
     -9.348 -0.2099E-03 -0.1084E-03 -0.2228E-04 -0.9031E-05
     -9.304 -0.2192E-03 -0.1760E-03 -0.3195E-04 -0.1680E-04
     -9.260 -0.7553E-04 -0.2252E-03 -0.3528E-04 -0.2673E-04
     -9.216  0.3344E-03 -0.1801E-03 -0.2053E-04 -0.3468E-04
     -9.172  0.1072E-02  0.7136E-04  0.2675E-04 -0.3153E-04
     -9.128  0.2065E-02  0.6328E-03  0.1179E-03 -0.3612E-05
     -9.083  0.3081E-02  0.1521E-02  0.2538E-03  0.6349E-04
     -9.039  0.3792E-02  0.2598E-02  0.4211E-03  0.1781E-03
     -8.995  0.3944E-02  0.3573E-02  0.5951E-03  0.3357E-03
     -8.951  0.3515E-02  0.4111E-02  0.7502E-03  0.5171E-03
     -8.907  0.2761E-02  0.3996E-02  0.8720E-03  0.6934E-03
     -8.863  0.2082E-02  0.3255E-02  0.9638E-03  0.8370E-03
     -8.819  0.1812E-02  0.2151E-02  0.1044E-02  0.9319E-03
     -8.775  0.2054E-02  0.1071E-02  0.1134E-02  0.9791E-03
     -8.730  0.2705E-02  0.3633E-03  0.1254E-02  0.9952E-03
     -8.686  0.3621E-02  0.2299E-03  0.1413E-02  0.1005E-02
     -8.642  0.4797E-02  0.6775E-03  0.1625E-02  0.1035E-02
     -8.598  0.6389E-02  0.1530E-02  0.1907E-02  0.1103E-02
     -8.554  0.8539E-02  0.2497E-02  0.2284E-02  0.1213E-02
     -8.510  0.1115E-01  0.3306E-02  0.2776E-02  0.1359E-02
     -8.466  0.1383E-01  0.3861E-02  0.3386E-02  0.1529E-02
     -8.422  0.1603E-01  0.4331E-02  0.4093E-02  0.1720E-02
     -8.377  0.1734E-01  0.5076E-02  0.4858E-02  0.1944E-02
     -8.333  0.1760E-01  0.6425E-02  0.5635E-02  0.2227E-02
     -8.289  0.1698E-01  0.8443E-02  0.6384E-02  0.2600E-02
     -8.245  0.1573E-01  0.1085E-01  0.7078E-02  0.3079E-02
     -8.201  0.1417E-01  0.1316E-01  0.7704E-02  0.3659E-02
     -8.157  0.1259E-01  0.1488E-01  0.8259E-02  0.4316E-02
     -8.113  0.1129E-01  0.1575E-01  0.8757E-02  0.5010E-02
     -8.069  0.1053E-01  0.1576E-01  0.9222E-02  0.5706E-02
     -8.025  0.1041E-01  0.1509E-01  0.9681E-02  0.6371E-02
     -7.980  0.1082E-01  0.1400E-01  0.1016E-01  0.6989E-02
     -7.936  0.1153E-01  0.1267E-01  0.1067E-01  0.7548E-02
     -7.892  0.1226E-01  0.1127E-01  0.1121E-01  0.8045E-02
     -7.848  0.1284E-01  0.9929E-02  0.1177E-01  0.8483E-02
     -7.804  0.1328E-01  0.8864E-02  0.1236E-01  0.8874E-02
     -7.760  0.1361E-01  0.8287E-02  0.1296E-01  0.9240E-02
     -7.716  0.1389E-01  0.8318E-02  0.1357E-01  0.9607E-02
     -7.672  0.1414E-01  0.8894E-02  0.1420E-01  0.9999E-02
     -7.627  0.1431E-01  0.9791E-02  0.1483E-01  0.1043E-01
     -7.583  0.1435E-01  0.1075E-01  0.1546E-01  0.1091E-01
     -7.539  0.1416E-01  0.1162E-01  0.1609E-01  0.1142E-01
     -7.495  0.1366E-01  0.1240E-01  0.1669E-01  0.1197E-01
     -7.451  0.1289E-01  0.1319E-01  0.1726E-01  0.1255E-01
     -7.407  0.1207E-01  0.1409E-01  0.1779E-01  0.1317E-01
     -7.363  0.1157E-01  0.1506E-01  0.1830E-01  0.1383E-01
     -7.319  0.1173E-01  0.1594E-01  0.1882E-01  0.1454E-01
     -7.275  0.1264E-01  0.1644E-01  0.1938E-01  0.1526E-01
     -7.230  0.1406E-01  0.1629E-01  0.2000E-01  0.1598E-01
     -7.186  0.1547E-01  0.1536E-01  0.2068E-01  0.1666E-01
     -7.142  0.1642E-01  0.1384E-01  0.2140E-01  0.1727E-01
     -7.098  0.1666E-01  0.1216E-01  0.2214E-01  0.1781E-01
     -7.054  0.1629E-01  0.1092E-01  0.2286E-01  0.1829E-01
     -7.010  0.1561E-01  0.1057E-01  0.2355E-01  0.1875E-01
     -6.966  0.1499E-01  0.1128E-01  0.2421E-01  0.1925E-01
     -6.922  0.1469E-01  0.1281E-01  0.2486E-01  0.1982E-01
     -6.877  0.1482E-01  0.1469E-01  0.2551E-01  0.2046E-01
     -6.833  0.1539E-01  0.1634E-01  0.2619E-01  0.2119E-01
     -6.789  0.1636E-01  0.1730E-01  0.2691E-01  0.2195E-01
     -6.745  0.1766E-01  0.1744E-01  0.2769E-01  0.2272E-01
     -6.701  0.1925E-01  0.1699E-01  0.2854E-01  0.2347E-01
     -6.657  0.2099E-01  0.1643E-01  0.2947E-01  0.2419E-01
     -6.613  0.2267E-01  0.1618E-01  0.3047E-01  0.2491E-01
     -6.569  0.2392E-01  0.1643E-01  0.3152E-01  0.2563E-01
     -6.525  0.2442E-01  0.1707E-01  0.3260E-01  0.2638E-01
     -6.480  0.2397E-01  0.1790E-01  0.3366E-01  0.2717E-01
     -6.436  0.2268E-01  0.1882E-01  0.3466E-01  0.2800E-01
     -6.392  0.2092E-01  0.1987E-01  0.3558E-01  0.2888E-01
     -6.348  0.1906E-01  0.2108E-01  0.3642E-01  0.2981E-01
     -6.304  0.1738E-01  0.2233E-01  0.3719E-01  0.3080E-01
     -6.260  0.1592E-01  0.2327E-01  0.3789E-01  0.3182E-01
     -6.216  0.1467E-01  0.2352E-01  0.3854E-01  0.3286E-01
     -6.172  0.1365E-01  0.2287E-01  0.3914E-01  0.3387E-01
     -6.127  0.1298E-01  0.2143E-01  0.3971E-01  0.3481E-01
     -6.083  0.1281E-01  0.1956E-01  0.4028E-01  0.3568E-01
     -6.039  0.1320E-01  0.1767E-01  0.4086E-01  0.3646E-01
     -5.995  0.1406E-01  0.1602E-01  0.4148E-01  0.3716E-01
     -5.951  0.1515E-01  0.1472E-01  0.4215E-01  0.3781E-01
     -5.907  0.1620E-01  0.1374E-01  0.4286E-01  0.3842E-01
     -5.863  0.1701E-01  0.1310E-01  0.4361E-01  0.3900E-01
     -5.819  0.1757E-01  0.1285E-01  0.4439E-01  0.3956E-01
     -5.774  0.1806E-01  0.1309E-01  0.4518E-01  0.4014E-01
     -5.730  0.1880E-01  0.1383E-01  0.4601E-01  0.4075E-01
     -5.686  0.2013E-01  0.1499E-01  0.4690E-01  0.4141E-01
     -5.642  0.2216E-01  0.1635E-01  0.4788E-01  0.4214E-01
     -5.598  0.2466E-01  0.1769E-01  0.4897E-01  0.4292E-01
     -5.554  0.2707E-01  0.1882E-01  0.5016E-01  0.4375E-01
     -5.510  0.2871E-01  0.1969E-01  0.5143E-01  0.4461E-01
     -5.466  0.2908E-01  0.2044E-01  0.5271E-01  0.4552E-01
     -5.422  0.2814E-01  0.2132E-01  0.5395E-01  0.4646E-01
     -5.377  0.2638E-01  0.2254E-01  0.5512E-01  0.4745E-01
     -5.333  0.2467E-01  0.2419E-01  0.5621E-01  0.4852E-01
     -5.289  0.2382E-01  0.2608E-01  0.5726E-01  0.4967E-01
     -5.245  0.2418E-01  0.2776E-01  0.5832E-01  0.5089E-01
     -5.201  0.2544E-01  0.2863E-01  0.5945E-01  0.5216E-01
     -5.157  0.2681E-01  0.2827E-01  0.6063E-01  0.5340E-01
     -5.113  0.2753E-01  0.2668E-01  0.6184E-01  0.5458E-01
     -5.069  0.2736E-01  0.2446E-01  0.6305E-01  0.5566E-01
     -5.024  0.2676E-01  0.2257E-01  0.6423E-01  0.5666E-01
     -4.980  0.2663E-01  0.2188E-01  0.6541E-01  0.5762E-01
     -4.936  0.2778E-01  0.2267E-01  0.6663E-01  0.5862E-01
     -4.892  0.3048E-01  0.2442E-01  0.6798E-01  0.5970E-01
     -4.848  0.3425E-01  0.2615E-01  0.6949E-01  0.6085E-01
     -4.804  0.3811E-01  0.2697E-01  0.7117E-01  0.6204E-01
     -4.760  0.4098E-01  0.2667E-01  0.7298E-01  0.6322E-01
     -4.716  0.4206E-01  0.2578E-01  0.7483E-01  0.6436E-01
     -4.672  0.4105E-01  0.2523E-01  0.7664E-01  0.6547E-01
     -4.627  0.3813E-01  0.2579E-01  0.7832E-01  0.6661E-01
     -4.583  0.3378E-01  0.2759E-01  0.7982E-01  0.6783E-01
     -4.539  0.2861E-01  0.3002E-01  0.8108E-01  0.6915E-01
     -4.495  0.2313E-01  0.3209E-01  0.8210E-01  0.7057E-01
     -4.451  0.1774E-01  0.3285E-01  0.8288E-01  0.7201E-01
     -4.407  0.1273E-01  0.3186E-01  0.8344E-01  0.7342E-01
     -4.363  0.8322E-02  0.2935E-01  0.8381E-01  0.7472E-01
     -4.319  0.4727E-02  0.2607E-01  0.8402E-01  0.7587E-01
     -4.274  0.2073E-02  0.2299E-01  0.8411E-01  0.7688E-01
     -4.230  0.3690E-03  0.2090E-01  0.8413E-01  0.7780E-01
     -4.186 -0.5229E-03  0.2010E-01  0.8410E-01  0.7869E-01
     -4.142 -0.8432E-03  0.2031E-01  0.8407E-01  0.7959E-01
     -4.098 -0.8446E-03  0.2076E-01  0.8403E-01  0.8050E-01
     -4.054 -0.7020E-03  0.2058E-01  0.8400E-01  0.8141E-01
     -4.010 -0.4652E-03  0.1911E-01  0.8398E-01  0.8225E-01
     -3.966 -0.7523E-04  0.1618E-01  0.8397E-01  0.8297E-01
     -3.922  0.5589E-03  0.1220E-01  0.8400E-01  0.8350E-01
     -3.877  0.1453E-02  0.7898E-02  0.8406E-01  0.8385E-01
     -3.833  0.2469E-02  0.4096E-02  0.8417E-01  0.8403E-01
     -3.789  0.3333E-02  0.1368E-02  0.8432E-01  0.8409E-01
     -3.745  0.3773E-02 -0.6032E-04  0.8448E-01  0.8409E-01
     -3.701  0.3710E-02 -0.2837E-03  0.8465E-01  0.8408E-01
     -3.657  0.3368E-02  0.3840E-03  0.8480E-01  0.8410E-01
     -3.613  0.3193E-02  0.1515E-02  0.8494E-01  0.8416E-01
     -3.569  0.3603E-02  0.2667E-02  0.8510E-01  0.8428E-01
     -3.524  0.4696E-02  0.3504E-02  0.8530E-01  0.8443E-01
     -3.480  0.6138E-02  0.3927E-02  0.8557E-01  0.8461E-01
     -3.436  0.7303E-02  0.4122E-02  0.8590E-01  0.8479E-01
     -3.392  0.7613E-02  0.4442E-02  0.8623E-01  0.8499E-01
     -3.348  0.6859E-02  0.5153E-02  0.8653E-01  0.8521E-01
     -3.304  0.5326E-02  0.6199E-02  0.8677E-01  0.8549E-01
     -3.260  0.3638E-02  0.7180E-02  0.8693E-01  0.8580E-01
     -3.216  0.2429E-02  0.7573E-02  0.8704E-01  0.8614E-01
     -3.171  0.2036E-02  0.7071E-02  0.8713E-01  0.8645E-01
     -3.127  0.2375E-02  0.5799E-02  0.8723E-01  0.8671E-01
     -3.083  0.3045E-02  0.4261E-02  0.8737E-01  0.8689E-01
     -3.039  0.3595E-02  0.3056E-02  0.8753E-01  0.8703E-01
     -2.995  0.3779E-02  0.2556E-02  0.8769E-01  0.8714E-01
     -2.951  0.3661E-02  0.2731E-02  0.8785E-01  0.8726E-01
     -2.907  0.3509E-02  0.3237E-02  0.8801E-01  0.8740E-01
     -2.863  0.3570E-02  0.3668E-02  0.8817E-01  0.8757E-01
     -2.819  0.3909E-02  0.3818E-02  0.8834E-01  0.8773E-01
     -2.774  0.4408E-02  0.3756E-02  0.8853E-01  0.8790E-01
     -2.730  0.4885E-02  0.3708E-02  0.8875E-01  0.8806E-01
     -2.686  0.5209E-02  0.3851E-02  0.8898E-01  0.8823E-01
     -2.642  0.5311E-02  0.4194E-02  0.8921E-01  0.8842E-01
     -2.598  0.5138E-02  0.4613E-02  0.8944E-01  0.8862E-01
     -2.554  0.4633E-02  0.4968E-02  0.8964E-01  0.8884E-01
     -2.510  0.3793E-02  0.5176E-02  0.8981E-01  0.8907E-01
     -2.466  0.2722E-02  0.5183E-02  0.8993E-01  0.8930E-01
     -2.421  0.1623E-02  0.4921E-02  0.9000E-01  0.8952E-01
     -2.377  0.7094E-03  0.4327E-02  0.9003E-01  0.8971E-01
     -2.333  0.1011E-03  0.3417E-02  0.9004E-01  0.8986E-01
     -2.289 -0.2074E-03  0.2327E-02  0.9003E-01  0.8996E-01
     -2.245 -0.3116E-03  0.1278E-02  0.9002E-01  0.9002E-01
     -2.201 -0.3269E-03  0.4611E-03  0.9000E-01  0.9004E-01
     -2.157 -0.3294E-03 -0.4472E-04  0.8999E-01  0.9003E-01
     -2.113 -0.3255E-03 -0.2823E-03  0.8997E-01  0.9002E-01
     -2.069 -0.2498E-03 -0.3598E-03  0.8996E-01  0.9001E-01
     -2.024  0.1005E-04 -0.3754E-03  0.8996E-01  0.8999E-01
     -1.980  0.5601E-03 -0.3642E-03  0.8999E-01  0.8997E-01
     -1.936  0.1431E-02 -0.2817E-03  0.9005E-01  0.8996E-01
     -1.892  0.2532E-02 -0.2449E-04  0.9016E-01  0.8996E-01
     -1.848  0.3673E-02  0.5134E-03  0.9032E-01  0.8998E-01
     -1.804  0.4653E-02  0.1369E-02  0.9053E-01  0.9004E-01
     -1.760  0.5360E-02  0.2464E-02  0.9076E-01  0.9015E-01
     -1.716  0.5808E-02  0.3623E-02  0.9102E-01  0.9031E-01
     -1.671  0.6088E-02  0.4660E-02  0.9129E-01  0.9052E-01
     -1.627  0.6282E-02  0.5478E-02  0.9157E-01  0.9076E-01
     -1.583  0.6406E-02  0.6090E-02  0.9185E-01  0.9103E-01
     -1.539  0.6432E-02  0.6562E-02  0.9213E-01  0.9132E-01
     -1.495  0.6331E-02  0.6922E-02  0.9241E-01  0.9162E-01
     -1.451  0.6105E-02  0.7126E-02  0.9268E-01  0.9194E-01
     -1.407  0.5774E-02  0.7104E-02  0.9294E-01  0.9225E-01
     -1.363  0.5351E-02  0.6838E-02  0.9317E-01  0.9255E-01
     -1.319  0.4854E-02  0.6386E-02  0.9339E-01  0.9283E-01
     -1.274  0.4368E-02  0.5854E-02  0.9358E-01  0.9309E-01
     -1.230  0.4112E-02  0.5344E-02  0.9376E-01  0.9333E-01
     -1.186  0.4400E-02  0.4953E-02  0.9396E-01  0.9355E-01
     -1.142  0.5483E-02  0.4807E-02  0.9420E-01  0.9376E-01
     -1.098  0.7343E-02  0.5071E-02  0.9452E-01  0.9398E-01
     -1.054  0.9601E-02  0.5886E-02  0.9494E-01  0.9424E-01
     -1.010  0.1162E-01  0.7252E-02  0.9546E-01  0.9456E-01
     -0.966  0.1275E-01  0.8960E-02  0.9602E-01  0.9496E-01
     -0.921  0.1262E-01  0.1061E-01  0.9658E-01  0.9543E-01
     -0.877  0.1120E-01  0.1173E-01  0.9707E-01  0.9594E-01
     -0.833  0.8856E-02  0.1193E-01  0.9746E-01  0.9647E-01
     -0.789  0.6153E-02  0.1104E-01  0.9773E-01  0.9696E-01
     -0.745  0.3730E-02  0.9178E-02  0.9790E-01  0.9736E-01
     -0.701  0.2150E-02  0.6767E-02  0.9799E-01  0.9766E-01
     -0.657  0.1757E-02  0.4418E-02  0.9807E-01  0.9785E-01
     -0.613  0.2561E-02  0.2771E-02  0.9818E-01  0.9798E-01
     -0.568  0.4192E-02  0.2271E-02  0.9837E-01  0.9808E-01
     -0.524  0.5991E-02  0.2986E-02  0.9863E-01  0.9821E-01
     -0.480  0.7246E-02  0.4539E-02  0.9895E-01  0.9841E-01
     -0.436  0.7499E-02  0.6242E-02  0.9928E-01  0.9868E-01
     -0.392  0.6754E-02  0.7385E-02  0.9958E-01  0.9901E-01
     -0.348  0.5450E-02  0.7567E-02  0.9982E-01  0.9934E-01
     -0.304  0.4195E-02  0.6861E-02  0.1000E+00  0.9965E-01
     -0.260  0.3430E-02  0.5722E-02  0.1002E+00  0.9990E-01
     -0.216  0.3240E-02  0.4688E-02  0.1003E+00  0.1001E+00
     -0.171  0.3430E-02  0.4109E-02  0.1005E+00  0.1003E+00
     -0.127  0.3778E-02  0.4067E-02  0.1006E+00  0.1005E+00
     -0.083  0.4253E-02  0.4503E-02  0.1008E+00  0.1007E+00
     -0.039  0.5021E-02  0.5371E-02  0.1010E+00  0.1009E+00
      0.005  0.6246E-02  0.6652E-02  0.1013E+00  0.1012E+00
      0.049  0.7853E-02  0.8233E-02  0.1016E+00  0.1016E+00
      0.093  0.9450E-02  0.9779E-02  0.1021E+00  0.1020E+00
      0.137  0.1047E-01  0.1078E-01  0.1025E+00  0.1025E+00
      0.182  0.1044E-01  0.1078E-01  0.1030E+00  0.1029E+00
      0.226  0.9246E-02  0.9600E-02  0.1034E+00  0.1034E+00
      0.270  0.7166E-02  0.7491E-02  0.1037E+00  0.1037E+00
      0.314  0.4741E-02  0.4988E-02  0.1039E+00  0.1039E+00
      0.358  0.2530E-02  0.2680E-02  0.1040E+00  0.1040E+00
      0.402  0.9050E-03  0.9689E-03  0.1041E+00  0.1041E+00
      0.446 -0.3820E-04 -0.3022E-04  0.1041E+00  0.1041E+00
      0.490 -0.4200E-03 -0.4374E-03  0.1041E+00  0.1041E+00
      0.534 -0.4559E-03 -0.4781E-03  0.1040E+00  0.1040E+00
      0.579 -0.3441E-03 -0.3616E-03  0.1040E+00  0.1040E+00
      0.623 -0.2111E-03 -0.2219E-03  0.1040E+00  0.1040E+00
      0.667 -0.1105E-03 -0.1162E-03  0.1040E+00  0.1040E+00
      0.711 -0.5055E-04 -0.5313E-04  0.1040E+00  0.1040E+00
      0.755 -0.2043E-04 -0.2147E-04  0.1040E+00  0.1040E+00
      0.799 -0.7348E-05 -0.7718E-05  0.1040E+00  0.1040E+00
      0.843 -0.2363E-05 -0.2481E-05  0.1040E+00  0.1040E+00
      0.887 -0.6812E-06 -0.7153E-06  0.1040E+00  0.1040E+00
      0.932 -0.1765E-06 -0.1853E-06  0.1040E+00  0.1040E+00
      0.976 -0.4117E-07 -0.4323E-07  0.1040E+00  0.1040E+00
      1.020 -0.8652E-08 -0.9088E-08  0.1040E+00  0.1040E+00
      1.064 -0.1640E-08 -0.1724E-08  0.1040E+00  0.1040E+00
      1.108 -0.2807E-09 -0.2951E-09  0.1040E+00  0.1040E+00
      1.152 -0.4340E-10 -0.4566E-10  0.1040E+00  0.1040E+00
      1.196 -0.6064E-11 -0.6383E-11  0.1040E+00  0.1040E+00
      1.240 -0.7659E-12 -0.8069E-12  0.1040E+00  0.1040E+00
      1.285 -0.8750E-13 -0.9226E-13  0.1040E+00  0.1040E+00
      1.329 -0.9034E-14 -0.9547E-14  0.1040E+00  0.1040E+00
      1.373 -0.8506E-15 -0.8959E-15  0.1040E+00  0.1040E+00
      1.417 -0.7046E-16 -0.7549E-16  0.1040E+00  0.1040E+00
      1.461 -0.5033E-17 -0.5033E-17  0.1040E+00  0.1040E+00
      1.505  0.0000E+00  0.0000E+00  0.1040E+00  0.1040E+00
      1.549  0.0000E+00  0.0000E+00  0.1040E+00  0.1040E+00
      1.593  0.0000E+00  0.0000E+00  0.1040E+00  0.1040E+00
      1.637  0.0000E+00  0.0000E+00  0.1040E+00  0.1040E+00
      1.682  0.0000E+00  0.0000E+00  0.1040E+00  0.1040E+00
      1.726  0.0000E+00  0.0000E+00  0.1040E+00  0.1040E+00
      1.770  0.0000E+00  0.0000E+00  0.1040E+00  0.1040E+00
      1.814  0.0000E+00  0.0000E+00  0.1040E+00  0.1040E+00
      1.858  0.0000E+00  0.0000E+00  0.1040E+00  0.1040E+00
      1.902  0.0000E+00  0.0000E+00  0.1040E+00  0.1040E+00
      1.946  0.0000E+00  0.0000E+00  0.1040E+00  0.1040E+00
      1.990  0.0000E+00  0.0000E+00  0.1040E+00  0.1040E+00
      2.035  0.0000E+00  0.0000E+00  0.1040E+00  0.1040E+00
      2.079  0.0000E+00  0.0000E+00  0.1040E+00  0.1040E+00
      2.123  0.0000E+00  0.0000E+00  0.1040E+00  0.1040E+00
      2.167  0.0000E+00  0.0000E+00  0.1040E+00  0.1040E+00
      2.211  0.0000E+00  0.0000E+00  0.1040E+00  0.1040E+00
