   16   16 1000    2
  0.9480889E+03  0.2431930E-08  0.2578300E-08  0.2419271E-08  0.5000000E-15
   1.0000000000000000E-004
  CAR 
 unknown system                          
    160      1    104
 
  0.1262379E-14  0.1262379E-14  0.1262379E-14  0.1000000E+01
    1       -9.024621     -8.955779   1.000000   1.000000
    2       -8.689739     -8.495667   1.000000   1.000000
    3       -8.490692     -8.267758   1.000000   1.000000
    4       -8.452585     -8.217561   1.000000   1.000000
    5       -8.419429     -8.141550   1.000000   1.000000
    6       -8.338746     -8.084247   1.000000   1.000000
    7       -8.292477     -8.035162   1.000000   1.000000
    8       -8.210412     -7.921792   1.000000   1.000000
    9       -8.162139     -7.875609   1.000000   1.000000
   10       -8.023082     -7.714147   1.000000   1.000000
   11       -7.945556     -7.613257   1.000000   1.000000
   12       -7.875283     -7.542092   1.000000   1.000000
   13       -7.795503     -7.452580   1.000000   1.000000
   14       -7.700376     -7.366419   1.000000   1.000000
   15       -7.673484     -7.334571   1.000000   1.000000
   16       -7.570672     -7.242322   1.000000   1.000000
   17       -7.494984     -7.189041   1.000000   1.000000
   18       -7.466404     -7.175806   1.000000   1.000000
   19       -7.344527     -7.018828   1.000000   1.000000
   20       -7.237389     -6.939188   1.000000   1.000000
   21       -7.187122     -6.858994   1.000000   1.000000
   22       -7.155342     -6.803744   1.000000   1.000000
   23       -7.079561     -6.764173   1.000000   1.000000
   24       -7.025550     -6.737717   1.000000   1.000000
   25       -6.931414     -6.624154   1.000000   1.000000
   26       -6.895302     -6.567088   1.000000   1.000000
   27       -6.798497     -6.507940   1.000000   1.000000
   28       -6.753651     -6.481739   1.000000   1.000000
   29       -6.712195     -6.417146   1.000000   1.000000
   30       -6.644714     -6.340981   1.000000   1.000000
   31       -6.602808     -6.314234   1.000000   1.000000
   32       -6.551363     -6.260147   1.000000   1.000000
   33       -6.529187     -6.232980   1.000000   1.000000
   34       -6.502158     -6.197719   1.000000   1.000000
   35       -6.465148     -6.158906   1.000000   1.000000
   36       -6.397859     -6.095410   1.000000   1.000000
   37       -6.333061     -6.041043   1.000000   1.000000
   38       -6.289566     -5.958234   1.000000   1.000000
   39       -6.220723     -5.917676   1.000000   1.000000
   40       -6.157074     -5.825141   1.000000   1.000000
   41       -6.044782     -5.729042   1.000000   1.000000
   42       -6.002357     -5.695568   1.000000   1.000000
   43       -5.914669     -5.594439   1.000000   1.000000
   44       -5.873415     -5.566894   1.000000   1.000000
   45       -5.825675     -5.545189   1.000000   1.000000
   46       -5.745146     -5.449743   1.000000   1.000000
   47       -5.732285     -5.428220   1.000000   1.000000
   48       -5.633274     -5.376254   1.000000   1.000000
   49       -5.604852     -5.334414   1.000000   1.000000
   50       -5.571734     -5.271716   1.000000   1.000000
   51       -5.534590     -5.245068   1.000000   1.000000
   52       -5.510876     -5.236600   1.000000   1.000000
   53       -5.464948     -5.181323   1.000000   1.000000
   54       -5.461253     -5.153547   1.000000   1.000000
   55       -5.406143     -5.132021   1.000000   1.000000
   56       -5.371642     -5.097059   1.000000   1.000000
   57       -5.356444     -5.063076   1.000000   1.000001
   58       -5.251939     -4.971131   1.000000   1.000017
   59       -5.213710     -4.901339   1.000000   1.000134
   60       -5.187020     -4.873432   1.000000   1.000280
   61       -5.159639     -4.862146   1.000000   1.000373
   62       -5.128314     -4.828110   1.000000   1.000846
   63       -5.098690     -4.817433   1.000000   1.001080
   64       -5.074659     -4.765588   1.000001   1.003206
   65       -5.038180     -4.713500   1.000002   1.008101
   66       -4.978355     -4.689810   1.000014   1.011637
   67       -4.910821     -4.595971   1.000103   1.031466
   68       -4.905382     -4.583374   1.000120   1.033568
   69       -4.855889     -4.549141   1.000435   1.035035
   70       -4.837166     -4.521675   1.000685   1.028535
   71       -4.822399     -4.481569   1.000965   0.998749
   72       -4.775417     -4.475832   1.002641   0.991958
   73       -4.767306     -4.437082   1.003101   0.926117
   74       -4.739463     -4.423954   1.005216   0.895401
   75       -4.734894     -4.379351   1.005654   0.759711
   76       -4.718590     -4.337222   1.007457   0.596210
   77       -4.673452     -4.322272   1.014599   0.533625
   78       -4.651458     -4.233619   1.019175   0.187400
   79       -4.619821     -4.179036   1.026410   0.048632
   80       -4.600087     -4.133188   1.030671  -0.012364
   81       -4.588721     -4.078247   1.032745  -0.035136
   82       -4.507503     -4.048066   1.021220  -0.033952
   83       -4.489769     -4.009882   1.007257  -0.026652
   84       -4.408155     -3.956709   0.852705  -0.014895
   85       -3.751907     -3.520607  -0.000257  -0.000000
   86       -3.454773     -3.268174  -0.000000  -0.000000
   87       -3.388387     -3.195874  -0.000000  -0.000000
   88       -3.048556     -2.881173  -0.000000  -0.000000
   89       -2.779615     -2.622274  -0.000000  -0.000000
   90       -2.579646     -2.418522  -0.000000  -0.000000
   91       -1.816166     -1.682412  -0.000000  -0.000000
   92       -1.635824     -1.505741  -0.000000  -0.000000
   93       -1.484321     -1.379645  -0.000000  -0.000000
   94       -1.303496     -1.202342  -0.000000  -0.000000
   95       -1.067842     -1.000628  -0.000000  -0.000000
   96       -0.994501     -0.899923  -0.000000  -0.000000
   97       -0.947393     -0.837636  -0.000000  -0.000000
   98       -0.846646     -0.750712  -0.000000  -0.000000
   99       -0.509273     -0.425570  -0.000000  -0.000000
  100       -0.441114     -0.365105  -0.000000  -0.000000
  101       -0.164047     -0.122403  -0.000000  -0.000000
  102        0.059666      0.071817  -0.000000  -0.000000
  103        0.141295      0.147533  -0.000000  -0.000000
  104        0.210125      0.210996  -0.000000  -0.000000
