       N       E                     dE             d eps       ncg     rms          rms(c)
DAV:   1     0.142506998020E+04    0.14251E+04   -0.26526E+04   416   0.726E+02
DAV:   2     0.756575868543E+03   -0.66849E+03   -0.59818E+03   800   0.835E+01
DAV:   3     0.152201500990E+03   -0.60437E+03   -0.56248E+03   696   0.817E+01
DAV:   4    -0.363176967627E+02   -0.18852E+03   -0.17094E+03   568   0.503E+01
DAV:   5    -0.638676729771E+02   -0.27550E+02   -0.22582E+02   568   0.183E+01    0.261E+01
DAV:   6    -0.578156573908E+02    0.60520E+01   -0.39331E+01   424   0.132E+01    0.134E+01
DAV:   7    -0.522877700290E+02    0.55279E+01   -0.15521E+01   456   0.236E+01    0.190E+01
DAV:   8    -0.491817177322E+02    0.31061E+01   -0.10727E+01   448   0.219E+01    0.858E+00
DAV:   9    -0.494654817870E+02   -0.28376E+00   -0.39873E+00   456   0.128E+01    0.858E+00
DAV:  10    -0.497075556818E+02   -0.24207E+00   -0.14649E+00   456   0.826E+00    0.368E+00
DAV:  11    -0.508693248805E+02   -0.11618E+01   -0.70643E-01   456   0.437E+00    0.327E+00
DAV:  12    -0.523689817985E+02   -0.14997E+01   -0.47884E-01   432   0.335E+00    0.268E+00
DAV:  13    -0.540271003637E+02   -0.16581E+01   -0.57084E-01   448   0.338E+00    0.273E+00
DAV:  14    -0.555360634521E+02   -0.15090E+01   -0.45454E-01   432   0.273E+00    0.153E+00
DAV:  15    -0.562612816389E+02   -0.72522E+00   -0.13993E-01   472   0.177E+00    0.127E+00
DAV:  16    -0.569269259528E+02   -0.66564E+00   -0.10603E-01   448   0.136E+00    0.115E+00
DAV:  17    -0.576319937857E+02   -0.70507E+00   -0.11824E-01   440   0.115E+00    0.862E-01
DAV:  18    -0.585810890720E+02   -0.94910E+00   -0.15620E-01   424   0.105E+00    0.781E-01
DAV:  19    -0.592728560245E+02   -0.69177E+00   -0.96672E-02   456   0.936E-01    0.655E-01
DAV:  20    -0.599919100406E+02   -0.71905E+00   -0.96262E-02   424   0.912E-01    0.529E-01
DAV:  21    -0.604231165852E+02   -0.43121E+00   -0.44514E-02   472   0.610E-01    0.431E-01
DAV:  22    -0.607895496500E+02   -0.36643E+00   -0.21327E-02   448   0.496E-01    0.288E-01
DAV:  23    -0.611692240383E+02   -0.37967E+00   -0.14147E-02   440   0.387E-01    0.250E-01
DAV:  24    -0.614727632640E+02   -0.30354E+00   -0.99734E-03   440   0.321E-01    0.178E-01
DAV:  25    -0.617332535224E+02   -0.26049E+00   -0.82121E-03   472   0.252E-01    0.135E-01
DAV:  26    -0.618558743940E+02   -0.12262E+00   -0.25383E-03   480   0.180E-01    0.103E-01
DAV:  27    -0.619571729503E+02   -0.10130E+00   -0.19543E-03   456   0.120E-01    0.576E-02
DAV:  28    -0.620168308697E+02   -0.59658E-01   -0.86512E-04   424   0.855E-02    0.587E-02
DAV:  29    -0.620402588896E+02   -0.23428E-01   -0.21799E-04   328   0.683E-02    0.356E-02
DAV:  30    -0.620648385580E+02   -0.24580E-01   -0.31167E-04   360   0.386E-02    0.223E-02
DAV:  31    -0.620769360115E+02   -0.12097E-01   -0.10228E-04   312   0.349E-02    0.218E-02
DAV:  32    -0.620826353722E+02   -0.56994E-02   -0.88027E-05   304   0.291E-02    0.145E-02
DAV:  33    -0.620865192732E+02   -0.38839E-02   -0.51805E-05   304   0.179E-02    0.104E-02
DAV:  34    -0.620885448352E+02   -0.20256E-02   -0.27457E-05   304   0.139E-02    0.820E-03
DAV:  35    -0.620902548904E+02   -0.17101E-02   -0.22315E-05   280   0.109E-02    0.668E-03
DAV:  36    -0.620918222415E+02   -0.15674E-02   -0.23066E-05   280   0.999E-03    0.488E-03
DAV:  37    -0.620925076086E+02   -0.68537E-03   -0.15537E-05   280   0.792E-03    0.388E-03
DAV:  38    -0.620930646138E+02   -0.55701E-03   -0.95578E-06   272   0.648E-03    0.237E-03
DAV:  39    -0.620935734240E+02   -0.50881E-03   -0.63359E-06   256   0.437E-03    0.167E-03
DAV:  40    -0.620938325532E+02   -0.25913E-03   -0.31256E-06   272   0.335E-03    0.130E-03
DAV:  41    -0.620940274569E+02   -0.19490E-03   -0.19796E-06   256   0.256E-03    0.905E-04
DAV:  42    -0.620941765785E+02   -0.14912E-03   -0.11886E-06   256   0.204E-03    0.623E-04
DAV:  43    -0.620942599814E+02   -0.83403E-04   -0.63551E-07   240   0.150E-03
   1 F= -.62094260E+02 E0= -.62106292E+02  d E =-.620943E+02  mag=     7.9032
       N       E                     dE             d eps       ncg     rms          rms(c)
DAV:   1    -0.621939070536E+02   -0.99730E-01   -0.96502E+01   416   0.257E+01    0.252E+00
DAV:   2    -0.623560643116E+02   -0.16216E+00   -0.16952E+00   416   0.505E+00    0.322E+00
DAV:   3    -0.623314222714E+02    0.24642E-01   -0.52292E-01   424   0.438E+00    0.240E+00
DAV:   4    -0.623231659602E+02    0.82563E-02   -0.17099E-01   424   0.256E+00    0.213E+00
DAV:   5    -0.623019261561E+02    0.21240E-01   -0.78168E-02   424   0.193E+00    0.103E+00
DAV:   6    -0.623039255577E+02   -0.19994E-02   -0.56785E-02   440   0.141E+00    0.122E+00
DAV:   7    -0.622982584216E+02    0.56671E-02   -0.41120E-02   432   0.121E+00    0.893E-01
DAV:   8    -0.622940649240E+02    0.41935E-02   -0.13223E-02   424   0.768E-01    0.282E-01
DAV:   9    -0.622941324740E+02   -0.67550E-04   -0.28396E-03   440   0.321E-01    0.187E-01
DAV:  10    -0.622943966425E+02   -0.26417E-03   -0.11273E-03   408   0.206E-01    0.141E-01
DAV:  11    -0.622948783968E+02   -0.48175E-03   -0.53278E-04   312   0.139E-01    0.103E-01
DAV:  12    -0.622955411469E+02   -0.66275E-03   -0.27529E-04   272   0.982E-02    0.476E-02
DAV:  13    -0.622960208740E+02   -0.47973E-03   -0.99058E-05   280   0.489E-02    0.281E-02
DAV:  14    -0.622968458897E+02   -0.82502E-03   -0.40703E-05   264   0.290E-02    0.206E-02
DAV:  15    -0.622978690328E+02   -0.10231E-02   -0.28648E-05   288   0.217E-02    0.191E-02
DAV:  16    -0.622990592920E+02   -0.11903E-02   -0.27968E-05   288   0.183E-02    0.141E-02
DAV:  17    -0.623003343338E+02   -0.12750E-02   -0.29231E-05   280   0.143E-02    0.118E-02
DAV:  18    -0.623015893745E+02   -0.12550E-02   -0.28806E-05   288   0.139E-02    0.103E-02
DAV:  19    -0.623034611597E+02   -0.18718E-02   -0.61387E-05   296   0.139E-02    0.878E-03
DAV:  20    -0.623049440856E+02   -0.14829E-02   -0.62970E-05   312   0.136E-02    0.714E-03
DAV:  21    -0.623058283605E+02   -0.88427E-03   -0.28898E-05   304   0.106E-02    0.407E-03
DAV:  22    -0.623065171037E+02   -0.68874E-03   -0.20874E-05   288   0.760E-03    0.319E-03
DAV:  23    -0.623071957158E+02   -0.67861E-03   -0.18612E-05   280   0.733E-03    0.256E-03
DAV:  24    -0.623076595599E+02   -0.46384E-03   -0.14029E-05   304   0.644E-03    0.186E-03
DAV:  25    -0.623080051946E+02   -0.34563E-03   -0.99236E-06   248   0.531E-03    0.132E-03
DAV:  26    -0.623082160399E+02   -0.21085E-03   -0.57407E-06   288   0.405E-03    0.102E-03
DAV:  27    -0.623084138297E+02   -0.19779E-03   -0.36648E-06   280   0.321E-03    0.632E-04
DAV:  28    -0.623085434695E+02   -0.12964E-03   -0.23250E-06   288   0.263E-03    0.438E-04
DAV:  29    -0.623085818593E+02   -0.38390E-04   -0.12373E-06   256   0.186E-03
   2 F= -.62308582E+02 E0= -.62320162E+02  d E =-.214322E+00  mag=     8.0568
       N       E                     dE             d eps       ncg     rms          rms(c)
DAV:   1    -0.622990965679E+02    0.94469E-02   -0.32228E+01   416   0.148E+01    0.138E+00
DAV:   2    -0.623533334930E+02   -0.54237E-01   -0.57624E-01   432   0.292E+00    0.186E+00
DAV:   3    -0.623438551731E+02    0.94783E-02   -0.16148E-01   440   0.245E+00    0.130E+00
DAV:   4    -0.623411464073E+02    0.27088E-02   -0.48272E-02   432   0.133E+00    0.108E+00
DAV:   5    -0.623358514530E+02    0.52950E-02   -0.21429E-02   432   0.100E+00    0.573E-01
DAV:   6    -0.623362947290E+02   -0.44328E-03   -0.16120E-02   440   0.762E-01    0.668E-01
DAV:   7    -0.623346752087E+02    0.16195E-02   -0.13364E-02   440   0.662E-01    0.531E-01
DAV:   8    -0.623333237471E+02    0.13515E-02   -0.47178E-03   424   0.430E-01    0.170E-01
DAV:   9    -0.623334335986E+02   -0.10985E-03   -0.10137E-03   416   0.192E-01    0.115E-01
DAV:  10    -0.623335487114E+02   -0.11511E-03   -0.38244E-04   272   0.121E-01    0.788E-02
DAV:  11    -0.623337463007E+02   -0.19759E-03   -0.16772E-04   256   0.769E-02    0.569E-02
DAV:  12    -0.623340440957E+02   -0.29779E-03   -0.10271E-04   280   0.548E-02    0.267E-02
DAV:  13    -0.623342213730E+02   -0.17728E-03   -0.35981E-05   256   0.291E-02    0.142E-02
DAV:  14    -0.623345003286E+02   -0.27896E-03   -0.14771E-05   272   0.156E-02    0.979E-03
DAV:  15    -0.623348019510E+02   -0.30162E-03   -0.85404E-06   288   0.112E-02    0.907E-03
DAV:  16    -0.623351488846E+02   -0.34693E-03   -0.78513E-06   280   0.911E-03    0.715E-03
DAV:  17    -0.623354932342E+02   -0.34435E-03   -0.72903E-06   296   0.736E-03    0.573E-03
DAV:  18    -0.623358293044E+02   -0.33607E-03   -0.68642E-06   280   0.673E-03    0.446E-03
DAV:  19    -0.623363730151E+02   -0.54371E-03   -0.13330E-05   304   0.637E-03    0.420E-03
DAV:  20    -0.623368774043E+02   -0.50439E-03   -0.15757E-05   304   0.696E-03    0.368E-03
DAV:  21    -0.623372776636E+02   -0.40026E-03   -0.15136E-05   304   0.650E-03    0.200E-03
DAV:  22    -0.623374715230E+02   -0.19386E-03   -0.83847E-06   288   0.481E-03    0.156E-03
DAV:  23    -0.623376750458E+02   -0.20352E-03   -0.64476E-06   288   0.393E-03    0.112E-03
DAV:  24    -0.623378532603E+02   -0.17821E-03   -0.47119E-06   288   0.351E-03    0.875E-04
DAV:  25    -0.623379789637E+02   -0.12570E-03   -0.35388E-06   272   0.295E-03    0.672E-04
DAV:  26    -0.623380525321E+02   -0.73568E-04   -0.20824E-06   272   0.236E-03
   3 F= -.62338053E+02 E0= -.62349292E+02  d E =-.243793E+00  mag=     8.1282
       N       E                     dE             d eps       ncg     rms          rms(c)
DAV:   1    -0.623462200120E+02   -0.82410E-02   -0.79987E+00   416   0.739E+00    0.559E-01
DAV:   2    -0.623648587016E+02   -0.18639E-01   -0.15306E-01   456   0.175E+00    0.143E+00
DAV:   3    -0.623554784752E+02    0.93802E-02   -0.41409E-02   432   0.131E+00    0.387E-01
DAV:   4    -0.623565673711E+02   -0.10889E-02   -0.10176E-02   432   0.552E-01    0.437E-01
DAV:   5    -0.623556709534E+02    0.89642E-03   -0.33771E-03   440   0.376E-01    0.216E-01
DAV:   6    -0.623560211979E+02   -0.35024E-03   -0.23686E-03   448   0.283E-01    0.305E-01
DAV:   7    -0.623557667531E+02    0.25444E-03   -0.22324E-03   440   0.252E-01    0.191E-01
DAV:   8    -0.623556906846E+02    0.76068E-04   -0.81462E-04   384   0.189E-01
   4 F= -.62355691E+02 E0= -.62368266E+02  d E =-.176382E-01  mag=     8.1260
       N       E                     dE             d eps       ncg     rms          rms(c)
DAV:   1    -0.623503617911E+02    0.54050E-02   -0.10145E+01   416   0.832E+00    0.633E-01
DAV:   2    -0.623736951919E+02   -0.23333E-01   -0.19835E-01   448   0.196E+00    0.160E+00
DAV:   3    -0.623624140401E+02    0.11281E-01   -0.56021E-02   440   0.148E+00    0.448E-01
DAV:   4    -0.623635971549E+02   -0.11831E-02   -0.13444E-02   432   0.630E-01    0.492E-01
DAV:   5    -0.623625169814E+02    0.10802E-02   -0.48333E-03   432   0.430E-01    0.277E-01
DAV:   6    -0.623626804732E+02   -0.16349E-03   -0.28919E-03   440   0.311E-01    0.288E-01
DAV:   7    -0.623625141714E+02    0.16630E-03   -0.20947E-03   440   0.249E-01    0.199E-01
DAV:   8    -0.623623812022E+02    0.13297E-03   -0.87199E-04   384   0.211E-01    0.126E-01
DAV:   9    -0.623623579576E+02    0.23245E-04   -0.38145E-04   280   0.129E-01
   5 F= -.62362358E+02 E0= -.62376264E+02  d E =-.243054E-01  mag=     8.1202
       N       E                     dE             d eps       ncg     rms          rms(c)
DAV:   1    -0.623632032699E+02   -0.82207E-03   -0.10014E+01   416   0.826E+00    0.519E-01
DAV:   2    -0.623804251492E+02   -0.17222E-01   -0.17216E-01   448   0.171E+00    0.100E+00
DAV:   3    -0.623760263237E+02    0.43988E-02   -0.29486E-02   432   0.114E+00    0.348E-01
DAV:   4    -0.623766971537E+02   -0.67083E-03   -0.70636E-03   432   0.471E-01    0.444E-01
DAV:   5    -0.623757481686E+02    0.94899E-03   -0.33551E-03   432   0.342E-01    0.188E-01
DAV:   6    -0.623759248357E+02   -0.17667E-03   -0.12039E-03   456   0.216E-01    0.209E-01
DAV:   7    -0.623759314393E+02   -0.66035E-05   -0.14907E-03   440   0.230E-01    0.204E-01
DAV:   8    -0.623757738145E+02    0.15762E-03   -0.82883E-04   360   0.191E-01    0.754E-02
DAV:   9    -0.623758752657E+02   -0.10145E-03   -0.18692E-04   280   0.811E-02    0.381E-02
DAV:  10    -0.623759284922E+02   -0.53227E-04   -0.44495E-05   256   0.400E-02
   6 F= -.62375928E+02 E0= -.62391194E+02  d E =-.135705E-01  mag=     8.1113
       N       E                     dE             d eps       ncg     rms          rms(c)
DAV:   1    -0.623242909228E+02    0.51584E-01   -0.49013E+01   416   0.183E+01    0.114E+00
DAV:   2    -0.624093815602E+02   -0.85091E-01   -0.82943E-01   448   0.375E+00    0.216E+00
DAV:   3    -0.623888582224E+02    0.20523E-01   -0.14190E-01   440   0.246E+00    0.750E-01
DAV:   4    -0.623912922284E+02   -0.24340E-02   -0.33879E-02   440   0.103E+00    0.987E-01
DAV:   5    -0.623866860757E+02    0.46062E-02   -0.15129E-02   432   0.744E-01    0.394E-01
DAV:   6    -0.623870418607E+02   -0.35578E-03   -0.61375E-03   448   0.473E-01    0.431E-01
DAV:   7    -0.623866220252E+02    0.41984E-03   -0.71017E-03   440   0.490E-01    0.376E-01
DAV:   8    -0.623861908099E+02    0.43122E-03   -0.34805E-03   432   0.390E-01    0.179E-01
DAV:   9    -0.623863630326E+02   -0.17222E-03   -0.81750E-04   392   0.180E-01    0.949E-02
DAV:  10    -0.623864681999E+02   -0.10517E-03   -0.21362E-04   272   0.930E-02    0.617E-02
DAV:  11    -0.623866345427E+02   -0.16634E-03   -0.79831E-05   272   0.591E-02    0.443E-02
DAV:  12    -0.623868786359E+02   -0.24409E-03   -0.64299E-05   280   0.430E-02    0.278E-02
DAV:  13    -0.623871300249E+02   -0.25139E-03   -0.40171E-05   272   0.295E-02    0.199E-02
DAV:  14    -0.623872908711E+02   -0.16085E-03   -0.19548E-05   280   0.228E-02    0.951E-03
DAV:  15    -0.623874742066E+02   -0.18334E-03   -0.95930E-06   272   0.121E-02    0.553E-03
DAV:  16    -0.623875900658E+02   -0.11586E-03   -0.39557E-06   272   0.738E-03    0.390E-03
DAV:  17    -0.623877698941E+02   -0.17983E-03   -0.35602E-06   272   0.454E-03    0.302E-03
DAV:  18    -0.623878788083E+02   -0.10891E-03   -0.21862E-06   272   0.368E-03    0.232E-03
DAV:  19    -0.623881322359E+02   -0.25343E-03   -0.47733E-06   264   0.368E-03    0.212E-03
DAV:  20    -0.623883100028E+02   -0.17777E-03   -0.38886E-06   296   0.347E-03    0.157E-03
DAV:  21    -0.623885225519E+02   -0.21255E-03   -0.55438E-06   288   0.344E-03    0.114E-03
DAV:  22    -0.623886631137E+02   -0.14056E-03   -0.47418E-06   288   0.299E-03    0.935E-04
DAV:  23    -0.623887618398E+02   -0.98726E-04   -0.38728E-06   288   0.285E-03
   7 F= -.62388762E+02 E0= -.62407013E+02  d E =-.264039E-01  mag=     8.0766
       N       E                     dE             d eps       ncg     rms          rms(c)
DAV:   1    -0.623823496561E+02    0.63135E-02   -0.14129E+01   416   0.980E+00    0.677E-01
DAV:   2    -0.624147657116E+02   -0.32416E-01   -0.25626E-01   440   0.227E+00    0.185E+00
DAV:   3    -0.624003834152E+02    0.14382E-01   -0.67072E-02   440   0.166E+00    0.592E-01
DAV:   4    -0.624010138511E+02   -0.63044E-03   -0.14190E-02   440   0.706E-01    0.502E-01
DAV:   5    -0.623999472175E+02    0.10666E-02   -0.46021E-03   456   0.422E-01    0.289E-01
DAV:   6    -0.623999254693E+02    0.21748E-04   -0.25304E-03   448   0.301E-01    0.268E-01
DAV:   7    -0.623996880105E+02    0.23746E-03   -0.25790E-03   448   0.275E-01    0.222E-01
DAV:   8    -0.623994596947E+02    0.22832E-03   -0.12736E-03   432   0.242E-01    0.124E-01
DAV:   9    -0.623994930048E+02   -0.33310E-04   -0.42465E-04   272   0.134E-01
   8 F= -.62399493E+02 E0= -.62419055E+02  d E =-.107312E-01  mag=     8.0688
       N       E                     dE             d eps       ncg     rms          rms(c)
DAV:   1    -0.623616206268E+02    0.37839E-01   -0.34323E+01   416   0.153E+01    0.106E+00
DAV:   2    -0.624400865465E+02   -0.78466E-01   -0.63622E-01   448   0.353E+00    0.287E+00
DAV:   3    -0.624066307999E+02    0.33456E-01   -0.17871E-01   440   0.256E+00    0.943E-01
DAV:   4    -0.624069458404E+02   -0.31504E-03   -0.35756E-02   440   0.113E+00    0.776E-01
DAV:   5    -0.624043111618E+02    0.26347E-02   -0.96704E-03   440   0.671E-01    0.455E-01
DAV:   6    -0.624041551408E+02    0.15602E-03   -0.59565E-03   440   0.477E-01    0.416E-01
DAV:   7    -0.624035730256E+02    0.58212E-03   -0.61993E-03   440   0.425E-01    0.339E-01
DAV:   8    -0.624031594703E+02    0.41356E-03   -0.30601E-03   440   0.370E-01    0.186E-01
DAV:   9    -0.624033120711E+02   -0.15260E-03   -0.98771E-04   416   0.203E-01    0.125E-01
DAV:  10    -0.624034285708E+02   -0.11650E-03   -0.29937E-04   296   0.111E-01    0.480E-02
DAV:  11    -0.624036361331E+02   -0.20756E-03   -0.67613E-05   288   0.469E-02    0.372E-02
DAV:  12    -0.624039089070E+02   -0.27277E-03   -0.53586E-05   280   0.372E-02    0.261E-02
DAV:  13    -0.624041312110E+02   -0.22230E-03   -0.30054E-05   288   0.255E-02    0.185E-02
DAV:  14    -0.624043278020E+02   -0.19659E-03   -0.18087E-05   264   0.199E-02    0.105E-02
DAV:  15    -0.624045120575E+02   -0.18426E-03   -0.96633E-06   288   0.120E-02    0.637E-03
DAV:  16    -0.624046316636E+02   -0.11961E-03   -0.43997E-06   256   0.788E-03    0.425E-03
DAV:  17    -0.624048322476E+02   -0.20058E-03   -0.41904E-06   288   0.468E-03    0.309E-03
DAV:  18    -0.624049852819E+02   -0.15303E-03   -0.29434E-06   256   0.372E-03    0.249E-03
DAV:  19    -0.624052978402E+02   -0.31256E-03   -0.67239E-06   288   0.400E-03    0.205E-03
DAV:  20    -0.624055581828E+02   -0.26034E-03   -0.68835E-06   296   0.398E-03    0.187E-03
DAV:  21    -0.624057483167E+02   -0.19013E-03   -0.61215E-06   296   0.400E-03    0.129E-03
DAV:  22    -0.624058907813E+02   -0.14246E-03   -0.54626E-06   280   0.328E-03    0.979E-04
DAV:  23    -0.624059940353E+02   -0.10325E-03   -0.39644E-06   296   0.303E-03    0.880E-04
DAV:  24    -0.624060858737E+02   -0.91838E-04   -0.34701E-06   280   0.267E-03
   9 F= -.62406086E+02 E0= -.62427660E+02  d E =-.173240E-01  mag=     8.0316
       N       E                     dE             d eps       ncg     rms          rms(c)
DAV:   1    -0.623954155133E+02    0.10579E-01   -0.15408E+01   416   0.102E+01    0.612E-01
DAV:   2    -0.624201398168E+02   -0.24724E-01   -0.25584E-01   432   0.201E+00    0.107E+00
DAV:   3    -0.624161527083E+02    0.39871E-02   -0.39983E-02   432   0.131E+00    0.489E-01
DAV:   4    -0.624160366884E+02    0.11602E-03   -0.10301E-02   440   0.583E-01    0.425E-01
DAV:   5    -0.624152148833E+02    0.82181E-03   -0.36474E-03   448   0.375E-01    0.224E-01
DAV:   6    -0.624154202834E+02   -0.20540E-03   -0.23623E-03   456   0.293E-01    0.313E-01
DAV:   7    -0.624150859288E+02    0.33435E-03   -0.32649E-03   448   0.310E-01    0.240E-01
DAV:   8    -0.624147732555E+02    0.31267E-03   -0.13072E-03   448   0.223E-01    0.690E-02
DAV:   9    -0.624147893085E+02   -0.16053E-04   -0.18529E-04   288   0.790E-02
  10 F= -.62414789E+02 E0= -.62438092E+02  d E =-.870343E-02  mag=     8.0245
       N       E                     dE             d eps       ncg     rms          rms(c)
DAV:   1    -0.623916445264E+02    0.23129E-01   -0.19848E+01   416   0.116E+01    0.702E-01
DAV:   2    -0.624238725516E+02   -0.32228E-01   -0.33250E-01   440   0.229E+00    0.121E+00
DAV:   3    -0.624183894133E+02    0.54831E-02   -0.52984E-02   432   0.150E+00    0.538E-01
DAV:   4    -0.624181876908E+02    0.20172E-03   -0.12808E-02   432   0.657E-01    0.473E-01
DAV:   5    -0.624171165415E+02    0.10711E-02   -0.45319E-03   432   0.427E-01    0.245E-01
DAV:   6    -0.624173786975E+02   -0.26216E-03   -0.29996E-03   448   0.326E-01    0.349E-01
DAV:   7    -0.624170113094E+02    0.36739E-03   -0.38578E-03   448   0.346E-01    0.269E-01
DAV:   8    -0.624166744607E+02    0.33685E-03   -0.15656E-03   448   0.246E-01    0.769E-02
DAV:   9    -0.624167301611E+02   -0.55700E-04   -0.22801E-04   288   0.890E-02
  11 F= -.62416730E+02 E0= -.62441488E+02  d E =-.106443E-01  mag=     8.0137
       N       E                     dE             d eps       ncg     rms          rms(c)
DAV:   1    -0.624096870942E+02    0.69874E-02   -0.90969E+00   416   0.788E+00    0.507E-01
DAV:   2    -0.624248864602E+02   -0.15199E-01   -0.15691E-01   432   0.162E+00    0.882E-01
DAV:   3    -0.624222093558E+02    0.26771E-02   -0.28497E-02   424   0.109E+00    0.458E-01
DAV:   4    -0.624221529940E+02    0.56362E-04   -0.79391E-03   432   0.534E-01    0.394E-01
DAV:   5    -0.624215615262E+02    0.59147E-03   -0.28046E-03   432   0.336E-01    0.213E-01
DAV:   6    -0.624216461051E+02   -0.84579E-04   -0.16022E-03   448   0.237E-01    0.202E-01
DAV:   7    -0.624216541768E+02   -0.80716E-05   -0.15450E-03   448   0.223E-01    0.157E-01
DAV:   8    -0.624215662487E+02    0.87928E-04   -0.69488E-04   360   0.174E-01
  12 F= -.62421566E+02 E0= -.62446504E+02  d E =-.483609E-02  mag=     8.0035
       N       E                     dE             d eps       ncg     rms          rms(c)
DAV:   1    -0.624202613028E+02    0.13929E-02   -0.12261E+00   432   0.289E+00    0.200E-01
DAV:   2    -0.624226090763E+02   -0.23478E-02   -0.22400E-02   432   0.638E-01    0.405E-01
DAV:   3    -0.624219155468E+02    0.69353E-03   -0.48536E-03   424   0.464E-01    0.168E-01
DAV:   4    -0.624220287813E+02   -0.11323E-03   -0.10351E-03   424   0.207E-01    0.131E-01
DAV:   5    -0.624220261207E+02    0.26607E-05   -0.39537E-04   256   0.128E-01
  13 F= -.62422026E+02 E0= -.62446806E+02  d E =-.529596E-02  mag=     7.9994
       N       E                     dE             d eps       ncg     rms          rms(c)
DAV:   1    -0.624170465363E+02    0.49822E-02   -0.63419E+00   416   0.658E+00    0.381E-01
DAV:   2    -0.624273711496E+02   -0.10325E-01   -0.10031E-01   440   0.122E+00    0.739E-01
DAV:   3    -0.624260188768E+02    0.13523E-02   -0.16928E-02   432   0.797E-01    0.417E-01
DAV:   4    -0.624257884582E+02    0.23042E-03   -0.51360E-03   432   0.426E-01    0.303E-01
DAV:   5    -0.624254801664E+02    0.30829E-03   -0.14625E-03   432   0.250E-01    0.159E-01
DAV:   6    -0.624257428910E+02   -0.26272E-03   -0.12263E-03   432   0.207E-01    0.198E-01
DAV:   7    -0.624257712152E+02   -0.28324E-04   -0.13276E-03   432   0.203E-01    0.117E-01
DAV:   8    -0.624258544791E+02   -0.83264E-04   -0.41742E-04   312   0.132E-01
  14 F= -.62425854E+02 E0= -.62450672E+02  d E =-.382836E-02  mag=     7.9951
       N       E                     dE             d eps       ncg     rms          rms(c)
DAV:   1    -0.624236748785E+02    0.20963E-02   -0.19126E+00   416   0.361E+00    0.225E-01
DAV:   2    -0.624270988310E+02   -0.34240E-02   -0.32223E-02   440   0.712E-01    0.500E-01
DAV:   3    -0.624263816304E+02    0.71720E-03   -0.66944E-03   432   0.500E-01    0.238E-01
DAV:   4    -0.624264208111E+02   -0.39181E-04   -0.17868E-03   432   0.251E-01    0.171E-01
DAV:   5    -0.624263514704E+02    0.69341E-04   -0.48400E-04   288   0.149E-01
  15 F= -.62426351E+02 E0= -.62451007E+02  d E =-.432535E-02  mag=     7.9943
       N       E                     dE             d eps       ncg     rms          rms(c)
DAV:   1    -0.624189069541E+02    0.75139E-02   -0.77753E+00   416   0.728E+00    0.440E-01
DAV:   2    -0.624335322232E+02   -0.14625E-01   -0.13182E-01   432   0.146E+00    0.106E+00
DAV:   3    -0.624294433237E+02    0.40889E-02   -0.28926E-02   432   0.101E+00    0.461E-01
DAV:   4    -0.624295706374E+02   -0.12731E-03   -0.71851E-03   448   0.486E-01    0.335E-01
DAV:   5    -0.624291020366E+02    0.46860E-03   -0.20862E-03   440   0.285E-01    0.176E-01
DAV:   6    -0.624293025846E+02   -0.20055E-03   -0.13863E-03   448   0.237E-01    0.227E-01
DAV:   7    -0.624290576051E+02    0.24498E-03   -0.16611E-03   464   0.223E-01    0.126E-01
DAV:   8    -0.624289938316E+02    0.63773E-04   -0.51405E-04   336   0.147E-01
  16 F= -.62428994E+02 E0= -.62453482E+02  d E =-.264236E-02  mag=     8.0009
       N       E                     dE             d eps       ncg     rms          rms(c)
DAV:   1    -0.624267486705E+02    0.23089E-02   -0.18119E+00   440   0.351E+00    0.236E-01
DAV:   2    -0.624303119131E+02   -0.35632E-02   -0.33443E-02   432   0.772E-01    0.570E-01
DAV:   3    -0.624289857146E+02    0.13262E-02   -0.80578E-03   424   0.565E-01    0.220E-01
DAV:   4    -0.624291408895E+02   -0.15517E-03   -0.20505E-03   424   0.259E-01    0.197E-01
DAV:   5    -0.624289700862E+02    0.17080E-03   -0.65745E-04   272   0.159E-01    0.937E-02
DAV:   6    -0.624289676352E+02    0.24510E-05   -0.21772E-04   256   0.106E-01
  17 F= -.62428968E+02 E0= -.62453208E+02  d E =-.261616E-02  mag=     8.0073
       N       E                     dE             d eps       ncg     rms          rms(c)
DAV:   1    -0.624181487437E+02    0.10821E-01   -0.92552E+00   424   0.792E+00    0.432E-01
DAV:   2    -0.624316794708E+02   -0.13531E-01   -0.14115E-01   440   0.137E+00    0.669E-01
DAV:   3    -0.624313373694E+02    0.34210E-03   -0.19907E-02   424   0.855E-01    0.473E-01
DAV:   4    -0.624306501741E+02    0.68720E-03   -0.65290E-03   424   0.465E-01    0.299E-01
DAV:   5    -0.624303780443E+02    0.27213E-03   -0.18252E-03   424   0.263E-01    0.215E-01
DAV:   6    -0.624303772765E+02    0.76775E-06   -0.20096E-03   432   0.238E-01    0.223E-01
DAV:   7    -0.624301609437E+02    0.21633E-03   -0.16300E-03   432   0.214E-01    0.973E-02
DAV:   8    -0.624302120506E+02   -0.51107E-04   -0.34723E-04   320   0.131E-01
  18 F= -.62430212E+02 E0= -.62454748E+02  d E =-.124442E-02  mag=     8.0181
       N       E                     dE             d eps       ncg     rms          rms(c)
DAV:   1    -0.624302301751E+02   -0.69231E-04   -0.94098E-03   448   0.259E-01    0.388E-02
DAV:   2    -0.624303424406E+02   -0.11227E-03   -0.31933E-04   280   0.102E-01    0.890E-02
DAV:   3    -0.624303364668E+02    0.59738E-05   -0.18643E-04   248   0.930E-02
  19 F= -.62430336E+02 E0= -.62454812E+02  d E =-.136883E-02  mag=     8.0209
       N       E                     dE             d eps       ncg     rms          rms(c)
DAV:   1    -0.624283672408E+02    0.19752E-02   -0.23288E+00   416   0.399E+00    0.281E-01
DAV:   2    -0.624323880104E+02   -0.40208E-02   -0.41560E-02   424   0.812E-01    0.600E-01
DAV:   3    -0.624313477279E+02    0.10403E-02   -0.10005E-02   424   0.595E-01    0.303E-01
DAV:   4    -0.624314473686E+02   -0.99641E-04   -0.30428E-03   424   0.328E-01    0.197E-01
DAV:   5    -0.624313351718E+02    0.11220E-03   -0.96384E-04   368   0.203E-01    0.127E-01
DAV:   6    -0.624313438916E+02   -0.87198E-05   -0.56257E-04   272   0.142E-01
  20 F= -.62431344E+02 E0= -.62455982E+02  d E =-.100742E-02  mag=     8.0294
       N       E                     dE             d eps       ncg     rms          rms(c)
DAV:   1    -0.624312196723E+02    0.11550E-03   -0.19092E-01   440   0.114E+00    0.107E-01
DAV:   2    -0.624318361329E+02   -0.61646E-03   -0.54647E-03   432   0.373E-01    0.304E-01
DAV:   3    -0.624313857112E+02    0.45042E-03   -0.24091E-03   424   0.298E-01    0.935E-02
DAV:   4    -0.624314565912E+02   -0.70880E-04   -0.29885E-04   280   0.109E-01
  21 F= -.62431457E+02 E0= -.62456216E+02  d E =-.112012E-02  mag=     8.0322
       N       E                     dE             d eps       ncg     rms          rms(c)
DAV:   1    -0.624303715547E+02    0.10142E-02   -0.15267E+00   416   0.321E+00    0.185E-01
DAV:   2    -0.624327636243E+02   -0.23921E-02   -0.25419E-02   424   0.599E-01    0.331E-01
DAV:   3    -0.624325177306E+02    0.24589E-03   -0.40171E-03   424   0.392E-01    0.146E-01
DAV:   4    -0.624326159415E+02   -0.98211E-04   -0.10059E-03   368   0.181E-01    0.130E-01
DAV:   5    -0.624325701924E+02    0.45749E-04   -0.26136E-04   248   0.110E-01
  22 F= -.62432570E+02 E0= -.62457540E+02  d E =-.111360E-02  mag=     8.0364
       N       E                     dE             d eps       ncg     rms          rms(c)
DAV:   1    -0.624324538643E+02    0.16208E-03   -0.27790E-01   424   0.137E+00    0.125E-01
DAV:   2    -0.624339942816E+02   -0.15404E-02   -0.83351E-03   432   0.436E-01    0.532E-01
DAV:   3    -0.624326295414E+02    0.13647E-02   -0.40468E-03   432   0.374E-01    0.667E-02
DAV:   4    -0.624328730050E+02   -0.24346E-03   -0.34264E-04   296   0.922E-02    0.722E-02
DAV:   5    -0.624328807618E+02   -0.77568E-05   -0.15446E-04   248   0.731E-02
  23 F= -.62432881E+02 E0= -.62458007E+02  d E =-.142417E-02  mag=     8.0405
       N       E                     dE             d eps       ncg     rms          rms(c)
DAV:   1    -0.624315516373E+02    0.13214E-02   -0.15559E+00   416   0.326E+00    0.183E-01
DAV:   2    -0.624338163911E+02   -0.22648E-02   -0.24541E-02   432   0.593E-01    0.315E-01
DAV:   3    -0.624336853314E+02    0.13106E-03   -0.40636E-03   432   0.383E-01    0.198E-01
DAV:   4    -0.624336201803E+02    0.65151E-04   -0.11441E-03   384   0.195E-01    0.133E-01
DAV:   5    -0.624335784685E+02    0.41712E-04   -0.34298E-04   248   0.121E-01
  24 F= -.62433578E+02 E0= -.62458955E+02  d E =-.697707E-03  mag=     8.0446
       N       E                     dE             d eps       ncg     rms          rms(c)
DAV:   1    -0.624334880326E+02    0.13215E-03   -0.10828E-01   424   0.865E-01    0.926E-02
DAV:   2    -0.624339188999E+02   -0.43087E-03   -0.26882E-03   448   0.281E-01    0.273E-01
DAV:   3    -0.624335285760E+02    0.39032E-03   -0.12439E-03   408   0.237E-01    0.635E-02
DAV:   4    -0.624336030860E+02   -0.74510E-04   -0.19916E-04   256   0.786E-02
  25 F= -.62433603E+02 E0= -.62458915E+02  d E =-.722324E-03  mag=     8.0481
