<?xml version="1.0" encoding="ISO-8859-1"?>
<modeling>
 <generator>
  <i name="program" type="string">vasp </i>
  <i name="version" type="string">6.1.2  </i>
  <i name="subversion" type="string">22Jul20 (build Aug  2 2021 21:04:21) gamma-only                       parallel </i>
  <i name="platform" type="string">LinuxPGI </i>
  <i name="date" type="string">2021 12 16 </i>
  <i name="time" type="string">21:39:44 </i>
 </generator>
 <incar>
  <i type="int" name="ISPIN">     2</i>
  <i type="int" name="IBRION">     2</i>
  <i type="int" name="NSW">  1000</i>
  <i type="int" name="ISIF">     0</i>
  <i type="int" name="ISYM">     0</i>
  <i name="ENCUT">    400.00000000</i>
  <i type="logical" name="LREAL"> F  </i>
  <i type="int" name="ISMEAR">     1</i>
  <i name="SIGMA">      0.20000000</i>
  <i type="logical" name="LWAVE"> F  </i>
  <i type="logical" name="LCHARG"> F  </i>
  <i type="int" name="KPAR">     1</i>
  <i type="int" name="NCORE">     8</i>
  <i type="string" name="GGA"> PE</i>
  <i type="int" name="ISPIN">     2</i>
 </incar>
 <structure name="primitive_cell" >
  <crystal>
   <varray name="basis" >
    <v>      24.31930264       0.00000000       0.00000000 </v>
    <v>       0.00000000      25.78299603       0.00000000 </v>
    <v>       0.00000000       0.00000000      24.19271133 </v>
   </varray>
   <i name="volume">  15169.42232408 </i>
   <varray name="rec_basis" >
    <v>       0.04111960       0.00000000       0.00000000 </v>
    <v>       0.00000000       0.03878525       0.00000000 </v>
    <v>       0.00000000       0.00000000       0.04133476 </v>
   </varray>
  </crystal>
  <varray name="positions" >
   <v>       0.38614732       0.53519636       0.45378749 </v>
   <v>       0.45186975       0.51953422       0.36814396 </v>
   <v>       0.46204753       0.60299967       0.43060686 </v>
   <v>       0.40230156       0.47613081       0.54664156 </v>
   <v>       0.45759636       0.45900779       0.45368827 </v>
   <v>       0.53254468       0.44145487       0.38057250 </v>
   <v>       0.47632332       0.54619939       0.51928011 </v>
   <v>       0.53829183       0.53127943       0.42902962 </v>
   <v>       0.55515150       0.61307375       0.48858696 </v>
   <v>       0.43583468       0.38344152       0.52312419 </v>
   <v>       0.37921851       0.57309897       0.55006173 </v>
   <v>       0.63705271       0.55167474       0.46054613 </v>
   <v>       0.59396225       0.45561038       0.47152527 </v>
   <v>       0.57994959       0.52976882       0.54485639 </v>
   <v>       0.52487101       0.37944942       0.46597469 </v>
   <v>       0.51245956       0.44987371       0.54677022 </v>
  </varray>
 </structure>
 <varray name="primitive_index" >
  <v type="int" >        1 </v>
  <v type="int" >        2 </v>
  <v type="int" >        3 </v>
  <v type="int" >        4 </v>
  <v type="int" >        5 </v>
  <v type="int" >        6 </v>
  <v type="int" >        7 </v>
  <v type="int" >        8 </v>
  <v type="int" >        9 </v>
  <v type="int" >       10 </v>
  <v type="int" >       11 </v>
  <v type="int" >       12 </v>
  <v type="int" >       13 </v>
  <v type="int" >       14 </v>
  <v type="int" >       15 </v>
  <v type="int" >       16 </v>
 </varray>
 <kpoints>
  <generation param="Gamma">
   <v type="int" name="divisions">       1        1        1 </v>
   <v name="usershift">      0.00000000       0.00000000       0.00000000 </v>
   <v name="genvec1">      1.00000000       0.00000000       0.00000000 </v>
   <v name="genvec2">      0.00000000       1.00000000       0.00000000 </v>
   <v name="genvec3">      0.00000000       0.00000000       1.00000000 </v>
   <v name="shift">      0.00000000       0.00000000       0.00000000 </v>
  </generation>
  <varray name="kpointlist" >
   <v>       0.00000000       0.00000000       0.00000000 </v>
  </varray>
  <varray name="weights" >
   <v>       1.00000000 </v>
  </varray>
 </kpoints>
 <parameters>
  <separator name="general" >
   <i type="string" name="SYSTEM">unknown system</i>
   <i type="logical" name="LCOMPAT"> F  </i>
  </separator>
  <separator name="electronic" >
   <i type="string" name="PREC">normal</i>
   <i name="ENMAX">    400.00000000</i>
   <i name="ENAUG">    416.23000000</i>
   <i name="EDIFF">      0.00010000</i>
   <i type="int" name="IALGO">    38</i>
   <i type="int" name="IWAVPR">    11</i>
   <i type="int" name="NBANDS">   104</i>
   <i type="int" name="NBANDSLOW">    -1</i>
   <i type="int" name="NBANDSHIGH">    -1</i>
   <i name="NELECT">    160.00000000</i>
   <i type="int" name="TURBO">     0</i>
   <i type="int" name="IRESTART">     0</i>
   <i type="int" name="NREBOOT">     0</i>
   <i type="int" name="NMIN">     0</i>
   <i name="EREF">      0.00000000</i>
   <separator name="electronic smearing" >
    <i type="int" name="ISMEAR">     1</i>
    <i name="SIGMA">      0.20000000</i>
    <i name="KSPACING">      0.50000000</i>
    <i type="logical" name="KGAMMA"> T  </i>
    <i type="logical" name="KBLOWUP"> T  </i>
   </separator>
   <separator name="electronic projectors" >
    <i type="logical" name="LREAL"> F  </i>
    <v name="ROPT">      0.00000000</v>
    <i type="int" name="LMAXPAW">  -100</i>
    <i type="int" name="LMAXMIX">     2</i>
    <i type="logical" name="NLSPLINE"> F  </i>
   </separator>
   <separator name="electronic startup" >
    <i type="int" name="ISTART">     0</i>
    <i type="int" name="ICHARG">     2</i>
    <i type="int" name="INIWAV">     1</i>
   </separator>
   <separator name="electronic spin" >
    <i type="int" name="ISPIN">     2</i>
    <i type="logical" name="LNONCOLLINEAR"> F  </i>
    <v name="MAGMOM">      1.00000000      1.00000000      1.00000000      1.00000000      1.00000000      1.00000000      1.00000000      1.00000000      1.00000000      1.00000000      1.00000000      1.00000000      1.00000000      1.00000000      1.00000000      1.00000000</v>
    <i name="NUPDOWN">     -1.00000000</i>
    <i type="logical" name="LSORBIT"> F  </i>
    <v name="SAXIS">      0.00000000      0.00000000      1.00000000</v>
    <i type="logical" name="LSPIRAL"> F  </i>
    <v name="QSPIRAL">      0.00000000      0.00000000      0.00000000</v>
    <i type="logical" name="LZEROZ"> F  </i>
   </separator>
   <separator name="electronic exchange-correlation" >
    <i type="logical" name="LASPH"> F  </i>
    <i type="logical" name="LMETAGGA"> F  </i>
   </separator>
   <separator name="electronic convergence" >
    <i type="int" name="NELM">    60</i>
    <i type="int" name="NELMDL">     0</i>
    <i type="int" name="NELMIN">     2</i>
    <i name="ENINI">    400.00000000</i>
    <separator name="electronic convergence detail" >
     <i type="logical" name="LDIAG"> T  </i>
     <i type="logical" name="LSUBROT"> F  </i>
     <i name="WEIMIN">      0.00100000</i>
     <i name="EBREAK">      0.00000024</i>
     <i name="DEPER">      0.30000000</i>
     <i type="int" name="NRMM">     4</i>
     <i name="TIME">      0.40000000</i>
    </separator>
   </separator>
   <separator name="electronic mixer" >
    <i name="AMIX">      0.40000000</i>
    <i name="BMIX">      1.00000000</i>
    <i name="AMIN">      0.10000000</i>
    <i name="AMIX_MAG">      1.60000000</i>
    <i name="BMIX_MAG">      1.00000000</i>
    <separator name="electronic mixer details" >
     <i type="int" name="IMIX">     4</i>
     <i type="logical" name="MIXFIRST"> F  </i>
     <i type="int" name="MAXMIX">   -45</i>
     <i name="WC">    100.00000000</i>
     <i type="int" name="INIMIX">     1</i>
     <i type="int" name="MIXPRE">     1</i>
     <i type="int" name="MREMOVE">     5</i>
    </separator>
   </separator>
   <separator name="electronic dipolcorrection" >
    <i type="logical" name="LDIPOL"> F  </i>
    <i type="logical" name="LMONO"> F  </i>
    <i type="int" name="IDIPOL">     0</i>
    <i name="EPSILON">      1.00000000</i>
    <v name="DIPOL">   -100.00000000   -100.00000000   -100.00000000</v>
    <i name="EFIELD">      0.00000000</i>
   </separator>
  </separator>
  <separator name="grids" >
   <i type="int" name="NGX">   120</i>
   <i type="int" name="NGY">   126</i>
   <i type="int" name="NGZ">   120</i>
   <i type="int" name="NGXF">   240</i>
   <i type="int" name="NGYF">   252</i>
   <i type="int" name="NGZF">   240</i>
   <i type="logical" name="ADDGRID"> F  </i>
  </separator>
  <separator name="ionic" >
   <i type="int" name="NSW">  1000</i>
   <i type="int" name="IBRION">     2</i>
   <i type="int" name="MDALGO">     0</i>
   <i type="int" name="ISIF">     0</i>
   <i name="PSTRESS">      0.00000000</i>
   <i name="EDIFFG">      0.00100000</i>
   <i type="int" name="NFREE">     1</i>
   <i name="POTIM">      0.50000000</i>
   <i name="SMASS">     -3.00000000</i>
   <i name="SCALEE">      1.00000000</i>
  </separator>
  <separator name="ionic md" >
   <i name="TEBEG">      0.00010000</i>
   <i name="TEEND">      0.00010000</i>
   <i type="int" name="NBLOCK">     1</i>
   <i type="int" name="KBLOCK">  1000</i>
   <i type="int" name="NPACO">   256</i>
   <i name="APACO">     16.00000000</i>
  </separator>
  <separator name="symmetry" >
   <i type="int" name="ISYM">     0</i>
   <i name="SYMPREC">      0.00001000</i>
  </separator>
  <separator name="dos" >
   <i type="int" name="LORBIT">     0</i>
   <v name="RWIGS">     -1.00000000</v>
   <i type="int" name="NEDOS">   301</i>
   <i name="EMIN">     10.00000000</i>
   <i name="EMAX">    -10.00000000</i>
   <i name="EFERMI">      0.00000000</i>
  </separator>
  <separator name="writing" >
   <i type="int" name="NWRITE">     2</i>
   <i type="logical" name="LWAVE"> F  </i>
   <i type="logical" name="LDOWNSAMPLE"> F  </i>
   <i type="logical" name="LCHARG"> F  </i>
   <i type="logical" name="LPARD"> F  </i>
   <i type="logical" name="LVTOT"> F  </i>
   <i type="logical" name="LVHAR"> F  </i>
   <i type="logical" name="LELF"> F  </i>
   <i type="logical" name="LOPTICS"> F  </i>
   <v name="STM">      0.00000000      0.00000000      0.00000000      0.00000000      0.00000000      0.00000000      0.00000000</v>
  </separator>
  <separator name="performance" >
   <i type="int" name="NPAR">     2</i>
   <i type="int" name="NSIM">     4</i>
   <i type="int" name="NBLK">    -1</i>
   <i type="logical" name="LPLANE"> T  </i>
   <i type="logical" name="LSCALAPACK"> T  </i>
   <i type="logical" name="LSCAAWARE"> F  </i>
   <i type="logical" name="LSCALU"> F  </i>
   <i type="logical" name="LASYNC"> F  </i>
   <i type="logical" name="LORBITALREAL"> F  </i>
  </separator>
  <separator name="miscellaneous" >
   <i type="int" name="IDIOT">     3</i>
   <i type="int" name="PHON_NSTRUCT">    -1</i>
   <i type="logical" name="LMUSIC"> F  </i>
   <v name="POMASS">    106.42000000</v>
   <v name="DARWINR">      0.00000000</v>
   <v name="DARWINV">      1.00000000</v>
   <i type="logical" name="LCORR"> T  </i>
  </separator>
  <i type="logical" name="GGA_COMPAT"> T  </i>
  <i type="logical" name="LBERRY"> F  </i>
  <i type="int" name="ICORELEVEL">     0</i>
  <i type="logical" name="LDAU"> F  </i>
  <i type="int" name="I_CONSTRAINED_M">     0</i>
  <separator name="electronic exchange-correlation" >
   <i type="string" name="GGA">PE</i>
   <i type="int" name="VOSKOWN">     0</i>
   <i type="logical" name="LHFCALC"> F  </i>
   <i type="string" name="PRECFOCK"></i>
   <i type="logical" name="LSYMGRAD"> F  </i>
   <i type="logical" name="LHFONE"> F  </i>
   <i type="logical" name="LRHFCALC"> F  </i>
   <i type="logical" name="LTHOMAS"> F  </i>
   <i type="logical" name="LMODELHF"> F  </i>
   <i type="logical" name="LFOCKACE"> F  </i>
   <i name="ENCUT4O">     -1.00000000</i>
   <i type="int" name="EXXOEP">     0</i>
   <i type="int" name="FOURORBIT">     0</i>
   <i name="AEXX">      0.00000000</i>
   <i name="HFALPHA">      0.00000000</i>
   <i name="MCALPHA">      0.00000000</i>
   <i name="ALDAX">      1.00000000</i>
   <i name="AGGAX">      1.00000000</i>
   <i name="ALDAC">      1.00000000</i>
   <i name="AGGAC">      1.00000000</i>
   <i type="int" name="NKREDX">     1</i>
   <i type="int" name="NKREDY">     1</i>
   <i type="int" name="NKREDZ">     1</i>
   <i type="logical" name="SHIFTRED"> F  </i>
   <i type="logical" name="ODDONLY"> F  </i>
   <i type="logical" name="EVENONLY"> F  </i>
   <i type="int" name="LMAXFOCK">     0</i>
   <i type="int" name="NMAXFOCKAE">     0</i>
   <i type="logical" name="LFOCKAEDFT"> F  </i>
   <i name="HFSCREEN">      0.00000000</i>
   <i name="HFSCREENC">      0.00000000</i>
   <i type="int" name="NBANDSGWLOW">     0</i>
  </separator>
  <separator name="vdW DFT" >
   <i type="logical" name="LUSE_VDW"> F  </i>
   <i name="Zab_VDW">     -0.84910000</i>
   <i name="PARAM1">      0.12340000</i>
   <i name="PARAM2">      1.00000000</i>
   <i name="PARAM3">      0.00000000</i>
  </separator>
  <separator name="model GW" >
   <i type="int" name="MODEL_GW">     0</i>
   <i name="MODEL_EPS0">    568.85333715</i>
   <i name="MODEL_ALPHA">      1.00000000</i>
  </separator>
  <separator name="linear response parameters" >
   <i type="logical" name="LEPSILON"> F  </i>
   <i type="logical" name="LRPA"> F  </i>
   <i type="logical" name="LNABLA"> F  </i>
   <i type="logical" name="LVEL"> F  </i>
   <i type="int" name="KINTER">     0</i>
   <i name="CSHIFT">      0.10000000</i>
   <i name="OMEGAMAX">     -1.00000000</i>
   <i name="DEG_THRESHOLD">      0.00200000</i>
   <i name="RTIME">     -0.10000000</i>
   <i name="WPLASMAI">      0.00000000</i>
   <v name="DFIELD">      0.00000000      0.00000000      0.00000000</v>
   <v name="WPLASMA">      0.00000000      0.00000000      0.00000000      0.00000000      0.00000000      0.00000000      0.00000000      0.00000000      0.00000000</v>
  </separator>
  <separator name="orbital magnetization" >
   <i type="logical" name="NUCIND"> F  </i>
   <v name="MAGPOS">      0.00000000      0.00000000      0.00000000</v>
   <i type="logical" name="LNICSALL"> T  </i>
   <i type="logical" name="ORBITALMAG"> F  </i>
   <i type="logical" name="LMAGBLOCH"> F  </i>
   <i type="logical" name="LCHIMAG"> F  </i>
   <i type="logical" name="LGAUGE"> T  </i>
   <i type="int" name="MAGATOM">     0</i>
   <v name="MAGDIPOL">      0.00000000      0.00000000      0.00000000</v>
   <v name="AVECCONST">      0.00000000      0.00000000      0.00000000</v>
  </separator>
  <separator name="response functions" >
   <i type="logical" name="LFINITE_TEMPERATURE"> F  </i>
   <i type="logical" name="LADDER"> F  </i>
   <i type="logical" name="LRPAFORCE"> F  </i>
   <i type="logical" name="LFXC"> F  </i>
   <i type="logical" name="LHARTREE"> T  </i>
   <i type="int" name="IBSE">     0</i>
   <v type="int" name="KPOINT">    -1     0     0     0</v>
   <i type="logical" name="LTCTC"> F  </i>
   <i type="logical" name="LTCTE"> F  </i>
   <i type="logical" name="LTETE"> F  </i>
   <i type="logical" name="LTRIPLET"> F  </i>
   <i type="logical" name="LFXCEPS"> F  </i>
   <i type="logical" name="LFXHEG"> F  </i>
   <i type="int" name="NATURALO">     2</i>
   <i type="logical" name="LHOLEGF"> F  </i>
   <i type="logical" name="L2ORDER"> F  </i>
   <i type="logical" name="LDMP1"> F  </i>
   <i type="logical" name="LMP2LT"> F  </i>
   <i type="logical" name="LSMP2LT"> F  </i>
   <i type="logical" name="LGWLF"> F  </i>
   <i name="ENCUTGW">     -2.00000000</i>
   <i name="ENCUTGWSOFT">     -2.00000000</i>
   <i name="ENCUTLF">     -1.00000000</i>
   <i type="logical" name="LESF_SPLINES"> F  </i>
   <i type="int" name="LMAXMP2">    -1</i>
   <i name="SCISSOR">      0.00000000</i>
   <i type="int" name="NOMEGA">     0</i>
   <i type="int" name="NOMEGAR">     0</i>
   <i type="int" name="NBANDSGW">    -1</i>
   <i type="int" name="NBANDSO">    -1</i>
   <i type="int" name="NBANDSV">    -1</i>
   <i type="int" name="NELM">     1</i>
   <i type="int" name="NELMHF">     1</i>
   <i type="int" name="DIM">     3</i>
   <i type="int" name="IESPILON">     4</i>
   <i type="int" name="ANTIRES">     0</i>
   <i name="OMEGAMAX">    -30.00000000</i>
   <i name="OMEGAMIN">    -30.00000000</i>
   <i name="OMEGATL">   -200.00000000</i>
   <i type="int" name="OMEGAGRID">     0</i>
   <i name="CSHIFT">     -0.10000000</i>
   <i type="logical" name="LSELFENERGY"> F  </i>
   <i type="logical" name="LSPECTRAL"> F  </i>
   <i type="logical" name="LSPECTRALGW"> F  </i>
   <i type="logical" name="LSINGLES"> F  </i>
   <i type="logical" name="LFERMIGW"> F  </i>
   <i type="logical" name="ODDONLYGW"> F  </i>
   <i type="logical" name="EVENONLYGW"> F  </i>
   <i type="int" name="NKREDLFX">     1</i>
   <i type="int" name="NKREDLFY">     1</i>
   <i type="int" name="NKREDLFZ">     1</i>
   <i type="int" name="MAXMEM">  2800</i>
   <i type="int" name="TELESCOPE">     0</i>
   <i type="int" name="NTAUPAR">    -1</i>
   <i type="int" name="NOMEGAPAR">    -1</i>
   <i name="LAMBDA">      1.00000000</i>
  </separator>
  <separator name="External order field" >
   <i name="OFIELD_KAPPA">      0.00000000</i>
   <v name="OFIELD_K">      0.00000000      0.00000000      0.00000000</v>
   <i name="OFIELD_Q6_NEAR">      0.00000000</i>
   <i name="OFIELD_Q6_FAR">      0.00000000</i>
   <i name="OFIELD_A">      0.00000000</i>
  </separator>
 </parameters>
 <atominfo>
  <atoms>      16 </atoms>
  <types>       1 </types>
  <array name="atoms" >
   <dimension dim="1">ion</dimension>
   <field type="string">element</field>
   <field type="int">atomtype</field>
   <set>
    <rc><c>Pd</c><c>   1</c></rc>
    <rc><c>Pd</c><c>   1</c></rc>
    <rc><c>Pd</c><c>   1</c></rc>
    <rc><c>Pd</c><c>   1</c></rc>
    <rc><c>Pd</c><c>   1</c></rc>
    <rc><c>Pd</c><c>   1</c></rc>
    <rc><c>Pd</c><c>   1</c></rc>
    <rc><c>Pd</c><c>   1</c></rc>
    <rc><c>Pd</c><c>   1</c></rc>
    <rc><c>Pd</c><c>   1</c></rc>
    <rc><c>Pd</c><c>   1</c></rc>
    <rc><c>Pd</c><c>   1</c></rc>
    <rc><c>Pd</c><c>   1</c></rc>
    <rc><c>Pd</c><c>   1</c></rc>
    <rc><c>Pd</c><c>   1</c></rc>
    <rc><c>Pd</c><c>   1</c></rc>
   </set>
  </array>
  <array name="atomtypes" >
   <dimension dim="1">type</dimension>
   <field type="int">atomspertype</field>
   <field type="string">element</field>
   <field>mass</field>
   <field>valence</field>
   <field type="string">pseudopotential</field>
   <set>
    <rc><c>  16</c><c>Pd</c><c>    106.42000000</c><c>     10.00000000</c><c>  PAW_PBE Pd 04Jan2005                  </c></rc>
   </set>
  </array>
 </atominfo>
 <structure name="initialpos" >
  <crystal>
   <varray name="basis" >
    <v>      24.31930264       0.00000000       0.00000000 </v>
    <v>       0.00000000      25.78299603       0.00000000 </v>
    <v>       0.00000000       0.00000000      24.19271133 </v>
   </varray>
   <i name="volume">  15169.42232408 </i>
   <varray name="rec_basis" >
    <v>       0.04111960       0.00000000       0.00000000 </v>
    <v>       0.00000000       0.03878525       0.00000000 </v>
    <v>       0.00000000       0.00000000       0.04133476 </v>
   </varray>
  </crystal>
  <varray name="positions" >
   <v>       0.38614732       0.53519636       0.45378749 </v>
   <v>       0.45186975       0.51953422       0.36814396 </v>
   <v>       0.46204753       0.60299967       0.43060686 </v>
   <v>       0.40230156       0.47613081       0.54664156 </v>
   <v>       0.45759636       0.45900779       0.45368827 </v>
   <v>       0.53254468       0.44145487       0.38057250 </v>
   <v>       0.47632332       0.54619939       0.51928011 </v>
   <v>       0.53829183       0.53127943       0.42902962 </v>
   <v>       0.55515150       0.61307375       0.48858696 </v>
   <v>       0.43583468       0.38344152       0.52312419 </v>
   <v>       0.37921851       0.57309897       0.55006173 </v>
   <v>       0.63705271       0.55167474       0.46054613 </v>
   <v>       0.59396225       0.45561038       0.47152527 </v>
   <v>       0.57994959       0.52976882       0.54485639 </v>
   <v>       0.52487101       0.37944942       0.46597469 </v>
   <v>       0.51245956       0.44987371       0.54677022 </v>
  </varray>
 </structure>
 <calculation>
  <scstep>
   <time name="dav">   26.47   27.18</time>
   <time name="total">   31.51   32.36</time>
   <energy>
    <i name="alphaZ">     10.99900658 </i>
    <i name="ewald">  27029.33393868 </i>
    <i name="hartreedc"> -39321.74464984 </i>
    <i name="XCdc">   -479.39411511 </i>
    <i name="pawpsdc">  12906.36685261 </i>
    <i name="pawaedc"> -11910.91650437 </i>
    <i name="eentropy">      0.04530405 </i>
    <i name="bandstr">    234.47786633 </i>
    <i name="atom">  12955.90228127 </i>
    <i name="e_fr_energy">   1425.06998020 </i>
    <i name="e_wo_entrp">   1425.02467615 </i>
    <i name="e_0_energy">   1425.05487885 </i>
   </energy>
  </scstep>
  <scstep>
   <time name="dav">   45.47   46.16</time>
   <time name="total">   45.47   46.16</time>
   <energy>
    <i name="e_fr_energy">    756.57586854 </i>
    <i name="e_wo_entrp">    756.59805617 </i>
    <i name="e_0_energy">    756.58326442 </i>
   </energy>
  </scstep>
  <scstep>
   <time name="dav">   43.64   46.05</time>
   <time name="total">   43.65   46.06</time>
   <energy>
    <i name="e_fr_energy">    152.20150099 </i>
    <i name="e_wo_entrp">    152.18225102 </i>
    <i name="e_0_energy">    152.19508433 </i>
   </energy>
  </scstep>
  <scstep>
   <time name="dav">   39.41   39.80</time>
   <time name="total">   39.42   39.81</time>
   <energy>
    <i name="e_fr_energy">    -36.31769676 </i>
    <i name="e_wo_entrp">    -36.29875791 </i>
    <i name="e_0_energy">    -36.31138381 </i>
   </energy>
  </scstep>
  <scstep>
   <time name="dav">   39.95   41.19</time>
   <time name="total">   41.58   42.82</time>
   <energy>
    <i name="e_fr_energy">    -63.86767298 </i>
    <i name="e_wo_entrp">    -63.86753971 </i>
    <i name="e_0_energy">    -63.86762855 </i>
   </energy>
  </scstep>
  <scstep>
   <time name="dav">   31.07   31.68</time>
   <time name="total">   37.43   38.58</time>
   <energy>
    <i name="e_fr_energy">    -57.81565739 </i>
    <i name="e_wo_entrp">    -57.85741033 </i>
    <i name="e_0_energy">    -57.82957504 </i>
   </energy>
  </scstep>
  <scstep>
   <time name="dav">   30.27   30.49</time>
   <time name="total">   37.20   37.92</time>
   <energy>
    <i name="e_fr_energy">    -52.28777003 </i>
    <i name="e_wo_entrp">    -52.29166909 </i>
    <i name="e_0_energy">    -52.28906972 </i>
   </energy>
  </scstep>
  <scstep>
   <time name="dav">   29.15   29.80</time>
   <time name="total">   34.13   34.79</time>
   <energy>
    <i name="e_fr_energy">    -49.18171773 </i>
    <i name="e_wo_entrp">    -49.22241532 </i>
    <i name="e_0_energy">    -49.19528359 </i>
   </energy>
  </scstep>
  <scstep>
   <time name="dav">   35.70   35.92</time>
   <time name="total">   41.63   41.87</time>
   <energy>
    <i name="e_fr_energy">    -49.46548179 </i>
    <i name="e_wo_entrp">    -49.52492942 </i>
    <i name="e_0_energy">    -49.48529767 </i>
   </energy>
  </scstep>
  <scstep>
   <time name="dav">   30.57   31.79</time>
   <time name="total">   37.19   39.36</time>
   <energy>
    <i name="e_fr_energy">    -49.70755568 </i>
    <i name="e_wo_entrp">    -49.74751801 </i>
    <i name="e_0_energy">    -49.72087646 </i>
   </energy>
  </scstep>
  <scstep>
   <time name="dav">   29.89   30.98</time>
   <time name="total">   34.91   36.02</time>
   <energy>
    <i name="e_fr_energy">    -50.86932488 </i>
    <i name="e_wo_entrp">    -50.93034962 </i>
    <i name="e_0_energy">    -50.88966646 </i>
   </energy>
  </scstep>
  <scstep>
   <time name="dav">   35.54   37.16</time>
   <time name="total">   41.10   42.72</time>
   <energy>
    <i name="e_fr_energy">    -52.36898180 </i>
    <i name="e_wo_entrp">    -52.41317352 </i>
    <i name="e_0_energy">    -52.38371237 </i>
   </energy>
  </scstep>
  <scstep>
   <time name="dav">   27.98   28.16</time>
   <time name="total">   33.55   33.74</time>
   <energy>
    <i name="e_fr_energy">    -54.02710036 </i>
    <i name="e_wo_entrp">    -54.07639116 </i>
    <i name="e_0_energy">    -54.04353063 </i>
   </energy>
  </scstep>
  <scstep>
   <time name="dav">   32.34   32.61</time>
   <time name="total">   37.81   38.10</time>
   <energy>
    <i name="e_fr_energy">    -55.53606345 </i>
    <i name="e_wo_entrp">    -55.57834023 </i>
    <i name="e_0_energy">    -55.55015571 </i>
   </energy>
  </scstep>
  <scstep>
   <time name="dav">   30.45   32.20</time>
   <time name="total">   35.98   38.26</time>
   <energy>
    <i name="e_fr_energy">    -56.26128164 </i>
    <i name="e_wo_entrp">    -56.29766870 </i>
    <i name="e_0_energy">    -56.27341066 </i>
   </energy>
  </scstep>
  <scstep>
   <time name="dav">   28.60   29.24</time>
   <time name="total">   34.63   35.54</time>
   <energy>
    <i name="e_fr_energy">    -56.92692595 </i>
    <i name="e_wo_entrp">    -56.96164615 </i>
    <i name="e_0_energy">    -56.93849935 </i>
   </energy>
  </scstep>
  <scstep>
   <time name="dav">   28.11   28.26</time>
   <time name="total">   33.14   33.29</time>
   <energy>
    <i name="e_fr_energy">    -57.63199379 </i>
    <i name="e_wo_entrp">    -57.66926611 </i>
    <i name="e_0_energy">    -57.64441790 </i>
   </energy>
  </scstep>
  <scstep>
   <time name="dav">   27.65   28.61</time>
   <time name="total">   33.67   34.65</time>
   <energy>
    <i name="e_fr_energy">    -58.58108907 </i>
    <i name="e_wo_entrp">    -58.61638333 </i>
    <i name="e_0_energy">    -58.59285382 </i>
   </energy>
  </scstep>
  <scstep>
   <time name="dav">   29.35   29.43</time>
   <time name="total">   34.84   35.30</time>
   <energy>
    <i name="e_fr_energy">    -59.27285602 </i>
    <i name="e_wo_entrp">    -59.30702653 </i>
    <i name="e_0_energy">    -59.28424619 </i>
   </energy>
  </scstep>
  <scstep>
   <time name="dav">   27.93   28.04</time>
   <time name="total">   33.06   33.18</time>
   <energy>
    <i name="e_fr_energy">    -59.99191004 </i>
    <i name="e_wo_entrp">    -60.02697238 </i>
    <i name="e_0_energy">    -60.00359749 </i>
   </energy>
  </scstep>
  <scstep>
   <time name="dav">   28.70   29.81</time>
   <time name="total">   34.28   35.40</time>
   <energy>
    <i name="e_fr_energy">    -60.42311659 </i>
    <i name="e_wo_entrp">    -60.45731579 </i>
    <i name="e_0_energy">    -60.43451632 </i>
   </energy>
  </scstep>
  <scstep>
   <time name="dav">   32.60   32.66</time>
   <time name="total">   39.17   39.24</time>
   <energy>
    <i name="e_fr_energy">    -60.78954965 </i>
    <i name="e_wo_entrp">    -60.82503351 </i>
    <i name="e_0_energy">    -60.80137760 </i>
   </energy>
  </scstep>
  <scstep>
   <time name="dav">   32.50   33.56</time>
   <time name="total">   39.47   40.54</time>
   <energy>
    <i name="e_fr_energy">    -61.16922404 </i>
    <i name="e_wo_entrp">    -61.20514775 </i>
    <i name="e_0_energy">    -61.18119861 </i>
   </energy>
  </scstep>
  <scstep>
   <time name="dav">   32.34   35.75</time>
   <time name="total">   37.55   41.06</time>
   <energy>
    <i name="e_fr_energy">    -61.47276326 </i>
    <i name="e_wo_entrp">    -61.50876633 </i>
    <i name="e_0_energy">    -61.48476429 </i>
   </energy>
  </scstep>
  <scstep>
   <time name="dav">   30.38   31.31</time>
   <time name="total">   35.66   36.60</time>
   <energy>
    <i name="e_fr_energy">    -61.73325352 </i>
    <i name="e_wo_entrp">    -61.76872566 </i>
    <i name="e_0_energy">    -61.74507757 </i>
   </energy>
  </scstep>
  <scstep>
   <time name="dav">   30.32   30.49</time>
   <time name="total">   35.62   35.81</time>
   <energy>
    <i name="e_fr_energy">    -61.85587439 </i>
    <i name="e_wo_entrp">    -61.89213899 </i>
    <i name="e_0_energy">    -61.86796259 </i>
   </energy>
  </scstep>
  <scstep>
   <time name="dav">   30.43   31.29</time>
   <time name="total">   36.77   37.64</time>
   <energy>
    <i name="e_fr_energy">    -61.95717295 </i>
    <i name="e_wo_entrp">    -61.99311546 </i>
    <i name="e_0_energy">    -61.96915379 </i>
   </energy>
  </scstep>
  <scstep>
   <time name="dav">   27.42   28.58</time>
   <time name="total">   32.60   33.78</time>
   <energy>
    <i name="e_fr_energy">    -62.01683087 </i>
    <i name="e_wo_entrp">    -62.05279205 </i>
    <i name="e_0_energy">    -62.02881793 </i>
   </energy>
  </scstep>
  <scstep>
   <time name="dav">   25.03   25.08</time>
   <time name="total">   31.27   31.33</time>
   <energy>
    <i name="e_fr_energy">    -62.04025889 </i>
    <i name="e_wo_entrp">    -62.07638468 </i>
    <i name="e_0_energy">    -62.05230082 </i>
   </energy>
  </scstep>
  <scstep>
   <time name="dav">   23.99   24.46</time>
   <time name="total">   29.19   29.67</time>
   <energy>
    <i name="e_fr_energy">    -62.06483856 </i>
    <i name="e_wo_entrp">    -62.10096586 </i>
    <i name="e_0_energy">    -62.07688099 </i>
   </energy>
  </scstep>
  <scstep>
   <time name="dav">   20.51   20.69</time>
   <time name="total">   26.66   27.16</time>
   <energy>
    <i name="e_fr_energy">    -62.07693601 </i>
    <i name="e_wo_entrp">    -62.11298085 </i>
    <i name="e_0_energy">    -62.08895096 </i>
   </energy>
  </scstep>
  <scstep>
   <time name="dav">   22.62   22.77</time>
   <time name="total">   28.71   29.00</time>
   <energy>
    <i name="e_fr_energy">    -62.08263537 </i>
    <i name="e_wo_entrp">    -62.11863950 </i>
    <i name="e_0_energy">    -62.09463675 </i>
   </energy>
  </scstep>
  <scstep>
   <time name="dav">   24.26   24.30</time>
   <time name="total">   32.83   33.25</time>
   <energy>
    <i name="e_fr_energy">    -62.08651927 </i>
    <i name="e_wo_entrp">    -62.12261889 </i>
    <i name="e_0_energy">    -62.09855248 </i>
   </energy>
  </scstep>
  <scstep>
   <time name="dav">   23.70   24.39</time>
   <time name="total">   32.49   33.19</time>
   <energy>
    <i name="e_fr_energy">    -62.08854484 </i>
    <i name="e_wo_entrp">    -62.12463851 </i>
    <i name="e_0_energy">    -62.10057606 </i>
   </energy>
  </scstep>
  <scstep>
   <time name="dav">   19.05   19.13</time>
   <time name="total">   24.27   24.37</time>
   <energy>
    <i name="e_fr_energy">    -62.09025489 </i>
    <i name="e_wo_entrp">    -62.12635655 </i>
    <i name="e_0_energy">    -62.10228878 </i>
   </energy>
  </scstep>
  <scstep>
   <time name="dav">   20.94   21.01</time>
   <time name="total">   26.78   27.26</time>
   <energy>
    <i name="e_fr_energy">    -62.09182224 </i>
    <i name="e_wo_entrp">    -62.12789386 </i>
    <i name="e_0_energy">    -62.10384612 </i>
   </energy>
  </scstep>
  <scstep>
   <time name="dav">   23.57   25.60</time>
   <time name="total">   28.95   30.99</time>
   <energy>
    <i name="e_fr_energy">    -62.09250761 </i>
    <i name="e_wo_entrp">    -62.12860317 </i>
    <i name="e_0_energy">    -62.10453946 </i>
   </energy>
  </scstep>
  <scstep>
   <time name="dav">   18.81   18.99</time>
   <time name="total">   24.14   24.33</time>
   <energy>
    <i name="e_fr_energy">    -62.09306461 </i>
    <i name="e_wo_entrp">    -62.12915730 </i>
    <i name="e_0_energy">    -62.10509551 </i>
   </energy>
  </scstep>
  <scstep>
   <time name="dav">   21.24   21.91</time>
   <time name="total">   26.85   27.53</time>
   <energy>
    <i name="e_fr_energy">    -62.09357342 </i>
    <i name="e_wo_entrp">    -62.12967427 </i>
    <i name="e_0_energy">    -62.10560704 </i>
   </energy>
  </scstep>
  <scstep>
   <time name="dav">   19.26   19.69</time>
   <time name="total">   25.57   26.02</time>
   <energy>
    <i name="e_fr_energy">    -62.09383255 </i>
    <i name="e_wo_entrp">    -62.12992667 </i>
    <i name="e_0_energy">    -62.10586392 </i>
   </energy>
  </scstep>
  <scstep>
   <time name="dav">   17.32   17.48</time>
   <time name="total">   23.32   23.51</time>
   <energy>
    <i name="e_fr_energy">    -62.09402746 </i>
    <i name="e_wo_entrp">    -62.13012454 </i>
    <i name="e_0_energy">    -62.10605982 </i>
   </energy>
  </scstep>
  <scstep>
   <time name="dav">   21.47   21.67</time>
   <time name="total">   29.62   29.85</time>
   <energy>
    <i name="e_fr_energy">    -62.09417658 </i>
    <i name="e_wo_entrp">    -62.13027227 </i>
    <i name="e_0_energy">    -62.10620848 </i>
   </energy>
  </scstep>
  <scstep>
   <time name="dav">   22.86   23.16</time>
   <time name="total">   26.22   26.52</time>
   <energy>
    <i name="alphaZ">     10.99900658 </i>
    <i name="ewald">  27029.33393868 </i>
    <i name="hartreedc"> -39554.06687006 </i>
    <i name="XCdc">   -479.56402312 </i>
    <i name="pawpsdc">  14949.54394681 </i>
    <i name="pawaedc"> -13977.19291744 </i>
    <i name="eentropy">      0.03609492 </i>
    <i name="bandstr">   -997.08571762 </i>
    <i name="atom">  12955.90228127 </i>
    <i name="e_fr_energy">    -62.09425998 </i>
    <i name="e_wo_entrp">    -62.13035490 </i>
    <i name="e_0_energy">    -62.10629162 </i>
   </energy>
  </scstep>
  <structure>
   <crystal>
    <varray name="basis" >
     <v>      24.31930264       0.00000000       0.00000000 </v>
     <v>       0.00000000      25.78299603       0.00000000 </v>
     <v>       0.00000000       0.00000000      24.19271133 </v>
    </varray>
    <i name="volume">  15169.42232408 </i>
    <varray name="rec_basis" >
     <v>       0.04111960       0.00000000       0.00000000 </v>
     <v>       0.00000000       0.03878525       0.00000000 </v>
     <v>       0.00000000       0.00000000       0.04133476 </v>
    </varray>
   </crystal>
   <varray name="positions" >
    <v>       0.38614732       0.53519636       0.45378749 </v>
    <v>       0.45186975       0.51953422       0.36814396 </v>
    <v>       0.46204753       0.60299967       0.43060686 </v>
    <v>       0.40230156       0.47613081       0.54664156 </v>
    <v>       0.45759636       0.45900779       0.45368827 </v>
    <v>       0.53254468       0.44145487       0.38057250 </v>
    <v>       0.47632332       0.54619939       0.51928011 </v>
    <v>       0.53829183       0.53127943       0.42902962 </v>
    <v>       0.55515150       0.61307375       0.48858696 </v>
    <v>       0.43583468       0.38344152       0.52312419 </v>
    <v>       0.37921851       0.57309897       0.55006173 </v>
    <v>       0.63705271       0.55167474       0.46054613 </v>
    <v>       0.59396225       0.45561038       0.47152527 </v>
    <v>       0.57994959       0.52976882       0.54485639 </v>
    <v>       0.52487101       0.37944942       0.46597469 </v>
    <v>       0.51245956       0.44987371       0.54677022 </v>
   </varray>
  </structure>
  <varray name="forces" >
   <v>      -0.37497011      -0.02913057      -0.25721875 </v>
   <v>      -0.23266602      -0.15103458      -0.66907899 </v>
   <v>      -0.23891316       0.69445731      -0.31629733 </v>
   <v>      -0.28815026      -0.19936364       0.28747514 </v>
   <v>      -0.36961462      -0.24439010      -0.30006561 </v>
   <v>       0.13804541      -0.07397729      -0.63830762 </v>
   <v>       0.20882322       0.29944203       0.42334683 </v>
   <v>       0.06703151      -0.07511325      -0.39226936 </v>
   <v>      -0.09392799       0.73922022       0.18581755 </v>
   <v>      -0.44610054      -0.46913199       0.32962821 </v>
   <v>      -0.20340046       0.37497721       0.40326942 </v>
   <v>       0.77652073      -0.09362224      -0.28531246 </v>
   <v>       0.48368490      -0.09681125      -0.02421939 </v>
   <v>       0.02545982      -0.15169518       0.94886006 </v>
   <v>       0.30493519      -0.59432474      -0.13652558 </v>
   <v>       0.24324237       0.07049807       0.44089787 </v>
  </varray>
  <energy>
   <i name="e_fr_energy">    -62.09425998 </i>
   <i name="e_wo_entrp">    -62.13035490 </i>
   <i name="e_0_energy">    -62.10629162 </i>
  </energy>
  <time name="totalsc"> 1469.34 1505.39</time>
 </calculation>
 <calculation>
  <scstep>
   <time name="dav">   28.18   28.35</time>
   <time name="total">   35.05   35.54</time>
   <energy>
    <i name="alphaZ">     10.99900658 </i>
    <i name="ewald">  26564.88378885 </i>
    <i name="hartreedc"> -39095.95574672 </i>
    <i name="XCdc">   -480.67125025 </i>
    <i name="pawpsdc">  14949.53613810 </i>
    <i name="pawaedc"> -13977.18520690 </i>
    <i name="eentropy">      0.03264186 </i>
    <i name="bandstr">   -989.73555984 </i>
    <i name="atom">  12955.90228127 </i>
    <i name="e_fr_energy">    -62.19390705 </i>
    <i name="e_wo_entrp">    -62.22654891 </i>
    <i name="e_0_energy">    -62.20478767 </i>
   </energy>
  </scstep>
  <scstep>
   <time name="dav">   25.55   25.73</time>
   <time name="total">   30.43   30.66</time>
   <energy>
    <i name="e_fr_energy">    -62.35606431 </i>
    <i name="e_wo_entrp">    -62.39526306 </i>
    <i name="e_0_energy">    -62.36913056 </i>
   </energy>
  </scstep>
  <scstep>
   <time name="dav">   27.61   27.74</time>
   <time name="total">   32.57   32.71</time>
   <energy>
    <i name="e_fr_energy">    -62.33142227 </i>
    <i name="e_wo_entrp">    -62.36670915 </i>
    <i name="e_0_energy">    -62.34318456 </i>
   </energy>
  </scstep>
  <scstep>
   <time name="dav">   29.96   30.29</time>
   <time name="total">   35.07   35.41</time>
   <energy>
    <i name="e_fr_energy">    -62.32316596 </i>
    <i name="e_wo_entrp">    -62.34905705 </i>
    <i name="e_0_energy">    -62.33179632 </i>
   </energy>
  </scstep>
  <scstep>
   <time name="dav">   26.27   26.33</time>
   <time name="total">   31.26   31.33</time>
   <energy>
    <i name="e_fr_energy">    -62.30192616 </i>
    <i name="e_wo_entrp">    -62.33722727 </i>
    <i name="e_0_energy">    -62.31369319 </i>
   </energy>
  </scstep>
  <scstep>
   <time name="dav">   28.08   28.13</time>
   <time name="total">   34.62   34.68</time>
   <energy>
    <i name="e_fr_energy">    -62.30392556 </i>
    <i name="e_wo_entrp">    -62.33743075 </i>
    <i name="e_0_energy">    -62.31509395 </i>
   </energy>
  </scstep>
  <scstep>
   <time name="dav">   27.55   27.65</time>
   <time name="total">   33.83   33.94</time>
   <energy>
    <i name="e_fr_energy">    -62.29825842 </i>
    <i name="e_wo_entrp">    -62.33952384 </i>
    <i name="e_0_energy">    -62.31201356 </i>
   </energy>
  </scstep>
  <scstep>
   <time name="dav">   28.40   30.09</time>
   <time name="total">   34.84   36.54</time>
   <energy>
    <i name="e_fr_energy">    -62.29406492 </i>
    <i name="e_wo_entrp">    -62.32847868 </i>
    <i name="e_0_energy">    -62.30553618 </i>
   </energy>
  </scstep>
  <scstep>
   <time name="dav">   27.58   27.64</time>
   <time name="total">   32.56   32.63</time>
   <energy>
    <i name="e_fr_energy">    -62.29413247 </i>
    <i name="e_wo_entrp">    -62.32895501 </i>
    <i name="e_0_energy">    -62.30573999 </i>
   </energy>
  </scstep>
  <scstep>
   <time name="dav">   35.98   36.80</time>
   <time name="total">   45.41   47.22</time>
   <energy>
    <i name="e_fr_energy">    -62.29439664 </i>
    <i name="e_wo_entrp">    -62.32886740 </i>
    <i name="e_0_energy">    -62.30588689 </i>
   </energy>
  </scstep>
  <scstep>
   <time name="dav">   27.50   27.91</time>
   <time name="total">   32.53   32.97</time>
   <energy>
    <i name="e_fr_energy">    -62.29487840 </i>
    <i name="e_wo_entrp">    -62.32991484 </i>
    <i name="e_0_energy">    -62.30655721 </i>
   </energy>
  </scstep>
  <scstep>
   <time name="dav">   22.06   22.10</time>
   <time name="total">   27.09   27.14</time>
   <energy>
    <i name="e_fr_energy">    -62.29554115 </i>
    <i name="e_wo_entrp">    -62.33047736 </i>
    <i name="e_0_energy">    -62.30718655 </i>
   </energy>
  </scstep>
  <scstep>
   <time name="dav">   18.49   18.54</time>
   <time name="total">   24.47   24.52</time>
   <energy>
    <i name="e_fr_energy">    -62.29602087 </i>
    <i name="e_wo_entrp">    -62.33092154 </i>
    <i name="e_0_energy">    -62.30765443 </i>
   </energy>
  </scstep>
  <scstep>
   <time name="dav">   20.25   20.30</time>
   <time name="total">   25.28   25.34</time>
   <energy>
    <i name="e_fr_energy">    -62.29684589 </i>
    <i name="e_wo_entrp">    -62.33163714 </i>
    <i name="e_0_energy">    -62.30844297 </i>
   </energy>
  </scstep>
  <scstep>
   <time name="dav">   19.74   20.40</time>
   <time name="total">   24.74   25.41</time>
   <energy>
    <i name="e_fr_energy">    -62.29786903 </i>
    <i name="e_wo_entrp">    -62.33257261 </i>
    <i name="e_0_energy">    -62.30943689 </i>
   </energy>
  </scstep>
  <scstep>
   <time name="dav">   19.27   19.38</time>
   <time name="total">   24.37   24.49</time>
   <energy>
    <i name="e_fr_energy">    -62.29905929 </i>
    <i name="e_wo_entrp">    -62.33384484 </i>
    <i name="e_0_energy">    -62.31065447 </i>
   </energy>
  </scstep>
  <scstep>
   <time name="dav">   19.60   19.68</time>
   <time name="total">   24.81   24.90</time>
   <energy>
    <i name="e_fr_energy">    -62.30033433 </i>
    <i name="e_wo_entrp">    -62.33511150 </i>
    <i name="e_0_energy">    -62.31192672 </i>
   </energy>
  </scstep>
  <scstep>
   <time name="dav">   19.50   19.63</time>
   <time name="total">   24.52   24.67</time>
   <energy>
    <i name="e_fr_energy">    -62.30158937 </i>
    <i name="e_wo_entrp">    -62.33636709 </i>
    <i name="e_0_energy">    -62.31318195 </i>
   </energy>
  </scstep>
  <scstep>
   <time name="dav">   19.43   19.48</time>
   <time name="total">   24.60   24.66</time>
   <energy>
    <i name="e_fr_energy">    -62.30346116 </i>
    <i name="e_wo_entrp">    -62.33821230 </i>
    <i name="e_0_energy">    -62.31504487 </i>
   </energy>
  </scstep>
  <scstep>
   <time name="dav">   20.44   20.63</time>
   <time name="total">   25.71   25.92</time>
   <energy>
    <i name="e_fr_energy">    -62.30494409 </i>
    <i name="e_wo_entrp">    -62.33969057 </i>
    <i name="e_0_energy">    -62.31652625 </i>
   </energy>
  </scstep>
  <scstep>
   <time name="dav">   19.15   19.20</time>
   <time name="total">   24.70   24.77</time>
   <energy>
    <i name="e_fr_energy">    -62.30582836 </i>
    <i name="e_wo_entrp">    -62.34057281 </i>
    <i name="e_0_energy">    -62.31740985 </i>
   </energy>
  </scstep>
  <scstep>
   <time name="dav">   19.07   19.27</time>
   <time name="total">   24.58   24.81</time>
   <energy>
    <i name="e_fr_energy">    -62.30651710 </i>
    <i name="e_wo_entrp">    -62.34126156 </i>
    <i name="e_0_energy">    -62.31809859 </i>
   </energy>
  </scstep>
  <scstep>
   <time name="dav">   19.30   19.56</time>
   <time name="total">   24.56   24.83</time>
   <energy>
    <i name="e_fr_energy">    -62.30719572 </i>
    <i name="e_wo_entrp">    -62.34192957 </i>
    <i name="e_0_energy">    -62.31877367 </i>
   </energy>
  </scstep>
  <scstep>
   <time name="dav">   20.15   20.20</time>
   <time name="total">   25.43   25.48</time>
   <energy>
    <i name="e_fr_energy">    -62.30765956 </i>
    <i name="e_wo_entrp">    -62.34240165 </i>
    <i name="e_0_energy">    -62.31924026 </i>
   </energy>
  </scstep>
  <scstep>
   <time name="dav">   19.06   19.73</time>
   <time name="total">   24.33   25.01</time>
   <energy>
    <i name="e_fr_energy">    -62.30800519 </i>
    <i name="e_wo_entrp">    -62.34274138 </i>
    <i name="e_0_energy">    -62.31958392 </i>
   </energy>
  </scstep>
  <scstep>
   <time name="dav">   18.91   18.94</time>
   <time name="total">   25.31   25.88</time>
   <energy>
    <i name="e_fr_energy">    -62.30821604 </i>
    <i name="e_wo_entrp">    -62.34295477 </i>
    <i name="e_0_energy">    -62.31979562 </i>
   </energy>
  </scstep>
  <scstep>
   <time name="dav">   21.43   22.36</time>
   <time name="total">   26.98   28.18</time>
   <energy>
    <i name="e_fr_energy">    -62.30841383 </i>
    <i name="e_wo_entrp">    -62.34315324 </i>
    <i name="e_0_energy">    -62.31999363 </i>
   </energy>
  </scstep>
  <scstep>
   <time name="dav">   19.81   20.15</time>
   <time name="total">   28.01   29.28</time>
   <energy>
    <i name="e_fr_energy">    -62.30854347 </i>
    <i name="e_wo_entrp">    -62.34328377 </i>
    <i name="e_0_energy">    -62.32012357 </i>
   </energy>
  </scstep>
  <scstep>
   <time name="dav">   20.25   20.78</time>
   <time name="total">   24.60   25.15</time>
   <energy>
    <i name="alphaZ">     10.99900658 </i>
    <i name="ewald">  26564.88378885 </i>
    <i name="hartreedc"> -39102.68221483 </i>
    <i name="XCdc">   -480.48915762 </i>
    <i name="pawpsdc">  14766.12559931 </i>
    <i name="pawaedc"> -13791.23240791 </i>
    <i name="eentropy">      0.03474041 </i>
    <i name="bandstr">   -985.85021792 </i>
    <i name="atom">  12955.90228127 </i>
    <i name="e_fr_energy">    -62.30858186 </i>
    <i name="e_wo_entrp">    -62.34332227 </i>
    <i name="e_0_energy">    -62.32016200 </i>
   </energy>
  </scstep>
  <structure>
   <crystal>
    <varray name="basis" >
     <v>      24.31930264       0.00000000       0.00000000 </v>
     <v>       0.00000000      25.78299603       0.00000000 </v>
     <v>       0.00000000       0.00000000      24.19271133 </v>
    </varray>
    <i name="volume">  15169.42232408 </i>
    <varray name="rec_basis" >
     <v>       0.04111960       0.00000000       0.00000000 </v>
     <v>       0.00000000       0.03878525       0.00000000 </v>
     <v>       0.00000000       0.00000000       0.04133476 </v>
    </varray>
   </crystal>
   <varray name="positions" >
    <v>       0.38540349       0.53514186       0.45327457 </v>
    <v>       0.45140820       0.51925162       0.36680975 </v>
    <v>       0.46157359       0.60429907       0.42997613 </v>
    <v>       0.40172995       0.47575778       0.54721482 </v>
    <v>       0.45686315       0.45855051       0.45308991 </v>
    <v>       0.53281852       0.44131645       0.37929966 </v>
    <v>       0.47673756       0.54675968       0.52012430 </v>
    <v>       0.53842480       0.53113889       0.42824739 </v>
    <v>       0.55496518       0.61445691       0.48895750 </v>
    <v>       0.43494974       0.38256372       0.52378150 </v>
    <v>       0.37881502       0.57380059       0.55086589 </v>
    <v>       0.63859311       0.55149956       0.45997719 </v>
    <v>       0.59492174       0.45542924       0.47147698 </v>
    <v>       0.58000010       0.52948498       0.54674851 </v>
    <v>       0.52547591       0.37833738       0.46570245 </v>
    <v>       0.51294208       0.45000562       0.54764941 </v>
   </varray>
  </structure>
  <varray name="forces" >
   <v>      -0.07721252       0.06935240      -0.02678353 </v>
   <v>      -0.13454193      -0.06935813      -0.32917895 </v>
   <v>      -0.14113577       0.23906424      -0.17234182 </v>
   <v>      -0.08445674      -0.01331929       0.07800669 </v>
   <v>      -0.13468432      -0.25237899      -0.08688271 </v>
   <v>       0.04542604      -0.04480595      -0.29212292 </v>
   <v>       0.05532411       0.19100148       0.11308954 </v>
   <v>       0.03225151       0.08617708      -0.06783745 </v>
   <v>      -0.03884825       0.14982182       0.08286027 </v>
   <v>      -0.10214633      -0.16774507       0.18015678 </v>
   <v>      -0.03217253       0.10819942       0.13311013 </v>
   <v>       0.18212633      -0.13450404       0.02096039 </v>
   <v>       0.16951314       0.04899668      -0.01018218 </v>
   <v>       0.14301083       0.03714133       0.36694400 </v>
   <v>       0.10745418      -0.17205206      -0.05232616 </v>
   <v>       0.01009225      -0.07559092       0.06252792 </v>
  </varray>
  <energy>
   <i name="e_fr_energy">    -62.30858186 </i>
   <i name="e_wo_entrp">    -62.34332227 </i>
   <i name="e_0_energy">    -62.32016200 </i>
  </energy>
  <time name="totalsc">  849.51  861.44</time>
 </calculation>
 <calculation>
  <scstep>
   <time name="dav">   24.41   24.46</time>
   <time name="total">   29.47   29.53</time>
   <energy>
    <i name="alphaZ">     10.99900658 </i>
    <i name="ewald">  26300.77976286 </i>
    <i name="hartreedc"> -38841.82193346 </i>
    <i name="XCdc">   -481.10502730 </i>
    <i name="pawpsdc">  14766.12448240 </i>
    <i name="pawaedc"> -13791.23132874 </i>
    <i name="eentropy">      0.03276487 </i>
    <i name="bandstr">   -981.97910506 </i>
    <i name="atom">  12955.90228127 </i>
    <i name="e_fr_energy">    -62.29909657 </i>
    <i name="e_wo_entrp">    -62.33186144 </i>
    <i name="e_0_energy">    -62.31001819 </i>
   </energy>
  </scstep>
  <scstep>
   <time name="dav">   26.33   26.42</time>
   <time name="total">   31.99   32.09</time>
   <energy>
    <i name="e_fr_energy">    -62.35333349 </i>
    <i name="e_wo_entrp">    -62.39011972 </i>
    <i name="e_0_energy">    -62.36559557 </i>
   </energy>
  </scstep>
  <scstep>
   <time name="dav">   28.11   28.89</time>
   <time name="total">   32.96   33.80</time>
   <energy>
    <i name="e_fr_energy">    -62.34385517 </i>
    <i name="e_wo_entrp">    -62.37802872 </i>
    <i name="e_0_energy">    -62.35524636 </i>
   </energy>
  </scstep>
  <scstep>
   <time name="dav">   25.02   25.40</time>
   <time name="total">   30.08   30.47</time>
   <energy>
    <i name="e_fr_energy">    -62.34114641 </i>
    <i name="e_wo_entrp">    -62.37090172 </i>
    <i name="e_0_energy">    -62.35106484 </i>
   </energy>
  </scstep>
  <scstep>
   <time name="dav">   24.27   24.52</time>
   <time name="total">   29.29   29.57</time>
   <energy>
    <i name="e_fr_energy">    -62.33585145 </i>
    <i name="e_wo_entrp">    -62.36974750 </i>
    <i name="e_0_energy">    -62.34715013 </i>
   </energy>
  </scstep>
  <scstep>
   <time name="dav">   26.27   26.74</time>
   <time name="total">   31.25   31.74</time>
   <energy>
    <i name="e_fr_energy">    -62.33629473 </i>
    <i name="e_wo_entrp">    -62.36962499 </i>
    <i name="e_0_energy">    -62.34740482 </i>
   </energy>
  </scstep>
  <scstep>
   <time name="dav">   25.04   25.07</time>
   <time name="total">   30.59   30.63</time>
   <energy>
    <i name="e_fr_energy">    -62.33467521 </i>
    <i name="e_wo_entrp">    -62.37225020 </i>
    <i name="e_0_energy">    -62.34720021 </i>
   </energy>
  </scstep>
  <scstep>
   <time name="dav">   24.42   24.45</time>
   <time name="total">   29.33   29.37</time>
   <energy>
    <i name="e_fr_energy">    -62.33332375 </i>
    <i name="e_wo_entrp">    -62.36666263 </i>
    <i name="e_0_energy">    -62.34443671 </i>
   </energy>
  </scstep>
  <scstep>
   <time name="dav">   24.29   24.32</time>
   <time name="total">   29.17   29.21</time>
   <energy>
    <i name="e_fr_energy">    -62.33343360 </i>
    <i name="e_wo_entrp">    -62.36722203 </i>
    <i name="e_0_energy">    -62.34469641 </i>
   </energy>
  </scstep>
  <scstep>
   <time name="dav">   19.50   19.53</time>
   <time name="total">   24.55   24.58</time>
   <energy>
    <i name="e_fr_energy">    -62.33354871 </i>
    <i name="e_wo_entrp">    -62.36709061 </i>
    <i name="e_0_energy">    -62.34472934 </i>
   </energy>
  </scstep>
  <scstep>
   <time name="dav">   19.35   19.38</time>
   <time name="total">   24.45   24.49</time>
   <energy>
    <i name="e_fr_energy">    -62.33374630 </i>
    <i name="e_wo_entrp">    -62.36759564 </i>
    <i name="e_0_energy">    -62.34502941 </i>
   </energy>
  </scstep>
  <scstep>
   <time name="dav">   19.80   19.82</time>
   <time name="total">   24.83   24.86</time>
   <energy>
    <i name="e_fr_energy">    -62.33404410 </i>
    <i name="e_wo_entrp">    -62.36784852 </i>
    <i name="e_0_energy">    -62.34531224 </i>
   </energy>
  </scstep>
  <scstep>
   <time name="dav">   19.29   19.31</time>
   <time name="total">   24.48   24.52</time>
   <energy>
    <i name="e_fr_energy">    -62.33422137 </i>
    <i name="e_wo_entrp">    -62.36802760 </i>
    <i name="e_0_energy">    -62.34549012 </i>
   </energy>
  </scstep>
  <scstep>
   <time name="dav">   19.29   19.31</time>
   <time name="total">   24.25   24.28</time>
   <energy>
    <i name="e_fr_energy">    -62.33450033 </i>
    <i name="e_wo_entrp">    -62.36824189 </i>
    <i name="e_0_energy">    -62.34574752 </i>
   </energy>
  </scstep>
  <scstep>
   <time name="dav">   22.52   23.52</time>
   <time name="total">   27.47   28.50</time>
   <energy>
    <i name="e_fr_energy">    -62.33480195 </i>
    <i name="e_wo_entrp">    -62.36850142 </i>
    <i name="e_0_energy">    -62.34603511 </i>
   </energy>
  </scstep>
  <scstep>
   <time name="dav">   27.85   30.94</time>
   <time name="total">   32.85   35.97</time>
   <energy>
    <i name="e_fr_energy">    -62.33514888 </i>
    <i name="e_wo_entrp">    -62.36888433 </i>
    <i name="e_0_energy">    -62.34639403 </i>
   </energy>
  </scstep>
  <scstep>
   <time name="dav">   24.41   26.16</time>
   <time name="total">   30.44   32.33</time>
   <energy>
    <i name="e_fr_energy">    -62.33549323 </i>
    <i name="e_wo_entrp">    -62.36922765 </i>
    <i name="e_0_energy">    -62.34673804 </i>
   </energy>
  </scstep>
  <scstep>
   <time name="dav">   23.68   24.63</time>
   <time name="total">   29.36   30.32</time>
   <energy>
    <i name="e_fr_energy">    -62.33582930 </i>
    <i name="e_wo_entrp">    -62.36956508 </i>
    <i name="e_0_energy">    -62.34707456 </i>
   </energy>
  </scstep>
  <scstep>
   <time name="dav">   30.61   33.41</time>
   <time name="total">   35.70   38.60</time>
   <energy>
    <i name="e_fr_energy">    -62.33637302 </i>
    <i name="e_wo_entrp">    -62.37009759 </i>
    <i name="e_0_energy">    -62.34761454 </i>
   </energy>
  </scstep>
  <scstep>
   <time name="dav">   23.58   25.79</time>
   <time name="total">   28.73   30.96</time>
   <energy>
    <i name="e_fr_energy">    -62.33687740 </i>
    <i name="e_wo_entrp">    -62.37059894 </i>
    <i name="e_0_energy">    -62.34811792 </i>
   </energy>
  </scstep>
  <scstep>
   <time name="dav">   23.11   25.57</time>
   <time name="total">   29.21   31.97</time>
   <energy>
    <i name="e_fr_energy">    -62.33727766 </i>
    <i name="e_wo_entrp">    -62.37099684 </i>
    <i name="e_0_energy">    -62.34851739 </i>
   </energy>
  </scstep>
  <scstep>
   <time name="dav">   27.62   27.90</time>
   <time name="total">   35.59   36.24</time>
   <energy>
    <i name="e_fr_energy">    -62.33747152 </i>
    <i name="e_wo_entrp">    -62.37119356 </i>
    <i name="e_0_energy">    -62.34871220 </i>
   </energy>
  </scstep>
  <scstep>
   <time name="dav">   21.22   21.84</time>
   <time name="total">   26.43   27.06</time>
   <energy>
    <i name="e_fr_energy">    -62.33767505 </i>
    <i name="e_wo_entrp">    -62.37139211 </i>
    <i name="e_0_energy">    -62.34891407 </i>
   </energy>
  </scstep>
  <scstep>
   <time name="dav">   23.25   23.30</time>
   <time name="total">   28.46   28.53</time>
   <energy>
    <i name="e_fr_energy">    -62.33785326 </i>
    <i name="e_wo_entrp">    -62.37157335 </i>
    <i name="e_0_energy">    -62.34909329 </i>
   </energy>
  </scstep>
  <scstep>
   <time name="dav">   23.40   23.46</time>
   <time name="total">   28.68   28.76</time>
   <energy>
    <i name="e_fr_energy">    -62.33797896 </i>
    <i name="e_wo_entrp">    -62.37169636 </i>
    <i name="e_0_energy">    -62.34921810 </i>
   </energy>
  </scstep>
  <scstep>
   <time name="dav">   21.72   22.98</time>
   <time name="total">   25.15   26.63</time>
   <energy>
    <i name="alphaZ">     10.99900658 </i>
    <i name="ewald">  26300.77976286 </i>
    <i name="hartreedc"> -38845.54646703 </i>
    <i name="XCdc">   -481.00023772 </i>
    <i name="pawpsdc">  14669.59034614 </i>
    <i name="pawaedc"> -13693.30762601 </i>
    <i name="eentropy">      0.03371832 </i>
    <i name="bandstr">   -979.78883695 </i>
    <i name="atom">  12955.90228127 </i>
    <i name="e_fr_energy">    -62.33805253 </i>
    <i name="e_wo_entrp">    -62.37177085 </i>
    <i name="e_0_energy">    -62.34929197 </i>
   </energy>
  </scstep>
  <structure>
   <crystal>
    <varray name="basis" >
     <v>      24.31930264       0.00000000       0.00000000 </v>
     <v>       0.00000000      25.78299603       0.00000000 </v>
     <v>       0.00000000       0.00000000      24.19271133 </v>
    </varray>
    <i name="volume">  15169.42232408 </i>
    <varray name="rec_basis" >
     <v>       0.04111960       0.00000000       0.00000000 </v>
     <v>       0.00000000       0.03878525       0.00000000 </v>
     <v>       0.00000000       0.00000000       0.04133476 </v>
    </varray>
   </crystal>
   <varray name="positions" >
    <v>       0.38497304       0.53511032       0.45297776 </v>
    <v>       0.45114112       0.51908808       0.36603767 </v>
    <v>       0.46129933       0.60505101       0.42961114 </v>
    <v>       0.40139917       0.47554191       0.54754654 </v>
    <v>       0.45643885       0.45828589       0.45274366 </v>
    <v>       0.53297699       0.44123635       0.37856308 </v>
    <v>       0.47697728       0.54708391       0.52061282 </v>
    <v>       0.53850175       0.53105756       0.42779474 </v>
    <v>       0.55485735       0.61525732       0.48917192 </v>
    <v>       0.43443765       0.38205576       0.52416187 </v>
    <v>       0.37858153       0.57420660       0.55133124 </v>
    <v>       0.63948450       0.55139819       0.45964795 </v>
    <v>       0.59547698       0.45532441       0.47144903 </v>
    <v>       0.58002933       0.52932073       0.54784344 </v>
    <v>       0.52582596       0.37769387       0.46554490 </v>
    <v>       0.51322131       0.45008196       0.54815818 </v>
   </varray>
  </structure>
  <varray name="forces" >
   <v>       0.07817089       0.11830053       0.08638254 </v>
   <v>      -0.08265250      -0.03195306      -0.15061019 </v>
   <v>      -0.09018106       0.00808785      -0.09677058 </v>
   <v>       0.02384174       0.07928132      -0.03230987 </v>
   <v>      -0.01621864      -0.25056394       0.01706437 </v>
   <v>      -0.00406169      -0.02540649      -0.11390523 </v>
   <v>      -0.01943390       0.13524618      -0.03964737 </v>
   <v>       0.01201444       0.15398192       0.09230360 </v>
   <v>      -0.02626978      -0.13015213       0.02978994 </v>
   <v>       0.06670103      -0.01140524       0.10266565 </v>
   <v>       0.05835823      -0.03052808      -0.00541408 </v>
   <v>      -0.10007362      -0.15737249       0.15422011 </v>
   <v>       0.00720284       0.12787998      -0.00119939 </v>
   <v>       0.19107597       0.11992346       0.09488767 </v>
   <v>       0.01041098       0.04256055      -0.01163495 </v>
   <v>      -0.10888492      -0.14788037      -0.12582222 </v>
  </varray>
  <energy>
   <i name="e_fr_energy">    -62.33805253 </i>
   <i name="e_wo_entrp">    -62.37177085 </i>
   <i name="e_0_energy">    -62.34929197 </i>
  </energy>
  <time name="totalsc">  771.56  792.21</time>
 </calculation>
 <calculation>
  <scstep>
   <time name="dav">   24.94   25.32</time>
   <time name="total">   30.13   31.77</time>
   <energy>
    <i name="alphaZ">     10.99900658 </i>
    <i name="ewald">  26259.31466596 </i>
    <i name="hartreedc"> -38804.52784846 </i>
    <i name="XCdc">   -481.07287085 </i>
    <i name="pawpsdc">  14669.58674033 </i>
    <i name="pawaedc"> -13693.30397463 </i>
    <i name="eentropy">      0.03676892 </i>
    <i name="bandstr">   -979.28098913 </i>
    <i name="atom">  12955.90228127 </i>
    <i name="e_fr_energy">    -62.34622001 </i>
    <i name="e_wo_entrp">    -62.38298893 </i>
    <i name="e_0_energy">    -62.35847632 </i>
   </energy>
  </scstep>
  <scstep>
   <time name="dav">   31.49   31.63</time>
   <time name="total">   36.20   36.51</time>
   <energy>
    <i name="e_fr_energy">    -62.36485870 </i>
    <i name="e_wo_entrp">    -62.40396577 </i>
    <i name="e_0_energy">    -62.37789439 </i>
   </energy>
  </scstep>
  <scstep>
   <time name="dav">   28.45   28.78</time>
   <time name="total">   33.24   33.59</time>
   <energy>
    <i name="e_fr_energy">    -62.35547848 </i>
    <i name="e_wo_entrp">    -62.39316236 </i>
    <i name="e_0_energy">    -62.36803977 </i>
   </energy>
  </scstep>
  <scstep>
   <time name="dav">   25.82   25.88</time>
   <time name="total">   30.64   30.71</time>
   <energy>
    <i name="e_fr_energy">    -62.35656737 </i>
    <i name="e_wo_entrp">    -62.39398739 </i>
    <i name="e_0_energy">    -62.36904071 </i>
   </energy>
  </scstep>
  <scstep>
   <time name="dav">   26.42   26.48</time>
   <time name="total">   31.39   31.46</time>
   <energy>
    <i name="e_fr_energy">    -62.35567095 </i>
    <i name="e_wo_entrp">    -62.39268478 </i>
    <i name="e_0_energy">    -62.36800889 </i>
   </energy>
  </scstep>
  <scstep>
   <time name="dav">   26.12   26.97</time>
   <time name="total">   31.01   31.87</time>
   <energy>
    <i name="e_fr_energy">    -62.35602120 </i>
    <i name="e_wo_entrp">    -62.39518962 </i>
    <i name="e_0_energy">    -62.36907734 </i>
   </energy>
  </scstep>
  <scstep>
   <time name="dav">   25.80   26.02</time>
   <time name="total">   30.85   31.09</time>
   <energy>
    <i name="e_fr_energy">    -62.35576675 </i>
    <i name="e_wo_entrp">    -62.39237126 </i>
    <i name="e_0_energy">    -62.36796826 </i>
   </energy>
  </scstep>
  <scstep>
   <time name="dav">   22.83   22.95</time>
   <time name="total">   26.19   26.32</time>
   <energy>
    <i name="alphaZ">     10.99900658 </i>
    <i name="ewald">  26259.31466596 </i>
    <i name="hartreedc"> -38805.09358740 </i>
    <i name="XCdc">   -481.06311631 </i>
    <i name="pawpsdc">  14658.68301196 </i>
    <i name="pawaedc"> -13682.24605537 </i>
    <i name="eentropy">      0.03772538 </i>
    <i name="bandstr">   -978.88962276 </i>
    <i name="atom">  12955.90228127 </i>
    <i name="e_fr_energy">    -62.35569068 </i>
    <i name="e_wo_entrp">    -62.39341606 </i>
    <i name="e_0_energy">    -62.36826581 </i>
   </energy>
  </scstep>
  <structure>
   <crystal>
    <varray name="basis" >
     <v>      24.31930264       0.00000000       0.00000000 </v>
     <v>       0.00000000      25.78299603       0.00000000 </v>
     <v>       0.00000000       0.00000000      24.19271133 </v>
    </varray>
    <i name="volume">  15169.42232408 </i>
    <varray name="rec_basis" >
     <v>       0.04111960       0.00000000       0.00000000 </v>
     <v>       0.00000000       0.03878525       0.00000000 </v>
     <v>       0.00000000       0.00000000       0.04133476 </v>
    </varray>
   </crystal>
   <varray name="positions" >
    <v>       0.38508648       0.53535292       0.45312887 </v>
    <v>       0.45092121       0.51899874       0.36559572 </v>
    <v>       0.46106177       0.60517197       0.42934532 </v>
    <v>       0.40140616       0.47567755       0.54752057 </v>
    <v>       0.45634423       0.45772617       0.45273370 </v>
    <v>       0.53298993       0.44117223       0.37820771 </v>
    <v>       0.47696744       0.54741113       0.52059223 </v>
    <v>       0.53853899       0.53136776       0.42793745 </v>
    <v>       0.55478429       0.61509639       0.48926788 </v>
    <v>       0.43451440       0.38196165       0.52444294 </v>
    <v>       0.37867838       0.57419907       0.55138360 </v>
    <v>       0.63938639       0.55105562       0.45994551 </v>
    <v>       0.59556977       0.45557688       0.47144249 </v>
    <v>       0.58045628       0.52954835       0.54820610 </v>
    <v>       0.52589745       0.37769365       0.46549721 </v>
    <v>       0.51301896       0.44978380       0.54794866 </v>
   </varray>
  </structure>
  <varray name="forces" >
   <v>       0.11071512       0.05845009       0.03944093 </v>
   <v>      -0.03238653      -0.05306080      -0.02060467 </v>
   <v>      -0.06400198       0.00003073      -0.10424210 </v>
   <v>       0.03343801       0.05369926      -0.03572555 </v>
   <v>      -0.02457505      -0.11102764      -0.06217111 </v>
   <v>      -0.01804481       0.03612023      -0.01961912 </v>
   <v>       0.03516270       0.05428706      -0.03740567 </v>
   <v>      -0.08215953       0.04518872       0.01889494 </v>
   <v>      -0.02727312      -0.08893740       0.02878591 </v>
   <v>       0.04996566      -0.02948563       0.10250412 </v>
   <v>       0.03399809       0.00174834       0.02546645 </v>
   <v>      -0.04030414      -0.12173339       0.12909431 </v>
   <v>      -0.05432087       0.09974118      -0.00698159 </v>
   <v>       0.08418440       0.04206563       0.09507807 </v>
   <v>       0.03585980       0.04335871      -0.03095628 </v>
   <v>      -0.04025776      -0.03044507      -0.12155864 </v>
  </varray>
  <energy>
   <i name="e_fr_energy">    -62.35569068 </i>
   <i name="e_wo_entrp">    -62.39341606 </i>
   <i name="e_0_energy">    -62.36826581 </i>
  </energy>
  <time name="totalsc">  266.03  269.89</time>
 </calculation>
 <calculation>
  <scstep>
   <time name="dav">   25.14   25.19</time>
   <time name="total">   30.07   30.14</time>
   <energy>
    <i name="alphaZ">     10.99900658 </i>
    <i name="ewald">  26212.85299644 </i>
    <i name="hartreedc"> -38759.07925409 </i>
    <i name="XCdc">   -481.14127848 </i>
    <i name="pawpsdc">  14658.45067443 </i>
    <i name="pawaedc"> -13682.01178474 </i>
    <i name="eentropy">      0.04087965 </i>
    <i name="bandstr">   -978.36388286 </i>
    <i name="atom">  12955.90228127 </i>
    <i name="e_fr_energy">    -62.35036179 </i>
    <i name="e_wo_entrp">    -62.39124144 </i>
    <i name="e_0_energy">    -62.36398834 </i>
   </energy>
  </scstep>
  <scstep>
   <time name="dav">   26.38   26.47</time>
   <time name="total">   31.37   31.48</time>
   <energy>
    <i name="e_fr_energy">    -62.37369519 </i>
    <i name="e_wo_entrp">    -62.41699504 </i>
    <i name="e_0_energy">    -62.38812847 </i>
   </energy>
  </scstep>
  <scstep>
   <time name="dav">   26.88   27.35</time>
   <time name="total">   31.73   32.22</time>
   <energy>
    <i name="e_fr_energy">    -62.36241404 </i>
    <i name="e_wo_entrp">    -62.40385353 </i>
    <i name="e_0_energy">    -62.37622720 </i>
   </energy>
  </scstep>
  <scstep>
   <time name="dav">   25.04   25.26</time>
   <time name="total">   29.90   30.14</time>
   <energy>
    <i name="e_fr_energy">    -62.36359715 </i>
    <i name="e_wo_entrp">    -62.40582885 </i>
    <i name="e_0_energy">    -62.37767439 </i>
   </energy>
  </scstep>
  <scstep>
   <time name="dav">   25.50   25.78</time>
   <time name="total">   30.42   30.71</time>
   <energy>
    <i name="e_fr_energy">    -62.36251698 </i>
    <i name="e_wo_entrp">    -62.40316771 </i>
    <i name="e_0_energy">    -62.37606722 </i>
   </energy>
  </scstep>
  <scstep>
   <time name="dav">   25.45   25.87</time>
   <time name="total">   30.55   30.98</time>
   <energy>
    <i name="e_fr_energy">    -62.36268047 </i>
    <i name="e_wo_entrp">    -62.40600132 </i>
    <i name="e_0_energy">    -62.37712075 </i>
   </energy>
  </scstep>
  <scstep>
   <time name="dav">   26.39   26.45</time>
   <time name="total">   31.61   31.74</time>
   <energy>
    <i name="e_fr_energy">    -62.36251417 </i>
    <i name="e_wo_entrp">    -62.40328903 </i>
    <i name="e_0_energy">    -62.37610579 </i>
   </energy>
  </scstep>
  <scstep>
   <time name="dav">   22.90   22.99</time>
   <time name="total">   28.09   28.20</time>
   <energy>
    <i name="e_fr_energy">    -62.36238120 </i>
    <i name="e_wo_entrp">    -62.40424628 </i>
    <i name="e_0_energy">    -62.37633623 </i>
   </energy>
  </scstep>
  <scstep>
   <time name="dav">   19.29   19.36</time>
   <time name="total">   22.65   22.72</time>
   <energy>
    <i name="alphaZ">     10.99900658 </i>
    <i name="ewald">  26212.85299644 </i>
    <i name="hartreedc"> -38759.72979829 </i>
    <i name="XCdc">   -481.12862167 </i>
    <i name="pawpsdc">  14647.07628233 </i>
    <i name="pawaedc"> -13670.47303593 </i>
    <i name="eentropy">      0.04171843 </i>
    <i name="bandstr">   -977.90318711 </i>
    <i name="atom">  12955.90228127 </i>
    <i name="e_fr_energy">    -62.36235796 </i>
    <i name="e_wo_entrp">    -62.40407639 </i>
    <i name="e_0_energy">    -62.37626410 </i>
   </energy>
  </scstep>
  <structure>
   <crystal>
    <varray name="basis" >
     <v>      24.31930264       0.00000000       0.00000000 </v>
     <v>       0.00000000      25.78299603       0.00000000 </v>
     <v>       0.00000000       0.00000000      24.19271133 </v>
    </varray>
    <i name="volume">  15169.42232408 </i>
    <varray name="rec_basis" >
     <v>       0.04111960       0.00000000       0.00000000 </v>
     <v>       0.00000000       0.03878525       0.00000000 </v>
     <v>       0.00000000       0.00000000       0.04133476 </v>
    </varray>
   </crystal>
   <varray name="positions" >
    <v>       0.38521427       0.53562621       0.45329909 </v>
    <v>       0.45067349       0.51889810       0.36509786 </v>
    <v>       0.46079417       0.60530823       0.42904587 </v>
    <v>       0.40141403       0.47583034       0.54749132 </v>
    <v>       0.45623764       0.45709566       0.45272248 </v>
    <v>       0.53300451       0.44109999       0.37780738 </v>
    <v>       0.47695637       0.54777975       0.52056903 </v>
    <v>       0.53858095       0.53171721       0.42809821 </v>
    <v>       0.55470198       0.61491510       0.48937597 </v>
    <v>       0.43460086       0.38185562       0.52475956 </v>
    <v>       0.37878747       0.57419058       0.55144259 </v>
    <v>       0.63927586       0.55066972       0.46028070 </v>
    <v>       0.59567431       0.45586127       0.47143513 </v>
    <v>       0.58093724       0.52980477       0.54861465 </v>
    <v>       0.52597799       0.37769340       0.46544349 </v>
    <v>       0.51279102       0.44944793       0.54771264 </v>
   </varray>
  </structure>
  <varray name="forces" >
   <v>       0.15952493      -0.00830172      -0.00222048 </v>
   <v>       0.01595701      -0.07290037       0.11413449 </v>
   <v>      -0.03390222      -0.01907254      -0.10342090 </v>
   <v>       0.05059387       0.03260776      -0.04821175 </v>
   <v>      -0.03945436       0.04573265      -0.14133969 </v>
   <v>      -0.03422809       0.09669469       0.06137345 </v>
   <v>       0.08163530      -0.03632121      -0.03617298 </v>
   <v>      -0.18788810      -0.06589593      -0.06501234 </v>
   <v>      -0.03086660      -0.03417140       0.02962396 </v>
   <v>       0.02481730      -0.04485658       0.10117923 </v>
   <v>       0.01069781       0.02974743       0.05518034 </v>
   <v>       0.03358017      -0.06932419       0.09733127 </v>
   <v>      -0.10991445       0.05167745      -0.00649714 </v>
   <v>      -0.02924122      -0.03515539       0.10560300 </v>
   <v>       0.06182301       0.03154681      -0.04950447 </v>
   <v>       0.02686564       0.09799253      -0.11204597 </v>
  </varray>
  <energy>
   <i name="e_fr_energy">    -62.36235796 </i>
   <i name="e_wo_entrp">    -62.40407639 </i>
   <i name="e_0_energy">    -62.37626410 </i>
  </energy>
  <time name="totalsc">  282.59  284.63</time>
 </calculation>
 <calculation>
  <scstep>
   <time name="dav">   24.40   24.56</time>
   <time name="total">   29.45   29.62</time>
   <energy>
    <i name="alphaZ">     10.99900658 </i>
    <i name="ewald">  26228.69595110 </i>
    <i name="hartreedc"> -38775.37959185 </i>
    <i name="XCdc">   -481.09098306 </i>
    <i name="pawpsdc">  14646.95907283 </i>
    <i name="pawaedc"> -13670.35486976 </i>
    <i name="eentropy">      0.04568573 </i>
    <i name="bandstr">   -978.13975612 </i>
    <i name="atom">  12955.90228127 </i>
    <i name="e_fr_energy">    -62.36320327 </i>
    <i name="e_wo_entrp">    -62.40888900 </i>
    <i name="e_0_energy">    -62.37843185 </i>
   </energy>
  </scstep>
  <scstep>
   <time name="dav">   26.19   26.54</time>
   <time name="total">   31.04   31.40</time>
   <energy>
    <i name="e_fr_energy">    -62.38042515 </i>
    <i name="e_wo_entrp">    -62.42723609 </i>
    <i name="e_0_energy">    -62.39602880 </i>
   </energy>
  </scstep>
  <scstep>
   <time name="dav">   25.43   25.50</time>
   <time name="total">   30.69   30.78</time>
   <energy>
    <i name="e_fr_energy">    -62.37602632 </i>
    <i name="e_wo_entrp">    -62.42089933 </i>
    <i name="e_0_energy">    -62.39098399 </i>
   </energy>
  </scstep>
  <scstep>
   <time name="dav">   25.41   26.02</time>
   <time name="total">   30.26   30.90</time>
   <energy>
    <i name="e_fr_energy">    -62.37669715 </i>
    <i name="e_wo_entrp">    -62.42441084 </i>
    <i name="e_0_energy">    -62.39260171 </i>
   </energy>
  </scstep>
  <scstep>
   <time name="dav">   26.08   26.48</time>
   <time name="total">   31.08   31.50</time>
   <energy>
    <i name="e_fr_energy">    -62.37574817 </i>
    <i name="e_wo_entrp">    -62.42099187 </i>
    <i name="e_0_energy">    -62.39082940 </i>
   </energy>
  </scstep>
  <scstep>
   <time name="dav">   27.35   27.38</time>
   <time name="total">   32.73   32.81</time>
   <energy>
    <i name="e_fr_energy">    -62.37592484 </i>
    <i name="e_wo_entrp">    -62.42225380 </i>
    <i name="e_0_energy">    -62.39136783 </i>
   </energy>
  </scstep>
  <scstep>
   <time name="dav">   25.57   25.85</time>
   <time name="total">   30.87   31.16</time>
   <energy>
    <i name="e_fr_energy">    -62.37593144 </i>
    <i name="e_wo_entrp">    -62.42075047 </i>
    <i name="e_0_energy">    -62.39087112 </i>
   </energy>
  </scstep>
  <scstep>
   <time name="dav">   22.28   22.35</time>
   <time name="total">   27.31   27.39</time>
   <energy>
    <i name="e_fr_energy">    -62.37577381 </i>
    <i name="e_wo_entrp">    -62.42164346 </i>
    <i name="e_0_energy">    -62.39106370 </i>
   </energy>
  </scstep>
  <scstep>
   <time name="dav">   19.38   19.41</time>
   <time name="total">   24.33   24.39</time>
   <energy>
    <i name="e_fr_energy">    -62.37587527 </i>
    <i name="e_wo_entrp">    -62.42167160 </i>
    <i name="e_0_energy">    -62.39114071 </i>
   </energy>
  </scstep>
  <scstep>
   <time name="dav">   18.39   18.44</time>
   <time name="total">   21.77   21.82</time>
   <energy>
    <i name="alphaZ">     10.99900658 </i>
    <i name="ewald">  26228.69595110 </i>
    <i name="hartreedc"> -38775.07907415 </i>
    <i name="XCdc">   -481.09668992 </i>
    <i name="pawpsdc">  14652.49299732 </i>
    <i name="pawaedc"> -13675.99126675 </i>
    <i name="eentropy">      0.04579604 </i>
    <i name="bandstr">   -978.34492999 </i>
    <i name="atom">  12955.90228127 </i>
    <i name="e_fr_energy">    -62.37592849 </i>
    <i name="e_wo_entrp">    -62.42172454 </i>
    <i name="e_0_energy">    -62.39119384 </i>
   </energy>
  </scstep>
  <structure>
   <crystal>
    <varray name="basis" >
     <v>      24.31930264       0.00000000       0.00000000 </v>
     <v>       0.00000000      25.78299603       0.00000000 </v>
     <v>       0.00000000       0.00000000      24.19271133 </v>
    </varray>
    <i name="volume">  15169.42232408 </i>
    <varray name="rec_basis" >
     <v>       0.04111960       0.00000000       0.00000000 </v>
     <v>       0.00000000       0.03878525       0.00000000 </v>
     <v>       0.00000000       0.00000000       0.04133476 </v>
    </varray>
   </crystal>
   <varray name="positions" >
    <v>       0.38572106       0.53576360       0.45339184 </v>
    <v>       0.45057299       0.51865320       0.36512005 </v>
    <v>       0.46054690       0.60533853       0.42859013 </v>
    <v>       0.40155580       0.47600243       0.54734291 </v>
    <v>       0.45606877       0.45684669       0.45233065 </v>
    <v>       0.53292015       0.44130540       0.37774234 </v>
    <v>       0.47717133       0.54790078       0.52045695 </v>
    <v>       0.53809575       0.53175146       0.42801429 </v>
    <v>       0.55457050       0.61472248       0.48951947 </v>
    <v>       0.43471834       0.38167934       0.52521916 </v>
    <v>       0.37887981       0.57426175       0.55162725 </v>
    <v>       0.63930278       0.55026841       0.46074058 </v>
    <v>       0.59543689       0.45615853       0.47141314 </v>
    <v>       0.58113709       0.52986367       0.54913965 </v>
    <v>       0.52619239       0.37777396       0.46527735 </v>
    <v>       0.51273158       0.44950365       0.54727019 </v>
   </varray>
  </structure>
  <varray name="forces" >
   <v>       0.10447692      -0.01515904       0.01505393 </v>
   <v>      -0.00401391      -0.06626772       0.05091330 </v>
   <v>       0.00374964       0.03096585      -0.09171305 </v>
   <v>       0.05638036      -0.00185823      -0.05036491 </v>
   <v>      -0.06378186      -0.00138788      -0.06904568 </v>
   <v>      -0.01460669       0.06991918       0.03668925 </v>
   <v>       0.05291773      -0.06334898      -0.01594301 </v>
   <v>      -0.09455776      -0.03808126      -0.03895756 </v>
   <v>      -0.01056706      -0.02912408       0.00662662 </v>
   <v>       0.05004613       0.00270420       0.06043060 </v>
   <v>       0.02307338       0.02971039       0.04785785 </v>
   <v>      -0.00406528      -0.03670640       0.07034178 </v>
   <v>      -0.10809040       0.03866096      -0.00521355 </v>
   <v>      -0.05954956      -0.05359397       0.10659096 </v>
   <v>       0.03533506       0.01470315      -0.03876398 </v>
   <v>       0.03325331       0.11886382      -0.08450256 </v>
  </varray>
  <energy>
   <i name="e_fr_energy">    -62.37592849 </i>
   <i name="e_wo_entrp">    -62.42172454 </i>
   <i name="e_0_energy">    -62.39119384 </i>
  </energy>
  <time name="totalsc">  306.04  308.33</time>
 </calculation>
 <calculation>
  <scstep>
   <time name="dav">   25.27   25.33</time>
   <time name="total">   30.25   30.32</time>
   <energy>
    <i name="alphaZ">     10.99900658 </i>
    <i name="ewald">  26263.06416551 </i>
    <i name="hartreedc"> -38808.99421454 </i>
    <i name="XCdc">   -481.01043861 </i>
    <i name="pawpsdc">  14652.50413153 </i>
    <i name="pawaedc"> -13676.00288387 </i>
    <i name="eentropy">      0.05415551 </i>
    <i name="bandstr">   -978.84049431 </i>
    <i name="atom">  12955.90228127 </i>
    <i name="e_fr_energy">    -62.32429092 </i>
    <i name="e_wo_entrp">    -62.37844643 </i>
    <i name="e_0_energy">    -62.34234276 </i>
   </energy>
  </scstep>
  <scstep>
   <time name="dav">   28.92   29.01</time>
   <time name="total">   33.75   33.86</time>
   <energy>
    <i name="e_fr_energy">    -62.40938156 </i>
    <i name="e_wo_entrp">    -62.46757475 </i>
    <i name="e_0_energy">    -62.42877929 </i>
   </energy>
  </scstep>
  <scstep>
   <time name="dav">   27.72   27.81</time>
   <time name="total">   32.92   33.02</time>
   <energy>
    <i name="e_fr_energy">    -62.38885822 </i>
    <i name="e_wo_entrp">    -62.44128537 </i>
    <i name="e_0_energy">    -62.40633394 </i>
   </energy>
  </scstep>
  <scstep>
   <time name="dav">   26.06   26.32</time>
   <time name="total">   31.71   32.05</time>
   <energy>
    <i name="e_fr_energy">    -62.39129223 </i>
    <i name="e_wo_entrp">    -62.45087142 </i>
    <i name="e_0_energy">    -62.41115196 </i>
   </energy>
  </scstep>
  <scstep>
   <time name="dav">   25.18   25.37</time>
   <time name="total">   30.10   30.30</time>
   <energy>
    <i name="e_fr_energy">    -62.38668608 </i>
    <i name="e_wo_entrp">    -62.44057032 </i>
    <i name="e_0_energy">    -62.40464749 </i>
   </energy>
  </scstep>
  <scstep>
   <time name="dav">   26.14   26.18</time>
   <time name="total">   31.18   31.25</time>
   <energy>
    <i name="e_fr_energy">    -62.38704186 </i>
    <i name="e_wo_entrp">    -62.44240901 </i>
    <i name="e_0_energy">    -62.40549758 </i>
   </energy>
  </scstep>
  <scstep>
   <time name="dav">   25.50   25.69</time>
   <time name="total">   30.97   31.31</time>
   <energy>
    <i name="e_fr_energy">    -62.38662203 </i>
    <i name="e_wo_entrp">    -62.44020312 </i>
    <i name="e_0_energy">    -62.40448239 </i>
   </energy>
  </scstep>
  <scstep>
   <time name="dav">   25.09   25.52</time>
   <time name="total">   30.09   30.54</time>
   <energy>
    <i name="e_fr_energy">    -62.38619081 </i>
    <i name="e_wo_entrp">    -62.44128575 </i>
    <i name="e_0_energy">    -62.40455579 </i>
   </energy>
  </scstep>
  <scstep>
   <time name="dav">   23.71   23.76</time>
[...]
       <r>    -0.8773    11.2010    97.0703 </r>
       <r>    -0.8332     8.8563    97.4610 </r>
       <r>    -0.7891     6.1527    97.7325 </r>
       <r>    -0.7450     3.7303    97.8971 </r>
       <r>    -0.7008     2.1504    97.9919 </r>
       <r>    -0.6567     1.7570    98.0694 </r>
       <r>    -0.6126     2.5605    98.1824 </r>
       <r>    -0.5685     4.1920    98.3674 </r>
       <r>    -0.5244     5.9911    98.6317 </r>
       <r>    -0.4802     7.2461    98.9514 </r>
       <r>    -0.4361     7.4988    99.2822 </r>
       <r>    -0.3920     6.7539    99.5802 </r>
       <r>    -0.3479     5.4502    99.8206 </r>
       <r>    -0.3038     4.1955   100.0057 </r>
       <r>    -0.2597     3.4301   100.1571 </r>
       <r>    -0.2155     3.2397   100.3000 </r>
       <r>    -0.1714     3.4297   100.4513 </r>
       <r>    -0.1273     3.7782   100.6180 </r>
       <r>    -0.0832     4.2533   100.8056 </r>
       <r>    -0.0391     5.0208   101.0271 </r>
       <r>     0.0051     6.2456   101.3027 </r>
       <r>     0.0492     7.8533   101.6492 </r>
       <r>     0.0933     9.4500   102.0661 </r>
       <r>     0.1374    10.4668   102.5279 </r>
       <r>     0.1815    10.4396   102.9885 </r>
       <r>     0.2257     9.2465   103.3964 </r>
       <r>     0.2698     7.1664   103.7126 </r>
       <r>     0.3139     4.7408   103.9217 </r>
       <r>     0.3580     2.5304   104.0334 </r>
       <r>     0.4021     0.9050   104.0733 </r>
       <r>     0.4462    -0.0382   104.0716 </r>
       <r>     0.4904    -0.4200   104.0531 </r>
       <r>     0.5345    -0.4559   104.0330 </r>
       <r>     0.5786    -0.3441   104.0178 </r>
       <r>     0.6227    -0.2111   104.0085 </r>
       <r>     0.6668    -0.1105   104.0036 </r>
       <r>     0.7110    -0.0506   104.0014 </r>
       <r>     0.7551    -0.0204   104.0005 </r>
       <r>     0.7992    -0.0073   104.0001 </r>
       <r>     0.8433    -0.0024   104.0000 </r>
       <r>     0.8874    -0.0007   104.0000 </r>
       <r>     0.9316    -0.0002   104.0000 </r>
       <r>     0.9757    -0.0000   104.0000 </r>
       <r>     1.0198    -0.0000   104.0000 </r>
       <r>     1.0639    -0.0000   104.0000 </r>
       <r>     1.1080    -0.0000   104.0000 </r>
       <r>     1.1521    -0.0000   104.0000 </r>
       <r>     1.1963    -0.0000   104.0000 </r>
       <r>     1.2404    -0.0000   104.0000 </r>
       <r>     1.2845    -0.0000   104.0000 </r>
       <r>     1.3286    -0.0000   104.0000 </r>
       <r>     1.3727    -0.0000   104.0000 </r>
       <r>     1.4169    -0.0000   104.0000 </r>
       <r>     1.4610    -0.0000   104.0000 </r>
       <r>     1.5051     0.0000   104.0000 </r>
       <r>     1.5492     0.0000   104.0000 </r>
       <r>     1.5933     0.0000   104.0000 </r>
       <r>     1.6375     0.0000   104.0000 </r>
       <r>     1.6816     0.0000   104.0000 </r>
       <r>     1.7257     0.0000   104.0000 </r>
       <r>     1.7698     0.0000   104.0000 </r>
       <r>     1.8139     0.0000   104.0000 </r>
       <r>     1.8580     0.0000   104.0000 </r>
       <r>     1.9022     0.0000   104.0000 </r>
       <r>     1.9463     0.0000   104.0000 </r>
       <r>     1.9904     0.0000   104.0000 </r>
       <r>     2.0345     0.0000   104.0000 </r>
       <r>     2.0786     0.0000   104.0000 </r>
       <r>     2.1228     0.0000   104.0000 </r>
       <r>     2.1669     0.0000   104.0000 </r>
       <r>     2.2110     0.0000   104.0000 </r>
      </set>
      <set comment="spin 2">
       <r>   -11.0246     0.0000     0.0000 </r>
       <r>   -10.9805     0.0000     0.0000 </r>
       <r>   -10.9364     0.0000     0.0000 </r>
       <r>   -10.8923     0.0000     0.0000 </r>
       <r>   -10.8481     0.0000     0.0000 </r>
       <r>   -10.8040     0.0000     0.0000 </r>
       <r>   -10.7599     0.0000     0.0000 </r>
       <r>   -10.7158     0.0000     0.0000 </r>
       <r>   -10.6717     0.0000     0.0000 </r>
       <r>   -10.6276     0.0000     0.0000 </r>
       <r>   -10.5834    -0.0000    -0.0000 </r>
       <r>   -10.5393    -0.0000    -0.0000 </r>
       <r>   -10.4952    -0.0000    -0.0000 </r>
       <r>   -10.4511    -0.0000    -0.0000 </r>
       <r>   -10.4070    -0.0000    -0.0000 </r>
       <r>   -10.3628    -0.0000    -0.0000 </r>
       <r>   -10.3187    -0.0000    -0.0000 </r>
       <r>   -10.2746    -0.0000    -0.0000 </r>
       <r>   -10.2305    -0.0000    -0.0000 </r>
       <r>   -10.1864    -0.0000    -0.0000 </r>
       <r>   -10.1422    -0.0000    -0.0000 </r>
       <r>   -10.0981    -0.0000    -0.0000 </r>
       <r>   -10.0540    -0.0000    -0.0000 </r>
       <r>   -10.0099    -0.0000    -0.0000 </r>
       <r>    -9.9658    -0.0000    -0.0000 </r>
       <r>    -9.9217    -0.0000    -0.0000 </r>
       <r>    -9.8775    -0.0000    -0.0000 </r>
       <r>    -9.8334    -0.0000    -0.0000 </r>
       <r>    -9.7893    -0.0000    -0.0000 </r>
       <r>    -9.7452    -0.0000    -0.0000 </r>
       <r>    -9.7011    -0.0000    -0.0000 </r>
       <r>    -9.6569    -0.0001    -0.0000 </r>
       <r>    -9.6128    -0.0003    -0.0000 </r>
       <r>    -9.5687    -0.0011    -0.0001 </r>
       <r>    -9.5246    -0.0035    -0.0002 </r>
       <r>    -9.4805    -0.0099    -0.0007 </r>
       <r>    -9.4363    -0.0252    -0.0018 </r>
       <r>    -9.3922    -0.0562    -0.0042 </r>
       <r>    -9.3481    -0.1084    -0.0090 </r>
       <r>    -9.3040    -0.1760    -0.0168 </r>
       <r>    -9.2599    -0.2252    -0.0267 </r>
       <r>    -9.2158    -0.1801    -0.0347 </r>
       <r>    -9.1716     0.0714    -0.0315 </r>
       <r>    -9.1275     0.6328    -0.0036 </r>
       <r>    -9.0834     1.5210     0.0635 </r>
       <r>    -9.0393     2.5977     0.1781 </r>
       <r>    -8.9952     3.5726     0.3357 </r>
       <r>    -8.9510     4.1106     0.5171 </r>
       <r>    -8.9069     3.9960     0.6934 </r>
       <r>    -8.8628     3.2547     0.8370 </r>
       <r>    -8.8187     2.1513     0.9319 </r>
       <r>    -8.7746     1.0709     0.9791 </r>
       <r>    -8.7304     0.3633     0.9952 </r>
       <r>    -8.6863     0.2299     1.0053 </r>
       <r>    -8.6422     0.6775     1.0352 </r>
       <r>    -8.5981     1.5298     1.1027 </r>
       <r>    -8.5540     2.4969     1.2129 </r>
       <r>    -8.5099     3.3061     1.3587 </r>
       <r>    -8.4657     3.8609     1.5290 </r>
       <r>    -8.4216     4.3307     1.7201 </r>
       <r>    -8.3775     5.0757     1.9440 </r>
       <r>    -8.3334     6.4247     2.2275 </r>
       <r>    -8.2893     8.4429     2.6000 </r>
       <r>    -8.2451    10.8524     3.0788 </r>
       <r>    -8.2010    13.1575     3.6593 </r>
       <r>    -8.1569    14.8789     4.3157 </r>
       <r>    -8.1128    15.7463     5.0104 </r>
       <r>    -8.0687    15.7555     5.7055 </r>
       <r>    -8.0245    15.0919     6.3714 </r>
       <r>    -7.9804    13.9981     6.9889 </r>
       <r>    -7.9363    12.6743     7.5481 </r>
       <r>    -7.8922    11.2672     8.0452 </r>
       <r>    -7.8481     9.9291     8.4833 </r>
       <r>    -7.8040     8.8635     8.8743 </r>
       <r>    -7.7598     8.2866     9.2399 </r>
       <r>    -7.7157     8.3179     9.6069 </r>
       <r>    -7.6716     8.8937     9.9993 </r>
       <r>    -7.6275     9.7911    10.4312 </r>
       <r>    -7.5834    10.7523    10.9056 </r>
       <r>    -7.5392    11.6222    11.4184 </r>
       <r>    -7.4951    12.4020    11.9655 </r>
       <r>    -7.4510    13.1940    12.5476 </r>
       <r>    -7.4069    14.0879    13.1692 </r>
       <r>    -7.3628    15.0608    13.8336 </r>
       <r>    -7.3186    15.9393    14.5369 </r>
       <r>    -7.2745    16.4413    15.2622 </r>
       <r>    -7.2304    16.2890    15.9809 </r>
       <r>    -7.1863    15.3650    16.6588 </r>
       <r>    -7.1422    13.8369    17.2692 </r>
       <r>    -7.0981    12.1595    17.8057 </r>
       <r>    -7.0539    10.9157    18.2873 </r>
       <r>    -7.0098    10.5706    18.7536 </r>
       <r>    -6.9657    11.2753    19.2511 </r>
       <r>    -6.9216    12.8135    19.8164 </r>
       <r>    -6.8775    14.6947    20.4647 </r>
       <r>    -6.8333    16.3398    21.1856 </r>
       <r>    -6.7892    17.2998    21.9489 </r>
       <r>    -6.7451    17.4398    22.7183 </r>
       <r>    -6.7010    16.9942    23.4680 </r>
       <r>    -6.6569    16.4308    24.1929 </r>
       <r>    -6.6127    16.1835    24.9069 </r>
       <r>    -6.5686    16.4291    25.6318 </r>
       <r>    -6.5245    17.0676    26.3848 </r>
       <r>    -6.4804    17.8980    27.1744 </r>
       <r>    -6.4363    18.8179    28.0046 </r>
       <r>    -6.3922    19.8650    28.8810 </r>
       <r>    -6.3480    21.0786    29.8110 </r>
       <r>    -6.3039    22.3250    30.7960 </r>
       <r>    -6.2598    23.2661    31.8224 </r>
       <r>    -6.2157    23.5155    32.8599 </r>
       <r>    -6.1716    22.8694    33.8689 </r>
       <r>    -6.1274    21.4342    34.8145 </r>
       <r>    -6.0833    19.5643    35.6777 </r>
       <r>    -6.0392    17.6670    36.4571 </r>
       <r>    -5.9951    16.0199    37.1639 </r>
       <r>    -5.9510    14.7166    37.8132 </r>
       <r>    -5.9068    13.7446    38.4196 </r>
       <r>    -5.8627    13.1024    38.9976 </r>
       <r>    -5.8186    12.8539    39.5647 </r>
       <r>    -5.7745    13.0874    40.1421 </r>
       <r>    -5.7304    13.8296    40.7523 </r>
       <r>    -5.6863    14.9867    41.4135 </r>
       <r>    -5.6421    16.3549    42.1350 </r>
       <r>    -5.5980    17.6916    42.9156 </r>
       <r>    -5.5539    18.8159    43.7457 </r>
       <r>    -5.5098    19.6901    44.6144 </r>
       <r>    -5.4657    20.4436    45.5163 </r>
       <r>    -5.4215    21.3174    46.4568 </r>
       <r>    -5.3774    22.5421    47.4514 </r>
       <r>    -5.3333    24.1932    48.5187 </r>
       <r>    -5.2892    26.0836    49.6695 </r>
       <r>    -5.2451    27.7565    50.8941 </r>
       <r>    -5.2009    28.6281    52.1571 </r>
       <r>    -5.1568    28.2652    53.4042 </r>
       <r>    -5.1127    26.6817    54.5813 </r>
       <r>    -5.0686    24.4633    55.6606 </r>
       <r>    -5.0245    22.5744    56.6566 </r>
       <r>    -4.9804    21.8833    57.6220 </r>
       <r>    -4.9362    22.6656    58.6220 </r>
       <r>    -4.8921    24.4178    59.6993 </r>
       <r>    -4.8480    26.1467    60.8528 </r>
       <r>    -4.8039    26.9746    62.0429 </r>
       <r>    -4.7598    26.6725    63.2197 </r>
       <r>    -4.7156    25.7768    64.3569 </r>
       <r>    -4.6715    25.2303    65.4701 </r>
       <r>    -4.6274    25.7936    66.6080 </r>
       <r>    -4.5833    27.5894    67.8252 </r>
       <r>    -4.5392    30.0238    69.1499 </r>
       <r>    -4.4950    32.0887    70.5656 </r>
       <r>    -4.4509    32.8498    72.0149 </r>
       <r>    -4.4068    31.8645    73.4207 </r>
       <r>    -4.3627    29.3514    74.7156 </r>
       <r>    -4.3186    26.0697    75.8658 </r>
       <r>    -4.2745    22.9900    76.8801 </r>
       <r>    -4.2303    20.9008    77.8022 </r>
       <r>    -4.1862    20.1032    78.6891 </r>
       <r>    -4.1421    20.3070    79.5850 </r>
       <r>    -4.0980    20.7636    80.5011 </r>
       <r>    -4.0539    20.5841    81.4093 </r>
       <r>    -4.0097    19.1104    82.2524 </r>
       <r>    -3.9656    16.1844    82.9664 </r>
       <r>    -3.9215    12.1960    83.5045 </r>
       <r>    -3.8774     7.8984    83.8530 </r>
       <r>    -3.8333     4.0962    84.0337 </r>
       <r>    -3.7892     1.3678    84.0940 </r>
       <r>    -3.7450    -0.0603    84.0914 </r>
       <r>    -3.7009    -0.2837    84.0788 </r>
       <r>    -3.6568     0.3840    84.0958 </r>
       <r>    -3.6127     1.5153    84.1626 </r>
       <r>    -3.5686     2.6675    84.2803 </r>
       <r>    -3.5244     3.5045    84.4349 </r>
       <r>    -3.4803     3.9272    84.6082 </r>
       <r>    -3.4362     4.1217    84.7900 </r>
       <r>    -3.3921     4.4419    84.9860 </r>
       <r>    -3.3480     5.1528    85.2133 </r>
       <r>    -3.3038     6.1993    85.4868 </r>
       <r>    -3.2597     7.1800    85.8036 </r>
       <r>    -3.2156     7.5729    86.1377 </r>
       <r>    -3.1715     7.0712    86.4497 </r>
       <r>    -3.1274     5.7994    86.7056 </r>
       <r>    -3.0833     4.2610    86.8936 </r>
       <r>    -3.0391     3.0564    87.0284 </r>
       <r>    -2.9950     2.5559    87.1412 </r>
       <r>    -2.9509     2.7311    87.2617 </r>
       <r>    -2.9068     3.2367    87.4044 </r>
       <r>    -2.8627     3.6684    87.5663 </r>
       <r>    -2.8185     3.8180    87.7347 </r>
       <r>    -2.7744     3.7556    87.9004 </r>
       <r>    -2.7303     3.7077    88.0640 </r>
       <r>    -2.6862     3.8513    88.2339 </r>
       <r>    -2.6421     4.1943    88.4190 </r>
       <r>    -2.5979     4.6128    88.6225 </r>
       <r>    -2.5538     4.9682    88.8417 </r>
       <r>    -2.5097     5.1759    89.0700 </r>
       <r>    -2.4656     5.1826    89.2987 </r>
       <r>    -2.4215     4.9209    89.5158 </r>
       <r>    -2.3774     4.3273    89.7067 </r>
       <r>    -2.3332     3.4165    89.8574 </r>
       <r>    -2.2891     2.3273    89.9601 </r>
       <r>    -2.2450     1.2782    90.0165 </r>
       <r>    -2.2009     0.4611    90.0368 </r>
       <r>    -2.1568    -0.0447    90.0349 </r>
       <r>    -2.1126    -0.2823    90.0224 </r>
       <r>    -2.0685    -0.3598    90.0065 </r>
       <r>    -2.0244    -0.3754    89.9900 </r>
       <r>    -1.9803    -0.3642    89.9739 </r>
       <r>    -1.9362    -0.2817    89.9615 </r>
       <r>    -1.8920    -0.0245    89.9604 </r>
       <r>    -1.8479     0.5134    89.9831 </r>
       <r>    -1.8038     1.3691    90.0435 </r>
       <r>    -1.7597     2.4641    90.1522 </r>
       <r>    -1.7156     3.6228    90.3120 </r>
       <r>    -1.6715     4.6603    90.5176 </r>
       <r>    -1.6273     5.4778    90.7593 </r>
       <r>    -1.5832     6.0895    91.0279 </r>
       <r>    -1.5391     6.5616    91.3174 </r>
       <r>    -1.4950     6.9220    91.6228 </r>
       <r>    -1.4509     7.1262    91.9372 </r>
       <r>    -1.4067     7.1045    92.2507 </r>
       <r>    -1.3626     6.8376    92.5523 </r>
       <r>    -1.3185     6.3857    92.8341 </r>
       <r>    -1.2744     5.8536    93.0923 </r>
       <r>    -1.2303     5.3437    93.3281 </r>
       <r>    -1.1861     4.9528    93.5466 </r>
       <r>    -1.1420     4.8069    93.7587 </r>
       <r>    -1.0979     5.0713    93.9824 </r>
       <r>    -1.0538     5.8858    94.2421 </r>
       <r>    -1.0097     7.2522    94.5620 </r>
       <r>    -0.9656     8.9597    94.9573 </r>
       <r>    -0.9214    10.6084    95.4254 </r>
       <r>    -0.8773    11.7269    95.9427 </r>
       <r>    -0.8332    11.9266    96.4689 </r>
       <r>    -0.7891    11.0361    96.9558 </r>
       <r>    -0.7450     9.1780    97.3607 </r>
       <r>    -0.7008     6.7672    97.6593 </r>
       <r>    -0.6567     4.4183    97.8542 </r>
       <r>    -0.6126     2.7710    97.9765 </r>
       <r>    -0.5685     2.2713    98.0767 </r>
       <r>    -0.5244     2.9858    98.2084 </r>
       <r>    -0.4802     4.5391    98.4087 </r>
       <r>    -0.4361     6.2419    98.6841 </r>
       <r>    -0.3920     7.3850    99.0099 </r>
       <r>    -0.3479     7.5665    99.3437 </r>
       <r>    -0.3038     6.8610    99.6464 </r>
       <r>    -0.2597     5.7219    99.8988 </r>
       <r>    -0.2155     4.6882   100.1057 </r>
       <r>    -0.1714     4.1088   100.2870 </r>
       <r>    -0.1273     4.0669   100.4664 </r>
       <r>    -0.0832     4.5031   100.6651 </r>
       <r>    -0.0391     5.3707   100.9020 </r>
       <r>     0.0051     6.6524   101.1955 </r>
       <r>     0.0492     8.2329   101.5587 </r>
       <r>     0.0933     9.7786   101.9901 </r>
       <r>     0.1374    10.7811   102.4658 </r>
       <r>     0.1815    10.7770   102.9413 </r>
       <r>     0.2257     9.6002   103.3648 </r>
       <r>     0.2698     7.4910   103.6953 </r>
       <r>     0.3139     4.9884   103.9154 </r>
       <r>     0.3580     2.6803   104.0336 </r>
       <r>     0.4021     0.9689   104.0764 </r>
       <r>     0.4462    -0.0302   104.0750 </r>
       <r>     0.4904    -0.4374   104.0557 </r>
       <r>     0.5345    -0.4781   104.0347 </r>
       <r>     0.5786    -0.3616   104.0187 </r>
       <r>     0.6227    -0.2219   104.0089 </r>
       <r>     0.6668    -0.1162   104.0038 </r>
       <r>     0.7110    -0.0531   104.0014 </r>
       <r>     0.7551    -0.0215   104.0005 </r>
       <r>     0.7992    -0.0077   104.0002 </r>
       <r>     0.8433    -0.0025   104.0000 </r>
       <r>     0.8874    -0.0007   104.0000 </r>
       <r>     0.9316    -0.0002   104.0000 </r>
       <r>     0.9757    -0.0000   104.0000 </r>
       <r>     1.0198    -0.0000   104.0000 </r>
       <r>     1.0639    -0.0000   104.0000 </r>
       <r>     1.1080    -0.0000   104.0000 </r>
       <r>     1.1521    -0.0000   104.0000 </r>
       <r>     1.1963    -0.0000   104.0000 </r>
       <r>     1.2404    -0.0000   104.0000 </r>
       <r>     1.2845    -0.0000   104.0000 </r>
       <r>     1.3286    -0.0000   104.0000 </r>
       <r>     1.3727    -0.0000   104.0000 </r>
       <r>     1.4169    -0.0000   104.0000 </r>
       <r>     1.4610    -0.0000   104.0000 </r>
       <r>     1.5051     0.0000   104.0000 </r>
       <r>     1.5492     0.0000   104.0000 </r>
       <r>     1.5933     0.0000   104.0000 </r>
       <r>     1.6375     0.0000   104.0000 </r>
       <r>     1.6816     0.0000   104.0000 </r>
       <r>     1.7257     0.0000   104.0000 </r>
       <r>     1.7698     0.0000   104.0000 </r>
       <r>     1.8139     0.0000   104.0000 </r>
       <r>     1.8580     0.0000   104.0000 </r>
       <r>     1.9022     0.0000   104.0000 </r>
       <r>     1.9463     0.0000   104.0000 </r>
       <r>     1.9904     0.0000   104.0000 </r>
       <r>     2.0345     0.0000   104.0000 </r>
       <r>     2.0786     0.0000   104.0000 </r>
       <r>     2.1228     0.0000   104.0000 </r>
       <r>     2.1669     0.0000   104.0000 </r>
       <r>     2.2110     0.0000   104.0000 </r>
      </set>
     </set>
    </array>
   </total>
  </dos>
 </calculation>
 <structure name="finalpos" >
  <crystal>
   <varray name="basis" >
    <v>      24.31930264       0.00000000       0.00000000 </v>
    <v>       0.00000000      25.78299603       0.00000000 </v>
    <v>       0.00000000       0.00000000      24.19271133 </v>
   </varray>
   <i name="volume">  15169.42232408 </i>
   <varray name="rec_basis" >
    <v>       0.04111960       0.00000000       0.00000000 </v>
    <v>       0.00000000       0.03878525       0.00000000 </v>
    <v>       0.00000000       0.00000000       0.04133476 </v>
   </varray>
  </crystal>
  <varray name="positions" >
   <v>       0.38845011       0.53767779       0.45487017 </v>
   <v>       0.44945384       0.51692630       0.36554550 </v>
   <v>       0.46138386       0.60706183       0.42384166 </v>
   <v>       0.40185806       0.47527705       0.54639854 </v>
   <v>       0.45281898       0.45350591       0.45015070 </v>
   <v>       0.53194285       0.44206933       0.37728327 </v>
   <v>       0.47847476       0.54631421       0.51651625 </v>
   <v>       0.53773470       0.53331987       0.42490495 </v>
   <v>       0.55426549       0.61403246       0.48950738 </v>
   <v>       0.43719645       0.38081907       0.52747191 </v>
   <v>       0.38297434       0.57391499       0.55496491 </v>
   <v>       0.63800309       0.55027725       0.46541420 </v>
   <v>       0.59226792       0.45838595       0.47159592 </v>
   <v>       0.57991508       0.52971322       0.55403419 </v>
   <v>       0.52681391       0.37762521       0.46436909 </v>
   <v>       0.51206872       0.45087343       0.54632731 </v>
  </varray>
 </structure>
</modeling>
