unknown system                          
            1
    24.319303    0.000000    0.000000
     0.000000   25.782996    0.000000
     0.000000    0.000000   24.192711
   Pd
    16
Direct configuration=     1
   0.38614732  0.53519636  0.45378749
   0.45186975  0.51953422  0.36814396
   0.46204753  0.60299967  0.43060686
   0.40230156  0.47613081  0.54664156
   0.45759636  0.45900779  0.45368827
   0.53254468  0.44145487  0.38057250
   0.47632332  0.54619939  0.51928011
   0.53829183  0.53127943  0.42902962
   0.55515150  0.61307375  0.48858696
   0.43583468  0.38344152  0.52312419
   0.37921851  0.57309897  0.55006173
   0.63705271  0.55167474  0.46054613
   0.59396225  0.45561038  0.47152527
   0.57994959  0.52976882  0.54485639
   0.52487101  0.37944942  0.46597469
   0.51245956  0.44987371  0.54677022
Direct configuration=     2
   0.38540349  0.53514186  0.45327457
   0.45140820  0.51925162  0.36680975
   0.46157359  0.60429907  0.42997613
   0.40172995  0.47575778  0.54721482
   0.45686315  0.45855051  0.45308991
   0.53281852  0.44131645  0.37929966
   0.47673756  0.54675968  0.52012430
   0.53842480  0.53113889  0.42824739
   0.55496518  0.61445691  0.48895750
   0.43494974  0.38256372  0.52378150
   0.37881502  0.57380059  0.55086589
   0.63859311  0.55149956  0.45997719
   0.59492174  0.45542924  0.47147698
   0.58000010  0.52948498  0.54674851
   0.52547591  0.37833738  0.46570245
   0.51294208  0.45000562  0.54764941
Direct configuration=     3
   0.38497304  0.53511032  0.45297776
   0.45114112  0.51908808  0.36603767
   0.46129933  0.60505101  0.42961114
   0.40139917  0.47554191  0.54754654
   0.45643885  0.45828589  0.45274366
   0.53297699  0.44123635  0.37856308
   0.47697728  0.54708391  0.52061282
   0.53850175  0.53105756  0.42779474
   0.55485735  0.61525732  0.48917192
   0.43443765  0.38205576  0.52416187
   0.37858153  0.57420660  0.55133124
   0.63948450  0.55139819  0.45964795
   0.59547698  0.45532441  0.47144903
   0.58002933  0.52932073  0.54784344
   0.52582596  0.37769387  0.46554490
   0.51322131  0.45008196  0.54815818
Direct configuration=     4
   0.38508648  0.53535292  0.45312887
   0.45092121  0.51899874  0.36559572
   0.46106177  0.60517197  0.42934532
   0.40140616  0.47567755  0.54752057
   0.45634423  0.45772617  0.45273370
   0.53298993  0.44117223  0.37820771
   0.47696744  0.54741113  0.52059223
   0.53853899  0.53136776  0.42793745
   0.55478429  0.61509639  0.48926788
   0.43451440  0.38196165  0.52444294
   0.37867838  0.57419907  0.55138360
   0.63938639  0.55105562  0.45994551
   0.59556977  0.45557688  0.47144249
   0.58045628  0.52954835  0.54820610
   0.52589745  0.37769365  0.46549721
   0.51301896  0.44978380  0.54794866
Direct configuration=     5
   0.38521427  0.53562621  0.45329909
   0.45067349  0.51889810  0.36509786
   0.46079417  0.60530823  0.42904587
   0.40141403  0.47583034  0.54749132
   0.45623764  0.45709566  0.45272248
   0.53300451  0.44109999  0.37780738
   0.47695637  0.54777975  0.52056903
   0.53858095  0.53171721  0.42809821
   0.55470198  0.61491510  0.48937597
   0.43460086  0.38185562  0.52475956
   0.37878747  0.57419058  0.55144259
   0.63927586  0.55066972  0.46028070
   0.59567431  0.45586127  0.47143513
   0.58093724  0.52980477  0.54861465
   0.52597799  0.37769340  0.46544349
   0.51279102  0.44944793  0.54771264
Direct configuration=     6
   0.38572106  0.53576360  0.45339184
   0.45057299  0.51865320  0.36512005
   0.46054690  0.60533853  0.42859013
   0.40155580  0.47600243  0.54734291
   0.45606877  0.45684669  0.45233065
   0.53292015  0.44130540  0.37774234
   0.47717133  0.54790078  0.52045695
   0.53809575  0.53175146  0.42801429
   0.55457050  0.61472248  0.48951947
   0.43471834  0.38167934  0.52521916
   0.37887981  0.57426175  0.55162725
   0.63930278  0.55026841  0.46074058
   0.59543689  0.45615853  0.47141314
   0.58113709  0.52986367  0.54913965
   0.52619239  0.37777396  0.46527735
   0.51273158  0.44950365  0.54727019
Direct configuration=     7
   0.38684137  0.53606730  0.45359685
   0.45035082  0.51811185  0.36516910
   0.46000031  0.60540551  0.42758268
   0.40186921  0.47638285  0.54701483
   0.45569548  0.45629631  0.45146449
   0.53273366  0.44175950  0.37759857
   0.47764652  0.54816834  0.52020919
   0.53702319  0.53182719  0.42782877
   0.55427984  0.61429665  0.48983669
   0.43497805  0.38128966  0.52623514
   0.37908392  0.57441907  0.55203548
   0.63936229  0.54938127  0.46175720
   0.59491207  0.45681563  0.47136454
   0.58157888  0.52999387  0.55030023
   0.52666636  0.37795203  0.46491008
   0.51260018  0.44962683  0.54629214
Direct configuration=     8
   0.38726429  0.53611689  0.45384083
   0.45011884  0.51777318  0.36496091
   0.45999197  0.60577431  0.42695343
   0.40216627  0.47635231  0.54674792
   0.45522580  0.45579263  0.45133948
   0.53273369  0.44196731  0.37747711
   0.47779505  0.54796746  0.52020948
   0.53684402  0.53193786  0.42778179
   0.55427275  0.61410828  0.48985760
   0.43534231  0.38136715  0.52660731
   0.37930716  0.57455460  0.55227864
   0.63923787  0.54914566  0.46220793
   0.59444480  0.45707524  0.47134172
   0.58142492  0.52981403  0.55106019
   0.52681177  0.37796390  0.46470828
   0.51264063  0.45008306  0.54582334
Direct configuration=     9
   0.38792326  0.53619415  0.45422098
   0.44975738  0.51724550  0.36463654
   0.45997898  0.60634896  0.42597297
   0.40262913  0.47630473  0.54633203
   0.45449398  0.45500782  0.45114471
   0.53273374  0.44229110  0.37728785
   0.47802649  0.54765444  0.52020993
   0.53656485  0.53211031  0.42770859
   0.55426170  0.61381476  0.48989018
   0.43590988  0.38148788  0.52718720
   0.37965500  0.57476578  0.55265753
   0.63904401  0.54877853  0.46291024
   0.59371671  0.45747975  0.47130616
   0.58118504  0.52953381  0.55224434
   0.52703835  0.37798240  0.46439383
   0.51270365  0.45079393  0.54509288
Direct configuration=    10
   0.38828552  0.53644867  0.45438840
   0.44956452  0.51694244  0.36466847
   0.46034625  0.60660290  0.42545457
   0.40245362  0.47620313  0.54649530
   0.45402024  0.45431777  0.45061069
   0.53266423  0.44244730  0.37717909
   0.47797950  0.54766652  0.51994752
   0.53636311  0.53244573  0.42748068
   0.55435287  0.61357936  0.48979058
   0.43654932  0.38159271  0.52740210
   0.38013160  0.57475120  0.55286392
   0.63872628  0.54898148  0.46336697
   0.59345248  0.45747674  0.47125284
   0.58096580  0.52939189  0.55300524
   0.52699654  0.37780578  0.46418101
   0.51277027  0.45114024  0.54510860
Direct configuration=    11
   0.38869667  0.53673754  0.45457840
   0.44934563  0.51659848  0.36470471
   0.46076309  0.60689111  0.42486621
   0.40225442  0.47608782  0.54668060
   0.45348257  0.45353460  0.45000461
   0.53258534  0.44262459  0.37705565
   0.47792617  0.54768023  0.51964969
   0.53613414  0.53282642  0.42722200
   0.55445635  0.61331220  0.48967753
   0.43727506  0.38171168  0.52764600
   0.38067252  0.57473465  0.55309817
   0.63836566  0.54921182  0.46388533
   0.59315259  0.45747333  0.47119232
   0.58071698  0.52923081  0.55386883
   0.52694908  0.37760531  0.46393946
   0.51284589  0.45153328  0.54512644
Direct configuration=    12
   0.38900626  0.53694222  0.45452406
   0.44926395  0.51652647  0.36501438
   0.46111053  0.60697540  0.42459868
   0.40208373  0.47598083  0.54675092
   0.45303159  0.45327230  0.44987223
   0.53257625  0.44268553  0.37702693
   0.47798362  0.54751420  0.51911644
   0.53624293  0.53258006  0.42681808
   0.55460375  0.61345906  0.48975567
   0.43771902  0.38163056  0.52775062
   0.38092386  0.57473591  0.55345011
   0.63792046  0.54948906  0.46433609
   0.59300887  0.45765125  0.47106895
   0.58073920  0.52940316  0.55403800
   0.52686763  0.37743763  0.46380415
   0.51254050  0.45151022  0.54527065
Direct configuration=    13
   0.38912003  0.53701744  0.45450409
   0.44923393  0.51650001  0.36512818
   0.46123822  0.60700637  0.42450036
   0.40202101  0.47594151  0.54677676
   0.45286585  0.45317590  0.44982358
   0.53257291  0.44270793  0.37701638
   0.47800473  0.54745318  0.51892047
   0.53628291  0.53248952  0.42666964
   0.55465791  0.61351303  0.48978439
   0.43788218  0.38160075  0.52778906
   0.38101624  0.57473637  0.55357945
   0.63775684  0.54959095  0.46450175
   0.59295605  0.45771663  0.47102361
   0.58074737  0.52946650  0.55410017
   0.52683770  0.37737601  0.46375442
   0.51242827  0.45150175  0.54532365
Direct configuration=    14
   0.38910877  0.53729187  0.45467204
   0.44918819  0.51657078  0.36523490
   0.46161036  0.60701363  0.42439086
   0.40196080  0.47593492  0.54668065
   0.45262343  0.45301530  0.45004694
   0.53254756  0.44245223  0.37688900
   0.47819976  0.54716184  0.51831848
   0.53652892  0.53254578  0.42643009
   0.55458936  0.61369884  0.48986551
   0.43789357  0.38123809  0.52787603
   0.38124022  0.57461162  0.55382432
   0.63760982  0.54992477  0.46476189
   0.59275750  0.45774358  0.47117349
   0.58060484  0.52959210  0.55399829
   0.52683545  0.37739918  0.46365910
   0.51232360  0.45159934  0.54537437
Direct configuration=    15
   0.38910258  0.53744275  0.45476438
   0.44916304  0.51660968  0.36529358
   0.46181497  0.60701762  0.42433065
   0.40192770  0.47593130  0.54662780
   0.45249015  0.45292701  0.45016974
   0.53253362  0.44231164  0.37681896
   0.47830699  0.54700165  0.51798750
   0.53666418  0.53257672  0.42629839
   0.55455167  0.61380100  0.48991012
   0.43789983  0.38103869  0.52792385
   0.38136337  0.57454303  0.55395895
   0.63752898  0.55010830  0.46490491
   0.59264833  0.45775839  0.47125589
   0.58052647  0.52966116  0.55394228
   0.52683421  0.37741192  0.46360669
   0.51226606  0.45165299  0.54540225
Direct configuration=    16
   0.38891100  0.53772561  0.45484698
   0.44924629  0.51662944  0.36557326
   0.46210937  0.60705708  0.42418763
   0.40190672  0.47568917  0.54653766
   0.45252866  0.45290516  0.45009459
   0.53225132  0.44207427  0.37697142
   0.47825200  0.54679288  0.51740293
   0.53703887  0.53262633  0.42581554
   0.55434654  0.61413255  0.48995730
   0.43779974  0.38076963  0.52800679
   0.38178435  0.57439655  0.55426822
   0.63769000  0.55038619  0.46499384
   0.59252222  0.45785855  0.47145490
   0.58035694  0.52973293  0.55394564
   0.52676162  0.37755538  0.46358431
   0.51211650  0.45146215  0.54555494
Direct configuration=    17
   0.38881841  0.53786232  0.45488690
   0.44928653  0.51663899  0.36570844
   0.46225166  0.60707616  0.42411850
   0.40189658  0.47557214  0.54649409
   0.45254728  0.45289460  0.45005826
   0.53211488  0.44195955  0.37704511
   0.47822543  0.54669197  0.51712039
   0.53721997  0.53265031  0.42558217
   0.55424740  0.61429280  0.48998011
   0.43775137  0.38063958  0.52804688
   0.38198782  0.57432576  0.55441771
   0.63776782  0.55052050  0.46503681
   0.59246126  0.45790696  0.47155109
   0.58027500  0.52976762  0.55394727
   0.52672653  0.37762471  0.46357350
   0.51204421  0.45136991  0.54562874
Direct configuration=    18
   0.38854526  0.53797784  0.45483536
   0.44934491  0.51670463  0.36586391
   0.46232767  0.60712249  0.42393489
   0.40189439  0.47521532  0.54633127
   0.45247131  0.45308872  0.45011413
   0.53182499  0.44178338  0.37712254
   0.47833664  0.54654175  0.51658422
   0.53789426  0.53296513  0.42523695
   0.55405174  0.61428409  0.48990466
   0.43759975  0.38059465  0.52800372
   0.38252033  0.57412846  0.55483822
   0.63776238  0.55061990  0.46516045
   0.59250806  0.45829512  0.47174884
   0.57999571  0.52981464  0.55382597
   0.52663424  0.37757181  0.46377554
   0.51191052  0.45108594  0.54591530
Direct configuration=    19
   0.38853645  0.53798157  0.45483370
   0.44934680  0.51670675  0.36586892
   0.46233012  0.60712398  0.42392896
   0.40189432  0.47520381  0.54632601
   0.45246886  0.45309499  0.45011593
   0.53181564  0.44177770  0.37712504
   0.47834023  0.54653690  0.51656692
   0.53791602  0.53297529  0.42522580
   0.55404542  0.61428380  0.48990222
   0.43759485  0.38059320  0.52800233
   0.38253752  0.57412209  0.55485180
   0.63776220  0.55062311  0.46516444
   0.59250957  0.45830765  0.47175522
   0.57998670  0.52981616  0.55382205
   0.52663126  0.37757010  0.46378206
   0.51190621  0.45107678  0.54592455
Direct configuration=    20
   0.38853448  0.53790581  0.45490987
   0.44945749  0.51680192  0.36576798
   0.46207304  0.60708636  0.42388601
   0.40183878  0.47545003  0.54633071
   0.45253271  0.45316311  0.45020574
   0.53188199  0.44194719  0.37721166
   0.47834123  0.54643810  0.51664154
   0.53764707  0.53295631  0.42505063
   0.55413749  0.61424670  0.48983564
   0.43750840  0.38058766  0.52785060
   0.38266919  0.57393081  0.55479844
   0.63794636  0.55061127  0.46521704
   0.59236479  0.45811458  0.47168894
   0.57990326  0.52976511  0.55390418
   0.52672585  0.37765029  0.46394365
   0.51206003  0.45113860  0.54595332
Direct configuration=    21
   0.38853505  0.53792752  0.45488803
   0.44942576  0.51677464  0.36579692
   0.46214672  0.60709715  0.42389832
   0.40185470  0.47537945  0.54632936
   0.45251441  0.45314359  0.45018000
   0.53186297  0.44189861  0.37718683
   0.47834094  0.54646642  0.51662015
   0.53772416  0.53296175  0.42510084
   0.55411110  0.61425734  0.48985473
   0.43753318  0.38058925  0.52789409
   0.38263145  0.57398564  0.55481373
   0.63789358  0.55061466  0.46520196
   0.59240629  0.45816992  0.47170794
   0.57992717  0.52977974  0.55388064
   0.52669874  0.37762731  0.46389733
   0.51201594  0.45112088  0.54594507
Direct configuration=    22
   0.38849289  0.53781754  0.45485329
   0.44944276  0.51685782  0.36564615
   0.46183626  0.60709709  0.42385174
   0.40184609  0.47536537  0.54633677
   0.45258690  0.45323406  0.45026906
   0.53191136  0.44199747  0.37723315
   0.47847672  0.54639297  0.51661085
   0.53771602  0.53307036  0.42507001
   0.55419657  0.61413372  0.48973792
   0.43744577  0.38071567  0.52771167
   0.38273267  0.57393919  0.55489189
   0.63792003  0.55049603  0.46529496
   0.59233990  0.45820664  0.47163876
   0.57988261  0.52975579  0.55390321
   0.52673925  0.37765051  0.46410884
   0.51205635  0.45106364  0.54603767
Direct configuration=    23
   0.38847497  0.53777078  0.45483852
   0.44944998  0.51689319  0.36558204
   0.46170425  0.60709707  0.42383194
   0.40184244  0.47535938  0.54633993
   0.45261772  0.45327253  0.45030694
   0.53193193  0.44203951  0.37725284
   0.47853445  0.54636174  0.51660690
   0.53771256  0.53311654  0.42505689
   0.55423292  0.61408115  0.48968825
   0.43740861  0.38076943  0.52763410
   0.38277571  0.57391944  0.55492512
   0.63793128  0.55044558  0.46533450
   0.59231166  0.45822225  0.47160935
   0.57986366  0.52974560  0.55391281
   0.52675648  0.37766038  0.46419878
   0.51207353  0.45103929  0.54607705
Direct configuration=    24
   0.38845528  0.53769714  0.45486358
   0.44945304  0.51691941  0.36555311
   0.46145053  0.60706917  0.42383964
   0.40185481  0.47529418  0.54638634
   0.45277710  0.45345734  0.45018321
   0.53194058  0.44206313  0.37727694
   0.47848718  0.54632410  0.51653511
   0.53773009  0.53327756  0.42493656
   0.55425871  0.61404259  0.48954501
   0.43724059  0.38080874  0.52750566
   0.38293301  0.57391591  0.55495663
   0.63798814  0.55031228  0.46539762
   0.59227702  0.45835188  0.47159872
   0.57990438  0.52971996  0.55400894
   0.52680196  0.37763253  0.46433365
   0.51206972  0.45090794  0.54627524
Direct configuration=    25
   0.38845011  0.53767779  0.45487017
   0.44945384  0.51692630  0.36554550
   0.46138386  0.60706183  0.42384166
   0.40185806  0.47527705  0.54639854
   0.45281898  0.45350591  0.45015070
   0.53194285  0.44206933  0.37728327
   0.47847476  0.54631421  0.51651625
   0.53773470  0.53331987  0.42490495
   0.55426549  0.61403246  0.48950738
   0.43719645  0.38081907  0.52747191
   0.38297434  0.57391499  0.55496491
   0.63800309  0.55027725  0.46541420
   0.59226792  0.45838595  0.47159592
   0.57991508  0.52971322  0.55403419
   0.52681391  0.37762521  0.46436909
   0.51206872  0.45087343  0.54632731
