   7   7   0   0
  0.1589676E+04  0.2254454E-08  0.2183981E-08  0.2260041E-08  0.5000000E-15
   1.0000000000000000E-004
  CAR 
 unknown system                          
      1.19577666    -14.32935939  301     -4.01619745      1.00000000
    -14.329  0.0000E+00  0.0000E+00  0.0000E+00  0.0000E+00
    -14.278  0.0000E+00  0.0000E+00  0.0000E+00  0.0000E+00
    -14.226  0.0000E+00  0.0000E+00  0.0000E+00  0.0000E+00
    -14.174  0.0000E+00  0.0000E+00  0.0000E+00  0.0000E+00
    -14.122  0.0000E+00  0.0000E+00  0.0000E+00  0.0000E+00
    -14.071  0.0000E+00  0.0000E+00  0.0000E+00  0.0000E+00
    -14.019  0.0000E+00  0.0000E+00  0.0000E+00  0.0000E+00
    -13.967 -0.3372E-30  0.0000E+00 -0.1745E-31  0.0000E+00
    -13.915 -0.2081E-28  0.0000E+00 -0.1095E-29  0.0000E+00
    -13.864 -0.1138E-26 -0.1870E-30 -0.5998E-28 -0.9675E-32
    -13.812 -0.5433E-25 -0.1176E-28 -0.2872E-26 -0.6184E-30
    -13.760 -0.2265E-23 -0.6553E-27 -0.1201E-24 -0.3453E-28
    -13.708 -0.8247E-22 -0.3189E-25 -0.4388E-23 -0.1685E-26
    -13.657 -0.2621E-20 -0.1355E-23 -0.1400E-21 -0.7181E-25
    -13.605 -0.7271E-19 -0.5028E-22 -0.3903E-20 -0.2674E-23
    -13.553 -0.1760E-17 -0.1629E-20 -0.9498E-19 -0.8696E-22
    -13.501 -0.3609E-16 -0.4605E-19 -0.1963E-17 -0.2470E-20
    -13.450 -0.6630E-15 -0.1136E-17 -0.3627E-16 -0.6126E-19
    -13.398 -0.1061E-13 -0.2338E-16 -0.5852E-15 -0.1271E-17
    -13.346 -0.1479E-12 -0.4451E-15 -0.8238E-14 -0.2431E-16
    -13.294 -0.1794E-11 -0.7257E-14 -0.1011E-12 -0.3999E-15
    -13.243 -0.1894E-10 -0.1031E-12 -0.1081E-11 -0.5737E-14
    -13.191 -0.1738E-09 -0.1276E-11 -0.1007E-10 -0.7178E-13
    -13.139 -0.1384E-08 -0.1374E-10 -0.8170E-10 -0.7826E-12
    -13.087 -0.9557E-08 -0.1285E-09 -0.5763E-09 -0.7434E-11
    -13.036 -0.5711E-07 -0.1044E-08 -0.3532E-08 -0.6147E-10
    -12.984 -0.2947E-06 -0.7356E-08 -0.1878E-07 -0.4422E-09
    -12.932 -0.1308E-05 -0.4487E-07 -0.8650E-07 -0.2764E-08
    -12.880 -0.4977E-05 -0.2363E-06 -0.3441E-06 -0.1499E-07
    -12.829 -0.1611E-04 -0.1072E-05 -0.1178E-05 -0.7047E-07
    -12.777 -0.4389E-04 -0.4168E-05 -0.3449E-05 -0.2862E-06
    -12.725 -0.9875E-04 -0.1381E-04 -0.8560E-05 -0.1001E-05
    -12.673 -0.1764E-03 -0.3857E-04 -0.1769E-04 -0.2997E-05
    -12.622 -0.2252E-03 -0.8928E-04 -0.2934E-04 -0.7617E-05
    -12.570 -0.1166E-03 -0.1653E-03 -0.3538E-04 -0.1617E-04
    -12.518  0.3310E-03 -0.2241E-03 -0.1825E-04 -0.2777E-04
    -12.466  0.1232E-02 -0.1480E-03  0.4550E-04 -0.3543E-04
    -12.415  0.2466E-02  0.2419E-03  0.1731E-03 -0.2291E-04
    -12.363  0.3621E-02  0.1080E-02  0.3605E-03  0.3297E-04
    -12.311  0.4182E-02  0.2286E-02  0.5769E-03  0.1513E-03
    -12.259  0.3868E-02  0.3484E-02  0.7771E-03  0.3316E-03
    -12.208  0.2837E-02  0.4155E-02  0.9239E-03  0.5466E-03
    -12.156  0.1574E-02  0.3963E-02  0.1005E-02  0.7517E-03
    -12.104  0.5484E-03  0.3008E-02  0.1034E-02  0.9074E-03
    -12.052 -0.2813E-04  0.1745E-02  0.1032E-02  0.9976E-03
    -12.001 -0.2174E-03  0.6663E-03  0.1021E-02  0.1032E-02
    -11.949 -0.1979E-03  0.2577E-04  0.1011E-02  0.1033E-02
    -11.897 -0.1203E-03 -0.2077E-03  0.1005E-02  0.1023E-02
    -11.845 -0.5690E-04 -0.2068E-03  0.1002E-02  0.1012E-02
    -11.794 -0.2204E-04 -0.1311E-03  0.1001E-02  0.1005E-02
    -11.742 -0.7152E-05 -0.6399E-04  0.1000E-02  0.1002E-02
    -11.690 -0.1970E-05 -0.2544E-04  0.1000E-02  0.1001E-02
    -11.638 -0.4640E-06 -0.8457E-05  0.1000E-02  0.1000E-02
    -11.587 -0.9396E-07 -0.2382E-05  0.1000E-02  0.1000E-02
    -11.535 -0.1641E-07 -0.5733E-06  0.1000E-02  0.1000E-02
    -11.483 -0.2479E-08 -0.1185E-06  0.1000E-02  0.1000E-02
    -11.431 -0.3246E-09 -0.2114E-07  0.1000E-02  0.1000E-02
    -11.380 -0.3688E-10 -0.3258E-08  0.1000E-02  0.1000E-02
    -11.328 -0.3640E-11 -0.4351E-09  0.1000E-02  0.1000E-02
    -11.276 -0.3125E-12 -0.5042E-10  0.1000E-02  0.1000E-02
    -11.224 -0.2335E-13 -0.5076E-11  0.1000E-02  0.1000E-02
    -11.173 -0.1519E-14 -0.4443E-12  0.1000E-02  0.1000E-02
    -11.121 -0.8581E-16 -0.3385E-13  0.1000E-02  0.1000E-02
    -11.069 -0.4291E-17 -0.2244E-14  0.1000E-02  0.1000E-02
    -11.017 -0.4310E-20 -0.1287E-15  0.1000E-02  0.1000E-02
    -10.966 -0.1172E-18 -0.8581E-17  0.1000E-02  0.1000E-02
    -10.914 -0.2780E-17 -0.1380E-23  0.1000E-02  0.1000E-02
    -10.862 -0.5540E-16 -0.5116E-22  0.1000E-02  0.1000E-02
    -10.810 -0.1005E-14 -0.1656E-20  0.1000E-02  0.1000E-02
    -10.759 -0.1577E-13 -0.4679E-19  0.1000E-02  0.1000E-02
    -10.707 -0.2154E-12 -0.1154E-17  0.1000E-02  0.1000E-02
    -10.655 -0.2560E-11 -0.2374E-16  0.1000E-02  0.1000E-02
    -10.603 -0.2648E-10 -0.4515E-15  0.1000E-02  0.1000E-02
    -10.552 -0.2379E-09 -0.7353E-14  0.1000E-02  0.1000E-02
    -10.500 -0.1856E-08 -0.1044E-12  0.1000E-02  0.1000E-02
    -10.448 -0.1255E-07 -0.1291E-11  0.1000E-02  0.1000E-02
    -10.396 -0.7338E-07 -0.1389E-10  0.1000E-02  0.1000E-02
    -10.345 -0.3704E-06 -0.1299E-09  0.1000E-02  0.1000E-02
    -10.293 -0.1608E-05 -0.1055E-08  0.9999E-03  0.1000E-02
    -10.241 -0.5978E-05 -0.7424E-08  0.9996E-03  0.1000E-02
    -10.189 -0.1888E-04 -0.4525E-07  0.9986E-03  0.1000E-02
    -10.138 -0.5008E-04 -0.2382E-06  0.9960E-03  0.1000E-02
    -10.086 -0.1093E-03 -0.1079E-05  0.9904E-03  0.9999E-03
    -10.034 -0.1875E-03 -0.4194E-05  0.9807E-03  0.9997E-03
     -9.982 -0.2232E-03 -0.1388E-04  0.9691E-03  0.9990E-03
     -9.931 -0.7636E-04 -0.3875E-04  0.9652E-03  0.9970E-03
     -9.879  0.4346E-03 -0.8960E-04  0.9876E-03  0.9924E-03
     -9.827  0.1399E-02 -0.1657E-03  0.1060E-02  0.9838E-03
     -9.775  0.2653E-02 -0.2241E-03  0.1197E-02  0.9722E-03
     -9.724  0.3752E-02 -0.1470E-03  0.1392E-02  0.9646E-03
     -9.672  0.4192E-02  0.2448E-03  0.1608E-02  0.9772E-03
     -9.620  0.3752E-02  0.1085E-02  0.1803E-02  0.1033E-02
     -9.568  0.2653E-02  0.2292E-02  0.1940E-02  0.1152E-02
     -9.517  0.1398E-02  0.3489E-02  0.2012E-02  0.1333E-02
     -9.465  0.4307E-03  0.4155E-02  0.2035E-02  0.1548E-02
     -9.413 -0.9018E-04  0.3956E-02  0.2030E-02  0.1752E-02
     -9.361 -0.2654E-03  0.2988E-02  0.2016E-02  0.1907E-02
     -9.310 -0.2959E-03  0.1695E-02  0.2001E-02  0.1995E-02
     -9.258 -0.3380E-03  0.5500E-03  0.1983E-02  0.2023E-02
     -9.206 -0.4276E-03 -0.2118E-03  0.1961E-02  0.2012E-02
     -9.154 -0.4396E-03 -0.5942E-03  0.1939E-02  0.1981E-02
     -9.103 -0.8122E-04 -0.6297E-03  0.1934E-02  0.1949E-02
     -9.051  0.1002E-02 -0.1860E-03  0.1986E-02  0.1939E-02
     -8.999  0.2955E-02  0.1002E-02  0.2139E-02  0.1991E-02
     -8.947  0.5415E-02  0.3040E-02  0.2419E-02  0.2148E-02
     -8.896  0.7504E-02  0.5542E-02  0.2808E-02  0.2435E-02
     -8.844  0.8272E-02  0.7609E-02  0.3236E-02  0.2829E-02
     -8.792  0.7336E-02  0.8300E-02  0.3615E-02  0.3258E-02
     -8.740  0.5161E-02  0.7271E-02  0.3882E-02  0.3635E-02
     -8.689  0.2719E-02  0.5036E-02  0.4023E-02  0.3895E-02
     -8.637  0.8509E-03  0.2589E-02  0.4067E-02  0.4029E-02
     -8.585 -0.1395E-03  0.7594E-03  0.4060E-02  0.4069E-02
     -8.533 -0.4284E-03 -0.1827E-03  0.4038E-02  0.4059E-02
     -8.482 -0.3636E-03 -0.4371E-03  0.4019E-02  0.4037E-02
     -8.430 -0.2139E-03 -0.3574E-03  0.4008E-02  0.4018E-02
     -8.378 -0.9913E-04 -0.2057E-03  0.4003E-02  0.4007E-02
     -8.326 -0.3783E-04 -0.9361E-04  0.4001E-02  0.4003E-02
     -8.275 -0.1215E-04 -0.3515E-04  0.4000E-02  0.4001E-02
     -8.223 -0.3321E-05 -0.1111E-04  0.4000E-02  0.4000E-02
     -8.171 -0.7781E-06 -0.2989E-05  0.4000E-02  0.4000E-02
     -8.119 -0.1571E-06 -0.6895E-06  0.4000E-02  0.4000E-02
     -8.068 -0.2740E-07 -0.1370E-06  0.4000E-02  0.4000E-02
     -8.016 -0.4142E-08 -0.2352E-07  0.4000E-02  0.4000E-02
     -7.964 -0.5433E-09 -0.3499E-08  0.4000E-02  0.4000E-02
     -7.912 -0.6194E-10 -0.4515E-09  0.4000E-02  0.4000E-02
     -7.861 -0.6143E-11 -0.5064E-10  0.4000E-02  0.4000E-02
     -7.809 -0.5306E-12 -0.4939E-11  0.4000E-02  0.4000E-02
     -7.757 -0.4090E-13 -0.4195E-12  0.4000E-02  0.4000E-02
     -7.705 -0.1812E-13 -0.3104E-13  0.4000E-02  0.4000E-02
     -7.654 -0.2120E-12 -0.2004E-14  0.4000E-02  0.4000E-02
     -7.602 -0.2521E-11 -0.1116E-15  0.4000E-02  0.4000E-02
     -7.550 -0.2609E-10 -0.4394E-17  0.4000E-02  0.4000E-02
     -7.498 -0.2347E-09 -0.2455E-17  0.4000E-02  0.4000E-02
     -7.447 -0.1832E-08 -0.5001E-16  0.4000E-02  0.4000E-02
     -7.395 -0.1240E-07 -0.8971E-15  0.4000E-02  0.4000E-02
     -7.343 -0.7259E-07 -0.1415E-13  0.4000E-02  0.4000E-02
     -7.291 -0.3668E-06 -0.1944E-12  0.4000E-02  0.4000E-02
     -7.240 -0.1594E-05 -0.2324E-11  0.4000E-02  0.4000E-02
     -7.188 -0.5931E-05 -0.2417E-10  0.4000E-02  0.4000E-02
     -7.136 -0.1875E-04 -0.2184E-09  0.3999E-02  0.4000E-02
     -7.084 -0.4980E-04 -0.1714E-08  0.3996E-02  0.4000E-02
     -7.033 -0.1088E-03 -0.1165E-07  0.3990E-02  0.4000E-02
     -6.981 -0.1871E-03 -0.6855E-07  0.3981E-02  0.4000E-02
     -6.929 -0.2234E-03 -0.3481E-06  0.3969E-02  0.4000E-02
     -6.877 -0.7828E-04 -0.1521E-05  0.3965E-02  0.4000E-02
     -6.826  0.4299E-03 -0.5688E-05  0.3987E-02  0.4000E-02
     -6.774  0.1392E-02 -0.1809E-04  0.4059E-02  0.3999E-02
     -6.722  0.2645E-02 -0.4833E-04  0.4196E-02  0.3996E-02
     -6.670  0.3746E-02 -0.1064E-03  0.4390E-02  0.3991E-02
     -6.619  0.4191E-02 -0.1847E-03  0.4607E-02  0.3981E-02
     -6.567  0.3753E-02 -0.2247E-03  0.4801E-02  0.3969E-02
     -6.515  0.2646E-02 -0.9061E-04  0.4938E-02  0.3965E-02
     -6.463  0.1362E-02  0.3959E-03  0.5009E-02  0.3985E-02
     -6.412  0.3254E-03  0.1322E-02  0.5026E-02  0.4054E-02
     -6.360 -0.3106E-03  0.2519E-02  0.5009E-02  0.4184E-02
     -6.308 -0.6042E-03  0.3530E-02  0.4978E-02  0.4367E-02
     -6.256 -0.5955E-03  0.3854E-02  0.4947E-02  0.4566E-02
     -6.205 -0.1378E-03  0.3346E-02  0.4940E-02  0.4739E-02
     -6.153  0.1043E-02  0.2456E-02  0.4994E-02  0.4866E-02
     -6.101  0.3051E-02  0.2033E-02  0.5152E-02  0.4972E-02
     -6.049  0.5508E-02  0.2769E-02  0.5437E-02  0.5115E-02
     -5.998  0.7538E-02  0.4643E-02  0.5827E-02  0.5355E-02
     -5.946  0.8225E-02  0.6808E-02  0.6253E-02  0.5708E-02
     -5.894  0.7232E-02  0.8072E-02  0.6627E-02  0.6125E-02
     -5.842  0.5046E-02  0.7683E-02  0.6888E-02  0.6523E-02
     -5.791  0.2635E-02  0.5813E-02  0.7025E-02  0.6824E-02
     -5.739  0.8094E-03  0.3356E-02  0.7067E-02  0.6997E-02
     -5.687 -0.1493E-03  0.1271E-02  0.7059E-02  0.7063E-02
     -5.635 -0.4251E-03  0.3899E-04  0.7037E-02  0.7065E-02
     -5.584 -0.3632E-03 -0.4088E-03  0.7018E-02  0.7044E-02
     -5.532 -0.2322E-03 -0.4106E-03  0.7006E-02  0.7023E-02
     -5.480 -0.1632E-03 -0.2827E-03  0.6998E-02  0.7008E-02
     -5.428 -0.1966E-03 -0.2020E-03  0.6987E-02  0.6998E-02
     -5.377 -0.3277E-03 -0.2316E-03  0.6970E-02  0.6986E-02
     -5.325 -0.4916E-03 -0.3678E-03  0.6945E-02  0.6967E-02
     -5.273 -0.4976E-03 -0.5276E-03  0.6919E-02  0.6939E-02
     -5.221  0.8982E-05 -0.4857E-03  0.6920E-02  0.6914E-02
     -5.170  0.1444E-02  0.1503E-03  0.6994E-02  0.6922E-02
     -5.118  0.3991E-02  0.1801E-02  0.7201E-02  0.7015E-02
     -5.066  0.7265E-02  0.4579E-02  0.7577E-02  0.7252E-02
     -5.014  0.1024E-01  0.7957E-02  0.8107E-02  0.7664E-02
     -4.963  0.1171E-01  0.1079E-01  0.8713E-02  0.8222E-02
     -4.911  0.1097E-01  0.1186E-01  0.9281E-02  0.8836E-02
     -4.859  0.8356E-02  0.1065E-01  0.9714E-02  0.9387E-02
     -4.807  0.4979E-02  0.7711E-02  0.9971E-02  0.9786E-02
     -4.756  0.2054E-02  0.4290E-02  0.1008E-01  0.1001E-01
     -4.704  0.2331E-03  0.1546E-02  0.1009E-01  0.1009E-01
     -4.652 -0.5209E-03 -0.1710E-04  0.1006E-01  0.1009E-01
     -4.600 -0.6319E-03 -0.5590E-03  0.1003E-01  0.1006E-01
     -4.549 -0.5247E-03 -0.5339E-03  0.1000E-01  0.1003E-01
     -4.497 -0.4121E-03 -0.3358E-03  0.9981E-02  0.1001E-01
     -4.445 -0.2706E-03 -0.1642E-03  0.9967E-02  0.1000E-01
     -4.393  0.7906E-04 -0.6582E-04  0.9972E-02  0.1000E-01
     -4.342  0.8240E-03 -0.2213E-04  0.1001E-01  0.1000E-01
     -4.290  0.1970E-02 -0.6324E-05  0.1012E-01  0.1000E-01
     -4.238  0.3220E-02 -0.1547E-05  0.1028E-01  0.1000E-01
     -4.186  0.4064E-02 -0.3275E-06  0.1049E-01  0.1000E-01
     -4.135  0.4092E-02 -0.7153E-07  0.1070E-01  0.1000E-01
     -4.083  0.3291E-02 -0.8167E-07  0.1088E-01  0.1000E-01
     -4.031  0.2053E-02 -0.3677E-06  0.1098E-01  0.1000E-01
     -3.979  0.8929E-03 -0.1598E-05  0.1103E-01  0.1000E-01
     -3.928  0.1352E-03 -0.5979E-05  0.1103E-01  0.1000E-01
     -3.876 -0.1960E-03 -0.1908E-04  0.1102E-01  0.9999E-02
     -3.824 -0.2668E-03 -0.5147E-04  0.1101E-01  0.9996E-02
     -3.772 -0.2680E-03 -0.1157E-03  0.1100E-01  0.9990E-02
     -3.721 -0.3129E-03 -0.2110E-03  0.1098E-01  0.9979E-02
     -3.669 -0.3971E-03 -0.2922E-03  0.1096E-01  0.9964E-02
     -3.617 -0.3755E-03 -0.2416E-03  0.1094E-01  0.9951E-02
     -3.565  0.3300E-04  0.1184E-03  0.1094E-01  0.9958E-02
     -3.514  0.1134E-02  0.9489E-03  0.1100E-01  0.1001E-01
     -3.462  0.3011E-02  0.2297E-02  0.1116E-01  0.1013E-01
     -3.410  0.5284E-02  0.4056E-02  0.1143E-01  0.1034E-01
     -3.358  0.7143E-02  0.6005E-02  0.1180E-01  0.1065E-01
     -3.307  0.7780E-02  0.7826E-02  0.1220E-01  0.1105E-01
     -3.255  0.6972E-02  0.9098E-02  0.1256E-01  0.1152E-01
     -3.203  0.5307E-02  0.9405E-02  0.1284E-01  0.1201E-01
     -3.151  0.3796E-02  0.8620E-02  0.1303E-01  0.1245E-01
     -3.100  0.3160E-02  0.7132E-02  0.1320E-01  0.1282E-01
     -3.048  0.3360E-02  0.5656E-02  0.1337E-01  0.1312E-01
     -2.996  0.3750E-02  0.4692E-02  0.1357E-01  0.1336E-01
     -2.944  0.3659E-02  0.4171E-02  0.1376E-01  0.1358E-01
     -2.893  0.2880E-02  0.3646E-02  0.1390E-01  0.1376E-01
     -2.841  0.1709E-02  0.2792E-02  0.1399E-01  0.1391E-01
     -2.789  0.6049E-03  0.1689E-02  0.1402E-01  0.1400E-01
     -2.737 -0.1588E-03  0.6592E-03  0.1402E-01  0.1403E-01
     -2.686 -0.5566E-03 -0.5530E-04  0.1399E-01  0.1403E-01
     -2.634 -0.6296E-03 -0.4413E-03  0.1395E-01  0.1400E-01
     -2.582 -0.2799E-03 -0.6071E-03  0.1394E-01  0.1397E-01
     -2.530  0.7415E-03 -0.5689E-03  0.1398E-01  0.1394E-01
     -2.479  0.2591E-02 -0.1291E-03  0.1411E-01  0.1394E-01
     -2.427  0.4998E-02  0.1030E-02  0.1437E-01  0.1399E-01
     -2.375  0.7177E-02  0.3040E-02  0.1474E-01  0.1415E-01
     -2.323  0.8183E-02  0.5523E-02  0.1517E-01  0.1443E-01
     -2.272  0.7529E-02  0.7585E-02  0.1556E-01  0.1483E-01
     -2.220  0.5537E-02  0.8284E-02  0.1584E-01  0.1525E-01
     -2.168  0.3109E-02  0.7268E-02  0.1600E-01  0.1563E-01
     -2.116  0.1116E-02  0.5036E-02  0.1606E-01  0.1589E-01
     -2.065 -0.5271E-04  0.2564E-02  0.1606E-01  0.1602E-01
     -2.013 -0.5087E-03  0.6709E-03  0.1603E-01  0.1606E-01
     -1.961 -0.5706E-03 -0.3586E-03  0.1600E-01  0.1604E-01
     -1.909 -0.4612E-03 -0.6572E-03  0.1598E-01  0.1601E-01
     -1.858 -0.1827E-03 -0.4365E-03  0.1597E-01  0.1598E-01
     -1.806  0.4128E-03  0.2222E-03  0.1599E-01  0.1599E-01
     -1.754  0.1422E-02  0.1297E-02  0.1606E-01  0.1606E-01
     -1.702  0.2690E-02  0.2609E-02  0.1620E-01  0.1620E-01
     -1.650  0.3778E-02  0.3735E-02  0.1640E-01  0.1639E-01
     -1.599  0.4192E-02  0.4189E-02  0.1662E-01  0.1661E-01
     -1.547  0.3724E-02  0.3757E-02  0.1681E-01  0.1680E-01
     -1.495  0.2611E-02  0.2662E-02  0.1694E-01  0.1694E-01
     -1.443  0.1360E-02  0.1407E-02  0.1701E-01  0.1701E-01
     -1.392  0.4050E-03  0.4377E-03  0.1703E-01  0.1703E-01
     -1.340 -0.1033E-03 -0.8148E-04  0.1703E-01  0.1703E-01
     -1.288 -0.2704E-03 -0.2451E-03  0.1702E-01  0.1702E-01
     -1.236 -0.2881E-03 -0.2449E-03  0.1700E-01  0.1701E-01
     -1.185 -0.2879E-03 -0.2300E-03  0.1699E-01  0.1699E-01
     -1.133 -0.2735E-03 -0.2483E-03  0.1697E-01  0.1698E-01
     -1.081 -0.1192E-03 -0.2364E-03  0.1697E-01  0.1697E-01
     -1.029  0.3666E-03 -0.3415E-04  0.1698E-01  0.1697E-01
     -0.978  0.1298E-02  0.5468E-03  0.1705E-01  0.1699E-01
     -0.926  0.2543E-02  0.1573E-02  0.1718E-01  0.1708E-01
     -0.874  0.3677E-02  0.2837E-02  0.1737E-01  0.1722E-01
     -0.822  0.4189E-02  0.3868E-02  0.1759E-01  0.1742E-01
     -0.771  0.3822E-02  0.4182E-02  0.1779E-01  0.1764E-01
     -0.719  0.2762E-02  0.3621E-02  0.1793E-01  0.1783E-01
     -0.667  0.1501E-02  0.2466E-02  0.1801E-01  0.1795E-01
     -0.615  0.5003E-03  0.1232E-02  0.1803E-01  0.1802E-01
     -0.564 -0.4898E-04  0.3310E-03  0.1803E-01  0.1804E-01
     -0.512 -0.2203E-03 -0.1166E-03  0.1802E-01  0.1803E-01
     -0.460 -0.1937E-03 -0.2252E-03  0.1801E-01  0.1802E-01
     -0.408 -0.1157E-03 -0.1764E-03  0.1800E-01  0.1801E-01
     -0.357 -0.5401E-04 -0.9875E-04  0.1800E-01  0.1800E-01
     -0.305 -0.2069E-04 -0.4389E-04  0.1800E-01  0.1800E-01
     -0.253 -0.6646E-05 -0.1611E-04  0.1800E-01  0.1800E-01
     -0.201 -0.1813E-05 -0.4977E-05  0.1800E-01  0.1800E-01
     -0.150 -0.4231E-06 -0.1308E-05  0.1800E-01  0.1800E-01
     -0.098 -0.8490E-07 -0.2947E-06  0.1800E-01  0.1800E-01
     -0.046 -0.1470E-07 -0.5711E-07  0.1800E-01  0.1800E-01
      0.006 -0.2201E-08 -0.9557E-08  0.1800E-01  0.1800E-01
      0.057 -0.2857E-09 -0.1384E-08  0.1800E-01  0.1800E-01
      0.109 -0.3219E-10 -0.1738E-09  0.1800E-01  0.1800E-01
      0.161 -0.3151E-11 -0.1894E-10  0.1800E-01  0.1800E-01
      0.213 -0.2682E-12 -0.1794E-11  0.1800E-01  0.1800E-01
      0.264 -0.1987E-13 -0.1479E-12  0.1800E-01  0.1800E-01
      0.316 -0.1283E-14 -0.1061E-13  0.1800E-01  0.1800E-01
      0.368 -0.7294E-16 -0.6651E-15  0.1800E-01  0.1800E-01
      0.420 -0.4291E-17 -0.3862E-16  0.1800E-01  0.1800E-01
      0.471  0.0000E+00  0.0000E+00  0.1800E-01  0.1800E-01
      0.523  0.0000E+00  0.0000E+00  0.1800E-01  0.1800E-01
      0.575  0.0000E+00  0.0000E+00  0.1800E-01  0.1800E-01
      0.627  0.0000E+00  0.0000E+00  0.1800E-01  0.1800E-01
      0.678  0.0000E+00  0.0000E+00  0.1800E-01  0.1800E-01
      0.730  0.0000E+00  0.0000E+00  0.1800E-01  0.1800E-01
      0.782  0.0000E+00  0.0000E+00  0.1800E-01  0.1800E-01
      0.834  0.0000E+00  0.0000E+00  0.1800E-01  0.1800E-01
      0.885  0.0000E+00  0.0000E+00  0.1800E-01  0.1800E-01
      0.937  0.0000E+00  0.0000E+00  0.1800E-01  0.1800E-01
      0.989  0.0000E+00  0.0000E+00  0.1800E-01  0.1800E-01
      1.041  0.0000E+00  0.0000E+00  0.1800E-01  0.1800E-01
      1.092  0.0000E+00  0.0000E+00  0.1800E-01  0.1800E-01
      1.144  0.0000E+00  0.0000E+00  0.1800E-01  0.1800E-01
      1.196  0.0000E+00  0.0000E+00  0.1800E-01  0.1800E-01
