    7    7 1000    2
  0.1589676E+04  0.2254454E-08  0.2183981E-08  0.2260041E-08  0.5000000E-15
   1.0000000000000000E-004
  CAR 
 unknown system                          
     21      1     18
 
  0.1262379E-14  0.1262379E-14  0.1262379E-14  0.1000000E+01
    1      -12.329359    -12.218617   1.000000   1.000000
    2       -9.697699     -9.476095   1.000000   1.000000
    3       -8.890285     -8.837977   1.000000   1.000000
    4       -8.854428     -8.808601   1.000000   1.000000
    5       -6.644091     -6.280092   1.000000   1.000000
    6       -5.997625     -5.922441   1.000000   1.000000
    7       -5.955616     -5.893210   1.000000   1.000000
    8       -5.039237     -4.993298   1.000000   1.000000
    9       -4.954519     -4.914927   1.000000   1.000000
   10       -4.950066     -4.910818   1.000000   1.000000
   11       -4.184631     -3.383623   1.000063  -0.000036
   12       -3.368781     -3.218005  -0.000023  -0.000000
   13       -3.301653     -3.195540  -0.000003  -0.000000
   14       -3.002513     -2.944995  -0.000000  -0.000000
   15       -2.367061     -2.266869  -0.000000  -0.000000
   16       -2.319815     -2.234240  -0.000000  -0.000000
   17       -1.626332     -1.624269  -0.000000  -0.000000
   18       -0.843888     -0.804223  -0.000000  -0.000000
