       N       E                     dE             d eps       ncg     rms          rms(c)
DAV:   1     0.438768753192E+02    0.43877E+02   -0.33065E+03   104   0.411E+02
DAV:   2    -0.786357943712E+01   -0.51740E+02   -0.51483E+02   112   0.582E+01
DAV:   3    -0.184952327327E+02   -0.10632E+02   -0.10591E+02    88   0.243E+01
DAV:   4    -0.189379341741E+02   -0.44270E+00   -0.44138E+00    76   0.748E+00
DAV:   5    -0.189674797887E+02   -0.29546E-01   -0.29548E-01   110   0.260E+00    0.690E+00
DAV:   6    -0.866890119248E+01    0.10299E+02   -0.19007E+01    74   0.154E+01    0.373E+00
DAV:   7    -0.547360545393E+01    0.31953E+01   -0.49004E+00    74   0.804E+00    0.196E+00
DAV:   8    -0.822124667694E+01   -0.27476E+01   -0.10938E+00    84   0.492E+00    0.149E+00
DAV:   9    -0.117560686097E+02   -0.35348E+01   -0.14533E+00    74   0.429E+00    0.996E-01
DAV:  10    -0.138799829237E+02   -0.21239E+01   -0.85473E-01    84   0.285E+00    0.705E-01
DAV:  11    -0.151748734735E+02   -0.12949E+01   -0.42496E-01    78   0.201E+00    0.538E-01
DAV:  12    -0.164475053064E+02   -0.12726E+01   -0.49867E-01    74   0.230E+00    0.330E-01
DAV:  13    -0.167930901071E+02   -0.34558E+00   -0.10400E-01    76   0.118E+00    0.237E-01
DAV:  14    -0.170781692240E+02   -0.28508E+00   -0.26310E-02    74   0.657E-01    0.152E-01
DAV:  15    -0.174902271552E+02   -0.41206E+00   -0.26941E-02    76   0.494E-01    0.851E-02
DAV:  16    -0.176051071298E+02   -0.11488E+00   -0.60336E-03    82   0.275E-01    0.536E-02
DAV:  17    -0.176555826412E+02   -0.50476E-01   -0.21182E-03    78   0.159E-01    0.319E-02
DAV:  18    -0.177041701036E+02   -0.48587E-01   -0.20530E-03    82   0.126E-01    0.144E-02
DAV:  19    -0.177130415023E+02   -0.88714E-02   -0.11704E-04    80   0.401E-02    0.927E-03
DAV:  20    -0.177157616925E+02   -0.27202E-02   -0.10946E-04    62   0.388E-02    0.583E-03
DAV:  21    -0.177164424629E+02   -0.68077E-03   -0.65912E-05    70   0.269E-02    0.380E-03
DAV:  22    -0.177169809322E+02   -0.53847E-03   -0.22761E-05    56   0.164E-02    0.251E-03
DAV:  23    -0.177177362508E+02   -0.75532E-03   -0.25898E-05    64   0.145E-02    0.152E-03
DAV:  24    -0.177179566843E+02   -0.22043E-03   -0.42195E-06    48   0.833E-03    0.926E-04
DAV:  25    -0.177180787998E+02   -0.12212E-03   -0.22433E-06    48   0.565E-03    0.531E-04
DAV:  26    -0.177180966604E+02   -0.17861E-04   -0.46843E-07    48   0.367E-03
   1 F= -.17718097E+02 E0= -.17720238E+02  d E =-.177181E+02  mag=     1.0005
       N       E                     dE             d eps       ncg     rms          rms(c)
DAV:   1    -0.177231123945E+02   -0.50336E-02   -0.38195E-02    80   0.102E+00    0.596E-02
DAV:   2    -0.177232833006E+02   -0.17091E-03   -0.25163E-03   112   0.245E-01    0.373E-02
DAV:   3    -0.177232588008E+02    0.24500E-04   -0.74720E-05    48   0.498E-02
   2 F= -.17723259E+02 E0= -.17725410E+02  d E =-.516214E-02  mag=     1.0004
       N       E                     dE             d eps       ncg     rms          rms(c)
DAV:   1    -0.177257036648E+02   -0.24204E-02   -0.89432E-02    80   0.157E+00    0.884E-02
DAV:   2    -0.177260403343E+02   -0.33667E-03   -0.60106E-03   112   0.379E-01    0.636E-02
DAV:   3    -0.177259760400E+02    0.64294E-04   -0.27292E-04    80   0.802E-02
   3 F= -.17725976E+02 E0= -.17728144E+02  d E =-.787938E-02  mag=     1.0003
       N       E                     dE             d eps       ncg     rms          rms(c)
DAV:   1    -0.177268590330E+02   -0.81870E-03   -0.92660E-03    80   0.514E-01    0.397E-02
DAV:   2    -0.177268589010E+02    0.13199E-06   -0.64127E-04    96   0.119E-01
   4 F= -.17726859E+02 E0= -.17729024E+02  d E =-.882861E-03  mag=     1.0003
       N       E                     dE             d eps       ncg     rms          rms(c)
DAV:   1    -0.177274086585E+02   -0.54963E-03   -0.35146E-02    76   0.100E+00    0.609E-02
DAV:   2    -0.177274174161E+02   -0.87577E-05   -0.23719E-03   104   0.232E-01    0.401E-02
DAV:   3    -0.177272975091E+02    0.11991E-03   -0.98495E-05    56   0.541E-02    0.270E-02
DAV:   4    -0.177271736817E+02    0.12383E-03   -0.73844E-05    56   0.415E-02    0.159E-02
DAV:   5    -0.177271496489E+02    0.24033E-04   -0.29634E-05    56   0.297E-02
   5 F= -.17727150E+02 E0= -.17729308E+02  d E =-.117361E-02  mag=     1.0002
       N       E                     dE             d eps       ncg     rms          rms(c)
DAV:   1    -0.177281950361E+02   -0.10214E-02   -0.13753E-02    80   0.652E-01    0.439E-02
DAV:   2    -0.177282233826E+02   -0.28346E-04   -0.84633E-04   104   0.137E-01
   6 F= -.17728223E+02 E0= -.17730393E+02  d E =-.107373E-02  mag=     1.0002
       N       E                     dE             d eps       ncg     rms          rms(c)
DAV:   1    -0.177294900331E+02   -0.12950E-02   -0.12339E-01    72   0.195E+00    0.135E-01
DAV:   2    -0.177291416172E+02    0.34842E-03   -0.71476E-03    88   0.403E-01    0.765E-02
DAV:   3    -0.177281203319E+02    0.10213E-02   -0.71249E-04    96   0.127E-01    0.593E-02
DAV:   4    -0.177277761767E+02    0.34416E-03   -0.68212E-05    56   0.429E-02    0.424E-02
DAV:   5    -0.177275058634E+02    0.27031E-03   -0.12119E-04    64   0.437E-02    0.155E-02
DAV:   6    -0.177278537896E+02   -0.34793E-03   -0.74035E-05    64   0.350E-02    0.667E-03
DAV:   7    -0.177282914682E+02   -0.43768E-03   -0.15342E-05    48   0.204E-02    0.514E-03
DAV:   8    -0.177291560694E+02   -0.86460E-03   -0.34108E-05    64   0.218E-02    0.313E-03
DAV:   9    -0.177297111172E+02   -0.55505E-03   -0.17015E-05    56   0.163E-02    0.232E-03
DAV:  10    -0.177300812929E+02   -0.37018E-03   -0.84444E-06    48   0.110E-02    0.156E-03
DAV:  11    -0.177305732805E+02   -0.49199E-03   -0.16657E-05    60   0.118E-02    0.908E-04
DAV:  12    -0.177306687409E+02   -0.95460E-04   -0.15409E-06    48   0.599E-03
   7 F= -.17730669E+02 E0= -.17732862E+02  d E =-.351909E-02  mag=     1.0001
       N       E                     dE             d eps       ncg     rms          rms(c)
DAV:   1    -0.177325367818E+02   -0.19635E-02   -0.31443E-02    72   0.982E-01    0.636E-02
DAV:   2    -0.177326305426E+02   -0.93761E-04   -0.18860E-03   112   0.214E-01    0.321E-02
DAV:   3    -0.177325769151E+02    0.53628E-04   -0.72134E-05    48   0.469E-02
   8 F= -.17732577E+02 E0= -.17734741E+02  d E =-.190817E-02  mag=     1.0001
       N       E                     dE             d eps       ncg     rms          rms(c)
DAV:   1    -0.177328758863E+02   -0.24534E-03   -0.21621E-02    72   0.816E-01    0.496E-02
DAV:   2    -0.177328728525E+02    0.30338E-05   -0.13624E-03   112   0.182E-01    0.330E-02
DAV:   3    -0.177328068215E+02    0.66031E-04   -0.52070E-05    48   0.421E-02
   9 F= -.17732807E+02 E0= -.17734950E+02  d E =-.213808E-02  mag=     1.0001
       N       E                     dE             d eps       ncg     rms          rms(c)
DAV:   1    -0.177339020815E+02   -0.10292E-02   -0.15139E-02    76   0.693E-01    0.440E-02
DAV:   2    -0.177338852664E+02    0.16815E-04   -0.82428E-04   104   0.139E-01
  10 F= -.17733885E+02 E0= -.17736012E+02  d E =-.107844E-02  mag=     1.0001
       N       E                     dE             d eps       ncg     rms          rms(c)
DAV:   1    -0.177358413832E+02   -0.19393E-02   -0.13484E-01    72   0.208E+00    0.134E-01
DAV:   2    -0.177355716994E+02    0.26968E-03   -0.69719E-03    96   0.408E-01    0.737E-02
DAV:   3    -0.177346356610E+02    0.93604E-03   -0.60881E-04    84   0.120E-01    0.557E-02
DAV:   4    -0.177343344137E+02    0.30125E-03   -0.56458E-05    56   0.390E-02    0.396E-02
DAV:   5    -0.177341271218E+02    0.20729E-03   -0.12260E-04    58   0.428E-02    0.146E-02
DAV:   6    -0.177344699153E+02   -0.34279E-03   -0.64842E-05    64   0.323E-02    0.644E-03
DAV:   7    -0.177348774202E+02   -0.40750E-03   -0.15059E-05    48   0.195E-02    0.487E-03
DAV:   8    -0.177357417029E+02   -0.86428E-03   -0.40547E-05    62   0.226E-02    0.283E-03
DAV:   9    -0.177362129618E+02   -0.47126E-03   -0.14555E-05    64   0.153E-02    0.219E-03
DAV:  10    -0.177365800891E+02   -0.36713E-03   -0.65309E-06    48   0.109E-02    0.138E-03
DAV:  11    -0.177369362036E+02   -0.35611E-03   -0.10537E-05    62   0.101E-02    0.824E-04
DAV:  12    -0.177371086100E+02   -0.17241E-03   -0.28633E-06    48   0.664E-03    0.603E-04
DAV:  13    -0.177372170645E+02   -0.10845E-03   -0.18052E-06    48   0.488E-03    0.386E-04
DAV:  14    -0.177372847882E+02   -0.67724E-04   -0.78698E-07    46   0.372E-03
  11 F= -.17737285E+02 E0= -.17739361E+02  d E =-.447797E-02  mag=     1.0001
       N       E                     dE             d eps       ncg     rms          rms(c)
DAV:   1    -0.177351809729E+02    0.20361E-02   -0.54051E-01    72   0.416E+00    0.263E-01
DAV:   2    -0.177366188814E+02   -0.14379E-02   -0.27472E-02    96   0.808E-01    0.129E-01
DAV:   3    -0.177347490732E+02    0.18698E-02   -0.22403E-03    94   0.231E-01    0.961E-02
DAV:   4    -0.177341868468E+02    0.56223E-03   -0.18837E-04    72   0.643E-02    0.678E-02
DAV:   5    -0.177337049331E+02    0.48191E-03   -0.25991E-04    80   0.587E-02    0.273E-02
DAV:   6    -0.177339926263E+02   -0.28769E-03   -0.11391E-04    72   0.399E-02    0.111E-02
DAV:   7    -0.177344695096E+02   -0.47688E-03   -0.26813E-05    56   0.227E-02    0.780E-03
DAV:   8    -0.177356140564E+02   -0.11445E-02   -0.55942E-05    64   0.254E-02    0.425E-03
DAV:   9    -0.177363977667E+02   -0.78371E-03   -0.29112E-05    64   0.189E-02    0.314E-03
DAV:  10    -0.177369023589E+02   -0.50459E-03   -0.10057E-05    48   0.119E-02    0.213E-03
DAV:  11    -0.177374457591E+02   -0.54340E-03   -0.17123E-05    64   0.115E-02    0.122E-03
DAV:  12    -0.177377332430E+02   -0.28748E-03   -0.51863E-06    48   0.763E-03    0.860E-04
DAV:  13    -0.177378752199E+02   -0.14198E-03   -0.26873E-06    48   0.524E-03    0.596E-04
DAV:  14    -0.177379922307E+02   -0.11701E-03   -0.16091E-06    48   0.426E-03    0.371E-04
DAV:  15    -0.177380658288E+02   -0.73598E-04   -0.98515E-07    48   0.335E-03
  12 F= -.17738066E+02 E0= -.17740074E+02  d E =-.525901E-02  mag=     1.0001
       N       E                     dE             d eps       ncg     rms          rms(c)
DAV:   1    -0.177440503797E+02   -0.60581E-02   -0.62390E-02    76   0.133E+00    0.761E-02
DAV:   2    -0.177441854950E+02   -0.13512E-03   -0.36858E-03   104   0.293E-01    0.411E-02
DAV:   3    -0.177439083084E+02    0.27719E-03   -0.14564E-04    62   0.652E-02    0.263E-02
DAV:   4    -0.177436799678E+02    0.22834E-03   -0.10846E-04    64   0.497E-02    0.146E-02
DAV:   5    -0.177436883665E+02   -0.83987E-05   -0.30331E-05    56   0.317E-02
  13 F= -.17743688E+02 E0= -.17745717E+02  d E =-.562254E-02  mag=     1.0001
       N       E                     dE             d eps       ncg     rms          rms(c)
DAV:   1    -0.177458031047E+02   -0.21231E-02   -0.72616E-02    80   0.143E+00    0.798E-02
DAV:   2    -0.177458893545E+02   -0.86250E-04   -0.44536E-03   100   0.322E-01    0.453E-02
DAV:   3    -0.177455322763E+02    0.35708E-03   -0.19230E-04    72   0.724E-02    0.309E-02
DAV:   4    -0.177453266074E+02    0.20567E-03   -0.81556E-05    56   0.451E-02    0.191E-02
DAV:   5    -0.177453692633E+02   -0.42656E-04   -0.36641E-05    56   0.328E-02
  14 F= -.17745369E+02 E0= -.17747426E+02  d E =-.730343E-02  mag=     1.0001
       N       E                     dE             d eps       ncg     rms          rms(c)
DAV:   1    -0.177484550936E+02   -0.31285E-02   -0.48170E-02    76   0.117E+00    0.793E-02
DAV:   2    -0.177484745999E+02   -0.19506E-04   -0.35010E-03   104   0.275E-01    0.466E-02
DAV:   3    -0.177481857956E+02    0.28880E-03   -0.17688E-04    64   0.686E-02    0.302E-02
DAV:   4    -0.177479905361E+02    0.19526E-03   -0.67556E-05    56   0.420E-02    0.193E-02
DAV:   5    -0.177480266220E+02   -0.36086E-04   -0.41319E-05    56   0.326E-02
  15 F= -.17748027E+02 E0= -.17750075E+02  d E =-.265736E-02  mag=     1.0001
       N       E                     dE             d eps       ncg     rms          rms(c)
DAV:   1    -0.177493375842E+02   -0.13470E-02   -0.89665E-02    72   0.160E+00    0.108E-01
DAV:   2    -0.177494018135E+02   -0.64229E-04   -0.64890E-03   104   0.375E-01    0.644E-02
DAV:   3    -0.177489199193E+02    0.48189E-03   -0.39211E-04    96   0.931E-02    0.446E-02
DAV:   4    -0.177486422490E+02    0.27767E-03   -0.63733E-05    56   0.364E-02    0.284E-02
DAV:   5    -0.177486454123E+02   -0.31633E-05   -0.68082E-05    64   0.326E-02
  16 F= -.17748645E+02 E0= -.17750678E+02  d E =-.327615E-02  mag=     1.0001
       N       E                     dE             d eps       ncg     rms          rms(c)
DAV:   1    -0.177514288467E+02   -0.27866E-02   -0.49951E-02    72   0.126E+00    0.806E-02
DAV:   2    -0.177515798971E+02   -0.15105E-03   -0.25895E-03    96   0.247E-01    0.403E-02
DAV:   3    -0.177512605623E+02    0.31933E-03   -0.19157E-04    60   0.724E-02    0.280E-02
DAV:   4    -0.177511906552E+02    0.69907E-04   -0.31115E-05    56   0.349E-02
  17 F= -.17751191E+02 E0= -.17753206E+02  d E =-.254524E-02  mag=     1.0001
       N       E                     dE             d eps       ncg     rms          rms(c)
DAV:   1    -0.177544694167E+02   -0.32089E-02   -0.45019E-01    72   0.379E+00    0.235E-01
DAV:   2    -0.177550730067E+02   -0.60359E-03   -0.23001E-02    96   0.739E-01    0.119E-01
DAV:   3    -0.177531204730E+02    0.19525E-02   -0.18391E-03    96   0.213E-01    0.901E-02
DAV:   4    -0.177526877105E+02    0.43276E-03   -0.14228E-04    64   0.602E-02    0.646E-02
DAV:   5    -0.177525960310E+02    0.91680E-04   -0.26415E-04    76   0.623E-02
  18 F= -.17752596E+02 E0= -.17754572E+02  d E =-.395062E-02  mag=     1.0000
       N       E                     dE             d eps       ncg     rms          rms(c)
DAV:   1    -0.177380156860E+02    0.14672E-01   -0.18048E+00    72   0.759E+00    0.463E-01
DAV:   2    -0.177430653516E+02   -0.50497E-02   -0.91907E-02    96   0.148E+00    0.222E-01
DAV:   3    -0.177388367281E+02    0.42286E-02   -0.70195E-03    96   0.423E-01    0.164E-01
DAV:   4    -0.177381833381E+02    0.65339E-03   -0.55605E-04    96   0.114E-01    0.119E-01
DAV:   5    -0.177387280847E+02   -0.54475E-03   -0.58875E-04    76   0.884E-02    0.515E-02
DAV:   6    -0.177408316007E+02   -0.21035E-02   -0.38878E-04    84   0.684E-02    0.223E-02
DAV:   7    -0.177425964956E+02   -0.17649E-02   -0.44768E-05    72   0.283E-02    0.159E-02
DAV:   8    -0.177470483762E+02   -0.44519E-02   -0.18052E-04    84   0.402E-02    0.879E-03
DAV:   9    -0.177497780436E+02   -0.27297E-02   -0.82403E-05    76   0.257E-02    0.599E-03
DAV:  10    -0.177514103603E+02   -0.16323E-02   -0.36015E-05    78   0.168E-02    0.414E-03
DAV:  11    -0.177529233346E+02   -0.15130E-02   -0.33835E-05    78   0.150E-02    0.245E-03
DAV:  12    -0.177536853774E+02   -0.76204E-03   -0.17221E-05    64   0.106E-02    0.158E-03
DAV:  13    -0.177540962322E+02   -0.41085E-03   -0.53624E-06    48   0.681E-03    0.955E-04
DAV:  14    -0.177543416171E+02   -0.24538E-03   -0.37748E-06    64   0.542E-03    0.570E-04
DAV:  15    -0.177544520257E+02   -0.11041E-03   -0.13800E-06    48   0.407E-03    0.364E-04
DAV:  16    -0.177544831017E+02   -0.31076E-04   -0.51551E-07    48   0.288E-03
  19 F= -.17754483E+02 E0= -.17756429E+02  d E =-.583769E-02  mag=     1.0000
       N       E                     dE             d eps       ncg     rms          rms(c)
DAV:   1    -0.177661846248E+02   -0.11733E-01   -0.12950E-01    72   0.192E+00    0.106E-01
DAV:   2    -0.177664847753E+02   -0.30015E-03   -0.74515E-03   112   0.420E-01    0.657E-02
DAV:   3    -0.177664043983E+02    0.80377E-04   -0.35337E-04    96   0.872E-02
  20 F= -.17766404E+02 E0= -.17768352E+02  d E =-.119213E-01  mag=     1.0000
       N       E                     dE             d eps       ncg     rms          rms(c)
DAV:   1    -0.177706612918E+02   -0.41765E-02   -0.17384E-01    72   0.223E+00    0.125E-01
DAV:   2    -0.177708607434E+02   -0.19945E-03   -0.10171E-02   112   0.492E-01    0.872E-02
DAV:   3    -0.177707119084E+02    0.14884E-03   -0.54092E-04   112   0.107E-01    0.624E-02
DAV:   4    -0.177706103929E+02    0.10152E-03   -0.68113E-05    56   0.411E-02    0.277E-02
DAV:   5    -0.177705739811E+02    0.36412E-04   -0.72530E-05    56   0.385E-02
  21 F= -.17770574E+02 E0= -.17772524E+02  d E =-.160909E-01  mag=     1.0001
       N       E                     dE             d eps       ncg     rms          rms(c)
DAV:   1    -0.177737122525E+02   -0.31019E-02   -0.43282E-02    72   0.115E+00    0.602E-02
DAV:   2    -0.177738326070E+02   -0.12035E-03   -0.20883E-03   112   0.230E-01    0.312E-02
DAV:   3    -0.177738339037E+02   -0.12967E-05   -0.70189E-05    48   0.498E-02
  22 F= -.17773834E+02 E0= -.17775785E+02  d E =-.325992E-02  mag=     1.0000
       N       E                     dE             d eps       ncg     rms          rms(c)
DAV:   1    -0.177753572771E+02   -0.15247E-02   -0.11315E-01    72   0.186E+00    0.947E-02
DAV:   2    -0.177755811953E+02   -0.22392E-03   -0.54214E-03   112   0.371E-01    0.530E-02
DAV:   3    -0.177755262654E+02    0.54930E-04   -0.27429E-04    96   0.813E-02
  23 F= -.17775526E+02 E0= -.17777481E+02  d E =-.495228E-02  mag=     1.0000
       N       E                     dE             d eps       ncg     rms          rms(c)
DAV:   1    -0.177774272110E+02   -0.18460E-02   -0.42667E-02    76   0.115E+00    0.587E-02
DAV:   2    -0.177775649974E+02   -0.13779E-03   -0.17956E-03   112   0.215E-01    0.340E-02
DAV:   3    -0.177775519279E+02    0.13070E-04   -0.42619E-05    48   0.398E-02
  24 F= -.17777552E+02 E0= -.17779513E+02  d E =-.202566E-02  mag=     1.0000
       N       E                     dE             d eps       ncg     rms          rms(c)
DAV:   1    -0.177784889379E+02   -0.92394E-03   -0.16690E-01    72   0.227E+00    0.106E-01
DAV:   2    -0.177790216246E+02   -0.53269E-03   -0.70002E-03   112   0.424E-01    0.571E-02
DAV:   3    -0.177789210643E+02    0.10056E-03   -0.22115E-04    64   0.784E-02    0.394E-02
DAV:   4    -0.177788546302E+02    0.66434E-04   -0.74898E-05    56   0.425E-02
  25 F= -.17778855E+02 E0= -.17780833E+02  d E =-.332836E-02  mag=     1.0001
       N       E                     dE             d eps       ncg     rms          rms(c)
DAV:   1    -0.177802772756E+02   -0.13562E-02   -0.23331E-02    72   0.854E-01    0.437E-02
DAV:   2    -0.177804033589E+02   -0.12608E-03   -0.10348E-03   112   0.163E-01    0.233E-02
DAV:   3    -0.177804093737E+02   -0.60149E-05   -0.28468E-05    48   0.321E-02
  26 F= -.17780409E+02 E0= -.17782389E+02  d E =-.155474E-02  mag=     1.0001
       N       E                     dE             d eps       ncg     rms          rms(c)
DAV:   1    -0.177824413569E+02   -0.20380E-02   -0.20970E-01    72   0.257E+00    0.131E-01
DAV:   2    -0.177830201648E+02   -0.57881E-03   -0.89714E-03   112   0.480E-01    0.670E-02
DAV:   3    -0.177827959075E+02    0.22426E-03   -0.36864E-04   104   0.933E-02    0.496E-02
DAV:   4    -0.177826524637E+02    0.14344E-03   -0.57951E-05    54   0.363E-02    0.259E-02
DAV:   5    -0.177826609782E+02   -0.85145E-05   -0.47531E-05    60   0.303E-02
  27 F= -.17782661E+02 E0= -.17784648E+02  d E =-.380635E-02  mag=     1.0001
       N       E                     dE             d eps       ncg     rms          rms(c)
DAV:   1    -0.177844379169E+02   -0.17855E-02   -0.21109E-02    72   0.793E-01    0.442E-02
DAV:   2    -0.177845919569E+02   -0.15404E-03   -0.11480E-03   104   0.162E-01    0.220E-02
DAV:   3    -0.177845365068E+02    0.55450E-04   -0.40638E-05    56   0.361E-02
  28 F= -.17784537E+02 E0= -.17786518E+02  d E =-.187553E-02  mag=     1.0001
       N       E                     dE             d eps       ncg     rms          rms(c)
DAV:   1    -0.177862743268E+02   -0.16824E-02   -0.18964E-01    72   0.238E+00    0.128E-01
DAV:   2    -0.177868144437E+02   -0.54012E-03   -0.10108E-02   104   0.484E-01    0.674E-02
DAV:   3    -0.177861683053E+02    0.64614E-03   -0.49799E-04   104   0.107E-01    0.494E-02
DAV:   4    -0.177858211694E+02    0.34714E-03   -0.90988E-05    64   0.427E-02    0.301E-02
DAV:   5    -0.177857569105E+02    0.64259E-04   -0.82493E-05    64   0.373E-02
  29 F= -.17785757E+02 E0= -.17787725E+02  d E =-.309593E-02  mag=     1.0001
       N       E                     dE             d eps       ncg     rms          rms(c)
DAV:   1    -0.177875405029E+02   -0.17193E-02   -0.30889E-02    72   0.981E-01    0.561E-02
DAV:   2    -0.177878244162E+02   -0.28391E-03   -0.15161E-03    96   0.190E-01    0.288E-02
DAV:   3    -0.177878282886E+02   -0.38724E-05   -0.85308E-05    56   0.547E-02
  30 F= -.17787828E+02 E0= -.17789791E+02  d E =-.207138E-02  mag=     1.0001
       N       E                     dE             d eps       ncg     rms          rms(c)
DAV:   1    -0.177885361808E+02   -0.71176E-03   -0.23545E-01    72   0.271E+00    0.149E-01
DAV:   2    -0.177889970359E+02   -0.46086E-03   -0.11387E-02    96   0.522E-01    0.804E-02
DAV:   3    -0.177883254026E+02    0.67163E-03   -0.90626E-04    96   0.148E-01    0.616E-02
DAV:   4    -0.177881659025E+02    0.15950E-03   -0.59809E-05    56   0.418E-02    0.444E-02
DAV:   5    -0.177882004405E+02   -0.34538E-04   -0.12785E-04    62   0.462E-02
  31 F= -.17788200E+02 E0= -.17790153E+02  d E =-.244353E-02  mag=     1.0001
       N       E                     dE             d eps       ncg     rms          rms(c)
DAV:   1    -0.177898442866E+02   -0.16784E-02   -0.58699E-02    72   0.136E+00    0.728E-02
DAV:   2    -0.177903650032E+02   -0.52072E-03   -0.24476E-03   104   0.252E-01    0.335E-02
DAV:   3    -0.177904699510E+02   -0.10495E-03   -0.16116E-04    64   0.662E-02    0.232E-02
DAV:   4    -0.177906536238E+02   -0.18367E-03   -0.25746E-05    48   0.325E-02    0.164E-02
DAV:   5    -0.177910806593E+02   -0.42704E-03   -0.32843E-05    56   0.294E-02    0.646E-03
DAV:   6    -0.177915859968E+02   -0.50534E-03   -0.23087E-05    62   0.232E-02    0.351E-03
DAV:   7    -0.177919650908E+02   -0.37909E-03   -0.95098E-06    46   0.167E-02    0.264E-03
DAV:   8    -0.177925701430E+02   -0.60505E-03   -0.20718E-05    62   0.170E-02    0.163E-03
DAV:   9    -0.177928679385E+02   -0.29780E-03   -0.69624E-06    48   0.116E-02    0.125E-03
DAV:  10    -0.177930785665E+02   -0.21063E-03   -0.45012E-06    64   0.894E-03    0.777E-04
DAV:  11    -0.177932593901E+02   -0.18082E-03   -0.36436E-06    48   0.770E-03    0.465E-04
DAV:  12    -0.177933193987E+02   -0.60009E-04   -0.10011E-06    48   0.520E-03
  32 F= -.17793319E+02 E0= -.17795270E+02  d E =-.511896E-02  mag=     1.0001
       N       E                     dE             d eps       ncg     rms          rms(c)
DAV:   1    -0.177926068354E+02    0.65255E-03   -0.53228E-01    72   0.409E+00    0.213E-01
DAV:   2    -0.177943568013E+02   -0.17500E-02   -0.21885E-02   102   0.750E-01    0.996E-02
DAV:   3    -0.177936590339E+02    0.69777E-03   -0.16356E-03   120   0.194E-01    0.773E-02
DAV:   4    -0.177934759936E+02    0.18304E-03   -0.87771E-05    64   0.481E-02    0.540E-02
DAV:   5    -0.177932288848E+02    0.24711E-03   -0.18254E-04    70   0.523E-02    0.152E-02
DAV:   6    -0.177933718007E+02   -0.14292E-03   -0.59209E-05    62   0.322E-02    0.753E-03
DAV:   7    -0.177936443715E+02   -0.27257E-03   -0.11688E-05    48   0.182E-02    0.545E-03
DAV:   8    -0.177941117755E+02   -0.46740E-03   -0.20575E-05    60   0.178E-02    0.295E-03
DAV:   9    -0.177943704818E+02   -0.25871E-03   -0.10019E-05    54   0.131E-02    0.228E-03
DAV:  10    -0.177945712431E+02   -0.20076E-03   -0.45718E-06    56   0.914E-03    0.141E-03
DAV:  11    -0.177948553553E+02   -0.28411E-03   -0.10067E-05    60   0.984E-03    0.788E-04
DAV:  12    -0.177949111323E+02   -0.55777E-04   -0.11707E-06    48   0.491E-03
  33 F= -.17794911E+02 E0= -.17796859E+02  d E =-.671069E-02  mag=     1.0001
       N       E                     dE             d eps       ncg     rms          rms(c)
DAV:   1    -0.177960917045E+02   -0.12363E-02   -0.41504E-02    72   0.113E+00    0.545E-02
DAV:   2    -0.177962512592E+02   -0.15955E-03   -0.15408E-03    94   0.202E-01    0.252E-02
DAV:   3    -0.177961835633E+02    0.67696E-04   -0.83356E-05    52   0.528E-02
  34 F= -.17796184E+02 E0= -.17798131E+02  d E =-.127243E-02  mag=     1.0001
       N       E                     dE             d eps       ncg     rms          rms(c)
DAV:   1    -0.177967719194E+02   -0.52066E-03   -0.37457E-01    72   0.338E+00    0.162E-01
DAV:   2    -0.177977632495E+02   -0.99133E-03   -0.14027E-02    96   0.611E-01    0.806E-02
DAV:   3    -0.177972419056E+02    0.52134E-03   -0.10822E-03   104   0.160E-01    0.651E-02
DAV:   4    -0.177971551250E+02    0.86781E-04   -0.63333E-05    56   0.419E-02
  35 F= -.17797155E+02 E0= -.17799102E+02  d E =-.224399E-02  mag=     1.0001
       N       E                     dE             d eps       ncg     rms          rms(c)
DAV:   1    -0.177984171601E+02   -0.11753E-02   -0.16048E-02    72   0.710E-01    0.380E-02
DAV:   2    -0.177986998327E+02   -0.28267E-03   -0.73633E-04   112   0.137E-01    0.212E-02
DAV:   3    -0.177988142050E+02   -0.11437E-03   -0.19443E-05    48   0.282E-02    0.137E-02
DAV:   4    -0.177989954949E+02   -0.18129E-03   -0.16780E-05    46   0.226E-02    0.820E-03
DAV:   5    -0.177992083079E+02   -0.21281E-03   -0.13924E-05    54   0.185E-02    0.298E-03
DAV:   6    -0.177994211370E+02   -0.21283E-03   -0.71610E-06    48   0.139E-02    0.188E-03
DAV:   7    -0.177995944934E+02   -0.17336E-03   -0.48740E-06    48   0.109E-02    0.127E-03
DAV:   8    -0.177997354569E+02   -0.14096E-03   -0.30869E-06    48   0.832E-03    0.892E-04
DAV:   9    -0.177998668761E+02   -0.13142E-03   -0.27013E-06    48   0.690E-03    0.493E-04
DAV:  10    -0.177999400836E+02   -0.73207E-04   -0.15701E-06    48   0.526E-03
  36 F= -.17799940E+02 E0= -.17801887E+02  d E =-.278496E-02  mag=     1.0001
       N       E                     dE             d eps       ncg     rms          rms(c)
DAV:   1    -0.178009184494E+02   -0.10516E-02   -0.70092E-02    72   0.148E+00    0.724E-02
DAV:   2    -0.178011395935E+02   -0.22114E-03   -0.31069E-03   108   0.280E-01    0.366E-02
DAV:   3    -0.178010750870E+02    0.64507E-04   -0.77796E-05    54   0.545E-02
  37 F= -.17801075E+02 E0= -.17803024E+02  d E =-.391996E-02  mag=     1.0001
       N       E                     dE             d eps       ncg     rms          rms(c)
DAV:   1    -0.178012311049E+02   -0.91511E-04   -0.82498E-03    72   0.475E-01    0.316E-02
DAV:   2    -0.178012276203E+02    0.34846E-05   -0.50899E-04    94   0.115E-01
  38 F= -.17801228E+02 E0= -.17803178E+02  d E =-.152533E-03  mag=     1.0001
       N       E                     dE             d eps       ncg     rms          rms(c)
DAV:   1    -0.178012213658E+02    0.97391E-05   -0.69205E-05    38   0.496E-02    0.103E-02
DAV:   2    -0.178012284279E+02   -0.70621E-05   -0.19302E-05    42   0.302E-02
  39 F= -.17801228E+02 E0= -.17803179E+02  d E =-.153341E-03  mag=     1.0001
