 vasp.6.1.2 22Jul20 (build Aug  2 2021 21:04:21) gamma-only                      
 executed on             LinuxPGI date 2021.12.29  02:43:41
 running on    8 total cores
 distrk:  each k-point on    8 cores,    1 groups
 distr:  one band on NCORE=   8 cores,    1 groups


--------------------------------------------------------------------------------------------------------


 INCAR:
 POTCAR:    PAW_PBE Al 04Jan2001                  
 -----------------------------------------------------------------------------
|                                                                             |
|           W    W    AA    RRRRR   N    N  II  N    N   GGGG   !!!           |
|           W    W   A  A   R    R  NN   N  II  NN   N  G    G  !!!           |
|           W    W  A    A  R    R  N N  N  II  N N  N  G       !!!           |
|           W WW W  AAAAAA  RRRRR   N  N N  II  N  N N  G  GGG   !            |
|           WW  WW  A    A  R   R   N   NN  II  N   NN  G    G                |
|           W    W  A    A  R    R  N    N  II  N    N   GGGG   !!!           |
|                                                                             |
|     You use a magnetic or noncollinear calculation, but did not specify     |
|     the initial magnetic moment with the MAGMOM tag. Note that a            |
|     default of 1 will be used for all atoms. This ferromagnetic setup       |
|     may break the symmetry of the crystal, in particular it may rule        |
|     out finding an antiferromagnetic solution. Thence, we recommend         |
|     setting the initial magnetic moment manually or verifying carefully     |
|     that this magnetic setup is desired.                                    |
|                                                                             |
 -----------------------------------------------------------------------------

 -----------------------------------------------------------------------------
|                                                                             |
|           W    W    AA    RRRRR   N    N  II  N    N   GGGG   !!!           |
|           W    W   A  A   R    R  NN   N  II  NN   N  G    G  !!!           |
|           W    W  A    A  R    R  N N  N  II  N N  N  G       !!!           |
|           W WW W  AAAAAA  RRRRR   N  N N  II  N  N N  G  GGG   !            |
|           WW  WW  A    A  R   R   N   NN  II  N   NN  G    G                |
|           W    W  A    A  R    R  N    N  II  N    N   GGGG   !!!           |
|                                                                             |
|     For optimal performance we recommend to set                             |
|       NCORE = 4 - approx SQRT(number of cores).                             |
|     NCORE specifies how many cores store one orbital (NPAR=cpu/NCORE).      |
|     This setting can greatly improve the performance of VASP for DFT.       |
|     The default, NCORE=1 might be grossly inefficient on modern             |
|     multi-core architectures or massively parallel machines. Do your        |
|     own testing!!!!                                                         |
|     Unfortunately you need to use the default for GW and RPA                |
|     calculations (for HF NCORE is supported but not extensively tested      |
|     yet).                                                                   |
|                                                                             |
 -----------------------------------------------------------------------------

 POTCAR:    PAW_PBE Al 04Jan2001                  
   SHA256 =  17880443556af62b473fe41b62a467bd001ad55d2cabe504a3f22e34d4e9db96 Al/POTCAR             
   COPYR  = (c) Copyright 04Jan2001 Georg Kresse                                                    
   COPYR  = This file is part of the software VASP. Any use, copying, and all other rights are regul
   COPYR  = If you do not have a valid VASP license, you may not use, copy or distribute this file. 
   VRHFIN =Al: s2p1                                                                                 
   LEXCH  = PE                                                                                      
   EATOM  =    53.5387 eV,    3.9350 Ry                                                             
                                                                                                    
   TITEL  = PAW_PBE Al 04Jan2001                                                                    
   LULTRA =        F    use ultrasoft PP ?                                                          
   IUNSCR =        1    unscreen: 0-lin 1-nonlin 2-no                                               
   RPACOR =    1.500    partial core radius                                                         
   POMASS =   26.981; ZVAL   =    3.000    mass and valenz                                          
   RCORE  =    1.900    outmost cutoff radius                                                       
   RWIGS  =    2.650; RWIGS  =    1.402    wigner-seitz radius (au A)                               
   ENMAX  =  240.300; ENMIN  =  180.225 eV                                                          
   ICORE  =        2    local potential                                                             
   LCOR   =        T    correct aug charges                                                         
   LPAW   =        T    paw PP                                                                      
   EAUG   =  291.052                                                                                
   DEXC   =    0.000                                                                                
   RMAX   =    1.939    core radius for proj-oper                                                   
   RAUG   =    1.300    factor for augmentation sphere                                              
   RDEP   =    1.966    radius for radial grids                                                     
   RDEPT  =    1.856    core radius for aug-charge                                                  
                                                                                                    
   Atomic configuration                                                                             
    6 entries                                                                                       
     n  l   j            E        occ.                                                              
     1  0  0.50     -1511.1048   2.0000                                                             
     2  0  0.50      -108.1629   2.0000                                                             
     2  1  1.50       -69.6402   6.0000                                                             
     3  0  0.50        -7.7528   2.0000                                                             
     3  1  1.50        -2.7121   1.0000                                                             
     3  2  2.50        -2.7212   0.0000                                                             
   Description                                                                                      
     l       E           TYP  RCUT    TYP  RCUT                                                     
     0     -7.7528455     23  1.900                                                                 
     0     -3.3096929     23  1.900                                                                 
     1     -2.7120682     23  1.900                                                                 
     1     13.6058260     23  1.900                                                                 
     2     -2.7211652      7  1.900                                                                 
  local pseudopotential read in
  partial core-charges read in
  partial kinetic energy density read in
  atomic valenz-charges read in
  non local Contribution for L=            0  read in
    real space projection operators read in
  non local Contribution for L=            0  read in
    real space projection operators read in
  non local Contribution for L=            1  read in
    real space projection operators read in
  non local Contribution for L=            1  read in
    real space projection operators read in
    PAW grid and wavefunctions read in
 
   number of l-projection  operators is LMAX  =            4
   number of lm-projection operators is LMMAX =            8
 
  PAW_PBE Al 04Jan2001                  :
 energy of atom  1       EATOM=  -53.5387
 kinetic energy error for atom=    0.0005 (will be added to EATOM!!)
 
 
 POSCAR: Al
  positions in cartesian coordinates
  No initial velocities read in
 exchange correlation table for  LEXCH =        8
   RHO(1)=    0.500       N(1)  =     2000
   RHO(2)=  100.500       N(2)  =     4000
 


--------------------------------------------------------------------------------------------------------


 ion  position               nearest neighbor table
   1  0.271  0.586  0.722-   6 2.52   5 2.66   3 2.71   2 2.74
   2  0.270  0.539  0.609-   6 2.71   3 2.72   4 2.74   1 2.74
   3  0.367  0.526  0.680-   4 2.51   5 2.62   1 2.71   2 2.72
   4  0.377  0.594  0.591-   3 2.51   7 2.56   2 2.74   6 2.94
   5  0.380  0.616  0.756-   7 2.58   3 2.62   1 2.66
   6  0.273  0.660  0.636-   1 2.52   7 2.59   2 2.71   4 2.94
   7  0.381  0.685  0.663-   4 2.56   5 2.58   6 2.59
 

IMPORTANT INFORMATION: All symmetrisations will be switched off!
NOSYMM: (Re-)initialisation of all symmetry stuff for point group C_1.


----------------------------------------------------------------------------------------

                                     Primitive cell                                     

  volume of cell :   11127.7292

  direct lattice vectors                    reciprocal lattice vectors
    22.544535633  0.000000000  0.000000000     0.044356647  0.000000000  0.000000000
     0.000000000 21.839813546  0.000000000     0.000000000  0.045787937  0.000000000
     0.000000000  0.000000000 22.600410503     0.000000000  0.000000000  0.044246984

  length of vectors
    22.544535633 21.839813546 22.600410503     0.044356647  0.045787937  0.044246984

  position of ions in fractional coordinates (direct lattice)
     0.270992113  0.586362990  0.721578606
     0.269960936  0.539003528  0.609372668
     0.367174650  0.526064122  0.679770515
     0.377291823  0.594307972  0.591187926
     0.380267370  0.615671296  0.755876933
     0.272653752  0.660065335  0.635843075
     0.381445527  0.684598568  0.663283590

  ion indices of the primitive-cell ions
   primitive index   ion index
                 1           1
                 2           2
                 3           3
                 4           4
                 5           5
                 6           6
                 7           7

----------------------------------------------------------------------------------------

 
 
 KPOINTS: KPOINTS created by Atomic Simulation Env

Automatic generation of k-mesh.
Space group operators:
 irot       det(A)        alpha          n_x          n_y          n_z        tau_x        tau_y        tau_z
    1     1.000000     0.000000     1.000000     0.000000     0.000000     0.000000     0.000000     0.000000
 
 Subroutine IBZKPT returns following result:
 ===========================================
 
 Found      1 irreducible k-points:
 
 Following reciprocal coordinates:
            Coordinates               Weight
  0.000000  0.000000  0.000000      1.000000
 
 Following cartesian coordinates:
            Coordinates               Weight
  0.000000  0.000000  0.000000      1.000000
 


--------------------------------------------------------------------------------------------------------




 Dimension of arrays:
   k-points           NKPTS =      1   k-points in BZ     NKDIM =      1   number of bands    NBANDS=     18
   number of dos      NEDOS =    301   number of ions     NIONS =      7
   non local maximal  LDIM  =      4   non local SUM 2l+1 LMDIM =      8
   total plane-waves  NPLWV = ******
   max r-space proj   IRMAX =      1   max aug-charges    IRDMAX=   4937
   dimension x,y,z NGX =   112 NGY =  108 NGZ =  112
   dimension x,y,z NGXF=   224 NGYF=  216 NGZF=  224
   support grid    NGXF=   224 NGYF=  216 NGZF=  224
   ions per type =               7
   NGX,Y,Z   is equivalent  to a cutoff of   8.26,  8.22,  8.24 a.u.
   NGXF,Y,Z  is equivalent  to a cutoff of  16.52, 16.44, 16.48 a.u.

 SYSTEM =  unknown system                          
 POSCAR =  Al                                      

 Startparameter for this run:
   NWRITE =      2    write-flag & timer
   PREC   = normal    normal or accurate (medium, high low for compatibility)
   ISTART =      0    job   : 0-new  1-cont  2-samecut
   ICHARG =      2    charge: 1-file 2-atom 10-const
   ISPIN  =      2    spin polarized calculation?
   LNONCOLLINEAR =      F non collinear calculations
   LSORBIT =      F    spin-orbit coupling
   INIWAV =      1    electr: 0-lowe 1-rand  2-diag
   LASPH  =      F    aspherical Exc in radial PAW
   METAGGA=      F    non-selfconsistent MetaGGA calc.

 Electronic Relaxation 1
   ENCUT  =  400.0 eV  29.40 Ry    5.42 a.u.  36.76 35.62 36.86*2*pi/ulx,y,z
   ENINI  =  400.0     initial cutoff
   ENAUG  =  291.1 eV  augmentation charge cutoff
   NELM   =     60;   NELMIN=  2; NELMDL=  0     # of ELM steps 
   EDIFF  = 0.1E-03   stopping-criterion for ELM
   LREAL  =      F    real-space projection
   NLSPLINE    = F    spline interpolate recip. space projectors
   LCOMPAT=      F    compatible to vasp.4.4
   GGA_COMPAT  = T    GGA compatible to vasp.4.4-vasp.4.6
   LMAXPAW     = -100 max onsite density
   LMAXMIX     =    2 max onsite mixed and CHGCAR
   VOSKOWN=      0    Vosko Wilk Nusair interpolation
   ROPT   =    0.00000
 Ionic relaxation
   EDIFFG = 0.1E-02   stopping-criterion for IOM
   NSW    =   1000    number of steps for IOM
   NBLOCK =      1;   KBLOCK =   1000    inner block; outer block 
   IBRION =      2    ionic relax: 0-MD 1-quasi-New 2-CG
   NFREE  =      1    steps in history (QN), initial steepest desc. (CG)
   ISIF   =      0    stress and relaxation
   IWAVPR =     11    prediction:  0-non 1-charg 2-wave 3-comb
   ISYM   =      0    0-nonsym 1-usesym 2-fastsym
   LCORR  =      T    Harris-Foulkes like correction to forces

   POTIM  = 0.5000    time-step for ionic-motion
   TEIN   =    0.0    initial temperature
   TEBEG  =    0.0;   TEEND  =   0.0 temperature during run
   SMASS  =  -3.00    Nose mass-parameter (am)
   estimated Nose-frequenzy (Omega)   =  0.10E-29 period in steps = 0.13E+47 mass=  -0.116E-25a.u.
   SCALEE = 1.0000    scale energy and forces
   NPACO  =    256;   APACO  = 16.0  distance and # of slots for P.C.
   PSTRESS=    0.0 pullay stress

  Mass of Ions in am
   POMASS =  26.98
  Ionic Valenz
   ZVAL   =   3.00
  Atomic Wigner-Seitz radii
   RWIGS  =  -1.00
  virtual crystal weights 
   VCA    =   1.00
   NELECT =      21.0000    total number of electrons
   NUPDOWN=      -1.0000    fix difference up-down

 DOS related values:
   EMIN   =  10.00;   EMAX   =-10.00  energy-range for DOS
   EFERMI =   0.00
   ISMEAR =     1;   SIGMA  =   0.20  broadening in eV -4-tet -1-fermi 0-gaus

 Electronic relaxation 2 (details)
   IALGO  =     38    algorithm
   LDIAG  =      T    sub-space diagonalisation (order eigenvalues)
   LSUBROT=      F    optimize rotation matrix (better conditioning)
   TURBO    =      0    0=normal 1=particle mesh
   IRESTART =      0    0=no restart 2=restart with 2 vectors
   NREBOOT  =      0    no. of reboots
   NMIN     =      0    reboot dimension
   EREF     =   0.00    reference energy to select bands
   IMIX   =      4    mixing-type and parameters
     AMIX     =   0.40;   BMIX     =  1.00
     AMIX_MAG =   1.60;   BMIX_MAG =  1.00
     AMIN     =   0.10
     WC   =   100.;   INIMIX=   1;  MIXPRE=   1;  MAXMIX= -45

 Intra band minimization:
   WEIMIN = 0.0010     energy-eigenvalue tresh-hold
   EBREAK =  0.14E-05  absolut break condition
   DEPER  =   0.30     relativ break condition  

   TIME   =   0.40     timestep for ELM

  volume/ion in A,a.u.               =    1589.68     10727.66
  Fermi-wavevector in a.u.,A,eV,Ry     =   0.202308  0.382306  0.556865  0.040928
  Thomas-Fermi vector in A             =   0.959092
 
 Write flags
   LWAVE        =      F    write WAVECAR
   LDOWNSAMPLE  =      F    k-point downsampling of WAVECAR
   LCHARG       =      F    write CHGCAR
   LVTOT        =      F    write LOCPOT, total local potential
   LVHAR        =      F    write LOCPOT, Hartree potential only
   LELF         =      F    write electronic localiz. function (ELF)
   LORBIT       =      0    0 simple, 1 ext, 2 COOP (PROOUT), +10 PAW based schemes


 Dipole corrections
   LMONO  =      F    monopole corrections only (constant potential shift)
   LDIPOL =      F    correct potential (dipole corrections)
   IDIPOL =      0    1-x, 2-y, 3-z, 4-all directions 
   EPSILON=  1.0000000 bulk dielectric constant

 Exchange correlation treatment:
   GGA     =    PE    GGA type
   LEXCH   =     8    internal setting for exchange type
   VOSKOWN=      0    Vosko Wilk Nusair interpolation
   LHFCALC =     F    Hartree Fock is set to
   LHFONE  =     F    Hartree Fock one center treatment
   AEXX    =    0.0000 exact exchange contribution

 Linear response parameters
   LEPSILON=     F    determine dielectric tensor
   LRPA    =     F    only Hartree local field effects (RPA)
   LNABLA  =     F    use nabla operator in PAW spheres
   LVEL    =     F    velocity operator in full k-point grid
   LINTERFAST=   F  fast interpolation
   KINTER  =     0    interpolate to denser k-point grid
   CSHIFT  =0.1000    complex shift for real part using Kramers Kronig
   OMEGAMAX=  -1.0    maximum frequency
   DEG_THRESHOLD= 0.2000000E-02 threshold for treating states as degnerate
   RTIME   =   -0.100 relaxation time in fs
  (WPLASMAI=    0.000 imaginary part of plasma frequency in eV, 0.658/RTIME)
   DFIELD  = 0.0000000 0.0000000 0.0000000 field for delta impulse in time
 
 Orbital magnetization related:
   ORBITALMAG=     F  switch on orbital magnetization
   LCHIMAG   =     F  perturbation theory with respect to B field
   DQ        =  0.001000  dq finite difference perturbation B field
   LLRAUG    =     F  two centre corrections for induced B field



--------------------------------------------------------------------------------------------------------


 conjugate gradient relaxation of ions
 charge density and potential will be updated during run
 spin polarized calculation
 Variant of blocked Davidson
 Davidson routine will perform the subspace rotation
 perform sub-space diagonalisation
    after iterative eigenvector-optimisation
 modified Broyden-mixing scheme, WC =      100.0
 initial mixing is a Kerker type mixing with AMIX =  0.4000 and BMIX =      1.0000
 Hartree-type preconditioning will be used
 using additional bands             7
 reciprocal scheme for non local part
 use partial core corrections
 calculate Harris-corrections to forces 
   (improved forces if not selfconsistent)
 use gradient corrections 
 use of overlap-Matrix (Vanderbilt PP)
 Methfessel and Paxton  Order N= 1 SIGMA  =   0.20


--------------------------------------------------------------------------------------------------------


  energy-cutoff  :      400.00
  volume of cell :    11127.73
      direct lattice vectors                 reciprocal lattice vectors
    22.544535633  0.000000000  0.000000000     0.044356647  0.000000000  0.000000000
     0.000000000 21.839813546  0.000000000     0.000000000  0.045787937  0.000000000
     0.000000000  0.000000000 22.600410503     0.000000000  0.000000000  0.044246984

  length of vectors
    22.544535633 21.839813546 22.600410503     0.044356647  0.045787937  0.044246984


 
 k-points in units of 2pi/SCALE and weight: KPOINTS created by Atomic Simulation Env
   0.00000000  0.00000000  0.00000000       1.000
 
 k-points in reciprocal lattice and weights: KPOINTS created by Atomic Simulation Env
   0.00000000  0.00000000  0.00000000       1.000
 
 position of ions in fractional coordinates (direct lattice) 
   0.27099211  0.58636299  0.72157861
   0.26996094  0.53900353  0.60937267
   0.36717465  0.52606412  0.67977051
   0.37729182  0.59430797  0.59118793
   0.38026737  0.61567130  0.75587693
   0.27265375  0.66006533  0.63584307
   0.38144553  0.68459857  0.66328359
 
 position of ions in cartesian coordinates  (Angst):
   6.10939136 12.80605838 16.30797271
   6.08614394 11.77173655 13.77207245
   8.27778199 11.48914234 15.36309269
   8.50586895 12.97957530 13.36108981
   8.57295128 13.44614631 17.08312898
   6.14685223 14.41570384 14.37031451
   8.59951228 14.95150507 14.99048141
 


--------------------------------------------------------------------------------------------------------


 use parallel FFT for orbitals z direction half grid
 k-point   1 :   0.0000 0.0000 0.0000  plane waves:  101052

 maximum and minimum number of plane-waves per node :     12643    12622

 maximum number of plane-waves:    101052
 maximum index in each direction: 
   IXMAX=   36   IYMAX=   35   IZMAX=   36
   IXMIN=  -36   IYMIN=  -35   IZMIN=    0


 parallel 3D FFT for wavefunctions:
    minimum data exchange during FFTs selected (reduces bandwidth)
 parallel 3D FFT for charge:
    minimum data exchange during FFTs selected (reduces bandwidth)


 total amount of memory used by VASP MPI-rank0   200756. kBytes
=======================================================================

   base      :      30000. kBytes
   nonl-proj :       2225. kBytes
   fftplans  :      49429. kBytes
   grid      :     111815. kBytes
   one-center:          3. kBytes
   wavefun   :       7284. kBytes
 
     INWAV:  cpu time    0.0000: real time    0.0000
 Broyden mixing: mesh for mixing (old mesh)
   NGX = 73   NGY = 71   NGZ = 73
  (NGX  =224   NGY  =216   NGZ  =224)
  gives a total of 378359 points

 initial charge density was supplied:
 charge density of overlapping atoms calculated
 number of electron      21.0000000 magnetization       7.0000000
 keeping initial charge density in first step


--------------------------------------------------------------------------------------------------------


 Maximum index for augmentation-charges           568 (set IRDMAX)


--------------------------------------------------------------------------------------------------------


 First call to EWALD:  gamma=   0.079
 Maximum number of real-space cells 3x 3x 3
 Maximum number of reciprocal cells 3x 3x 3

    FEWALD:  cpu time    0.0010: real time    0.0010


--------------------------------------- Iteration      1(   1)  ---------------------------------------


    POTLOK:  cpu time    4.0221: real time    4.0319
    SETDIJ:  cpu time    0.0253: real time    0.0253
     EDDAV:  cpu time    2.4416: real time    2.4453
       DOS:  cpu time    0.0012: real time    0.0012
    --------------------------------------------
      LOOP:  cpu time    6.4902: real time    6.5036

 eigenvalue-minimisations  :   104
 total energy-change (2. order) : 0.4387688E+02  (-0.3306496E+03)
 number of electron      21.0000000 magnetization       7.0000000
 augmentation part       21.0000000 magnetization       7.0000000

 Free energy of the ion-electron system (eV)
  ---------------------------------------------------
  alpha Z        PSCENC =        -0.01479023
  Ewald energy   TEWEN  =       506.94991411
  -Hartree energ DENC   =      -749.97220469
  -exchange      EXHF   =         0.00000000
  -V(xc)+E(xc)   XCENC  =      -189.87073898
  PAW double counting   =       462.65713654     -238.99141827
  entropy T*S    EENTRO =         0.00238216
  eigenvalues    EBANDS =      -121.65048558
  atomic energy  EATOM  =       374.76708025
  Solvation  Ediel_sol  =         0.00000000
  ---------------------------------------------------
  free energy    TOTEN  =        43.87687532 eV

  energy without entropy =       43.87449316  energy(sigma->0) =       43.87608127


--------------------------------------------------------------------------------------------------------




--------------------------------------- Iteration      1(   2)  ---------------------------------------


     EDDAV:  cpu time    2.5356: real time    2.5389
       DOS:  cpu time    0.0004: real time    0.0004
    --------------------------------------------
      LOOP:  cpu time    2.5360: real time    2.5393

 eigenvalue-minimisations  :   112
 total energy-change (2. order) :-0.5174045E+02  (-0.5148333E+02)
 number of electron      21.0000000 magnetization       7.0000000
 augmentation part       21.0000000 magnetization       7.0000000

 Free energy of the ion-electron system (eV)
  ---------------------------------------------------
  alpha Z        PSCENC =        -0.01479023
  Ewald energy   TEWEN  =       506.94991411
  -Hartree energ DENC   =      -749.97220469
  -exchange      EXHF   =         0.00000000
  -V(xc)+E(xc)   XCENC  =      -189.87073898
  PAW double counting   =       462.65713654     -238.99141827
  entropy T*S    EENTRO =         0.02398253
  eigenvalues    EBANDS =      -173.41254071
  atomic energy  EATOM  =       374.76708025
  Solvation  Ediel_sol  =         0.00000000
  ---------------------------------------------------
  free energy    TOTEN  =        -7.86357944 eV

  energy without entropy =       -7.88756197  energy(sigma->0) =       -7.87157361


--------------------------------------------------------------------------------------------------------




--------------------------------------- Iteration      1(   3)  ---------------------------------------


     EDDAV:  cpu time    2.1045: real time    2.1085
       DOS:  cpu time    0.0004: real time    0.0004
    --------------------------------------------
      LOOP:  cpu time    2.1049: real time    2.1089

 eigenvalue-minimisations  :    88
 total energy-change (2. order) :-0.1063165E+02  (-0.1059112E+02)
 number of electron      21.0000000 magnetization       7.0000000
 augmentation part       21.0000000 magnetization       7.0000000

 Free energy of the ion-electron system (eV)
  ---------------------------------------------------
  alpha Z        PSCENC =        -0.01479023
  Ewald energy   TEWEN  =       506.94991411
  -Hartree energ DENC   =      -749.97220469
  -exchange      EXHF   =         0.00000000
  -V(xc)+E(xc)   XCENC  =      -189.87073898
  PAW double counting   =       462.65713654     -238.99141827
  entropy T*S    EENTRO =         0.00702983
  eigenvalues    EBANDS =      -184.02724130
  atomic energy  EATOM  =       374.76708025
  Solvation  Ediel_sol  =         0.00000000
  ---------------------------------------------------
  free energy    TOTEN  =       -18.49523273 eV

  energy without entropy =      -18.50226256  energy(sigma->0) =      -18.49757601


--------------------------------------------------------------------------------------------------------




--------------------------------------- Iteration      1(   4)  ---------------------------------------


     EDDAV:  cpu time    1.5996: real time    1.6015
       DOS:  cpu time    0.0010: real time    0.0010
    --------------------------------------------
      LOOP:  cpu time    1.6006: real time    1.6025

 eigenvalue-minimisations  :    76
 total energy-change (2. order) :-0.4427014E+00  (-0.4413769E+00)
 number of electron      21.0000000 magnetization       7.0000000
 augmentation part       21.0000000 magnetization       7.0000000

 Free energy of the ion-electron system (eV)
  ---------------------------------------------------
  alpha Z        PSCENC =        -0.01479023
  Ewald energy   TEWEN  =       506.94991411
  -Hartree energ DENC   =      -749.97220469
  -exchange      EXHF   =         0.00000000
  -V(xc)+E(xc)   XCENC  =      -189.87073898
  PAW double counting   =       462.65713654     -238.99141827
  entropy T*S    EENTRO =         0.01165850
  eigenvalues    EBANDS =      -184.47457141
  atomic energy  EATOM  =       374.76708025
  Solvation  Ediel_sol  =         0.00000000
  ---------------------------------------------------
  free energy    TOTEN  =       -18.93793417 eV

  energy without entropy =      -18.94959267  energy(sigma->0) =      -18.94182034


--------------------------------------------------------------------------------------------------------




--------------------------------------- Iteration      1(   5)  ---------------------------------------


     EDDAV:  cpu time    2.4450: real time    2.4470
       DOS:  cpu time    0.0013: real time    0.0013
    CHARGE:  cpu time    0.4836: real time    0.4840
    MIXING:  cpu time    0.0635: real time    0.0635
    --------------------------------------------
      LOOP:  cpu time    2.9934: real time    2.9957

 eigenvalue-minimisations  :   110
 total energy-change (2. order) :-0.2954561E-01  (-0.2954813E-01)
 number of electron      21.0000003 magnetization       6.3112440
 augmentation part       -0.3682173 magnetization       5.3199351

 Broyden mixing:
  rms(total) = 0.68965E+00    rms(broyden)= 0.68965E+00
  rms(prec ) = 0.80896E+00
  weight for this iteration     100.00

 Free energy of the ion-electron system (eV)
  ---------------------------------------------------
  alpha Z        PSCENC =        -0.01479023
  Ewald energy   TEWEN  =       506.94991411
  -Hartree energ DENC   =      -749.97220469
  -exchange      EXHF   =         0.00000000
  -V(xc)+E(xc)   XCENC  =      -189.87073898
  PAW double counting   =       462.65713654     -238.99141827
  entropy T*S    EENTRO =         0.01240882
  eigenvalues    EBANDS =      -184.50486735
  atomic energy  EATOM  =       374.76708025
  Solvation  Ediel_sol  =         0.00000000
  ---------------------------------------------------
  free energy    TOTEN  =       -18.96747979 eV

  energy without entropy =      -18.97988860  energy(sigma->0) =      -18.97161606


--------------------------------------------------------------------------------------------------------




--------------------------------------- Iteration      1(   6)  ---------------------------------------


    POTLOK:  cpu time    4.0868: real time    4.0927
    SETDIJ:  cpu time    0.0242: real time    0.0243
     EDDAV:  cpu time    1.8897: real time    1.8923
       DOS:  cpu time    0.0011: real time    0.0011
    CHARGE:  cpu time    0.4945: real time    0.4972
    MIXING:  cpu time    0.0901: real time    0.0901
    --------------------------------------------
      LOOP:  cpu time    6.5864: real time    6.5977

 eigenvalue-minimisations  :    74
 total energy-change (2. order) : 0.1029858E+02  (-0.1900697E+01)
 number of electron      21.0000003 magnetization       5.3468564
 augmentation part       -0.3797019 magnetization       4.4427904

 Broyden mixing:
  rms(total) = 0.37253E+00    rms(broyden)= 0.37253E+00
  rms(prec ) = 0.43027E+00
  weight for this iteration     100.00

 eigenvalues of (default mixing * dielectric matrix)
  average eigenvalue GAMMA=   1.1906
  1.1906

 Free energy of the ion-electron system (eV)
  ---------------------------------------------------
  alpha Z        PSCENC =        -0.01479023
  Ewald energy   TEWEN  =       506.94991411
  -Hartree energ DENC   =      -764.21864643
  -exchange      EXHF   =         0.00000000
  -V(xc)+E(xc)   XCENC  =      -183.09663042
  PAW double counting   =       586.72718351     -363.15103010
  entropy T*S    EENTRO =         0.01367461
  eigenvalues    EBANDS =      -166.64565651
  atomic energy  EATOM  =       374.76708025
  Solvation  Ediel_sol  =         0.00000000
  ---------------------------------------------------
  free energy    TOTEN  =        -8.66890119 eV

  energy without entropy =       -8.68257581  energy(sigma->0) =       -8.67345940


--------------------------------------------------------------------------------------------------------




--------------------------------------- Iteration      1(   7)  ---------------------------------------


    POTLOK:  cpu time    3.9948: real time    4.0005
    SETDIJ:  cpu time    0.0244: real time    0.0244
     EDDAV:  cpu time    1.8207: real time    1.8246
       DOS:  cpu time    0.0022: real time    0.0022
    CHARGE:  cpu time    0.4581: real time    0.4592
    MIXING:  cpu time    0.0906: real time    0.0914
    --------------------------------------------
      LOOP:  cpu time    6.3908: real time    6.4024

 eigenvalue-minimisations  :    74
 total energy-change (2. order) : 0.3195296E+01  (-0.4900388E+00)
 number of electron      21.0000003 magnetization       4.8179712
 augmentation part       -0.3735473 magnetization       3.8890762

 Broyden mixing:
  rms(total) = 0.19561E+00    rms(broyden)= 0.19561E+00
  rms(prec ) = 0.20979E+00
  weight for this iteration     100.00

 eigenvalues of (default mixing * dielectric matrix)
  average eigenvalue GAMMA=   1.2260
  0.7836  1.6684

 Free energy of the ion-electron system (eV)
  ---------------------------------------------------
  alpha Z        PSCENC =        -0.01479023
  Ewald energy   TEWEN  =       506.94991411
  -Hartree energ DENC   =      -778.49819386
  -exchange      EXHF   =         0.00000000
  -V(xc)+E(xc)   XCENC  =      -179.91679781
  PAW double counting   =       696.81992331     -473.34675288
  entropy T*S    EENTRO =         0.01311933
  eigenvalues    EBANDS =      -152.24710768
  atomic energy  EATOM  =       374.76708025
  Solvation  Ediel_sol  =         0.00000000
  ---------------------------------------------------
  free energy    TOTEN  =        -5.47360545 eV

  energy without entropy =       -5.48672478  energy(sigma->0) =       -5.47797856


--------------------------------------------------------------------------------------------------------




--------------------------------------- Iteration      1(   8)  ---------------------------------------


    POTLOK:  cpu time    4.0396: real time    4.0508
    SETDIJ:  cpu time    0.0275: real time    0.0276
     EDDAV:  cpu time    2.0217: real time    2.0250
       DOS:  cpu time    0.0009: real time    0.0009
    CHARGE:  cpu time    0.3678: real time    0.3681
    MIXING:  cpu time    0.0717: real time    0.0717
    --------------------------------------------
      LOOP:  cpu time    6.5293: real time    6.5441

 eigenvalue-minimisations  :    84
 total energy-change (2. order) :-0.2747641E+01  (-0.1093792E+00)
 number of electron      21.0000003 magnetization       4.1001601
 augmentation part       -0.3714009 magnetization       3.1234298

 Broyden mixing:
  rms(total) = 0.14933E+00    rms(broyden)= 0.14933E+00
  rms(prec ) = 0.16044E+00
  weight for this iteration     100.00

 eigenvalues of (default mixing * dielectric matrix)
  average eigenvalue GAMMA=   1.1785
  1.4521  1.4521  0.6315

 Free energy of the ion-electron system (eV)
  ---------------------------------------------------
  alpha Z        PSCENC =        -0.01479023
  Ewald energy   TEWEN  =       506.94991411
  -Hartree energ DENC   =      -781.45943483
  -exchange      EXHF   =         0.00000000
  -V(xc)+E(xc)   XCENC  =      -181.89396015
  PAW double counting   =       726.66752159     -503.20515774
  entropy T*S    EENTRO =         0.00809683
  eigenvalues    EBANDS =      -150.04051651
  atomic energy  EATOM  =       374.76708025
  Solvation  Ediel_sol  =         0.00000000
  ---------------------------------------------------
  free energy    TOTEN  =        -8.22124668 eV

  energy without entropy =       -8.22934351  energy(sigma->0) =       -8.22394562


--------------------------------------------------------------------------------------------------------




--------------------------------------- Iteration      1(   9)  ---------------------------------------


    POTLOK:  cpu time    3.9523: real time    3.9571
    SETDIJ:  cpu time    0.0241: real time    0.0241
     EDDAV:  cpu time    1.7955: real time    1.7969
       DOS:  cpu time    0.0006: real time    0.0006
    CHARGE:  cpu time    0.4631: real time    0.4635
    MIXING:  cpu time    0.1194: real time    0.1195
    --------------------------------------------
      LOOP:  cpu time    6.3550: real time    6.3617

 eigenvalue-minimisations  :    74
 total energy-change (2. order) :-0.3534822E+01  (-0.1453344E+00)
 number of electron      21.0000003 magnetization       3.4612104
 augmentation part       -0.3646269 magnetization       2.4684451

 Broyden mixing:
  rms(total) = 0.99553E-01    rms(broyden)= 0.99553E-01
  rms(prec ) = 0.10524E+00
  weight for this iteration     100.00

 eigenvalues of (default mixing * dielectric matrix)
  average eigenvalue GAMMA=   1.2879
  1.8658  1.8658  0.8329  0.5873

 Free energy of the ion-electron system (eV)
  ---------------------------------------------------
  alpha Z        PSCENC =        -0.01479023
  Ewald energy   TEWEN  =       506.94991411
  -Hartree energ DENC   =      -783.86178538
  -exchange      EXHF   =         0.00000000
  -V(xc)+E(xc)   XCENC  =      -184.45035375
  PAW double counting   =       751.79367281     -528.32600652
  entropy T*S    EENTRO =         0.00604786
  eigenvalues    EBANDS =      -148.61984777
  atomic energy  EATOM  =       374.76708025
  Solvation  Ediel_sol  =         0.00000000
  ---------------------------------------------------
  free energy    TOTEN  =       -11.75606861 eV

  energy without entropy =      -11.76211647  energy(sigma->0) =      -11.75808456


--------------------------------------------------------------------------------------------------------




--------------------------------------- Iteration      1(  10)  ---------------------------------------


    POTLOK:  cpu time    4.0787: real time    4.0841
    SETDIJ:  cpu time    0.0276: real time    0.0276
     EDDAV:  cpu time    1.7893: real time    1.7922
       DOS:  cpu time    0.0005: real time    0.0005
    CHARGE:  cpu time    0.5221: real time    0.5225
    MIXING:  cpu time    0.0854: real time    0.0863
    --------------------------------------------
      LOOP:  cpu time    6.5036: real time    6.5132

 eigenvalue-minimisations  :    84
 total energy-change (2. order) :-0.2123914E+01  (-0.8547277E-01)
 number of electron      21.0000003 magnetization       2.9724810
 augmentation part       -0.3607536 magnetization       1.9759011

 Broyden mixing:
  rms(total) = 0.70519E-01    rms(broyden)= 0.70518E-01
  rms(prec ) = 0.74068E-01
  weight for this iteration     100.00

 eigenvalues of (default mixing * dielectric matrix)
  average eigenvalue GAMMA=   1.3626
  2.1405  2.1405  1.1467  0.7809  0.6047

 Free energy of the ion-electron system (eV)
  ---------------------------------------------------
  alpha Z        PSCENC =        -0.01479023
  Ewald energy   TEWEN  =       506.94991411
  -Hartree energ DENC   =      -786.17850419
  -exchange      EXHF   =         0.00000000
  -V(xc)+E(xc)   XCENC  =      -185.93464809
  PAW double counting   =       777.93405457     -554.45518810
  entropy T*S    EENTRO =         0.00602704
  eigenvalues    EBANDS =      -146.95392828
  atomic energy  EATOM  =       374.76708025
  Solvation  Ediel_sol  =         0.00000000
  ---------------------------------------------------
  free energy    TOTEN  =       -13.87998292 eV

  energy without entropy =      -13.88600996  energy(sigma->0) =      -13.88199194


--------------------------------------------------------------------------------------------------------




--------------------------------------- Iteration      1(  11)  ---------------------------------------


    POTLOK:  cpu time    4.1673: real time    4.1736
    SETDIJ:  cpu time    0.0256: real time    0.0256
     EDDAV:  cpu time    1.9521: real time    1.9545
       DOS:  cpu time    0.0012: real time    0.0012
    CHARGE:  cpu time    0.4869: real time    0.4881
    MIXING:  cpu time    0.1104: real time    0.1105
    --------------------------------------------
      LOOP:  cpu time    6.7435: real time    6.7534

 eigenvalue-minimisations  :    78
 total energy-change (2. order) :-0.1294891E+01  (-0.4249645E-01)
 number of electron      21.0000003 magnetization       2.3189622
 augmentation part       -0.3595920 magnetization       1.3209162

 Broyden mixing:
  rms(total) = 0.53787E-01    rms(broyden)= 0.53787E-01
  rms(prec ) = 0.57218E-01
  weight for this iteration     100.00

 eigenvalues of (default mixing * dielectric matrix)
  average eigenvalue GAMMA=   1.5604
  2.7635  2.7635  1.5128  0.9764  0.7282  0.6178

 Free energy of the ion-electron system (eV)
  ---------------------------------------------------
  alpha Z        PSCENC =        -0.01479023
  Ewald energy   TEWEN  =       506.94991411
  -Hartree energ DENC   =      -786.99607540
  -exchange      EXHF   =         0.00000000
  -V(xc)+E(xc)   XCENC  =      -186.89407952
  PAW double counting   =       791.08852483     -567.58738332
  entropy T*S    EENTRO =         0.00609452
  eigenvalues    EBANDS =      -146.49415872
  atomic energy  EATOM  =       374.76708025
  Solvation  Ediel_sol  =         0.00000000
  ---------------------------------------------------
  free energy    TOTEN  =       -15.17487347 eV

  energy without entropy =      -15.18096800  energy(sigma->0) =      -15.17690498


--------------------------------------------------------------------------------------------------------




--------------------------------------- Iteration      1(  12)  ---------------------------------------


    POTLOK:  cpu time    3.9664: real time    3.9725
    SETDIJ:  cpu time    0.0227: real time    0.0227
     EDDAV:  cpu time    1.8352: real time    1.8367
       DOS:  cpu time    0.0012: real time    0.0012
    CHARGE:  cpu time    0.4622: real time    0.4627
    MIXING:  cpu time    0.1175: real time    0.1176
    --------------------------------------------
      LOOP:  cpu time    6.4052: real time    6.4133

 eigenvalue-minimisations  :    74
 total energy-change (2. order) :-0.1272632E+01  (-0.4986690E-01)
 number of electron      21.0000003 magnetization       1.8938967
 augmentation part       -0.3598262 magnetization       0.8942486

 Broyden mixing:
  rms(total) = 0.32969E-01    rms(broyden)= 0.32969E-01
  rms(prec ) = 0.34412E-01
  weight for this iteration     100.00

 eigenvalues of (default mixing * dielectric matrix)
  average eigenvalue GAMMA=   1.6201
  3.7506  2.6172  1.3985  1.3985  0.8917  0.6742  0.6102

 Free energy of the ion-electron system (eV)
  ---------------------------------------------------
  alpha Z        PSCENC =        -0.01479023
  Ewald energy   TEWEN  =       506.94991411
  -Hartree energ DENC   =      -786.35279410
  -exchange      EXHF   =         0.00000000
  -V(xc)+E(xc)   XCENC  =      -187.95278114
  PAW double counting   =       793.20187756     -569.66435936
  entropy T*S    EENTRO =         0.00626382
  eigenvalues    EBANDS =      -147.38791623
  atomic energy  EATOM  =       374.76708025
  Solvation  Ediel_sol  =         0.00000000
  ---------------------------------------------------
  free energy    TOTEN  =       -16.44750531 eV

  energy without entropy =      -16.45376912  energy(sigma->0) =      -16.44959325


--------------------------------------------------------------------------------------------------------




--------------------------------------- Iteration      1(  13)  ---------------------------------------


    POTLOK:  cpu time    4.0279: real time    4.0355
    SETDIJ:  cpu time    0.0340: real time    0.0340
     EDDAV:  cpu time    1.8265: real time    1.8316
       DOS:  cpu time    0.0010: real time    0.0010
    CHARGE:  cpu time    0.4624: real time    0.4628
    MIXING:  cpu time    0.1256: real time    0.1258
    --------------------------------------------
      LOOP:  cpu time    6.4775: real time    6.4907

 eigenvalue-minimisations  :    76
 total energy-change (2. order) :-0.3455848E+00  (-0.1040017E-01)
 number of electron      21.0000003 magnetization       1.6036852
 augmentation part       -0.3598404 magnetization       0.6031527

 Broyden mixing:
  rms(total) = 0.23688E-01    rms(broyden)= 0.23688E-01
  rms(prec ) = 0.24964E-01
  weight for this iteration     100.00

 eigenvalues of (default mixing * dielectric matrix)
  average eigenvalue GAMMA=   1.6327
  4.3221  2.5406  1.9790  1.0540  1.0540  0.8671  0.6447  0.6003

 Free energy of the ion-electron system (eV)
  ---------------------------------------------------
  alpha Z        PSCENC =        -0.01479023
  Ewald energy   TEWEN  =       506.94991411
  -Hartree energ DENC   =      -786.25147216
  -exchange      EXHF   =         0.00000000
  -V(xc)+E(xc)   XCENC  =      -188.22703829
  PAW double counting   =       793.39208015     -569.84950714
  entropy T*S    EENTRO =         0.00631093
  eigenvalues    EBANDS =      -147.56566773
  atomic energy  EATOM  =       374.76708025
  Solvation  Ediel_sol  =         0.00000000
  ---------------------------------------------------
  free energy    TOTEN  =       -16.79309011 eV

  energy without entropy =      -16.79940104  energy(sigma->0) =      -16.79519375


--------------------------------------------------------------------------------------------------------




--------------------------------------- Iteration      1(  14)  ---------------------------------------


    POTLOK:  cpu time    3.9807: real time    3.9867
    SETDIJ:  cpu time    0.0226: real time    0.0226
     EDDAV:  cpu time    1.8335: real time    1.8374
       DOS:  cpu time    0.0010: real time    0.0010
    CHARGE:  cpu time    0.4666: real time    0.4670
    MIXING:  cpu time    0.1349: real time    0.1350
    --------------------------------------------
      LOOP:  cpu time    6.4392: real time    6.4496

 eigenvalue-minimisations  :    74
 total energy-change (2. order) :-0.2850791E+00  (-0.2630969E-02)
 number of electron      21.0000003 magnetization       1.3002586
 augmentation part       -0.3599123 magnetization       0.2996343

 Broyden mixing:
  rms(total) = 0.15217E-01    rms(broyden)= 0.15217E-01
  rms(prec ) = 0.16299E-01
  weight for this iteration     100.00

 eigenvalues of (default mixing * dielectric matrix)
  average eigenvalue GAMMA=   1.7764
  5.5128  2.7478  2.2533  1.4517  1.0069  1.0069  0.7495  0.6104  0.6487

 Free energy of the ion-electron system (eV)
  ---------------------------------------------------
  alpha Z        PSCENC =        -0.01479023
  Ewald energy   TEWEN  =       506.94991411
  -Hartree energ DENC   =      -786.03945187
  -exchange      EXHF   =         0.00000000
  -V(xc)+E(xc)   XCENC  =      -188.51095078
  PAW double counting   =       789.54675669     -566.00836351
  entropy T*S    EENTRO =         0.00636540
  eigenvalues    EBANDS =      -147.77472928
  atomic energy  EATOM  =       374.76708025
  Solvation  Ediel_sol  =         0.00000000
  ---------------------------------------------------
  free energy    TOTEN  =       -17.07816922 eV

  energy without entropy =      -17.08453462  energy(sigma->0) =      -17.08029102


--------------------------------------------------------------------------------------------------------




--------------------------------------- Iteration      1(  15)  ---------------------------------------


    POTLOK:  cpu time    4.0126: real time    4.0184
    SETDIJ:  cpu time    0.0263: real time    0.0264
     EDDAV:  cpu time    1.8638: real time    1.8655
       DOS:  cpu time    0.0008: real time    0.0008
    CHARGE:  cpu time    0.3841: real time    0.3852
    MIXING:  cpu time    0.1242: real time    0.1243
    --------------------------------------------
      LOOP:  cpu time    6.4120: real time    6.4205

 eigenvalue-minimisations  :    76
 total energy-change (2. order) :-0.4120579E+00  (-0.2694107E-02)
 number of electron      21.0000003 magnetization       1.1705488
 augmentation part       -0.3603067 magnetization       0.1694521

 Broyden mixing:
  rms(total) = 0.85141E-02    rms(broyden)= 0.85141E-02
  rms(prec ) = 0.92651E-02
  weight for this iteration     100.00

 eigenvalues of (default mixing * dielectric matrix)
  average eigenvalue GAMMA=   1.8645
  6.6522  2.6451  2.6451  1.7780  1.0272  1.0272  0.9367  0.6752  0.6293  0.6293

 Free energy of the ion-electron system (eV)
  ---------------------------------------------------
  alpha Z        PSCENC =        -0.01479023
  Ewald energy   TEWEN  =       506.94991411
  -Hartree energ DENC   =      -785.48999017
  -exchange      EXHF   =         0.00000000
  -V(xc)+E(xc)   XCENC  =      -188.94620441
  PAW double counting   =       783.35305865     -559.81755391
  entropy T*S    EENTRO =         0.00643096
  eigenvalues    EBANDS =      -148.29817240
  atomic energy  EATOM  =       374.76708025
  Solvation  Ediel_sol  =         0.00000000
  ---------------------------------------------------
  free energy    TOTEN  =       -17.49022716 eV

  energy without entropy =      -17.49665811  energy(sigma->0) =      -17.49237081


--------------------------------------------------------------------------------------------------------




--------------------------------------- Iteration      1(  16)  ---------------------------------------


    POTLOK:  cpu time    3.9531: real time    3.9608
    SETDIJ:  cpu time    0.0276: real time    0.0276
     EDDAV:  cpu time    1.9301: real time    1.9317
       DOS:  cpu time    0.0011: real time    0.0011
    CHARGE:  cpu time    0.4688: real time    0.4692
    MIXING:  cpu time    0.1554: real time    0.1563
    --------------------------------------------
      LOOP:  cpu time    6.5361: real time    6.5467

 eigenvalue-minimisations  :    82
 total energy-change (2. order) :-0.1148800E+00  (-0.6033596E-03)
 number of electron      21.0000003 magnetization       1.1078556
 augmentation part       -0.3603113 magnetization       0.1066201

 Broyden mixing:
  rms(total) = 0.53624E-02    rms(broyden)= 0.53624E-02
  rms(prec ) = 0.61415E-02
  weight for this iteration     100.00

 eigenvalues of (default mixing * dielectric matrix)
  average eigenvalue GAMMA=   1.8619
  7.0657  2.8237  2.8237  1.8123  1.3180  0.9709  0.9709  0.8028  0.6142  0.6142
  0.6651

 Free energy of the ion-electron system (eV)
  ---------------------------------------------------
  alpha Z        PSCENC =        -0.01479023
  Ewald energy   TEWEN  =       506.94991411
  -Hartree energ DENC   =      -785.30145760
  -exchange      EXHF   =         0.00000000
  -V(xc)+E(xc)   XCENC  =      -189.06468617
  PAW double counting   =       782.30188261     -558.76829754
  entropy T*S    EENTRO =         0.00643175
  eigenvalues    EBANDS =      -148.48118431
  atomic energy  EATOM  =       374.76708025
  Solvation  Ediel_sol  =         0.00000000
  ---------------------------------------------------
  free energy    TOTEN  =       -17.60510713 eV

  energy without entropy =      -17.61153888  energy(sigma->0) =      -17.60725104


--------------------------------------------------------------------------------------------------------




--------------------------------------- Iteration      1(  17)  ---------------------------------------


    POTLOK:  cpu time    3.8616: real time    3.8681
    SETDIJ:  cpu time    0.0226: real time    0.0226
     EDDAV:  cpu time    1.8950: real time    1.8966
       DOS:  cpu time    0.0019: real time    0.0019
    CHARGE:  cpu time    0.4692: real time    0.4712
    MIXING:  cpu time    0.1734: real time    0.1736
    --------------------------------------------
      LOOP:  cpu time    6.4238: real time    6.4340

 eigenvalue-minimisations  :    78
 total energy-change (2. order) :-0.5047551E-01  (-0.2118197E-03)
 number of electron      21.0000003 magnetization       1.0448662
 augmentation part       -0.3602365 magnetization       0.0436846

 Broyden mixing:
  rms(total) = 0.31902E-02    rms(broyden)= 0.31902E-02
  rms(prec ) = 0.38588E-02
  weight for this iteration     100.00

 eigenvalues of (default mixing * dielectric matrix)
  average eigenvalue GAMMA=   1.9544
  7.7079  3.0951  3.0951  2.2661  1.6118  1.0450  0.9803  0.9803  0.7873  0.6523
  0.6072  0.6244

 Free energy of the ion-electron system (eV)
  ---------------------------------------------------
  alpha Z        PSCENC =        -0.01479023
  Ewald energy   TEWEN  =       506.94991411
  -Hartree energ DENC   =      -785.20639070
  -exchange      EXHF   =         0.00000000
  -V(xc)+E(xc)   XCENC  =      -189.11559500
  PAW double counting   =       783.05618083     -559.52398307
  entropy T*S    EENTRO =         0.00641230
  eigenvalues    EBANDS =      -148.57441113
  atomic energy  EATOM  =       374.76708025
  Solvation  Ediel_sol  =         0.00000000
  ---------------------------------------------------
  free energy    TOTEN  =       -17.65558264 eV

  energy without entropy =      -17.66199494  energy(sigma->0) =      -17.65772007


--------------------------------------------------------------------------------------------------------




--------------------------------------- Iteration      1(  18)  ---------------------------------------


    POTLOK:  cpu time    4.0098: real time    4.0138
    SETDIJ:  cpu time    0.0261: real time    0.0261
     EDDAV:  cpu time    1.9674: real time    1.9691
       DOS:  cpu time    0.0017: real time    0.0017
    CHARGE:  cpu time    0.4283: real time    0.4286
    MIXING:  cpu time    0.1449: real time    0.1450
    --------------------------------------------
      LOOP:  cpu time    6.5781: real time    6.5843

 eigenvalue-minimisations  :    82
 total energy-change (2. order) :-0.4858746E-01  (-0.2052957E-03)
 number of electron      21.0000003 magnetization       1.0261519
 augmentation part       -0.3602764 magnetization       0.0249507

 Broyden mixing:
  rms(total) = 0.14405E-02    rms(broyden)= 0.14405E-02
  rms(prec ) = 0.20376E-02
  weight for this iteration     100.00

 eigenvalues of (default mixing * dielectric matrix)
  average eigenvalue GAMMA=   1.9772
  8.1658  3.7665  2.6764  2.6764  1.6891  1.3029  0.9564  0.9564  0.8131  0.8131
  0.6492  0.6122  0.6265

 Free energy of the ion-electron system (eV)
  ---------------------------------------------------
  alpha Z        PSCENC =        -0.01479023
  Ewald energy   TEWEN  =       506.94991411
  -Hartree energ DENC   =      -785.00390104
  -exchange      EXHF   =         0.00000000
  -V(xc)+E(xc)   XCENC  =      -189.17106011
  PAW double counting   =       783.70730889     -560.17477699
  entropy T*S    EENTRO =         0.00641358
  eigenvalues    EBANDS =      -148.77035857
  atomic energy  EATOM  =       374.76708025
  Solvation  Ediel_sol  =         0.00000000
  ---------------------------------------------------
  free energy    TOTEN  =       -17.70417010 eV

  energy without entropy =      -17.71058368  energy(sigma->0) =      -17.70630796


--------------------------------------------------------------------------------------------------------




--------------------------------------- Iteration      1(  19)  ---------------------------------------


    POTLOK:  cpu time    3.8496: real time    3.8585
    SETDIJ:  cpu time    0.0287: real time    0.0287
     EDDAV:  cpu time    1.9851: real time    1.9869
       DOS:  cpu time    0.0015: real time    0.0015
    CHARGE:  cpu time    0.4911: real time    0.4915
    MIXING:  cpu time    0.2017: real time    0.2019
    --------------------------------------------
      LOOP:  cpu time    6.5578: real time    6.5690

 eigenvalue-minimisations  :    80
 total energy-change (2. order) :-0.8871399E-02  (-0.1170358E-04)
 number of electron      21.0000003 magnetization       1.0148604
 augmentation part       -0.3602953 magnetization       0.0136511

 Broyden mixing:
  rms(total) = 0.92703E-03    rms(broyden)= 0.92703E-03
  rms(prec ) = 0.14158E-02
  weight for this iteration     100.00

 eigenvalues of (default mixing * dielectric matrix)
  average eigenvalue GAMMA=   1.9520
  8.2905  3.9923  2.6560  2.6560  1.9386  1.2393  1.2393  0.9384  0.9384  0.8387
  0.7119  0.6502  0.6094  0.6286

 Free energy of the ion-electron system (eV)
  ---------------------------------------------------
  alpha Z        PSCENC =        -0.01479023
  Ewald energy   TEWEN  =       506.94991411
  -Hartree energ DENC   =      -784.90166391
  -exchange      EXHF   =         0.00000000
  -V(xc)+E(xc)   XCENC  =      -189.18349216
  PAW double counting   =       784.00503896     -560.47181936
  entropy T*S    EENTRO =         0.00641980
  eigenvalues    EBANDS =      -148.86972896
  atomic energy  EATOM  =       374.76708025
  Solvation  Ediel_sol  =         0.00000000
  ---------------------------------------------------
  free energy    TOTEN  =       -17.71304150 eV

  energy without entropy =      -17.71946130  energy(sigma->0) =      -17.71518143


--------------------------------------------------------------------------------------------------------




--------------------------------------- Iteration      1(  20)  ---------------------------------------


    POTLOK:  cpu time    3.8420: real time    3.8469
    SETDIJ:  cpu time    0.0229: real time    0.0229
     EDDAV:  cpu time    1.3884: real time    1.3894
       DOS:  cpu time    0.0004: real time    0.0004
    CHARGE:  cpu time    0.3868: real time    0.3898
    MIXING:  cpu time    0.2457: real time    0.2459
    --------------------------------------------
      LOOP:  cpu time    5.8862: real time    5.8953

 eigenvalue-minimisations  :    62
 total energy-change (2. order) :-0.2720190E-02  (-0.1094578E-04)
 number of electron      21.0000003 magnetization       1.0082130
 augmentation part       -0.3603251 magnetization       0.0069968

 Broyden mixing:
  rms(total) = 0.58261E-03    rms(broyden)= 0.58261E-03
  rms(prec ) = 0.90423E-03
  weight for this iteration     100.00

 eigenvalues of (default mixing * dielectric matrix)
  average eigenvalue GAMMA=   1.9690
  8.3928  4.4216  2.7883  2.4122  2.4122  1.4498  1.4498  0.9616  0.9616  0.8962
  0.8567  0.6701  0.6062  0.6279  0.6279

 Free energy of the ion-electron system (eV)
  ---------------------------------------------------
  alpha Z        PSCENC =        -0.01479023
  Ewald energy   TEWEN  =       506.94991411
  -Hartree energ DENC   =      -784.80989746
  -exchange      EXHF   =         0.00000000
  -V(xc)+E(xc)   XCENC  =      -189.18866826
  PAW double counting   =       784.31957215     -560.78583336
  entropy T*S    EENTRO =         0.00642576
  eigenvalues    EBANDS =      -148.95956466
  atomic energy  EATOM  =       374.76708025
  Solvation  Ediel_sol  =         0.00000000
  ---------------------------------------------------
  free energy    TOTEN  =       -17.71576169 eV

  energy without entropy =      -17.72218745  energy(sigma->0) =      -17.71790361


--------------------------------------------------------------------------------------------------------




--------------------------------------- Iteration      1(  21)  ---------------------------------------


    POTLOK:  cpu time    4.1275: real time    4.1318
    SETDIJ:  cpu time    0.0240: real time    0.0240
     EDDAV:  cpu time    1.6947: real time    1.6961
       DOS:  cpu time    0.0004: real time    0.0004
    CHARGE:  cpu time    0.3689: real time    0.3692
    MIXING:  cpu time    0.2010: real time    0.2019
    --------------------------------------------
      LOOP:  cpu time    6.4164: real time    6.4234

 eigenvalue-minimisations  :    70
 total energy-change (2. order) :-0.6807704E-03  (-0.6591224E-05)
 number of electron      21.0000003 magnetization       1.0044699
 augmentation part       -0.3603414 magnetization       0.0032506

 Broyden mixing:
  rms(total) = 0.38009E-03    rms(broyden)= 0.38009E-03
  rms(prec ) = 0.58190E-03
  weight for this iteration     100.00

 eigenvalues of (default mixing * dielectric matrix)
  average eigenvalue GAMMA=   1.9626
  8.4388  4.7396  2.6756  2.5690  2.5690  1.7656  1.4118  1.1540  0.9544  0.9544
  0.8225  0.8225  0.6648  0.6060  0.6270  0.6270

 Free energy of the ion-electron system (eV)
  ---------------------------------------------------
  alpha Z        PSCENC =        -0.01479023
  Ewald energy   TEWEN  =       506.94991411
  -Hartree energ DENC   =      -784.74535299
  -exchange      EXHF   =         0.00000000
  -V(xc)+E(xc)   XCENC  =      -189.19111370
  PAW double counting   =       784.35981951     -560.82619371
  entropy T*S    EENTRO =         0.00642530
  eigenvalues    EBANDS =      -149.02223101
  atomic energy  EATOM  =       374.76708025
  Solvation  Ediel_sol  =         0.00000000
  ---------------------------------------------------
  free energy    TOTEN  =       -17.71644246 eV

  energy without entropy =      -17.72286776  energy(sigma->0) =      -17.71858423


--------------------------------------------------------------------------------------------------------




--------------------------------------- Iteration      1(  22)  ---------------------------------------


    POTLOK:  cpu time    3.8722: real time    3.8759
    SETDIJ:  cpu time    0.0215: real time    0.0215
     EDDAV:  cpu time    1.3470: real time    1.3505
       DOS:  cpu time    0.0004: real time    0.0004
    CHARGE:  cpu time    0.4324: real time    0.4335
    MIXING:  cpu time    0.2356: real time    0.2366
    --------------------------------------------
      LOOP:  cpu time    5.9092: real time    5.9186

 eigenvalue-minimisations  :    56
 total energy-change (2. order) :-0.5384692E-03  (-0.2276055E-05)
 number of electron      21.0000003 magnetization       1.0020542
 augmentation part       -0.3603534 magnetization       0.0008364

 Broyden mixing:
  rms(total) = 0.25099E-03    rms(broyden)= 0.25099E-03
  rms(prec ) = 0.36627E-03
  weight for this iteration     100.00

 eigenvalues of (default mixing * dielectric matrix)
  average eigenvalue GAMMA=   1.9997
  8.4616  5.1238  3.2874  2.6233  2.6233  1.9508  1.4371  1.4371  1.0193  0.9559
  0.9559  0.7978  0.7978  0.6631  0.6065  0.6268  0.6268

 Free energy of the ion-electron system (eV)
  ---------------------------------------------------
  alpha Z        PSCENC =        -0.01479023
  Ewald energy   TEWEN  =       506.94991411
  -Hartree energ DENC   =      -784.69612295
  -exchange      EXHF   =         0.00000000
  -V(xc)+E(xc)   XCENC  =      -189.19336073
  PAW double counting   =       784.19131743     -560.65791249
  entropy T*S    EENTRO =         0.00642542
  eigenvalues    EBANDS =      -149.06953175
  atomic energy  EATOM  =       374.76708025
  Solvation  Ediel_sol  =         0.00000000
  ---------------------------------------------------
  free energy    TOTEN  =       -17.71698093 eV

  energy without entropy =      -17.72340635  energy(sigma->0) =      -17.71912274


--------------------------------------------------------------------------------------------------------




--------------------------------------- Iteration      1(  23)  ---------------------------------------


    POTLOK:  cpu time    3.9692: real time    3.9801
    SETDIJ:  cpu time    0.0254: real time    0.0254
     EDDAV:  cpu time    1.6376: real time    1.6390
       DOS:  cpu time    0.0004: real time    0.0004
    CHARGE:  cpu time    0.4638: real time    0.4650
    MIXING:  cpu time    0.2485: real time    0.2487
    --------------------------------------------
      LOOP:  cpu time    6.3449: real time    6.3587

 eigenvalue-minimisations  :    64
 total energy-change (2. order) :-0.7553187E-03  (-0.2589803E-05)
 number of electron      21.0000003 magnetization       1.0013814
 augmentation part       -0.3603613 magnetization       0.0001611

 Broyden mixing:
  rms(total) = 0.15236E-03    rms(broyden)= 0.15236E-03
  rms(prec ) = 0.20877E-03
  weight for this iteration     100.00

 eigenvalues of (default mixing * dielectric matrix)
  average eigenvalue GAMMA=   2.0359
  8.4895  5.8037  3.8287  2.6916  2.6916  1.9022  1.9022  1.3114  1.2040  0.9576
  0.9576  0.8428  0.8428  0.7041  0.6064  0.6356  0.6356  0.6382

 Free energy of the ion-electron system (eV)
  ---------------------------------------------------
  alpha Z        PSCENC =        -0.01479023
  Ewald energy   TEWEN  =       506.94991411
  -Hartree energ DENC   =      -784.66298809
  -exchange      EXHF   =         0.00000000
  -V(xc)+E(xc)   XCENC  =      -189.19504479
  PAW double counting   =       784.16871831     -560.63540620
  entropy T*S    EENTRO =         0.00642569
  eigenvalues    EBANDS =      -149.10164531
  atomic energy  EATOM  =       374.76708025
  Solvation  Ediel_sol  =         0.00000000
  ---------------------------------------------------
  free energy    TOTEN  =       -17.71773625 eV

  energy without entropy =      -17.72416194  energy(sigma->0) =      -17.71987815


--------------------------------------------------------------------------------------------------------




--------------------------------------- Iteration      1(  24)  ---------------------------------------


    POTLOK:  cpu time    3.7606: real time    3.7655
    SETDIJ:  cpu time    0.0285: real time    0.0285
     EDDAV:  cpu time    1.3928: real time    1.3947
       DOS:  cpu time    0.0004: real time    0.0004
    CHARGE:  cpu time    0.4482: real time    0.4501
    MIXING:  cpu time    0.2717: real time    0.2719
    --------------------------------------------
      LOOP:  cpu time    5.9022: real time    5.9112

 eigenvalue-minimisations  :    48
 total energy-change (2. order) :-0.2204335E-03  (-0.4219502E-06)
 number of electron      21.0000003 magnetization       1.0007846
 augmentation part       -0.3603627 magnetization      -0.0004352

 Broyden mixing:
  rms(total) = 0.92559E-04    rms(broyden)= 0.92558E-04
  rms(prec ) = 0.13340E-03
  weight for this iteration     100.00

 eigenvalues of (default mixing * dielectric matrix)
  average eigenvalue GAMMA=   2.0734
  8.5157  6.5239  4.0907  2.7860  2.7860  2.3769  1.7941  1.3385  1.3385  1.1005
  0.9503  0.9503  0.8241  0.8241  0.6784  0.6544  0.6080  0.6269  0.6269

 Free energy of the ion-electron system (eV)
  ---------------------------------------------------
  alpha Z        PSCENC =        -0.01479023
  Ewald energy   TEWEN  =       506.94991411
  -Hartree energ DENC   =      -784.65342519
  -exchange      EXHF   =         0.00000000
  -V(xc)+E(xc)   XCENC  =      -189.19552581
  PAW double counting   =       784.20563175     -560.67235671
  entropy T*S    EENTRO =         0.00642515
  eigenvalues    EBANDS =      -149.11091002
  atomic energy  EATOM  =       374.76708025
  Solvation  Ediel_sol  =         0.00000000
  ---------------------------------------------------
  free energy    TOTEN  =       -17.71795668 eV

  energy without entropy =      -17.72438184  energy(sigma->0) =      -17.72009840


--------------------------------------------------------------------------------------------------------




--------------------------------------- Iteration      1(  25)  ---------------------------------------


    POTLOK:  cpu time    3.9476: real time    3.9552
    SETDIJ:  cpu time    0.0250: real time    0.0250
     EDDAV:  cpu time    1.3708: real time    1.3720
       DOS:  cpu time    0.0005: real time    0.0005
    CHARGE:  cpu time    0.4549: real time    0.4553
    MIXING:  cpu time    0.2914: real time    0.2916
    --------------------------------------------
      LOOP:  cpu time    6.0902: real time    6.0996

 eigenvalue-minimisations  :    48
 total energy-change (2. order) :-0.1221155E-03  (-0.2243285E-06)
 number of electron      21.0000003 magnetization       1.0006355
 augmentation part       -0.3603629 magnetization      -0.0005827

 Broyden mixing:
  rms(total) = 0.53084E-04    rms(broyden)= 0.53084E-04
  rms(prec ) = 0.79674E-04
  weight for this iteration     100.00

 eigenvalues of (default mixing * dielectric matrix)
  average eigenvalue GAMMA=   2.0732
  8.4920  7.0481  4.2758  2.8215  2.8215  2.4665  1.8281  1.4658  1.4658  1.1547
  0.9518  0.9518  0.9333  0.8054  0.8054  0.6721  0.6073  0.6425  0.6270  0.6270

 Free energy of the ion-electron system (eV)
  ---------------------------------------------------
  alpha Z        PSCENC =        -0.01479023
  Ewald energy   TEWEN  =       506.94991411
  -Hartree energ DENC   =      -784.64467038
  -exchange      EXHF   =         0.00000000
  -V(xc)+E(xc)   XCENC  =      -189.19602621
  PAW double counting   =       784.21280181     -560.67956194
  entropy T*S    EENTRO =         0.00642496
  eigenvalues    EBANDS =      -149.11925117
  atomic energy  EATOM  =       374.76708025
  Solvation  Ediel_sol  =         0.00000000
  ---------------------------------------------------
  free energy    TOTEN  =       -17.71807880 eV

  energy without entropy =      -17.72450376  energy(sigma->0) =      -17.72022045


--------------------------------------------------------------------------------------------------------




--------------------------------------- Iteration      1(  26)  ---------------------------------------


    POTLOK:  cpu time    3.8882: real time    3.8920
    SETDIJ:  cpu time    0.0222: real time    0.0222
     EDDAV:  cpu time    1.3965: real time    1.3978
       DOS:  cpu time    0.0004: real time    0.0004
    --------------------------------------------
      LOOP:  cpu time    5.3073: real time    5.3124

 eigenvalue-minimisations  :    48
 total energy-change (2. order) :-0.1786055E-04  (-0.4684339E-07)
 number of electron      21.0000003 magnetization       1.0006355
 augmentation part       -0.3603629 magnetization      -0.0005827

 Free energy of the ion-electron system (eV)
  ---------------------------------------------------
  alpha Z        PSCENC =        -0.01479023
  Ewald energy   TEWEN  =       506.94991411
  -Hartree energ DENC   =      -784.64253597
  -exchange      EXHF   =         0.00000000
  -V(xc)+E(xc)   XCENC  =      -189.19609979
  PAW double counting   =       784.23570736     -560.70245717
  entropy T*S    EENTRO =         0.00642496
  eigenvalues    EBANDS =      -149.12134018
  atomic energy  EATOM  =       374.76708025
  Solvation  Ediel_sol  =         0.00000000
  ---------------------------------------------------
  free energy    TOTEN  =       -17.71809666 eV

  energy without entropy =      -17.72452162  energy(sigma->0) =      -17.72023831


--------------------------------------------------------------------------------------------------------




 average (electrostatic) potential at core
  the test charge radii are     1.0406
  (the norm of the test charge is              1.0000)
       1 -84.4179       2 -84.5079       3 -84.3464       4 -84.4726       5 -84.5512
       6 -84.4676       7 -84.5869
 
 
 
 E-fermi :  -3.8195     XC(G=0):  -0.3203     alpha+bet : -0.1544


 spin component 1

 k-point     1 :       0.0000    0.0000    0.0000
  band No.  band energies     occupation 
      1     -12.1032      1.00000
      2      -9.4072      1.00000
      3      -9.1364      1.00000
      4      -8.7977      1.00000
      5      -6.5737      1.00000
      6      -6.0434      1.00000
      7      -5.8178      1.00000
      8      -5.1842      1.00000
      9      -5.0351      1.00000
     10      -4.9891      1.00000
     11      -3.9886      1.00086
     12      -3.3024     -0.00078
     13      -2.9124     -0.00000
     14      -2.8186     -0.00000
     15      -2.5947     -0.00000
     16      -2.4118     -0.00000
     17      -2.1390     -0.00000
     18      -0.9928     -0.00000

 spin component 2

 k-point     1 :       0.0000    0.0000    0.0000
  band No.  band energies     occupation 
      1     -11.9948      1.00000
      2      -9.2285      1.00000
      3      -9.0810      1.00000
      4      -8.7598      1.00000
      5      -6.2182      1.00000
      6      -5.9379      1.00000
      7      -5.7996      1.00000
      8      -5.1199      1.00000
      9      -4.9708      1.00000
     10      -4.9340      1.00000
     11      -3.2096     -0.00007
     12      -3.0767     -0.00000
     13      -2.8896     -0.00000
     14      -2.8140     -0.00000
     15      -2.5337     -0.00000
     16      -2.3616     -0.00000
     17      -2.0467     -0.00000
     18      -0.9219     -0.00000


--------------------------------------------------------------------------------------------------------


 soft charge-density along one line, spin component            1
         0         1         2         3         4         5         6         7         8         9
 total charge-density along one line
 
 soft charge-density along one line, spin component            2
         0         1         2         3         4         5         6         7         8         9
 total charge-density along one line
 
 pseudopotential strength for first ion, spin component:            1
  8.853  15.107  -0.002   0.003  -0.003  -0.005   0.010  -0.009
 15.107  25.778  -0.003   0.006  -0.005  -0.009   0.017  -0.016
 -0.002  -0.003   1.974  -0.000   0.000   5.772  -0.001   0.001
  0.003   0.006  -0.000   1.974  -0.001  -0.001   5.773  -0.002
 -0.003  -0.005   0.000  -0.001   1.974   0.001  -0.002   5.773
 -0.005  -0.009   5.772  -0.001   0.001  16.748  -0.002   0.002
  0.010   0.017  -0.001   5.773  -0.002  -0.002  16.749  -0.005
 -0.009  -0.016   0.001  -0.002   5.773   0.002  -0.005  16.749
 pseudopotential strength for first ion, spin component:            2
  8.850  15.103  -0.002   0.003  -0.003  -0.005   0.010  -0.010
 15.103  25.772  -0.003   0.006  -0.006  -0.009   0.018  -0.017
 -0.002  -0.003   1.973  -0.000   0.000   5.771  -0.001   0.001
  0.003   0.006  -0.000   1.974  -0.001  -0.001   5.771  -0.002
 -0.003  -0.006   0.000  -0.001   1.974   0.001  -0.002   5.771
 -0.005  -0.009   5.771  -0.001   0.001  16.742  -0.003   0.002
  0.010   0.018  -0.001   5.771  -0.002  -0.003  16.743  -0.006
 -0.010  -0.017   0.001  -0.002   5.771   0.002  -0.006  16.743
 total augmentation occupancy for first ion, spin component:            1
  2.982  -0.535   0.080  -0.315   0.274  -0.012   0.047  -0.042
 -0.535   0.164  -0.020   0.164  -0.155   0.002  -0.015   0.013
  0.080  -0.020   0.832   0.025  -0.076  -0.043   0.000   0.004
 -0.315   0.164   0.025   0.898   0.175  -0.000  -0.051  -0.009
  0.274  -0.155  -0.076   0.175   0.858   0.004  -0.009  -0.047
 -0.012   0.002  -0.043  -0.000   0.004   0.002  -0.000  -0.000
  0.047  -0.015   0.000  -0.051  -0.009  -0.000   0.003   0.000
 -0.042   0.013   0.004  -0.009  -0.047  -0.000   0.000   0.003
 total augmentation occupancy for first ion, spin component:            2
  0.077  -0.030  -0.001  -0.008   0.008  -0.000   0.001  -0.001
 -0.030   0.007  -0.001   0.003  -0.004   0.000  -0.001   0.001
 -0.001  -0.001   0.059   0.065   0.030  -0.002  -0.002  -0.001
 -0.008   0.003   0.065   0.066   0.037  -0.002  -0.003  -0.001
  0.008  -0.004   0.030   0.037   0.030  -0.001  -0.001  -0.002
 -0.000   0.000  -0.002  -0.002  -0.001   0.000   0.000   0.000
  0.001  -0.001  -0.002  -0.003  -0.001   0.000   0.000   0.000
 -0.001   0.001  -0.001  -0.001  -0.002   0.000   0.000   0.000


------------------------ aborting loop because EDIFF is reached ----------------------------------------


    CHARGE:  cpu time    0.4730: real time    0.4742
    FORLOC:  cpu time    0.0992: real time    0.0993
    FORNL :  cpu time    0.5358: real time    0.5362
    FORCOR:  cpu time    3.8325: real time    3.8354
    FORHAR:  cpu time    0.4809: real time    0.4812
    MIXING:  cpu time    0.3072: real time    0.3075
    OFIELD:  cpu time    0.0000: real time    0.0000

 VOLUME and BASIS-vectors are now :
 -----------------------------------------------------------------------------
  energy-cutoff  :      400.00
  volume of cell :    11127.73
      direct lattice vectors                 reciprocal lattice vectors
    22.544535633  0.000000000  0.000000000     0.044356647  0.000000000  0.000000000
     0.000000000 21.839813546  0.000000000     0.000000000  0.045787937  0.000000000
     0.000000000  0.000000000 22.600410503     0.000000000  0.000000000  0.044246984

  length of vectors
    22.544535633 21.839813546 22.600410503     0.044356647  0.045787937  0.044246984


 FORCES acting on ions
    electron-ion (+dipol)            ewald-force                    non-local-force                 convergence-correction
 -----------------------------------------------------------------------------------------------
   0.458E+02 0.102E+02 -.454E+02   -.437E+02 -.888E+01 0.429E+02   -.188E+01 -.125E+01 0.253E+01   0.802E-04 0.523E-04 -.165E-04
   0.385E+02 0.384E+02 0.345E+02   -.374E+02 -.369E+02 -.340E+02   -.106E+01 -.146E+01 -.564E+00   0.983E-04 0.102E-03 0.853E-04
   -.291E+02 0.568E+02 -.128E+02   0.282E+02 -.538E+02 0.116E+02   0.896E+00 -.312E+01 0.125E+01   0.402E-05 0.958E-04 0.164E-04
   -.347E+02 0.295E+01 0.556E+02   0.336E+02 -.332E+01 -.524E+02   0.921E+00 0.356E+00 -.335E+01   -.164E-04 0.642E-04 0.656E-04
   -.295E+02 -.835E+01 -.562E+02   0.282E+02 0.820E+01 0.534E+02   0.115E+01 0.134E+00 0.275E+01   -.271E-04 0.681E-05 -.608E-04
   0.420E+02 -.446E+02 0.221E+02   -.404E+02 0.426E+02 -.201E+02   -.156E+01 0.204E+01 -.204E+01   0.947E-04 0.809E-06 0.292E-04
   -.335E+02 -.552E+02 0.116E+01   0.315E+02 0.521E+02 -.146E+01   0.193E+01 0.306E+01 0.401E+00   -.398E-04 -.483E-04 0.250E-05
 -----------------------------------------------------------------------------------------------
   -.405E+00 0.234E+00 -.975E+00   -.355E-14 0.000E+00 -.711E-14   0.404E+00 -.234E+00 0.975E+00   0.194E-03 0.274E-03 0.122E-03
 
 
 POSITION                                       TOTAL-FORCE (eV/Angst)
 -----------------------------------------------------------------------------------
      6.10939     12.80606     16.30797         0.145422      0.052416      0.081000
      6.08614     11.77174     13.77207         0.051195      0.040502     -0.041617
      8.27778     11.48914     15.36309         0.058543     -0.085287      0.117282
      8.50587     12.97958     13.36109        -0.082945     -0.019524     -0.140398
      8.57295     13.44615     17.08313        -0.112952     -0.014708     -0.057423
      6.14685     14.41570     14.37031         0.034810      0.065362     -0.060304
      8.59951     14.95151     14.99048        -0.094073     -0.038762      0.101460
 -----------------------------------------------------------------------------------
    total drift:                               -0.000308      0.000358     -0.000195


--------------------------------------------------------------------------------------------------------



  FREE ENERGIE OF THE ION-ELECTRON SYSTEM (eV)
  ---------------------------------------------------
  free  energy   TOTEN  =       -17.71809666 eV

  energy  without entropy=      -17.72452162  energy(sigma->0) =      -17.72023831
 


--------------------------------------------------------------------------------------------------------


    POTLOK:  cpu time    3.9177: real time    3.9230


--------------------------------------------------------------------------------------------------------




--------------------------------------------------------------------------------------------------------


    WAVPRE:  cpu time    0.2511: real time    0.2653
    FEWALD:  cpu time    0.0037: real time    0.0037
    ORTHCH:  cpu time    0.0566: real time    0.0567
     LOOP+:  cpu time  158.4821: real time  158.7412


--------------------------------------- Iteration      2(   1)  ---------------------------------------


    POTLOK:  cpu time    3.9778: real time    3.9852
    SETDIJ:  cpu time    0.0270: real time    0.0270
     EDDAV:  cpu time    1.9878: real time    1.9915
       DOS:  cpu time    0.0006: real time    0.0006
    CHARGE:  cpu time    0.4821: real time    0.4833
    MIXING:  cpu time    0.0850: real time    0.0875
    --------------------------------------------
[...]
  8.849  15.100  -0.000   0.003  -0.003  -0.001   0.010  -0.008
 15.100  25.768  -0.000   0.006  -0.005  -0.001   0.018  -0.014
 -0.000  -0.000   1.973  -0.000   0.000   5.770  -0.000   0.000
  0.003   0.006  -0.000   1.974  -0.001  -0.000   5.771  -0.002
 -0.003  -0.005   0.000  -0.001   1.973   0.000  -0.002   5.770
 -0.001  -0.001   5.770  -0.000   0.000  16.741  -0.000   0.000
  0.010   0.018  -0.000   5.771  -0.002  -0.000  16.744  -0.006
 -0.008  -0.014   0.000  -0.002   5.770   0.000  -0.006  16.740
 total augmentation occupancy for first ion, spin component:            1
  2.979  -0.548  -0.010  -0.303   0.280   0.002   0.046  -0.042
 -0.548   0.169   0.006   0.161  -0.163  -0.001  -0.015   0.014
 -0.010   0.006   0.837   0.007  -0.005  -0.043  -0.001   0.001
 -0.303   0.161   0.007   0.916   0.204  -0.001  -0.054  -0.011
  0.280  -0.163  -0.005   0.204   0.908   0.000  -0.011  -0.049
  0.002  -0.001  -0.043  -0.001   0.000   0.002   0.000  -0.000
  0.046  -0.015  -0.001  -0.054  -0.011   0.000   0.004   0.000
 -0.042   0.014   0.001  -0.011  -0.049  -0.000   0.000   0.003
 total augmentation occupancy for first ion, spin component:            2
  0.061  -0.023   0.000  -0.001   0.019   0.000   0.001  -0.001
 -0.023   0.005   0.001   0.005  -0.000  -0.000  -0.000   0.000
  0.000   0.001  -0.005   0.010   0.008  -0.000  -0.000  -0.000
 -0.001   0.005   0.010   0.057   0.071  -0.000  -0.002  -0.003
  0.019  -0.000   0.008   0.071   0.070  -0.000  -0.002  -0.004
  0.000  -0.000  -0.000  -0.000  -0.000   0.000   0.000   0.000
  0.001  -0.000  -0.000  -0.002  -0.002   0.000   0.000   0.000
 -0.001   0.000  -0.000  -0.003  -0.004   0.000   0.000   0.000


------------------------ aborting loop because EDIFF is reached ----------------------------------------


    CHARGE:  cpu time    0.4452: real time    0.4456
    FORLOC:  cpu time    0.0994: real time    0.0995
    FORNL :  cpu time    0.5386: real time    0.5390
    FORCOR:  cpu time    3.8874: real time    3.8930
    FORHAR:  cpu time    0.4941: real time    0.4945
    MIXING:  cpu time    0.0714: real time    0.0715
    OFIELD:  cpu time    0.0000: real time    0.0000

 VOLUME and BASIS-vectors are now :
 -----------------------------------------------------------------------------
  energy-cutoff  :      400.00
  volume of cell :    11127.73
      direct lattice vectors                 reciprocal lattice vectors
    22.544535633  0.000000000  0.000000000     0.044356647  0.000000000  0.000000000
     0.000000000 21.839813546  0.000000000     0.000000000  0.045787937  0.000000000
     0.000000000  0.000000000 22.600410503     0.000000000  0.000000000  0.044246984

  length of vectors
    22.544535633 21.839813546 22.600410503     0.044356647  0.045787937  0.044246984


 FORCES acting on ions
    electron-ion (+dipol)            ewald-force                    non-local-force                 convergence-correction
 -----------------------------------------------------------------------------------------------
   0.464E+02 0.117E+01 -.452E+02   -.447E+02 -.104E+01 0.428E+02   -.169E+01 -.123E+00 0.238E+01   -.113E-02 -.103E-02 -.108E-02
   0.416E+02 0.467E+02 0.292E+02   -.392E+02 -.443E+02 -.268E+02   -.249E+01 -.238E+01 -.235E+01   0.669E-02 -.794E-03 0.662E-02
   -.365E+02 0.526E+02 -.933E+01   0.349E+02 -.504E+02 0.843E+01   0.167E+01 -.218E+01 0.910E+00   -.564E-02 0.341E-02 -.926E-02
   -.310E+02 0.118E+01 0.614E+02   0.301E+02 -.118E+01 -.574E+02   0.823E+00 0.843E-02 -.402E+01   0.157E-02 -.281E-02 0.127E-01
   -.266E+02 -.290E+01 -.574E+02   0.256E+02 0.284E+01 0.552E+02   0.951E+00 0.485E-01 0.213E+01   -.400E-02 0.321E-02 -.480E-02
   0.431E+02 -.448E+02 0.294E+02   -.407E+02 0.427E+02 -.268E+02   -.243E+01 0.205E+01 -.263E+01   0.394E-02 0.188E-02 0.701E-02
   -.356E+02 -.535E+02 -.533E+01   0.339E+02 0.513E+02 0.447E+01   0.170E+01 0.214E+01 0.865E+00   -.730E-03 0.157E-02 -.347E-02
 -----------------------------------------------------------------------------------------------
   0.147E+01 0.442E+00 0.271E+01   0.000E+00 -.711E-14 0.533E-14   -.147E+01 -.447E+00 -.272E+01   0.705E-03 0.544E-02 0.773E-02
 
 
 POSITION                                       TOTAL-FORCE (eV/Angst)
 -----------------------------------------------------------------------------------
      6.18206     13.08684     16.25364         0.002712      0.008261     -0.008275
      6.17611     11.73758     14.02828         0.003680      0.000298      0.008742
      8.46224     11.67121     15.26764         0.006104      0.008203     -0.004964
      8.33227     13.06747     13.09281        -0.005882     -0.001548      0.000684
      8.56574     13.23709     17.40643         0.001518     -0.008745      0.009334
      6.12601     14.43683     14.04856        -0.000081      0.002748     -0.006255
      8.45407     14.62286     15.15079        -0.008052     -0.009217      0.000733
 -----------------------------------------------------------------------------------
    total drift:                               -0.000612      0.000558     -0.002685


--------------------------------------------------------------------------------------------------------



  FREE ENERGIE OF THE ION-ELECTRON SYSTEM (eV)
  ---------------------------------------------------
  free  energy   TOTEN  =       -17.80122762 eV

  energy  without entropy=      -17.80707737  energy(sigma->0) =      -17.80317754
 
 d Force = 0.2251841E-03[ 0.279E-04, 0.422E-03]  d Energy = 0.1525332E-03 0.727E-04
 d Force = 0.2194419E+00[ 0.219E+00, 0.219E+00]  d Ewald  = 0.2194415E+00 0.374E-06


--------------------------------------------------------------------------------------------------------


    POTLOK:  cpu time    4.0342: real time    4.0394


--------------------------------------------------------------------------------------------------------


 Conjugate gradient step on ions:
 trial-energy change:   -0.000153  1 .order   -0.000225   -0.000422   -0.000028
  (g-gl).g = 0.194E-03      g.g   = 0.161E-03  gl.gl    = 0.887E-03
 g(Force)  = 0.161E-03   g(Stress)= 0.000E+00 ortho     = 0.326E-04
 gamma     =   0.21847
 trial     =   2.50935
 opt step  =   2.68656  (harmonic =   2.68656) maximal distance =0.00441006
 next E    =   -17.801301   (d E  =  -0.00023)


--------------------------------------------------------------------------------------------------------


    WAVPRE:  cpu time    0.2261: real time    0.2357
    FEWALD:  cpu time    0.0077: real time    0.0077
    ORTHCH:  cpu time    0.0564: real time    0.0565
     LOOP+:  cpu time   22.1092: real time   22.1968


--------------------------------------- Iteration     39(   1)  ---------------------------------------


    POTLOK:  cpu time    4.0416: real time    4.0463
    SETDIJ:  cpu time    0.0276: real time    0.0276
     EDDAV:  cpu time    1.2521: real time    1.2532
       DOS:  cpu time    0.0005: real time    0.0005
    CHARGE:  cpu time    0.4699: real time    0.4702
    MIXING:  cpu time    0.0643: real time    0.0644
    --------------------------------------------
      LOOP:  cpu time    5.8560: real time    5.8621

 eigenvalue-minimisations  :    38
 total energy-change (2. order) : 0.9739087E-05  (-0.6920541E-05)
 number of electron      20.9999999 magnetization       1.0000765
 augmentation part       -0.3549474 magnetization      -0.0005648

 Broyden mixing:
  rms(total) = 0.10267E-02    rms(broyden)= 0.10267E-02
  rms(prec ) = 0.11692E-02
  weight for this iteration     100.00

 Free energy of the ion-electron system (eV)
  ---------------------------------------------------
  alpha Z        PSCENC =        -0.01479023
  Ewald energy   TEWEN  =       515.32030884
  -Hartree energ DENC   =      -792.66585786
  -exchange      EXHF   =         0.00000000
  -V(xc)+E(xc)   XCENC  =      -188.99936995
  PAW double counting   =       795.07667379     -571.54138491
  entropy T*S    EENTRO =         0.00585028
  eigenvalues    EBANDS =      -149.74973158
  atomic energy  EATOM  =       374.76708025
  Solvation  Ediel_sol  =         0.00000000
  ---------------------------------------------------
  free energy    TOTEN  =       -17.80122137 eV

  energy without entropy =      -17.80707165  energy(sigma->0) =      -17.80317146


--------------------------------------------------------------------------------------------------------




--------------------------------------- Iteration     39(   2)  ---------------------------------------


    POTLOK:  cpu time    4.1404: real time    4.1487
    SETDIJ:  cpu time    0.0270: real time    0.0270
     EDDAV:  cpu time    1.2649: real time    1.2676
       DOS:  cpu time    0.0010: real time    0.0010
    --------------------------------------------
      LOOP:  cpu time    5.4332: real time    5.4442

 eigenvalue-minimisations  :    42
 total energy-change (2. order) :-0.7062054E-05  (-0.1930209E-05)
 number of electron      20.9999999 magnetization       1.0000765
 augmentation part       -0.3549474 magnetization      -0.0005648

 Free energy of the ion-electron system (eV)
  ---------------------------------------------------
  alpha Z        PSCENC =        -0.01479023
  Ewald energy   TEWEN  =       515.32030884
  -Hartree energ DENC   =      -792.66189403
  -exchange      EXHF   =         0.00000000
  -V(xc)+E(xc)   XCENC  =      -188.99948408
  PAW double counting   =       795.04982791     -571.51444354
  entropy T*S    EENTRO =         0.00585068
  eigenvalues    EBANDS =      -149.75368425
  atomic energy  EATOM  =       374.76708025
  Solvation  Ediel_sol  =         0.00000000
  ---------------------------------------------------
  free energy    TOTEN  =       -17.80122843 eV

  energy without entropy =      -17.80707911  energy(sigma->0) =      -17.80317866


--------------------------------------------------------------------------------------------------------




 average (electrostatic) potential at core
  the test charge radii are     1.0406
  (the norm of the test charge is              1.0000)
       1 -84.3788       2 -84.5196       3 -84.3769       4 -84.5254       5 -84.6108
       6 -84.5220       7 -84.3984
 
 
 
 E-fermi :  -4.0162     XC(G=0):  -0.3014     alpha+bet : -0.1544


 spin component 1

 k-point     1 :       0.0000    0.0000    0.0000
  band No.  band energies     occupation 
      1     -12.3294      1.00000
      2      -9.6977      1.00000
      3      -8.8903      1.00000
      4      -8.8544      1.00000
      5      -6.6441      1.00000
      6      -5.9976      1.00000
      7      -5.9556      1.00000
      8      -5.0392      1.00000
      9      -4.9545      1.00000
     10      -4.9501      1.00000
     11      -4.1846      1.00006
     12      -3.3688     -0.00002
     13      -3.3017     -0.00000
     14      -3.0025     -0.00000
     15      -2.3671     -0.00000
     16      -2.3198     -0.00000
     17      -1.6263     -0.00000
     18      -0.8439     -0.00000

 spin component 2

 k-point     1 :       0.0000    0.0000    0.0000
  band No.  band energies     occupation 
      1     -12.2186      1.00000
      2      -9.4761      1.00000
      3      -8.8380      1.00000
      4      -8.8086      1.00000
      5      -6.2801      1.00000
      6      -5.9224      1.00000
      7      -5.8932      1.00000
      8      -4.9933      1.00000
      9      -4.9149      1.00000
     10      -4.9108      1.00000
     11      -3.3836     -0.00004
     12      -3.2180     -0.00000
     13      -3.1955     -0.00000
     14      -2.9450     -0.00000
     15      -2.2669     -0.00000
     16      -2.2342     -0.00000
     17      -1.6243     -0.00000
     18      -0.8042     -0.00000


--------------------------------------------------------------------------------------------------------


 soft charge-density along one line, spin component            1
         0         1         2         3         4         5         6         7         8         9
 total charge-density along one line
 
 soft charge-density along one line, spin component            2
         0         1         2         3         4         5         6         7         8         9
 total charge-density along one line
 
 pseudopotential strength for first ion, spin component:            1
  8.851  15.103  -0.000   0.003  -0.003  -0.001   0.010  -0.007
 15.103  25.773  -0.000   0.006  -0.004  -0.001   0.018  -0.013
 -0.000  -0.000   1.974  -0.000   0.000   5.772  -0.000   0.000
  0.003   0.006  -0.000   1.974  -0.001  -0.000   5.773  -0.002
 -0.003  -0.004   0.000  -0.001   1.974   0.000  -0.002   5.772
 -0.001  -0.001   5.772  -0.000   0.000  16.745  -0.000   0.000
  0.010   0.018  -0.000   5.773  -0.002  -0.000  16.748  -0.006
 -0.007  -0.013   0.000  -0.002   5.772   0.000  -0.006  16.745
 pseudopotential strength for first ion, spin component:            2
  8.849  15.100  -0.000   0.003  -0.003  -0.001   0.010  -0.008
 15.100  25.768  -0.000   0.006  -0.005  -0.001   0.018  -0.014
 -0.000  -0.000   1.973  -0.000  -0.000   5.770  -0.000   0.000
  0.003   0.006  -0.000   1.974  -0.001  -0.000   5.771  -0.002
 -0.003  -0.005  -0.000  -0.001   1.973   0.000  -0.002   5.770
 -0.001  -0.001   5.770  -0.000   0.000  16.741  -0.000   0.000
  0.010   0.018  -0.000   5.771  -0.002  -0.000  16.744  -0.006
 -0.008  -0.014   0.000  -0.002   5.770   0.000  -0.006  16.740
 total augmentation occupancy for first ion, spin component:            1
  2.995  -0.553  -0.000  -0.304   0.275   0.001   0.046  -0.041
 -0.553   0.171   0.002   0.162  -0.160  -0.000  -0.015   0.014
 -0.000   0.002   0.837   0.007  -0.005  -0.043  -0.001   0.000
 -0.304   0.162   0.007   0.915   0.203  -0.001  -0.054  -0.010
  0.275  -0.160  -0.005   0.203   0.906   0.000  -0.011  -0.049
  0.001  -0.000  -0.043  -0.001   0.000   0.002   0.000  -0.000
  0.046  -0.015  -0.001  -0.054  -0.011   0.000   0.004   0.000
 -0.041   0.014   0.000  -0.010  -0.049  -0.000   0.000   0.003
 total augmentation occupancy for first ion, spin component:            2
  0.061  -0.023   0.000  -0.001   0.019   0.000   0.001  -0.001
 -0.023   0.005   0.001   0.005  -0.000  -0.000  -0.000   0.000
  0.000   0.001  -0.005   0.010   0.008  -0.000  -0.000  -0.000
 -0.001   0.005   0.010   0.056   0.071  -0.000  -0.002  -0.002
  0.019  -0.000   0.008   0.071   0.069  -0.000  -0.002  -0.003
  0.000  -0.000  -0.000  -0.000  -0.000   0.000   0.000   0.000
  0.001  -0.000  -0.000  -0.002  -0.002   0.000   0.000   0.000
 -0.001   0.000  -0.000  -0.002  -0.003   0.000   0.000   0.000


------------------------ aborting loop because EDIFF is reached ----------------------------------------


    CHARGE:  cpu time    0.3656: real time    0.3667
    FORLOC:  cpu time    0.0945: real time    0.0945
    FORNL :  cpu time    0.5037: real time    0.5048
    FORCOR:  cpu time    3.8880: real time    3.8945
    FORHAR:  cpu time    0.4741: real time    0.4745
    MIXING:  cpu time    0.0746: real time    0.0747
    OFIELD:  cpu time    0.0000: real time    0.0000

 VOLUME and BASIS-vectors are now :
 -----------------------------------------------------------------------------
  energy-cutoff  :      400.00
  volume of cell :    11127.73
      direct lattice vectors                 reciprocal lattice vectors
    22.544535633  0.000000000  0.000000000     0.044356647  0.000000000  0.000000000
     0.000000000 21.839813546  0.000000000     0.000000000  0.045787937  0.000000000
     0.000000000  0.000000000 22.600410503     0.000000000  0.000000000  0.044246984

  length of vectors
    22.544535633 21.839813546 22.600410503     0.044356647  0.045787937  0.044246984


 FORCES acting on ions
    electron-ion (+dipol)            ewald-force                    non-local-force                 convergence-correction
 -----------------------------------------------------------------------------------------------
   0.464E+02 0.116E+01 -.452E+02   -.447E+02 -.104E+01 0.428E+02   -.168E+01 -.122E+00 0.238E+01   -.152E-02 0.113E-03 -.534E-03
   0.417E+02 0.467E+02 0.292E+02   -.392E+02 -.443E+02 -.268E+02   -.250E+01 -.239E+01 -.236E+01   0.542E-03 -.627E-03 0.205E-02
   -.365E+02 0.526E+02 -.934E+01   0.349E+02 -.504E+02 0.842E+01   0.167E+01 -.219E+01 0.914E+00   -.129E-02 0.679E-03 -.272E-02
   -.310E+02 0.117E+01 0.614E+02   0.301E+02 -.118E+01 -.574E+02   0.824E+00 0.962E-02 -.403E+01   0.124E-02 -.289E-03 0.319E-02
   -.266E+02 -.290E+01 -.574E+02   0.256E+02 0.284E+01 0.552E+02   0.954E+00 0.481E-01 0.213E+01   -.145E-02 0.163E-02 -.291E-02
   0.431E+02 -.448E+02 0.294E+02   -.407E+02 0.427E+02 -.268E+02   -.243E+01 0.205E+01 -.263E+01   0.659E-03 0.909E-03 0.277E-02
   -.356E+02 -.535E+02 -.534E+01   0.339E+02 0.513E+02 0.447E+01   0.170E+01 0.214E+01 0.865E+00   0.168E-03 0.171E-02 -.114E-02
 -----------------------------------------------------------------------------------------------
   0.147E+01 0.449E+00 0.272E+01   0.000E+00 0.711E-14 -.711E-14   -.147E+01 -.453E+00 -.272E+01   -.165E-02 0.413E-02 0.712E-03
 
 
 POSITION                                       TOTAL-FORCE (eV/Angst)
 -----------------------------------------------------------------------------------
      6.18199     13.08704     16.25363         0.003041      0.007497     -0.008659
      6.17603     11.73754     14.02841         0.006616      0.000828      0.009611
      8.46253     11.67114     15.26775         0.003300      0.009846     -0.008598
      8.33217     13.06761     13.09266        -0.006749     -0.002457      0.003637
      8.56559     13.23695     17.40628         0.002212     -0.008720      0.012084
      6.12599     14.43671     14.04848         0.001021      0.003308     -0.006740
      8.45420     14.62288     15.15094        -0.009441     -0.010301     -0.001335
 -----------------------------------------------------------------------------------
    total drift:                               -0.000245      0.000043     -0.001221


--------------------------------------------------------------------------------------------------------



  FREE ENERGIE OF THE ION-ELECTRON SYSTEM (eV)
  ---------------------------------------------------
  free  energy   TOTEN  =       -17.80122843 eV

  energy  without entropy=      -17.80707911  energy(sigma->0) =      -17.80317866
 
 d Force = 0.3545747E-06[-0.126E-05, 0.197E-05]  d Energy = 0.8075995E-06-0.453E-06
 d Force = 0.1549563E-01[ 0.155E-01, 0.155E-01]  d Ewald  = 0.1549563E-01 0.127E-09


--------------------------------------------------------------------------------------------------------


    POTLOK:  cpu time    4.0467: real time    4.0544


--------------------------------------------------------------------------------------------------------




--------------------------------------------------------------------------------------------------------


  
 reached required accuracy - stopping structural energy minimisation
     LOOP+:  cpu time   20.7383: real time   20.7894
    4ORBIT:  cpu time    0.0000: real time    0.0000

 total amount of memory used by VASP MPI-rank0   200756. kBytes
=======================================================================

   base      :      30000. kBytes
   nonl-proj :       2225. kBytes
   fftplans  :      49429. kBytes
   grid      :     111815. kBytes
   one-center:          3. kBytes
   wavefun   :       7284. kBytes
 
  
  
 General timing and accounting informations for this job:
 ========================================================
  
                  Total CPU time used (sec):     1777.059
                            User time (sec):     1744.163
                          System time (sec):       32.897
                         Elapsed time (sec):     1783.510
  
                   Maximum memory used (kb):      419708.
                   Average memory used (kb):           0.
  
                          Minor page faults:     10160071
                          Major page faults:        43801
                 Voluntary context switches:         3735
