<?xml version="1.0" encoding="ISO-8859-1"?>
<modeling>
 <generator>
  <i name="program" type="string">vasp </i>
  <i name="version" type="string">6.1.2  </i>
  <i name="subversion" type="string">22Jul20 (build Aug  2 2021 21:04:21) gamma-only                       parallel </i>
  <i name="platform" type="string">LinuxPGI </i>
  <i name="date" type="string">2021 12 29 </i>
  <i name="time" type="string">02:43:41 </i>
 </generator>
 <incar>
  <i type="int" name="ISPIN">     2</i>
  <i type="int" name="IBRION">     2</i>
  <i type="int" name="NSW">  1000</i>
  <i type="int" name="ISIF">     0</i>
  <i type="int" name="ISYM">     0</i>
  <i name="ENCUT">    400.00000000</i>
  <i type="logical" name="LREAL"> F  </i>
  <i type="int" name="ISMEAR">     1</i>
  <i name="SIGMA">      0.20000000</i>
  <i type="logical" name="LWAVE"> F  </i>
  <i type="logical" name="LCHARG"> F  </i>
  <i type="int" name="KPAR">     1</i>
  <i type="int" name="NCORE">     8</i>
  <i type="string" name="GGA"> PE</i>
  <i type="int" name="ISPIN">     2</i>
 </incar>
 <structure name="primitive_cell" >
  <crystal>
   <varray name="basis" >
    <v>      22.54453563       0.00000000       0.00000000 </v>
    <v>       0.00000000      21.83981355       0.00000000 </v>
    <v>       0.00000000       0.00000000      22.60041050 </v>
   </varray>
   <i name="volume">  11127.72919559 </i>
   <varray name="rec_basis" >
    <v>       0.04435665       0.00000000       0.00000000 </v>
    <v>       0.00000000       0.04578794       0.00000000 </v>
    <v>       0.00000000       0.00000000       0.04424698 </v>
   </varray>
  </crystal>
  <varray name="positions" >
   <v>       0.27099211       0.58636299       0.72157861 </v>
   <v>       0.26996094       0.53900353       0.60937267 </v>
   <v>       0.36717465       0.52606412       0.67977051 </v>
   <v>       0.37729182       0.59430797       0.59118793 </v>
   <v>       0.38026737       0.61567130       0.75587693 </v>
   <v>       0.27265375       0.66006533       0.63584307 </v>
   <v>       0.38144553       0.68459857       0.66328359 </v>
  </varray>
 </structure>
 <varray name="primitive_index" >
  <v type="int" >        1 </v>
  <v type="int" >        2 </v>
  <v type="int" >        3 </v>
  <v type="int" >        4 </v>
  <v type="int" >        5 </v>
  <v type="int" >        6 </v>
  <v type="int" >        7 </v>
 </varray>
 <kpoints>
  <generation param="Gamma">
   <v type="int" name="divisions">       1        1        1 </v>
   <v name="usershift">      0.00000000       0.00000000       0.00000000 </v>
   <v name="genvec1">      1.00000000       0.00000000       0.00000000 </v>
   <v name="genvec2">      0.00000000       1.00000000       0.00000000 </v>
   <v name="genvec3">      0.00000000       0.00000000       1.00000000 </v>
   <v name="shift">      0.00000000       0.00000000       0.00000000 </v>
  </generation>
  <varray name="kpointlist" >
   <v>       0.00000000       0.00000000       0.00000000 </v>
  </varray>
  <varray name="weights" >
   <v>       1.00000000 </v>
  </varray>
 </kpoints>
 <parameters>
  <separator name="general" >
   <i type="string" name="SYSTEM">unknown system</i>
   <i type="logical" name="LCOMPAT"> F  </i>
  </separator>
  <separator name="electronic" >
   <i type="string" name="PREC">normal</i>
   <i name="ENMAX">    400.00000000</i>
   <i name="ENAUG">    291.05200000</i>
   <i name="EDIFF">      0.00010000</i>
   <i type="int" name="IALGO">    38</i>
   <i type="int" name="IWAVPR">    11</i>
   <i type="int" name="NBANDS">    18</i>
   <i type="int" name="NBANDSLOW">    -1</i>
   <i type="int" name="NBANDSHIGH">    -1</i>
   <i name="NELECT">     21.00000000</i>
   <i type="int" name="TURBO">     0</i>
   <i type="int" name="IRESTART">     0</i>
   <i type="int" name="NREBOOT">     0</i>
   <i type="int" name="NMIN">     0</i>
   <i name="EREF">      0.00000000</i>
   <separator name="electronic smearing" >
    <i type="int" name="ISMEAR">     1</i>
    <i name="SIGMA">      0.20000000</i>
    <i name="KSPACING">      0.50000000</i>
    <i type="logical" name="KGAMMA"> T  </i>
    <i type="logical" name="KBLOWUP"> T  </i>
   </separator>
   <separator name="electronic projectors" >
    <i type="logical" name="LREAL"> F  </i>
    <v name="ROPT">      0.00000000</v>
    <i type="int" name="LMAXPAW">  -100</i>
    <i type="int" name="LMAXMIX">     2</i>
    <i type="logical" name="NLSPLINE"> F  </i>
   </separator>
   <separator name="electronic startup" >
    <i type="int" name="ISTART">     0</i>
    <i type="int" name="ICHARG">     2</i>
    <i type="int" name="INIWAV">     1</i>
   </separator>
   <separator name="electronic spin" >
    <i type="int" name="ISPIN">     2</i>
    <i type="logical" name="LNONCOLLINEAR"> F  </i>
    <v name="MAGMOM">      1.00000000      1.00000000      1.00000000      1.00000000      1.00000000      1.00000000      1.00000000</v>
    <i name="NUPDOWN">     -1.00000000</i>
    <i type="logical" name="LSORBIT"> F  </i>
    <v name="SAXIS">      0.00000000      0.00000000      1.00000000</v>
    <i type="logical" name="LSPIRAL"> F  </i>
    <v name="QSPIRAL">      0.00000000      0.00000000      0.00000000</v>
    <i type="logical" name="LZEROZ"> F  </i>
   </separator>
   <separator name="electronic exchange-correlation" >
    <i type="logical" name="LASPH"> F  </i>
    <i type="logical" name="LMETAGGA"> F  </i>
   </separator>
   <separator name="electronic convergence" >
    <i type="int" name="NELM">    60</i>
    <i type="int" name="NELMDL">     0</i>
    <i type="int" name="NELMIN">     2</i>
    <i name="ENINI">    400.00000000</i>
    <separator name="electronic convergence detail" >
     <i type="logical" name="LDIAG"> T  </i>
     <i type="logical" name="LSUBROT"> F  </i>
     <i name="WEIMIN">      0.00100000</i>
     <i name="EBREAK">      0.00000139</i>
     <i name="DEPER">      0.30000000</i>
     <i type="int" name="NRMM">     4</i>
     <i name="TIME">      0.40000000</i>
    </separator>
   </separator>
   <separator name="electronic mixer" >
    <i name="AMIX">      0.40000000</i>
    <i name="BMIX">      1.00000000</i>
    <i name="AMIN">      0.10000000</i>
    <i name="AMIX_MAG">      1.60000000</i>
    <i name="BMIX_MAG">      1.00000000</i>
    <separator name="electronic mixer details" >
     <i type="int" name="IMIX">     4</i>
     <i type="logical" name="MIXFIRST"> F  </i>
     <i type="int" name="MAXMIX">   -45</i>
     <i name="WC">    100.00000000</i>
     <i type="int" name="INIMIX">     1</i>
     <i type="int" name="MIXPRE">     1</i>
     <i type="int" name="MREMOVE">     5</i>
    </separator>
   </separator>
   <separator name="electronic dipolcorrection" >
    <i type="logical" name="LDIPOL"> F  </i>
    <i type="logical" name="LMONO"> F  </i>
    <i type="int" name="IDIPOL">     0</i>
    <i name="EPSILON">      1.00000000</i>
    <v name="DIPOL">   -100.00000000   -100.00000000   -100.00000000</v>
    <i name="EFIELD">      0.00000000</i>
   </separator>
  </separator>
  <separator name="grids" >
   <i type="int" name="NGX">   112</i>
   <i type="int" name="NGY">   108</i>
   <i type="int" name="NGZ">   112</i>
   <i type="int" name="NGXF">   224</i>
   <i type="int" name="NGYF">   216</i>
   <i type="int" name="NGZF">   224</i>
   <i type="logical" name="ADDGRID"> F  </i>
  </separator>
  <separator name="ionic" >
   <i type="int" name="NSW">  1000</i>
   <i type="int" name="IBRION">     2</i>
   <i type="int" name="MDALGO">     0</i>
   <i type="int" name="ISIF">     0</i>
   <i name="PSTRESS">      0.00000000</i>
   <i name="EDIFFG">      0.00100000</i>
   <i type="int" name="NFREE">     1</i>
   <i name="POTIM">      0.50000000</i>
   <i name="SMASS">     -3.00000000</i>
   <i name="SCALEE">      1.00000000</i>
  </separator>
  <separator name="ionic md" >
   <i name="TEBEG">      0.00010000</i>
   <i name="TEEND">      0.00010000</i>
   <i type="int" name="NBLOCK">     1</i>
   <i type="int" name="KBLOCK">  1000</i>
   <i type="int" name="NPACO">   256</i>
   <i name="APACO">     16.00000000</i>
  </separator>
  <separator name="symmetry" >
   <i type="int" name="ISYM">     0</i>
   <i name="SYMPREC">      0.00001000</i>
  </separator>
  <separator name="dos" >
   <i type="int" name="LORBIT">     0</i>
   <v name="RWIGS">     -1.00000000</v>
   <i type="int" name="NEDOS">   301</i>
   <i name="EMIN">     10.00000000</i>
   <i name="EMAX">    -10.00000000</i>
   <i name="EFERMI">      0.00000000</i>
  </separator>
  <separator name="writing" >
   <i type="int" name="NWRITE">     2</i>
   <i type="logical" name="LWAVE"> F  </i>
   <i type="logical" name="LDOWNSAMPLE"> F  </i>
   <i type="logical" name="LCHARG"> F  </i>
   <i type="logical" name="LPARD"> F  </i>
   <i type="logical" name="LVTOT"> F  </i>
   <i type="logical" name="LVHAR"> F  </i>
   <i type="logical" name="LELF"> F  </i>
   <i type="logical" name="LOPTICS"> F  </i>
   <v name="STM">      0.00000000      0.00000000      0.00000000      0.00000000      0.00000000      0.00000000      0.00000000</v>
  </separator>
  <separator name="performance" >
   <i type="int" name="NPAR">     1</i>
   <i type="int" name="NSIM">     4</i>
   <i type="int" name="NBLK">    -1</i>
   <i type="logical" name="LPLANE"> T  </i>
   <i type="logical" name="LSCALAPACK"> T  </i>
   <i type="logical" name="LSCAAWARE"> F  </i>
   <i type="logical" name="LSCALU"> F  </i>
   <i type="logical" name="LASYNC"> F  </i>
   <i type="logical" name="LORBITALREAL"> F  </i>
  </separator>
  <separator name="miscellaneous" >
   <i type="int" name="IDIOT">     3</i>
   <i type="int" name="PHON_NSTRUCT">    -1</i>
   <i type="logical" name="LMUSIC"> F  </i>
   <v name="POMASS">     26.98100000</v>
   <v name="DARWINR">      0.00000000</v>
   <v name="DARWINV">      1.00000000</v>
   <i type="logical" name="LCORR"> T  </i>
  </separator>
  <i type="logical" name="GGA_COMPAT"> T  </i>
  <i type="logical" name="LBERRY"> F  </i>
  <i type="int" name="ICORELEVEL">     0</i>
  <i type="logical" name="LDAU"> F  </i>
  <i type="int" name="I_CONSTRAINED_M">     0</i>
  <separator name="electronic exchange-correlation" >
   <i type="string" name="GGA">PE</i>
   <i type="int" name="VOSKOWN">     0</i>
   <i type="logical" name="LHFCALC"> F  </i>
   <i type="string" name="PRECFOCK"></i>
   <i type="logical" name="LSYMGRAD"> F  </i>
   <i type="logical" name="LHFONE"> F  </i>
   <i type="logical" name="LRHFCALC"> F  </i>
   <i type="logical" name="LTHOMAS"> F  </i>
   <i type="logical" name="LMODELHF"> F  </i>
   <i type="logical" name="LFOCKACE"> F  </i>
   <i name="ENCUT4O">     -1.00000000</i>
   <i type="int" name="EXXOEP">     0</i>
   <i type="int" name="FOURORBIT">     0</i>
   <i name="AEXX">      0.00000000</i>
   <i name="HFALPHA">      0.00000000</i>
   <i name="MCALPHA">      0.00000000</i>
   <i name="ALDAX">      1.00000000</i>
   <i name="AGGAX">      1.00000000</i>
   <i name="ALDAC">      1.00000000</i>
   <i name="AGGAC">      1.00000000</i>
   <i type="int" name="NKREDX">     1</i>
   <i type="int" name="NKREDY">     1</i>
   <i type="int" name="NKREDZ">     1</i>
   <i type="logical" name="SHIFTRED"> F  </i>
   <i type="logical" name="ODDONLY"> F  </i>
   <i type="logical" name="EVENONLY"> F  </i>
   <i type="int" name="LMAXFOCK">     0</i>
   <i type="int" name="NMAXFOCKAE">     0</i>
   <i type="logical" name="LFOCKAEDFT"> F  </i>
   <i name="HFSCREEN">      0.00000000</i>
   <i name="HFSCREENC">      0.00000000</i>
   <i type="int" name="NBANDSGWLOW">     0</i>
  </separator>
  <separator name="vdW DFT" >
   <i type="logical" name="LUSE_VDW"> F  </i>
   <i name="Zab_VDW">     -0.84910000</i>
   <i name="PARAM1">      0.12340000</i>
   <i name="PARAM2">      1.00000000</i>
   <i name="PARAM3">      0.00000000</i>
  </separator>
  <separator name="model GW" >
   <i type="int" name="MODEL_GW">     0</i>
   <i name="MODEL_EPS0">    953.80535962</i>
   <i name="MODEL_ALPHA">      1.00000000</i>
  </separator>
  <separator name="linear response parameters" >
   <i type="logical" name="LEPSILON"> F  </i>
   <i type="logical" name="LRPA"> F  </i>
   <i type="logical" name="LNABLA"> F  </i>
   <i type="logical" name="LVEL"> F  </i>
   <i type="int" name="KINTER">     0</i>
   <i name="CSHIFT">      0.10000000</i>
   <i name="OMEGAMAX">     -1.00000000</i>
   <i name="DEG_THRESHOLD">      0.00200000</i>
   <i name="RTIME">     -0.10000000</i>
   <i name="WPLASMAI">      0.00000000</i>
   <v name="DFIELD">      0.00000000      0.00000000      0.00000000</v>
   <v name="WPLASMA">      0.00000000      0.00000000      0.00000000      0.00000000      0.00000000      0.00000000      0.00000000      0.00000000      0.00000000</v>
  </separator>
  <separator name="orbital magnetization" >
   <i type="logical" name="NUCIND"> F  </i>
   <v name="MAGPOS">      0.00000000      0.00000000      0.00000000</v>
   <i type="logical" name="LNICSALL"> T  </i>
   <i type="logical" name="ORBITALMAG"> F  </i>
   <i type="logical" name="LMAGBLOCH"> F  </i>
   <i type="logical" name="LCHIMAG"> F  </i>
   <i type="logical" name="LGAUGE"> T  </i>
   <i type="int" name="MAGATOM">     0</i>
   <v name="MAGDIPOL">      0.00000000      0.00000000      0.00000000</v>
   <v name="AVECCONST">      0.00000000      0.00000000      0.00000000</v>
  </separator>
  <separator name="response functions" >
   <i type="logical" name="LFINITE_TEMPERATURE"> F  </i>
   <i type="logical" name="LADDER"> F  </i>
   <i type="logical" name="LRPAFORCE"> F  </i>
   <i type="logical" name="LFXC"> F  </i>
   <i type="logical" name="LHARTREE"> T  </i>
   <i type="int" name="IBSE">     0</i>
   <v type="int" name="KPOINT">    -1     0     0     0</v>
   <i type="logical" name="LTCTC"> F  </i>
   <i type="logical" name="LTCTE"> F  </i>
   <i type="logical" name="LTETE"> F  </i>
   <i type="logical" name="LTRIPLET"> F  </i>
   <i type="logical" name="LFXCEPS"> F  </i>
   <i type="logical" name="LFXHEG"> F  </i>
   <i type="int" name="NATURALO">     2</i>
   <i type="logical" name="LHOLEGF"> F  </i>
   <i type="logical" name="L2ORDER"> F  </i>
   <i type="logical" name="LDMP1"> F  </i>
   <i type="logical" name="LMP2LT"> F  </i>
   <i type="logical" name="LSMP2LT"> F  </i>
   <i type="logical" name="LGWLF"> F  </i>
   <i name="ENCUTGW">     -2.00000000</i>
   <i name="ENCUTGWSOFT">     -2.00000000</i>
   <i name="ENCUTLF">     -1.00000000</i>
   <i type="logical" name="LESF_SPLINES"> F  </i>
   <i type="int" name="LMAXMP2">    -1</i>
   <i name="SCISSOR">      0.00000000</i>
   <i type="int" name="NOMEGA">     0</i>
   <i type="int" name="NOMEGAR">     0</i>
   <i type="int" name="NBANDSGW">    -1</i>
   <i type="int" name="NBANDSO">    -1</i>
   <i type="int" name="NBANDSV">    -1</i>
   <i type="int" name="NELM">     1</i>
   <i type="int" name="NELMHF">     1</i>
   <i type="int" name="DIM">     3</i>
   <i type="int" name="IESPILON">     4</i>
   <i type="int" name="ANTIRES">     0</i>
   <i name="OMEGAMAX">    -30.00000000</i>
   <i name="OMEGAMIN">    -30.00000000</i>
   <i name="OMEGATL">   -200.00000000</i>
   <i type="int" name="OMEGAGRID">     0</i>
   <i name="CSHIFT">     -0.10000000</i>
   <i type="logical" name="LSELFENERGY"> F  </i>
   <i type="logical" name="LSPECTRAL"> F  </i>
   <i type="logical" name="LSPECTRALGW"> F  </i>
   <i type="logical" name="LSINGLES"> F  </i>
   <i type="logical" name="LFERMIGW"> F  </i>
   <i type="logical" name="ODDONLYGW"> F  </i>
   <i type="logical" name="EVENONLYGW"> F  </i>
   <i type="int" name="NKREDLFX">     1</i>
   <i type="int" name="NKREDLFY">     1</i>
   <i type="int" name="NKREDLFZ">     1</i>
   <i type="int" name="MAXMEM">  2800</i>
   <i type="int" name="TELESCOPE">     0</i>
   <i type="int" name="NTAUPAR">    -1</i>
   <i type="int" name="NOMEGAPAR">    -1</i>
   <i name="LAMBDA">      1.00000000</i>
  </separator>
  <separator name="External order field" >
   <i name="OFIELD_KAPPA">      0.00000000</i>
   <v name="OFIELD_K">      0.00000000      0.00000000      0.00000000</v>
   <i name="OFIELD_Q6_NEAR">      0.00000000</i>
   <i name="OFIELD_Q6_FAR">      0.00000000</i>
   <i name="OFIELD_A">      0.00000000</i>
  </separator>
 </parameters>
 <atominfo>
  <atoms>       7 </atoms>
  <types>       1 </types>
  <array name="atoms" >
   <dimension dim="1">ion</dimension>
   <field type="string">element</field>
   <field type="int">atomtype</field>
   <set>
    <rc><c>Al</c><c>   1</c></rc>
    <rc><c>Al</c><c>   1</c></rc>
    <rc><c>Al</c><c>   1</c></rc>
    <rc><c>Al</c><c>   1</c></rc>
    <rc><c>Al</c><c>   1</c></rc>
    <rc><c>Al</c><c>   1</c></rc>
    <rc><c>Al</c><c>   1</c></rc>
   </set>
  </array>
  <array name="atomtypes" >
   <dimension dim="1">type</dimension>
   <field type="int">atomspertype</field>
   <field type="string">element</field>
   <field>mass</field>
   <field>valence</field>
   <field type="string">pseudopotential</field>
   <set>
    <rc><c>   7</c><c>Al</c><c>     26.98100000</c><c>      3.00000000</c><c>  PAW_PBE Al 04Jan2001                  </c></rc>
   </set>
  </array>
 </atominfo>
 <structure name="initialpos" >
  <crystal>
   <varray name="basis" >
    <v>      22.54453563       0.00000000       0.00000000 </v>
    <v>       0.00000000      21.83981355       0.00000000 </v>
    <v>       0.00000000       0.00000000      22.60041050 </v>
   </varray>
   <i name="volume">  11127.72919559 </i>
   <varray name="rec_basis" >
    <v>       0.04435665       0.00000000       0.00000000 </v>
    <v>       0.00000000       0.04578794       0.00000000 </v>
    <v>       0.00000000       0.00000000       0.04424698 </v>
   </varray>
  </crystal>
  <varray name="positions" >
   <v>       0.27099211       0.58636299       0.72157861 </v>
   <v>       0.26996094       0.53900353       0.60937267 </v>
   <v>       0.36717465       0.52606412       0.67977051 </v>
   <v>       0.37729182       0.59430797       0.59118793 </v>
   <v>       0.38026737       0.61567130       0.75587693 </v>
   <v>       0.27265375       0.66006533       0.63584307 </v>
   <v>       0.38144553       0.68459857       0.66328359 </v>
  </varray>
 </structure>
 <calculation>
  <scstep>
   <time name="dav">    2.44    2.45</time>
   <time name="total">    6.49    6.50</time>
   <energy>
    <i name="alphaZ">     -0.01479023 </i>
    <i name="ewald">    506.94991411 </i>
    <i name="hartreedc">   -749.97220469 </i>
    <i name="XCdc">   -189.87073898 </i>
    <i name="pawpsdc">    462.65713654 </i>
    <i name="pawaedc">   -238.99141827 </i>
    <i name="eentropy">      0.00238216 </i>
    <i name="bandstr">   -121.65048558 </i>
    <i name="atom">    374.76708025 </i>
    <i name="e_fr_energy">     43.87687532 </i>
    <i name="e_wo_entrp">     43.87449316 </i>
    <i name="e_0_energy">     43.87608127 </i>
   </energy>
  </scstep>
  <scstep>
   <time name="dav">    2.54    2.54</time>
   <time name="total">    2.54    2.54</time>
   <energy>
    <i name="e_fr_energy">     -7.86357944 </i>
    <i name="e_wo_entrp">     -7.88756197 </i>
    <i name="e_0_energy">     -7.87157361 </i>
   </energy>
  </scstep>
  <scstep>
   <time name="dav">    2.10    2.11</time>
   <time name="total">    2.10    2.11</time>
   <energy>
    <i name="e_fr_energy">    -18.49523273 </i>
    <i name="e_wo_entrp">    -18.50226256 </i>
    <i name="e_0_energy">    -18.49757601 </i>
   </energy>
  </scstep>
  <scstep>
   <time name="dav">    1.60    1.60</time>
   <time name="total">    1.60    1.60</time>
   <energy>
    <i name="e_fr_energy">    -18.93793417 </i>
    <i name="e_wo_entrp">    -18.94959267 </i>
    <i name="e_0_energy">    -18.94182034 </i>
   </energy>
  </scstep>
  <scstep>
   <time name="dav">    2.45    2.45</time>
   <time name="total">    2.99    3.00</time>
   <energy>
    <i name="e_fr_energy">    -18.96747979 </i>
    <i name="e_wo_entrp">    -18.97988860 </i>
    <i name="e_0_energy">    -18.97161606 </i>
   </energy>
  </scstep>
  <scstep>
   <time name="dav">    1.89    1.89</time>
   <time name="total">    6.59    6.60</time>
   <energy>
    <i name="e_fr_energy">     -8.66890119 </i>
    <i name="e_wo_entrp">     -8.68257581 </i>
    <i name="e_0_energy">     -8.67345940 </i>
   </energy>
  </scstep>
  <scstep>
   <time name="dav">    1.82    1.82</time>
   <time name="total">    6.39    6.40</time>
   <energy>
    <i name="e_fr_energy">     -5.47360545 </i>
    <i name="e_wo_entrp">     -5.48672478 </i>
    <i name="e_0_energy">     -5.47797856 </i>
   </energy>
  </scstep>
  <scstep>
   <time name="dav">    2.02    2.02</time>
   <time name="total">    6.53    6.54</time>
   <energy>
    <i name="e_fr_energy">     -8.22124668 </i>
    <i name="e_wo_entrp">     -8.22934351 </i>
    <i name="e_0_energy">     -8.22394562 </i>
   </energy>
  </scstep>
  <scstep>
   <time name="dav">    1.80    1.80</time>
   <time name="total">    6.35    6.36</time>
   <energy>
    <i name="e_fr_energy">    -11.75606861 </i>
    <i name="e_wo_entrp">    -11.76211647 </i>
    <i name="e_0_energy">    -11.75808456 </i>
   </energy>
  </scstep>
  <scstep>
   <time name="dav">    1.79    1.79</time>
   <time name="total">    6.50    6.51</time>
   <energy>
    <i name="e_fr_energy">    -13.87998292 </i>
    <i name="e_wo_entrp">    -13.88600996 </i>
    <i name="e_0_energy">    -13.88199194 </i>
   </energy>
  </scstep>
  <scstep>
   <time name="dav">    1.95    1.95</time>
   <time name="total">    6.74    6.75</time>
   <energy>
    <i name="e_fr_energy">    -15.17487347 </i>
    <i name="e_wo_entrp">    -15.18096800 </i>
    <i name="e_0_energy">    -15.17690498 </i>
   </energy>
  </scstep>
  <scstep>
   <time name="dav">    1.84    1.84</time>
   <time name="total">    6.41    6.41</time>
   <energy>
    <i name="e_fr_energy">    -16.44750531 </i>
    <i name="e_wo_entrp">    -16.45376912 </i>
    <i name="e_0_energy">    -16.44959325 </i>
   </energy>
  </scstep>
  <scstep>
   <time name="dav">    1.83    1.83</time>
   <time name="total">    6.48    6.49</time>
   <energy>
    <i name="e_fr_energy">    -16.79309011 </i>
    <i name="e_wo_entrp">    -16.79940104 </i>
    <i name="e_0_energy">    -16.79519375 </i>
   </energy>
  </scstep>
  <scstep>
   <time name="dav">    1.83    1.84</time>
   <time name="total">    6.44    6.45</time>
   <energy>
    <i name="e_fr_energy">    -17.07816922 </i>
    <i name="e_wo_entrp">    -17.08453462 </i>
    <i name="e_0_energy">    -17.08029102 </i>
   </energy>
  </scstep>
  <scstep>
   <time name="dav">    1.86    1.87</time>
   <time name="total">    6.41    6.42</time>
   <energy>
    <i name="e_fr_energy">    -17.49022716 </i>
    <i name="e_wo_entrp">    -17.49665811 </i>
    <i name="e_0_energy">    -17.49237081 </i>
   </energy>
  </scstep>
  <scstep>
   <time name="dav">    1.93    1.93</time>
   <time name="total">    6.54    6.55</time>
   <energy>
    <i name="e_fr_energy">    -17.60510713 </i>
    <i name="e_wo_entrp">    -17.61153888 </i>
    <i name="e_0_energy">    -17.60725104 </i>
   </energy>
  </scstep>
  <scstep>
   <time name="dav">    1.90    1.90</time>
   <time name="total">    6.42    6.43</time>
   <energy>
    <i name="e_fr_energy">    -17.65558264 </i>
    <i name="e_wo_entrp">    -17.66199494 </i>
    <i name="e_0_energy">    -17.65772007 </i>
   </energy>
  </scstep>
  <scstep>
   <time name="dav">    1.97    1.97</time>
   <time name="total">    6.58    6.58</time>
   <energy>
    <i name="e_fr_energy">    -17.70417010 </i>
    <i name="e_wo_entrp">    -17.71058368 </i>
    <i name="e_0_energy">    -17.70630796 </i>
   </energy>
  </scstep>
  <scstep>
   <time name="dav">    1.99    1.99</time>
   <time name="total">    6.56    6.57</time>
   <energy>
    <i name="e_fr_energy">    -17.71304150 </i>
    <i name="e_wo_entrp">    -17.71946130 </i>
    <i name="e_0_energy">    -17.71518143 </i>
   </energy>
  </scstep>
  <scstep>
   <time name="dav">    1.39    1.39</time>
   <time name="total">    5.89    5.90</time>
   <energy>
    <i name="e_fr_energy">    -17.71576169 </i>
    <i name="e_wo_entrp">    -17.72218745 </i>
    <i name="e_0_energy">    -17.71790361 </i>
   </energy>
  </scstep>
  <scstep>
   <time name="dav">    1.69    1.70</time>
   <time name="total">    6.42    6.42</time>
   <energy>
    <i name="e_fr_energy">    -17.71644246 </i>
    <i name="e_wo_entrp">    -17.72286776 </i>
    <i name="e_0_energy">    -17.71858423 </i>
   </energy>
  </scstep>
  <scstep>
   <time name="dav">    1.35    1.35</time>
   <time name="total">    5.91    5.92</time>
   <energy>
    <i name="e_fr_energy">    -17.71698093 </i>
    <i name="e_wo_entrp">    -17.72340635 </i>
    <i name="e_0_energy">    -17.71912274 </i>
   </energy>
  </scstep>
  <scstep>
   <time name="dav">    1.64    1.64</time>
   <time name="total">    6.34    6.36</time>
   <energy>
    <i name="e_fr_energy">    -17.71773625 </i>
    <i name="e_wo_entrp">    -17.72416194 </i>
    <i name="e_0_energy">    -17.71987815 </i>
   </energy>
  </scstep>
  <scstep>
   <time name="dav">    1.39    1.39</time>
   <time name="total">    5.90    5.91</time>
   <energy>
    <i name="e_fr_energy">    -17.71795668 </i>
    <i name="e_wo_entrp">    -17.72438184 </i>
    <i name="e_0_energy">    -17.72009840 </i>
   </energy>
  </scstep>
  <scstep>
   <time name="dav">    1.37    1.37</time>
   <time name="total">    6.09    6.10</time>
   <energy>
    <i name="e_fr_energy">    -17.71807880 </i>
    <i name="e_wo_entrp">    -17.72450376 </i>
    <i name="e_0_energy">    -17.72022045 </i>
   </energy>
  </scstep>
  <scstep>
   <time name="dav">    1.40    1.40</time>
   <time name="total">    5.31    5.31</time>
   <energy>
    <i name="alphaZ">     -0.01479023 </i>
    <i name="ewald">    506.94991411 </i>
    <i name="hartreedc">   -784.64253597 </i>
    <i name="XCdc">   -189.19609979 </i>
    <i name="pawpsdc">    784.23570736 </i>
    <i name="pawaedc">   -560.70245717 </i>
    <i name="eentropy">      0.00642496 </i>
    <i name="bandstr">   -149.12134018 </i>
    <i name="atom">    374.76708025 </i>
    <i name="e_fr_energy">    -17.71809666 </i>
    <i name="e_wo_entrp">    -17.72452162 </i>
    <i name="e_0_energy">    -17.72023831 </i>
   </energy>
  </scstep>
  <structure>
   <crystal>
    <varray name="basis" >
     <v>      22.54453563       0.00000000       0.00000000 </v>
     <v>       0.00000000      21.83981355       0.00000000 </v>
     <v>       0.00000000       0.00000000      22.60041050 </v>
    </varray>
    <i name="volume">  11127.72919559 </i>
    <varray name="rec_basis" >
     <v>       0.04435665       0.00000000       0.00000000 </v>
     <v>       0.00000000       0.04578794       0.00000000 </v>
     <v>       0.00000000       0.00000000       0.04424698 </v>
    </varray>
   </crystal>
   <varray name="positions" >
    <v>       0.27099211       0.58636299       0.72157861 </v>
    <v>       0.26996094       0.53900353       0.60937267 </v>
    <v>       0.36717465       0.52606412       0.67977051 </v>
    <v>       0.37729182       0.59430797       0.59118793 </v>
    <v>       0.38026737       0.61567130       0.75587693 </v>
    <v>       0.27265375       0.66006533       0.63584307 </v>
    <v>       0.38144553       0.68459857       0.66328359 </v>
   </varray>
  </structure>
  <varray name="forces" >
   <v>       0.14542240       0.05241622       0.08099969 </v>
   <v>       0.05119507       0.04050168      -0.04161716 </v>
   <v>       0.05854323      -0.08528673       0.11728170 </v>
   <v>      -0.08294463      -0.01952383      -0.14039755 </v>
   <v>      -0.11295238      -0.01470774      -0.05742263 </v>
   <v>       0.03480972       0.06536200      -0.06030386 </v>
   <v>      -0.09407341      -0.03876161       0.10145980 </v>
  </varray>
  <energy>
   <i name="e_fr_energy">    -17.71809666 </i>
   <i name="e_wo_entrp">    -17.72452162 </i>
   <i name="e_0_energy">    -17.72023831 </i>
  </energy>
  <time name="totalsc">  158.48  158.74</time>
 </calculation>
 <calculation>
  <scstep>
   <time name="dav">    1.99    1.99</time>
   <time name="total">    6.56    6.58</time>
   <energy>
    <i name="alphaZ">     -0.01479023 </i>
    <i name="ewald">    507.04976713 </i>
    <i name="hartreedc">   -784.74302224 </i>
    <i name="XCdc">   -189.19433834 </i>
    <i name="pawpsdc">    784.27716526 </i>
    <i name="pawaedc">   -560.74389922 </i>
    <i name="eentropy">      0.00645408 </i>
    <i name="bandstr">   -149.12752908 </i>
    <i name="atom">    374.76708025 </i>
    <i name="e_fr_energy">    -17.72311239 </i>
    <i name="e_wo_entrp">    -17.72956647 </i>
    <i name="e_0_energy">    -17.72526375 </i>
   </energy>
  </scstep>
  <scstep>
   <time name="dav">    2.47    2.47</time>
   <time name="total">    6.94    6.95</time>
   <energy>
    <i name="e_fr_energy">    -17.72328330 </i>
    <i name="e_wo_entrp">    -17.72973338 </i>
    <i name="e_0_energy">    -17.72543333 </i>
   </energy>
  </scstep>
  <scstep>
   <time name="dav">    1.43    1.43</time>
   <time name="total">    5.49    5.50</time>
   <energy>
    <i name="alphaZ">     -0.01479023 </i>
    <i name="ewald">    507.04976713 </i>
    <i name="hartreedc">   -784.74377236 </i>
    <i name="XCdc">   -189.19448909 </i>
    <i name="pawpsdc">    784.23831073 </i>
    <i name="pawaedc">   -560.70485090 </i>
    <i name="eentropy">      0.00645239 </i>
    <i name="bandstr">   -149.12696671 </i>
    <i name="atom">    374.76708025 </i>
    <i name="e_fr_energy">    -17.72325880 </i>
    <i name="e_wo_entrp">    -17.72971119 </i>
    <i name="e_0_energy">    -17.72540960 </i>
   </energy>
  </scstep>
  <structure>
   <crystal>
    <varray name="basis" >
     <v>      22.54453563       0.00000000       0.00000000 </v>
     <v>       0.00000000      21.83981355       0.00000000 </v>
     <v>       0.00000000       0.00000000      22.60041050 </v>
    </varray>
    <i name="volume">  11127.72919559 </i>
    <varray name="rec_basis" >
     <v>       0.04435665       0.00000000       0.00000000 </v>
     <v>       0.00000000       0.04578794       0.00000000 </v>
     <v>       0.00000000       0.00000000       0.04424698 </v>
    </varray>
   </crystal>
   <varray name="positions" >
    <v>       0.27130330       0.58647877       0.72175151 </v>
    <v>       0.27007049       0.53909299       0.60928383 </v>
    <v>       0.36729993       0.52587573       0.68002086 </v>
    <v>       0.37711433       0.59426485       0.59088823 </v>
    <v>       0.38002567       0.61563881       0.75575436 </v>
    <v>       0.27272824       0.66020972       0.63571435 </v>
    <v>       0.38124422       0.68451295       0.66350016 </v>
   </varray>
  </structure>
  <varray name="forces" >
   <v>       0.09713212       0.05120751       0.02804511 </v>
   <v>       0.03962417       0.03651713      -0.01715521 </v>
   <v>       0.04982871      -0.05196132       0.05168931 </v>
   <v>      -0.06617196      -0.02360421      -0.07396547 </v>
   <v>      -0.06712363      -0.00616612      -0.01754230 </v>
   <v>       0.01315930       0.03408354      -0.03750842 </v>
   <v>      -0.06644870      -0.04007653       0.06643698 </v>
  </varray>
  <energy>
   <i name="e_fr_energy">    -17.72325880 </i>
   <i name="e_wo_entrp">    -17.72971119 </i>
   <i name="e_0_energy">    -17.72540960 </i>
  </energy>
  <time name="totalsc">   28.76   28.82</time>
 </calculation>
 <calculation>
  <scstep>
   <time name="dav">    1.67    1.68</time>
   <time name="total">    6.22    6.23</time>
   <energy>
    <i name="alphaZ">     -0.01479023 </i>
    <i name="ewald">    507.21113405 </i>
    <i name="hartreedc">   -784.89898620 </i>
    <i name="XCdc">   -189.19175980 </i>
    <i name="pawpsdc">    784.15532224 </i>
    <i name="pawaedc">   -560.62177763 </i>
    <i name="eentropy">      0.00650634 </i>
    <i name="bandstr">   -149.13843269 </i>
    <i name="atom">    374.76708025 </i>
    <i name="e_fr_energy">    -17.72570366 </i>
    <i name="e_wo_entrp">    -17.73221001 </i>
    <i name="e_0_energy">    -17.72787245 </i>
   </energy>
  </scstep>
  <scstep>
   <time name="dav">    2.45    2.46</time>
   <time name="total">    7.00    7.01</time>
   <energy>
    <i name="e_fr_energy">    -17.72604033 </i>
    <i name="e_wo_entrp">    -17.73254011 </i>
    <i name="e_0_energy">    -17.72820693 </i>
   </energy>
  </scstep>
  <scstep>
   <time name="dav">    1.80    1.80</time>
   <time name="total">    5.49    5.50</time>
   <energy>
    <i name="alphaZ">     -0.01479023 </i>
    <i name="ewald">    507.21113405 </i>
    <i name="hartreedc">   -784.90164393 </i>
    <i name="XCdc">   -189.19183270 </i>
    <i name="pawpsdc">    784.09527801 </i>
    <i name="pawaedc">   -560.56154918 </i>
    <i name="eentropy">      0.00650344 </i>
    <i name="bandstr">   -149.13615576 </i>
    <i name="atom">    374.76708025 </i>
    <i name="e_fr_energy">    -17.72597604 </i>
    <i name="e_wo_entrp">    -17.73247948 </i>
    <i name="e_0_energy">    -17.72814385 </i>
   </energy>
  </scstep>
  <structure>
   <crystal>
    <varray name="basis" >
     <v>      22.54453563       0.00000000       0.00000000 </v>
     <v>       0.00000000      21.83981355       0.00000000 </v>
     <v>       0.00000000       0.00000000      22.60041050 </v>
    </varray>
    <i name="volume">  11127.72919559 </i>
    <varray name="rec_basis" >
     <v>       0.04435665       0.00000000       0.00000000 </v>
     <v>       0.00000000       0.04578794       0.00000000 </v>
     <v>       0.00000000       0.00000000       0.04424698 </v>
    </varray>
   </crystal>
   <varray name="positions" >
    <v>       0.27178293       0.58665723       0.72201800 </v>
    <v>       0.27023934       0.53923088       0.60914691 </v>
    <v>       0.36749301       0.52558536       0.68040672 </v>
    <v>       0.37684077       0.59419837       0.59042633 </v>
    <v>       0.37965313       0.61558873       0.75556544 </v>
    <v>       0.27284305       0.66043225       0.63551595 </v>
    <v>       0.38093395       0.68438098       0.66383397 </v>
   </varray>
  </structure>
  <varray name="forces" >
   <v>       0.01533040       0.04678251      -0.05503150 </v>
   <v>       0.02134701       0.03045392       0.02101974 </v>
   <v>       0.03603091      -0.00306841      -0.04808211 </v>
   <v>      -0.03866781      -0.02867198       0.02653971 </v>
   <v>       0.00950930       0.00829615       0.04748701 </v>
   <v>      -0.02090016      -0.01376603      -0.00336463 </v>
   <v>      -0.02264964      -0.04002617       0.01143177 </v>
  </varray>
  <energy>
   <i name="e_fr_energy">    -17.72597604 </i>
   <i name="e_wo_entrp">    -17.73247948 </i>
   <i name="e_0_energy">    -17.72814385 </i>
  </energy>
  <time name="totalsc">   28.09   28.16</time>
 </calculation>
 <calculation>
  <scstep>
   <time name="dav">    1.90    1.90</time>
   <time name="total">    6.41    6.41</time>
   <energy>
    <i name="alphaZ">     -0.01479023 </i>
    <i name="ewald">    507.71443110 </i>
    <i name="hartreedc">   -785.33100595 </i>
    <i name="XCdc">   -189.18164410 </i>
    <i name="pawpsdc">    784.19379495 </i>
    <i name="pawaedc">   -560.65998381 </i>
    <i name="eentropy">      0.00649434 </i>
    <i name="bandstr">   -149.22123559 </i>
    <i name="atom">    374.76708025 </i>
    <i name="e_fr_energy">    -17.72685903 </i>
    <i name="e_wo_entrp">    -17.73335337 </i>
    <i name="e_0_energy">    -17.72902381 </i>
   </energy>
  </scstep>
  <scstep>
   <time name="dav">    2.17    2.17</time>
   <time name="total">    6.10    6.11</time>
   <energy>
    <i name="alphaZ">     -0.01479023 </i>
    <i name="ewald">    507.71443110 </i>
    <i name="hartreedc">   -785.35648042 </i>
    <i name="XCdc">   -189.18080541 </i>
    <i name="pawpsdc">    784.75240567 </i>
    <i name="pawaedc">   -561.21920814 </i>
    <i name="eentropy">      0.00649669 </i>
    <i name="bandstr">   -149.19598842 </i>
    <i name="atom">    374.76708025 </i>
    <i name="e_fr_energy">    -17.72685890 </i>
    <i name="e_wo_entrp">    -17.73335559 </i>
    <i name="e_0_energy">    -17.72902447 </i>
   </energy>
  </scstep>
  <structure>
   <crystal>
    <varray name="basis" >
     <v>      22.54453563       0.00000000       0.00000000 </v>
     <v>       0.00000000      21.83981355       0.00000000 </v>
     <v>       0.00000000       0.00000000      22.60041050 </v>
    </varray>
    <i name="volume">  11127.72919559 </i>
    <varray name="rec_basis" >
     <v>       0.04435665       0.00000000       0.00000000 </v>
     <v>       0.00000000       0.04578794       0.00000000 </v>
     <v>       0.00000000       0.00000000       0.04424698 </v>
    </varray>
   </crystal>
   <varray name="positions" >
    <v>       0.27189051       0.58681649       0.72190025 </v>
    <v>       0.27032186       0.53933748       0.60918715 </v>
    <v>       0.36761991       0.52553735       0.68032447 </v>
    <v>       0.37669563       0.59410655       0.59043816 </v>
    <v>       0.37962952       0.61560596       0.75567258 </v>
    <v>       0.27280002       0.66042247       0.63547980 </v>
    <v>       0.38082871       0.68424752       0.66391090 </v>
   </varray>
  </structure>
  <varray name="forces" >
   <v>       0.00970879       0.02480295      -0.04168930 </v>
   <v>       0.00762955       0.01725674       0.02302878 </v>
   <v>       0.02449710       0.00523472      -0.02896707 </v>
   <v>      -0.01992019      -0.00848594       0.01349862 </v>
   <v>       0.01614069      -0.00206359       0.05077770 </v>
   <v>      -0.02360841      -0.00064698      -0.01659674 </v>
   <v>      -0.01444752      -0.03609790      -0.00005199 </v>
  </varray>
  <energy>
   <i name="e_fr_energy">    -17.72685890 </i>
   <i name="e_wo_entrp">    -17.73335559 </i>
   <i name="e_0_energy">    -17.72902447 </i>
  </energy>
  <time name="totalsc">   22.38   22.44</time>
 </calculation>
 <calculation>
  <scstep>
   <time name="dav">    1.87    1.88</time>
   <time name="total">    6.43    6.44</time>
   <energy>
    <i name="alphaZ">     -0.01479023 </i>
    <i name="ewald">    508.70466567 </i>
    <i name="hartreedc">   -786.20920970 </i>
    <i name="XCdc">   -189.16036569 </i>
    <i name="pawpsdc">    785.02273464 </i>
    <i name="pawaedc">   -561.48980028 </i>
    <i name="eentropy">      0.00647376 </i>
    <i name="bandstr">   -149.35419707 </i>
    <i name="atom">    374.76708025 </i>
    <i name="e_fr_energy">    -17.72740866 </i>
    <i name="e_wo_entrp">    -17.73388241 </i>
    <i name="e_0_energy">    -17.72956658 </i>
   </energy>
  </scstep>
  <scstep>
   <time name="dav">    2.00    2.01</time>
   <time name="total">    6.60    6.61</time>
   <energy>
    <i name="e_fr_energy">    -17.72741742 </i>
    <i name="e_wo_entrp">    -17.73389251 </i>
    <i name="e_0_energy">    -17.72957578 </i>
   </energy>
  </scstep>
  <scstep>
   <time name="dav">    1.49    1.49</time>
   <time name="total">    5.98    6.00</time>
   <energy>
    <i name="e_fr_energy">    -17.72729751 </i>
    <i name="e_wo_entrp">    -17.73377426 </i>
    <i name="e_0_energy">    -17.72945643 </i>
   </energy>
  </scstep>
  <scstep>
   <time name="dav">    1.35    1.35</time>
   <time name="total">    5.65    5.66</time>
   <energy>
    <i name="e_fr_energy">    -17.72717368 </i>
    <i name="e_wo_entrp">    -17.73365116 </i>
    <i name="e_0_energy">    -17.72933284 </i>
   </energy>
  </scstep>
  <scstep>
   <time name="dav">    1.34    1.34</time>
   <time name="total">    5.27    5.28</time>
   <energy>
    <i name="alphaZ">     -0.01479023 </i>
    <i name="ewald">    508.70466567 </i>
    <i name="hartreedc">   -786.30936571 </i>
    <i name="XCdc">   -189.15581423 </i>
    <i name="pawpsdc">    788.22701837 </i>
    <i name="pawaedc">   -564.69684840 </i>
    <i name="eentropy">      0.00647630 </i>
    <i name="bandstr">   -149.25557168 </i>
    <i name="atom">    374.76708025 </i>
    <i name="e_fr_energy">    -17.72714965 </i>
    <i name="e_wo_entrp">    -17.73362595 </i>
    <i name="e_0_energy">    -17.72930842 </i>
   </energy>
  </scstep>
  <structure>
   <crystal>
    <varray name="basis" >
     <v>      22.54453563       0.00000000       0.00000000 </v>
     <v>       0.00000000      21.83981355       0.00000000 </v>
     <v>       0.00000000       0.00000000      22.60041050 </v>
    </varray>
    <i name="volume">  11127.72919559 </i>
    <varray name="rec_basis" >
     <v>       0.04435665       0.00000000       0.00000000 </v>
     <v>       0.00000000       0.04578794       0.00000000 </v>
     <v>       0.00000000       0.00000000       0.04424698 </v>
    </varray>
   </crystal>
   <varray name="positions" >
    <v>       0.27210178       0.58712922       0.72166903 </v>
    <v>       0.27048392       0.53954681       0.60926617 </v>
    <v>       0.36786911       0.52544305       0.68016297 </v>
    <v>       0.37641062       0.59392625       0.59046140 </v>
    <v>       0.37958316       0.61563978       0.75588297 </v>
    <v>       0.27271552       0.66040327       0.63540882 </v>
    <v>       0.38062204       0.68398543       0.66406197 </v>
   </varray>
  </structure>
  <varray name="forces" >
   <v>       0.00063980      -0.02006769      -0.00831558 </v>
   <v>      -0.02005491      -0.00860081       0.02302787 </v>
   <v>       0.00253838       0.01960312       0.01291725 </v>
   <v>       0.01738023       0.03206567      -0.01793256 </v>
   <v>       0.02773321      -0.02288159       0.05864758 </v>
   <v>      -0.02928793       0.02873065      -0.04670024 </v>
   <v>       0.00105122      -0.02884934      -0.02164432 </v>
  </varray>
  <energy>
   <i name="e_fr_energy">    -17.72714965 </i>
   <i name="e_wo_entrp">    -17.73362595 </i>
   <i name="e_0_energy">    -17.72930842 </i>
  </energy>
  <time name="totalsc">   39.54   39.63</time>
 </calculation>
 <calculation>
  <scstep>
   <time name="dav">    1.70    1.70</time>
   <time name="total">    6.21    6.22</time>
   <energy>
    <i name="alphaZ">     -0.01479023 </i>
    <i name="ewald">    508.61662977 </i>
    <i name="hartreedc">   -786.23463297 </i>
    <i name="XCdc">   -189.15706220 </i>
    <i name="pawpsdc">    788.42728497 </i>
    <i name="pawaedc">   -564.89719097 </i>
    <i name="eentropy">      0.00650865 </i>
    <i name="bandstr">   -149.24202231 </i>
    <i name="atom">    374.76708025 </i>
    <i name="e_fr_energy">    -17.72819504 </i>
    <i name="e_wo_entrp">    -17.73470369 </i>
    <i name="e_0_energy">    -17.73036459 </i>
   </energy>
  </scstep>
  <scstep>
   <time name="dav">    2.40    2.40</time>
   <time name="total">    6.45    6.46</time>
   <energy>
    <i name="alphaZ">     -0.01479023 </i>
    <i name="ewald">    508.61662977 </i>
    <i name="hartreedc">   -786.23080615 </i>
    <i name="XCdc">   -189.15704815 </i>
    <i name="pawpsdc">    788.43464725 </i>
    <i name="pawaedc">   -564.90436738 </i>
    <i name="eentropy">      0.00651035 </i>
    <i name="bandstr">   -149.24607910 </i>
    <i name="atom">    374.76708025 </i>
    <i name="e_fr_energy">    -17.72822338 </i>
    <i name="e_wo_entrp">    -17.73473373 </i>
    <i name="e_0_energy">    -17.73039350 </i>
   </energy>
  </scstep>
  <structure>
   <crystal>
    <varray name="basis" >
     <v>      22.54453563       0.00000000       0.00000000 </v>
     <v>       0.00000000      21.83981355       0.00000000 </v>
     <v>       0.00000000       0.00000000      22.60041050 </v>
    </varray>
    <i name="volume">  11127.72919559 </i>
    <varray name="rec_basis" >
     <v>       0.04435665       0.00000000       0.00000000 </v>
     <v>       0.00000000       0.04578794       0.00000000 </v>
     <v>       0.00000000       0.00000000       0.04424698 </v>
    </varray>
   </crystal>
   <varray name="positions" >
    <v>       0.27220006       0.58719359       0.72153303 </v>
    <v>       0.27048239       0.53960858       0.60938803 </v>
    <v>       0.36799172       0.52547602       0.68013791 </v>
    <v>       0.37634635       0.59396835       0.59040497 </v>
    <v>       0.37966596       0.61556669       0.75619749 </v>
    <v>       0.27256751       0.66050560       0.63520219 </v>
    <v>       0.38053219       0.68375499       0.66404970 </v>
   </varray>
  </structure>
  <varray name="forces" >
   <v>       0.00733577      -0.01369198      -0.00233234 </v>
   <v>      -0.01594930      -0.01251846       0.01870716 </v>
   <v>      -0.00553605       0.03046723       0.01291328 </v>
   <v>       0.02137915       0.02038203      -0.03275317 </v>
   <v>       0.02138136      -0.02106924       0.04808856 </v>
   <v>      -0.02461571       0.02500423      -0.03858152 </v>
   <v>      -0.00399522      -0.02857380      -0.00604197 </v>
  </varray>
  <energy>
   <i name="e_fr_energy">    -17.72822338 </i>
   <i name="e_wo_entrp">    -17.73473373 </i>
   <i name="e_0_energy">    -17.73039350 </i>
  </energy>
  <time name="totalsc">   22.56   22.61</time>
 </calculation>
 <calculation>
  <scstep>
   <time name="dav">    1.77    1.77</time>
   <time name="total">    6.40    6.40</time>
   <energy>
    <i name="alphaZ">     -0.01479023 </i>
    <i name="ewald">    508.34895228 </i>
    <i name="hartreedc">   -785.99985386 </i>
    <i name="XCdc">   -189.16143459 </i>
    <i name="pawpsdc">    788.35954799 </i>
    <i name="pawaedc">   -564.82919487 </i>
    <i name="eentropy">      0.00660640 </i>
    <i name="bandstr">   -149.20640341 </i>
    <i name="atom">    374.76708025 </i>
    <i name="e_fr_energy">    -17.72949003 </i>
    <i name="e_wo_entrp">    -17.73609644 </i>
    <i name="e_0_energy">    -17.73169217 </i>
   </energy>
  </scstep>
  <scstep>
   <time name="dav">    2.03    2.03</time>
   <time name="total">    6.55    6.55</time>
   <energy>
    <i name="e_fr_energy">    -17.72914162 </i>
    <i name="e_wo_entrp">    -17.73573761 </i>
    <i name="e_0_energy">    -17.73134028 </i>
   </energy>
  </scstep>
  <scstep>
   <time name="dav">    1.89    1.89</time>
   <time name="total">    6.51    6.52</time>
   <energy>
    <i name="e_fr_energy">    -17.72812033 </i>
    <i name="e_wo_entrp">    -17.73471174 </i>
    <i name="e_0_energy">    -17.73031747 </i>
   </energy>
  </scstep>
  <scstep>
   <time name="dav">    1.47    1.47</time>
   <time name="total">    6.03    6.04</time>
   <energy>
    <i name="e_fr_energy">    -17.72777618 </i>
    <i name="e_wo_entrp">    -17.73436206 </i>
    <i name="e_0_energy">    -17.72997147 </i>
   </energy>
  </scstep>
  <scstep>
   <time name="dav">    1.45    1.46</time>
   <time name="total">    6.07    6.08</time>
   <energy>
    <i name="e_fr_energy">    -17.72750586 </i>
    <i name="e_wo_entrp">    -17.73408642 </i>
    <i name="e_0_energy">    -17.72969938 </i>
   </energy>
  </scstep>
  <scstep>
   <time name="dav">    1.65    1.65</time>
   <time name="total">    6.26    6.26</time>
   <energy>
    <i name="e_fr_energy">    -17.72785379 </i>
    <i name="e_wo_entrp">    -17.73443411 </i>
    <i name="e_0_energy">    -17.73004723 </i>
   </energy>
  </scstep>
  <scstep>
   <time name="dav">    1.16    1.16</time>
   <time name="total">    5.59    5.60</time>
   <energy>
    <i name="e_fr_energy">    -17.72829147 </i>
    <i name="e_wo_entrp">    -17.73487182 </i>
    <i name="e_0_energy">    -17.73048492 </i>
   </energy>
  </scstep>
  <scstep>
   <time name="dav">    1.53    1.53</time>
   <time name="total">    5.96    5.97</time>
   <energy>
    <i name="e_fr_energy">    -17.72915607 </i>
    <i name="e_wo_entrp">    -17.73573623 </i>
    <i name="e_0_energy">    -17.73134946 </i>
   </energy>
  </scstep>
  <scstep>
   <time name="dav">    1.36    1.36</time>
   <time name="total">    5.85    5.86</time>
   <energy>
    <i name="e_fr_energy">    -17.72971112 </i>
    <i name="e_wo_entrp">    -17.73629082 </i>
    <i name="e_0_energy">    -17.73190435 </i>
   </energy>
  </scstep>
  <scstep>
   <time name="dav">    1.46    1.46</time>
   <time name="total">    6.27    6.28</time>
   <energy>
    <i name="e_fr_energy">    -17.73008129 </i>
    <i name="e_wo_entrp">    -17.73666065 </i>
    <i name="e_0_energy">    -17.73227441 </i>
   </energy>
  </scstep>
  <scstep>
   <time name="dav">    1.63    1.63</time>
   <time name="total">    6.13    6.14</time>
   <energy>
    <i name="e_fr_energy">    -17.73057328 </i>
    <i name="e_wo_entrp">    -17.73715236 </i>
    <i name="e_0_energy">    -17.73276631 </i>
   </energy>
  </scstep>
  <scstep>
   <time name="dav">    1.43    1.43</time>
   <time name="total">    5.60    5.61</time>
   <energy>
    <i name="alphaZ">     -0.01479023 </i>
    <i name="ewald">    508.34895228 </i>
    <i name="hartreedc">   -785.97409070 </i>
    <i name="XCdc">   -189.16226728 </i>
    <i name="pawpsdc">    787.18214695 </i>
    <i name="pawaedc">   -563.65042584 </i>
    <i name="eentropy">      0.00657906 </i>
    <i name="bandstr">   -149.23385323 </i>
    <i name="atom">    374.76708025 </i>
    <i name="e_fr_energy">    -17.73066874 </i>
    <i name="e_wo_entrp">    -17.73724780 </i>
    <i name="e_0_energy">    -17.73286176 </i>
   </energy>
  </scstep>
  <structure>
   <crystal>
    <varray name="basis" >
     <v>      22.54453563       0.00000000       0.00000000 </v>
     <v>       0.00000000      21.83981355       0.00000000 </v>
     <v>       0.00000000       0.00000000      22.60041050 </v>
    </varray>
    <i name="volume">  11127.72919559 </i>
    <varray name="rec_basis" >
     <v>       0.04435665       0.00000000       0.00000000 </v>
     <v>       0.00000000       0.04578794       0.00000000 </v>
     <v>       0.00000000       0.00000000       0.04424698 </v>
    </varray>
   </crystal>
   <varray name="positions" >
    <v>       0.27249490       0.58738670       0.72112503 </v>
    <v>       0.27047777       0.53979386       0.60975364 </v>
    <v>       0.36835953       0.52557493       0.68006274 </v>
    <v>       0.37615353       0.59409465       0.59023568 </v>
    <v>       0.37991435       0.61534743       0.75714108 </v>
    <v>       0.27212349       0.66081259       0.63458228 </v>
    <v>       0.38026261       0.68306364       0.66401287 </v>
   </varray>
  </structure>
  <varray name="forces" >
   <v>       0.02789286       0.00586558       0.01989361 </v>
   <v>      -0.00028172      -0.01604044       0.00292264 </v>
   <v>      -0.03090635       0.06245443       0.01357980 </v>
   <v>       0.03204147      -0.01671614      -0.08203722 </v>
   <v>       0.00247994      -0.01444464       0.01895319 </v>
   <v>      -0.00836053       0.00971596      -0.01413766 </v>
   <v>      -0.02286566      -0.03083474       0.04082564 </v>
  </varray>
  <energy>
   <i name="e_fr_energy">    -17.73066874 </i>
   <i name="e_wo_entrp">    -17.73724780 </i>
   <i name="e_0_energy">    -17.73286176 </i>
  </energy>
  <time name="totalsc">   83.04   83.19</time>
 </calculation>
 <calculation>
  <scstep>
   <time name="dav">    1.49    1.49</time>
   <time name="total">    5.91    5.91</time>
   <energy>
    <i name="alphaZ">     -0.01479023 </i>
    <i name="ewald">    508.20120583 </i>
    <i name="hartreedc">   -785.85033713 </i>
    <i name="XCdc">   -189.16526985 </i>
    <i name="pawpsdc">    787.18759883 </i>
    <i name="pawaedc">   -563.65587757 </i>
    <i name="eentropy">      0.00647262 </i>
    <i name="bandstr">   -149.20861953 </i>
    <i name="atom">    374.76708025 </i>
    <i name="e_fr_energy">    -17.73253678 </i>
    <i name="e_wo_entrp">    -17.73900940 </i>
    <i name="e_0_energy">    -17.73469432 </i>
   </energy>
  </scstep>
  <scstep>
   <time name="dav">    2.39    2.39</time>
   <time name="total">    6.66    6.67</time>
   <energy>
    <i name="e_fr_energy">    -17.73263054 </i>
    <i name="e_wo_entrp">    -17.73912128 </i>
    <i name="e_0_energy">    -17.73479412 </i>
   </energy>
  </scstep>
  <scstep>
   <time name="dav">    1.13    1.13</time>
   <time name="total">    4.98    4.99</time>
   <energy>
    <i name="alphaZ">     -0.01479023 </i>
    <i name="ewald">    508.20120583 </i>
    <i name="hartreedc">   -785.83944631 </i>
    <i name="XCdc">   -189.16560625 </i>
    <i name="pawpsdc">    786.89593023 </i>
    <i name="pawaedc">   -563.36382269 </i>
    <i name="eentropy">      0.00649326 </i>
    <i name="bandstr">   -149.21962100 </i>
    <i name="atom">    374.76708025 </i>
    <i name="e_fr_energy">    -17.73257692 </i>
    <i name="e_wo_entrp">    -17.73907017 </i>
    <i name="e_0_energy">    -17.73474133 </i>
   </energy>
  </scstep>
  <structure>
   <crystal>
    <varray name="basis" >
     <v>      22.54453563       0.00000000       0.00000000 </v>
     <v>       0.00000000      21.83981355       0.00000000 </v>
     <v>       0.00000000       0.00000000      22.60041050 </v>
    </varray>
    <i name="volume">  11127.72919559 </i>
    <varray name="rec_basis" >
     <v>       0.04435665       0.00000000       0.00000000 </v>
     <v>       0.00000000       0.04578794       0.00000000 </v>
     <v>       0.00000000       0.00000000       0.04424698 </v>
    </varray>
   </crystal>
   <varray name="positions" >
    <v>       0.27266200       0.58742297       0.72124391 </v>
    <v>       0.27047608       0.53969467       0.60977110 </v>
    <v>       0.36817438       0.52596115       0.68014389 </v>
    <v>       0.37634548       0.59399128       0.58974543 </v>
    <v>       0.37992920       0.61525810       0.75725434 </v>
    <v>       0.27207340       0.66087267       0.63449779 </v>
    <v>       0.38012563       0.68287296       0.66425684 </v>
   </varray>
  </structure>
  <varray name="forces" >
   <v>      -0.00339940       0.01909878      -0.00830323 </v>
   <v>       0.01069461       0.00486975       0.01209580 </v>
   <v>      -0.00659972       0.04019339      -0.01888456 </v>
   <v>       0.01133038      -0.00501178      -0.02981566 </v>
   <v>       0.02297888      -0.00716481       0.05180768 </v>
   <v>      -0.01106464      -0.00556137      -0.00778991 </v>
   <v>      -0.02394010      -0.04642396       0.00088988 </v>
  </varray>
  <energy>
   <i name="e_fr_energy">    -17.73257692 </i>
   <i name="e_wo_entrp">    -17.73907017 </i>
   <i name="e_0_energy">    -17.73474133 </i>
  </energy>
  <time name="totalsc">   27.49   27.55</time>
 </calculation>
 <calculation>
  <scstep>
   <time name="dav">    1.76    1.76</time>
   <time name="total">    6.20    6.21</time>
   <energy>
    <i name="alphaZ">     -0.01479023 </i>
    <i name="ewald">    508.07874073 </i>
    <i name="hartreedc">   -785.73360180 </i>
    <i name="XCdc">   -189.16804319 </i>
    <i name="pawpsdc">    786.75796431 </i>
    <i name="pawaedc">   -563.22569107 </i>
    <i name="eentropy">      0.00641346 </i>
    <i name="bandstr">   -149.20094835 </i>
    <i name="atom">    374.76708025 </i>
    <i name="e_fr_energy">    -17.73287589 </i>
    <i name="e_wo_entrp">    -17.73928934 </i>
    <i name="e_0_energy">    -17.73501370 </i>
   </energy>
  </scstep>
  <scstep>
   <time name="dav">    2.23    2.23</time>
   <time name="total">    6.74    6.75</time>
   <energy>
    <i name="e_fr_energy">    -17.73287285 </i>
    <i name="e_wo_entrp">    -17.73930065 </i>
    <i name="e_0_energy">    -17.73501545 </i>
   </energy>
  </scstep>
  <scstep>
   <time name="dav">    1.42    1.42</time>
   <time name="total">    5.58    5.59</time>
   <energy>
    <i name="alphaZ">     -0.01479023 </i>
    <i name="ewald">    508.07874073 </i>
    <i name="hartreedc">   -785.72531099 </i>
    <i name="XCdc">   -189.16824414 </i>
    <i name="pawpsdc">    786.51388323 </i>
    <i name="pawaedc">   -562.98127922 </i>
    <i name="eentropy">      0.00642923 </i>
    <i name="bandstr">   -149.20931569 </i>
    <i name="atom">    374.76708025 </i>
    <i name="e_fr_energy">    -17.73280682 </i>
    <i name="e_wo_entrp">    -17.73923605 </i>
    <i name="e_0_energy">    -17.73494990 </i>
   </energy>
  </scstep>
  <structure>
   <crystal>
    <varray name="basis" >
     <v>      22.54453563       0.00000000       0.00000000 </v>
     <v>       0.00000000      21.83981355       0.00000000 </v>
     <v>       0.00000000       0.00000000      22.60041050 </v>
    </varray>
    <i name="volume">  11127.72919559 </i>
    <varray name="rec_basis" >
     <v>       0.04435665       0.00000000       0.00000000 </v>
     <v>       0.00000000       0.04578794       0.00000000 </v>
     <v>       0.00000000       0.00000000       0.04424698 </v>
    </varray>
   </crystal>
   <varray name="positions" >
    <v>       0.27280111       0.58745317       0.72134288 </v>
    <v>       0.27047468       0.53961209       0.60978564 </v>
    <v>       0.36802024       0.52628267       0.68021145 </v>
    <v>       0.37650527       0.59390522       0.58933731 </v>
    <v>       0.37994157       0.61518374       0.75734863 </v>
    <v>       0.27203171       0.66092269       0.63442746 </v>
    <v>       0.38001159       0.68271422       0.66445994 </v>
   </varray>
  </structure>
  <varray name="forces" >
   <v>      -0.03121919       0.03064087      -0.03225856 </v>
   <v>       0.01999005       0.02233292       0.02002203 </v>
   <v>       0.01455866       0.02022654      -0.04789228 </v>
   <v>      -0.00578616       0.00437718       0.01522439 </v>
   <v>       0.04092547      -0.00068117       0.08019992 </v>
   <v>      -0.01324443      -0.01809452      -0.00199488 </v>
   <v>      -0.02522441      -0.05880182      -0.03330062 </v>
  </varray>
  <energy>
   <i name="e_fr_energy">    -17.73280682 </i>
   <i name="e_wo_entrp">    -17.73923605 </i>
   <i name="e_0_energy">    -17.73494990 </i>
  </energy>
  <time name="totalsc">   28.43   28.48</time>
 </calculation>
 <calculation>
  <scstep>
   <time name="dav">    1.89    1.89</time>
   <time name="total">    6.60    6.61</time>
   <energy>
    <i name="alphaZ">     -0.01479023 </i>
    <i name="ewald">    508.20756801 </i>
    <i name="hartreedc">   -785.83063534 </i>
    <i name="XCdc">   -189.16546252 </i>
    <i name="pawpsdc">    786.38212854 </i>
    <i name="pawaedc">   -562.84932887 </i>
    <i name="eentropy">      0.00638110 </i>
    <i name="bandstr">   -149.23684301 </i>
    <i name="atom">    374.76708025 </i>
    <i name="e_fr_energy">    -17.73390208 </i>
    <i name="e_wo_entrp">    -17.74028319 </i>
    <i name="e_0_energy">    -17.73602912 </i>
   </energy>
  </scstep>
  <scstep>
   <time name="dav">    2.27    2.28</time>
   <time name="total">    6.27    6.27</time>
   <energy>
    <i name="alphaZ">     -0.01479023 </i>
    <i name="ewald">    508.20756801 </i>
    <i name="hartreedc">   -785.83895014 </i>
    <i name="XCdc">   -189.16510419 </i>
    <i name="pawpsdc">    786.55104157 </i>
    <i name="pawaedc">   -563.01837373 </i>
    <i name="eentropy">      0.00637923 </i>
    <i name="bandstr">   -149.22873604 </i>
    <i name="atom">    374.76708025 </i>
    <i name="e_fr_energy">    -17.73388527 </i>
    <i name="e_wo_entrp">    -17.74026450 </i>
    <i name="e_0_energy">    -17.73601168 </i>
   </energy>
  </scstep>
  <structure>
   <crystal>
    <varray name="basis" >
     <v>      22.54453563       0.00000000       0.00000000 </v>
     <v>       0.00000000      21.83981355       0.00000000 </v>
     <v>       0.00000000       0.00000000      22.60041050 </v>
    </varray>
    <i name="volume">  11127.72919559 </i>
    <varray name="rec_basis" >
     <v>       0.04435665       0.00000000       0.00000000 </v>
     <v>       0.00000000       0.04578794       0.00000000 </v>
     <v>       0.00000000       0.00000000       0.04424698 </v>
    </varray>
   </crystal>
   <varray name="positions" >
    <v>       0.27280443       0.58756367       0.72131676 </v>
    <v>       0.27053088       0.53962304       0.60985240 </v>
    <v>       0.36795930       0.52655627       0.68011986 </v>
    <v>       0.37659506       0.59386088       0.58910917 </v>
    <v>       0.38006677       0.61513225       0.75764002 </v>
    <v>       0.27196611       0.66090259       0.63437498 </v>
    <v>       0.37986362       0.68243512       0.66450013 </v>
   </varray>
  </structure>
  <varray name="forces" >
   <v>      -0.02183514       0.02712761      -0.02610098 </v>
   <v>       0.02308929       0.02779234       0.01881688 </v>
   <v>       0.02270802       0.00822102      -0.03447226 </v>
   <v>      -0.01528459       0.00950331       0.01282310 </v>
   <v>       0.03392056      -0.00531218       0.07818145 </v>
   <v>      -0.02070202      -0.00906057      -0.01549532 </v>
   <v>      -0.02189612      -0.05827153      -0.03375287 </v>
  </varray>
  <energy>
   <i name="e_fr_energy">    -17.73388527 </i>
   <i name="e_wo_entrp">    -17.74026450 </i>
   <i name="e_0_energy">    -17.73601168 </i>
  </energy>
  <time name="totalsc">   22.20   22.25</time>
 </calculation>
 <calculation>
  <scstep>
   <time name="dav">    1.69    1.69</time>
   <time name="total">    6.13    6.13</time>
   <energy>
    <i name="alphaZ">     -0.01479023 </i>
    <i name="ewald">    508.59016680 </i>
    <i name="hartreedc">   -786.16136173 </i>
    <i name="XCdc">   -189.15617166 </i>
    <i name="pawpsdc">    786.56110402 </i>
    <i name="pawaedc">   -563.02848037 </i>
    <i name="eentropy">      0.00625501 </i>
    <i name="bandstr">   -149.29964348 </i>
    <i name="atom">    374.76708025 </i>
    <i name="e_fr_energy">    -17.73584138 </i>
    <i name="e_wo_entrp">    -17.74209639 </i>
    <i name="e_0_energy">    -17.73792639 </i>
   </energy>
  </scstep>
  <scstep>
   <time name="dav">    2.21    2.21</time>
   <time name="total">    6.66    6.67</time>
   <energy>
    <i name="e_fr_energy">    -17.73557170 </i>
    <i name="e_wo_entrp">    -17.74181272 </i>
    <i name="e_0_energy">    -17.73765204 </i>
   </energy>
  </scstep>
  <scstep>
   <time name="dav">    2.08    2.08</time>
   <time name="total">    6.62    6.63</time>
   <energy>
    <i name="e_fr_energy">    -17.73463566 </i>
    <i name="e_wo_entrp">    -17.74087510 </i>
    <i name="e_0_energy">    -17.73671547 </i>
   </energy>
  </scstep>
  <scstep>
   <time name="dav">    1.51    1.51</time>
   <time name="total">    5.95    5.95</time>
   <energy>
    <i name="e_fr_energy">    -17.73433441 </i>
    <i name="e_wo_entrp">    -17.74057132 </i>
    <i name="e_0_energy">    -17.73641338 </i>
   </energy>
  </scstep>
  <scstep>
   <time name="dav">    1.30    1.30</time>
   <time name="total">    5.60    5.61</time>
   <energy>
    <i name="e_fr_energy">    -17.73412712 </i>
    <i name="e_wo_entrp">    -17.74036094 </i>
    <i name="e_0_energy">    -17.73620506 </i>
   </energy>
  </scstep>
  <scstep>
   <time name="dav">    1.65    1.65</time>
   <time name="total">    6.09    6.10</time>
   <energy>
    <i name="e_fr_energy">    -17.73446992 </i>
    <i name="e_wo_entrp">    -17.74070249 </i>
    <i name="e_0_energy">    -17.73654744 </i>
   </energy>
  </scstep>
  <scstep>
   <time name="dav">    1.17    1.17</time>
   <time name="total">    5.64    5.65</time>
   <energy>
    <i name="e_fr_energy">    -17.73487742 </i>
    <i name="e_wo_entrp">    -17.74110941 </i>
    <i name="e_0_energy">    -17.73695475 </i>
   </energy>
  </scstep>
  <scstep>
   <time name="dav">    1.67    1.67</time>
   <time name="total">    6.41    6.42</time>
   <energy>
    <i name="e_fr_energy">    -17.73574170 </i>
    <i name="e_wo_entrp">    -17.74197268 </i>
    <i name="e_0_energy">    -17.73781870 </i>
   </energy>
  </scstep>
  <scstep>
   <time name="dav">    1.57    1.57</time>
   <time name="total">    6.15    6.16</time>
   <energy>
    <i name="e_fr_energy">    -17.73621296 </i>
    <i name="e_wo_entrp">    -17.74244329 </i>
    <i name="e_0_energy">    -17.73828974 </i>
   </energy>
  </scstep>
  <scstep>
   <time name="dav">    1.39    1.40</time>
   <time name="total">    6.11    6.12</time>
   <energy>
    <i name="e_fr_energy">    -17.73658009 </i>
    <i name="e_wo_entrp">    -17.74281012 </i>
    <i name="e_0_energy">    -17.73865677 </i>
   </energy>
  </scstep>
  <scstep>
   <time name="dav">    1.60    1.60</time>
   <time name="total">    6.03    6.04</time>
   <energy>
    <i name="e_fr_energy">    -17.73693620 </i>
    <i name="e_wo_entrp">    -17.74316607 </i>
    <i name="e_0_energy">    -17.73901283 </i>
   </energy>
  </scstep>
  <scstep>
   <time name="dav">    1.36    1.36</time>
   <time name="total">    6.00    6.01</time>
   <energy>
    <i name="e_fr_energy">    -17.73710861 </i>
    <i name="e_wo_entrp">    -17.74333847 </i>
    <i name="e_0_energy">    -17.73918523 </i>
   </energy>
  </scstep>
  <scstep>
   <time name="dav">    1.39    1.39</time>
   <time name="total">    5.81    5.82</time>
   <energy>
    <i name="e_fr_energy">    -17.73721706 </i>
    <i name="e_wo_entrp">    -17.74344693 </i>
    <i name="e_0_energy">    -17.73929369 </i>
   </energy>
  </scstep>
  <scstep>
   <time name="dav">    1.34    1.34</time>
   <time name="total">    5.33    5.34</time>
   <energy>
    <i name="alphaZ">     -0.01479023 </i>
    <i name="ewald">    508.59016680 </i>
    <i name="hartreedc">   -786.21696989 </i>
    <i name="XCdc">   -189.15394975 </i>
    <i name="pawpsdc">    787.60305731 </i>
    <i name="pawaedc">   -564.07127097 </i>
    <i name="eentropy">      0.00622990 </i>
    <i name="bandstr">   -149.24683821 </i>
    <i name="atom">    374.76708025 </i>
    <i name="e_fr_energy">    -17.73728479 </i>
    <i name="e_wo_entrp">    -17.74351469 </i>
    <i name="e_0_energy">    -17.73936142 </i>
   </energy>
  </scstep>
  <structure>
   <crystal>
    <varray name="basis" >
     <v>      22.54453563       0.00000000       0.00000000 </v>
     <v>       0.00000000      21.83981355       0.00000000 </v>
     <v>       0.00000000       0.00000000      22.60041050 </v>
    </varray>
    <i name="volume">  11127.72919559 </i>
    <varray name="rec_basis" >
     <v>       0.04435665       0.00000000       0.00000000 </v>
     <v>       0.00000000       0.04578794       0.00000000 </v>
     <v>       0.00000000       0.00000000       0.04424698 </v>
    </varray>
   </crystal>
   <varray name="positions" >
    <v>       0.27281441       0.58789515       0.72123838 </v>
    <v>       0.27069948       0.53965588       0.61005268 </v>
    <v>       0.36777647       0.52737707       0.67984507 </v>
    <v>       0.37686440       0.59372785       0.58842476 </v>
    <v>       0.38044238       0.61497779       0.75851420 </v>
    <v>       0.27176932       0.66084227       0.63421753 </v>
    <v>       0.37941972       0.68159780       0.66462070 </v>
   </varray>
  </structure>
  <varray name="forces" >
   <v>       0.00826111       0.01501730      -0.00312852 </v>
   <v>       0.03295199       0.04706413       0.01173045 </v>
   <v>       0.04946519      -0.03019256       0.01354328 </v>
   <v>      -0.04482727       0.02473764       0.00239529 </v>
   <v>       0.01235896      -0.02109881       0.06783839 </v>
   <v>      -0.04540994       0.02162508      -0.06004767 </v>
   <v>      -0.01280003      -0.05715277      -0.03233121 </v>
  </varray>
  <energy>
   <i name="e_fr_energy">    -17.73728479 </i>
   <i name="e_wo_entrp">    -17.74351469 </i>
   <i name="e_0_energy">    -17.73936142 </i>
  </energy>
  <time name="totalsc">   94.35   94.51</time>
 </calculation>
 <calculation>
  <scstep>
   <time name="dav">    1.67    1.68</time>
   <time name="total">    5.94    5.96</time>
   <energy>
    <i name="alphaZ">     -0.01479023 </i>
    <i name="ewald">    509.33908929 </i>
    <i name="hartreedc">   -786.83235301 </i>
    <i name="XCdc">   -189.13675227 </i>
    <i name="pawpsdc">    787.61057361 </i>
    <i name="pawaedc">   -564.07878755 </i>
    <i name="eentropy">      0.00606244 </i>
    <i name="bandstr">   -149.39530350 </i>
    <i name="atom">    374.76708025 </i>
    <i name="e_fr_energy">    -17.73518097 </i>
    <i name="e_wo_entrp">    -17.74124342 </i>
    <i name="e_0_energy">    -17.73720179 </i>
   </energy>
  </scstep>
  <scstep>
   <time name="dav">    1.91    1.91</time>
   <time name="total">    6.26    6.27</time>
   <energy>
    <i name="e_fr_energy">    -17.73661888 </i>
    <i name="e_wo_entrp">    -17.74264997 </i>
    <i name="e_0_energy">    -17.73862924 </i>
   </energy>
  </scstep>
  <scstep>
   <time name="dav">    2.11    2.12</time>
   <time name="total">    6.53    6.54</time>
   <energy>
    <i name="e_fr_energy">    -17.73474907 </i>
    <i name="e_wo_entrp">    -17.74077839 </i>
    <i name="e_0_energy">    -17.73675885 </i>
   </energy>
  </scstep>
  <scstep>
   <time name="dav">    1.88    1.88</time>
   <time name="total">    6.54    6.56</time>
   <energy>
    <i name="e_fr_energy">    -17.73418685 </i>
    <i name="e_wo_entrp">    -17.74021531 </i>
    <i name="e_0_energy">    -17.73619633 </i>
   </energy>
  </scstep>
  <scstep>
   <time name="dav">    1.99    2.00</time>
   <time name="total">    6.60    6.61</time>
   <energy>
    <i name="e_fr_energy">    -17.73370493 </i>
    <i name="e_wo_entrp">    -17.73973205 </i>
    <i name="e_0_energy">    -17.73571397 </i>
   </energy>
  </scstep>
  <scstep>
   <time name="dav">    1.89    1.89</time>
   <time name="total">    6.46    6.48</time>
   <energy>
    <i name="e_fr_energy">    -17.73399263 </i>
    <i name="e_wo_entrp">    -17.74001841 </i>
    <i name="e_0_energy">    -17.73600122 </i>
   </energy>
  </scstep>
  <scstep>
   <time name="dav">    1.54    1.54</time>
   <time name="total">    6.05    6.05</time>
   <energy>
    <i name="e_fr_energy">    -17.73446951 </i>
    <i name="e_wo_entrp">    -17.74049477 </i>
    <i name="e_0_energy">    -17.73647793 </i>
   </energy>
  </scstep>
  <scstep>
   <time name="dav">    1.59    1.59</time>
   <time name="total">    6.10    6.11</time>
   <energy>
    <i name="e_fr_energy">    -17.73561406 </i>
    <i name="e_wo_entrp">    -17.74163841 </i>
    <i name="e_0_energy">    -17.73762218 </i>
   </energy>
  </scstep>
  <scstep>
   <time name="dav">    1.62    1.63</time>
   <time name="total">    6.13    6.14</time>
   <energy>
    <i name="e_fr_energy">    -17.73639777 </i>
    <i name="e_wo_entrp">    -17.74242141 </i>
    <i name="e_0_energy">    -17.73840565 </i>
   </energy>
  </scstep>
  <scstep>
   <time name="dav">    1.13    1.13</time>
   <time name="total">    5.72    5.73</time>
   <energy>
    <i name="e_fr_energy">    -17.73690236 </i>
    <i name="e_wo_entrp">    -17.74292567 </i>
    <i name="e_0_energy">    -17.73891013 </i>
   </energy>
  </scstep>
  <scstep>
   <time name="dav">    1.63    1.64</time>
   <time name="total">    6.30    6.31</time>
   <energy>
    <i name="e_fr_energy">    -17.73744576 </i>
    <i name="e_wo_entrp">    -17.74346889 </i>
    <i name="e_0_energy">    -17.73945347 </i>
   </energy>
  </scstep>
  <scstep>
   <time name="dav">    1.17    1.17</time>
   <time name="total">    5.57    5.58</time>
   <energy>
    <i name="e_fr_energy">    -17.73773324 </i>
    <i name="e_wo_entrp">    -17.74375637 </i>
    <i name="e_0_energy">    -17.73974095 </i>
   </energy>
  </scstep>
  <scstep>
   <time name="dav">    1.38    1.38</time>
   <time name="total">    5.87    5.88</time>
   <energy>
    <i name="e_fr_energy">    -17.73787522 </i>
    <i name="e_wo_entrp">    -17.74389834 </i>
    <i name="e_0_energy">    -17.73988293 </i>
   </energy>
  </scstep>
  <scstep>
   <time name="dav">    1.23    1.24</time>
   <time name="total">    5.66    5.66</time>
   <energy>
    <i name="e_fr_energy">    -17.73799223 </i>
    <i name="e_wo_entrp">    -17.74401535 </i>
    <i name="e_0_energy">    -17.73999994 </i>
   </energy>
  </scstep>
  <scstep>
   <time name="dav">    1.35    1.35</time>
   <time name="total">    5.37    5.38</time>
   <energy>
    <i name="alphaZ">     -0.01479023 </i>
    <i name="ewald">    509.33908929 </i>
    <i name="hartreedc">   -786.94976627 </i>
    <i name="XCdc">   -189.13206367 </i>
    <i name="pawpsdc">    789.69870377 </i>
    <i name="pawaedc">   -566.16842627 </i>
    <i name="eentropy">      0.00602315 </i>
    <i name="bandstr">   -149.28391585 </i>
    <i name="atom">    374.76708025 </i>
    <i name="e_fr_energy">    -17.73806583 </i>
    <i name="e_wo_entrp">    -17.74408898 </i>
    <i name="e_0_energy">    -17.74007355 </i>
   </energy>
  </scstep>
  <structure>
   <crystal>
    <varray name="basis" >
     <v>      22.54453563       0.00000000       0.00000000 </v>
     <v>       0.00000000      21.83981355       0.00000000 </v>
     <v>       0.00000000       0.00000000      22.60041050 </v>
    </varray>
    <i name="volume">  11127.72919559 </i>
    <varray name="rec_basis" >
     <v>       0.04435665       0.00000000       0.00000000 </v>
     <v>       0.00000000       0.04578794       0.00000000 </v>
     <v>       0.00000000       0.00000000       0.04424698 </v>
    </varray>
   </crystal>
   <varray name="positions" >
    <v>       0.27283435       0.58855811       0.72108164 </v>
    <v>       0.27103668       0.53972157       0.61045323 </v>
    <v>       0.36741082       0.52901867       0.67929549 </v>
    <v>       0.37740310       0.59346179       0.58705594 </v>
    <v>       0.38119358       0.61466887       0.76026256 </v>
    <v>       0.27137574       0.66072163       0.63390263 </v>
    <v>       0.37853191       0.67992316       0.66486183 </v>
   </varray>
  </structure>
  <varray name="forces" >
   <v>       0.05877161      -0.00798964       0.04906955 </v>
   <v>       0.04886463       0.08188147      -0.00385970 </v>
   <v>       0.11401050      -0.10652126       0.11473546 </v>
   <v>      -0.10799738       0.05615043      -0.01515334 </v>
   <v>      -0.03465542      -0.05397943       0.03149745 </v>
   <v>      -0.09303468       0.08028162      -0.15167019 </v>
   <v>       0.01404075      -0.04982319      -0.02461923 </v>
  </varray>
  <energy>
   <i name="e_fr_energy">    -17.73806583 </i>
   <i name="e_wo_entrp">    -17.74408898 </i>
   <i name="e_0_energy">    -17.74007355 </i>
  </energy>
  <time name="totalsc">  100.82  101.01</time>
 </calculation>
 <calculation>
  <scstep>
   <time name="dav">    1.95    1.95</time>
   <time name="total">    6.63    6.64</time>
   <energy>
    <i name="alphaZ">     -0.01479023 </i>
    <i name="ewald">    508.56614696 </i>
    <i name="hartreedc">   -786.31060454 </i>
    <i name="XCdc">   -189.14737461 </i>
    <i name="pawpsdc">    789.70364555 </i>
    <i name="pawaedc">   -566.17336919 </i>
    <i name="eentropy">      0.00608375 </i>
    <i name="bandstr">   -149.14086831 </i>
    <i name="atom">    374.76708025 </i>
    <i name="e_fr_energy">    -17.74405038 </i>
    <i name="e_wo_entrp">    -17.75013413 </i>
    <i name="e_0_energy">    -17.74607830 </i>
   </energy>
  </scstep>
  <scstep>
   <time name="dav">    2.39    2.40</time>
   <time name="total">    6.90    6.91</time>
   <energy>
    <i name="e_fr_energy">    -17.74418550 </i>
    <i name="e_wo_entrp">    -17.75026664 </i>
    <i name="e_0_energy">    -17.74621254 </i>
   </energy>
  </scstep>
  <scstep>
   <time name="dav">    1.71    1.72</time>
   <time name="total">    6.25    6.26</time>
   <energy>
    <i name="e_fr_energy">    -17.74390831 </i>
    <i name="e_wo_entrp">    -17.74999167 </i>
    <i name="e_0_energy">    -17.74593610 </i>
   </energy>
  </scstep>
  <scstep>
   <time name="dav">    1.67    1.67</time>
   <time name="total">    6.09    6.10</time>
   <energy>
    <i name="e_fr_energy">    -17.74367997 </i>
    <i name="e_wo_entrp">    -17.74976555 </i>
    <i name="e_0_energy">    -17.74570850 </i>
   </energy>
  </scstep>
  <scstep>
   <time name="dav">    1.38    1.38</time>
   <time name="total">    5.45    5.46</time>
   <energy>
    <i name="alphaZ">     -0.01479023 </i>
    <i name="ewald">    508.56614696 </i>
    <i name="hartreedc">   -786.22365036 </i>
    <i name="XCdc">   -189.15015989 </i>
    <i name="pawpsdc">    787.11566101 </i>
    <i name="pawaedc">   -563.58261107 </i>
    <i name="eentropy">      0.00608624 </i>
    <i name="bandstr">   -149.22745128 </i>
    <i name="atom">    374.76708025 </i>
    <i name="e_fr_energy">    -17.74368837 </i>
    <i name="e_wo_entrp">    -17.74977461 </i>
    <i name="e_0_energy">    -17.74571711 </i>
   </energy>
  </scstep>
  <structure>
   <crystal>
    <varray name="basis" >
     <v>      22.54453563       0.00000000       0.00000000 </v>
     <v>       0.00000000      21.83981355       0.00000000 </v>
     <v>       0.00000000       0.00000000      22.60041050 </v>
    </varray>
    <i name="volume">  11127.72919559 </i>
    <varray name="rec_basis" >
     <v>       0.04435665       0.00000000       0.00000000 </v>
     <v>       0.00000000       0.04578794       0.00000000 </v>
     <v>       0.00000000       0.00000000       0.04424698 </v>
    </varray>
   </crystal>
   <varray name="positions" >
    <v>       0.27302213       0.58853176       0.72123803 </v>
    <v>       0.27119281       0.53999163       0.61044093 </v>
    <v>       0.36777508       0.52866735       0.67966117 </v>
    <v>       0.37705804       0.59364699       0.58700764 </v>
    <v>       0.38108286       0.61449084       0.76036295 </v>
    <v>       0.27107849       0.66098641       0.63341923 </v>
    <v>       0.37857677       0.67975883       0.66478337 </v>
   </varray>
  </structure>
  <varray name="forces" >
   <v>       0.04338442       0.02598391      -0.02577627 </v>
   <v>       0.04985857       0.06498559       0.01858078 </v>
   <v>       0.07129416      -0.05443288       0.02600138 </v>
   <v>      -0.08252636       0.00841103       0.00930796 </v>
   <v>      -0.00978784      -0.02531167       0.05341041 </v>
   <v>      -0.05631424       0.03076168      -0.06980694 </v>
   <v>      -0.01590871      -0.05039767      -0.01171730 </v>
  </varray>
  <energy>
   <i name="e_fr_energy">    -17.74368837 </i>
   <i name="e_wo_entrp">    -17.74977461 </i>
   <i name="e_0_energy">    -17.74571711 </i>
  </energy>
  <time name="totalsc">   40.77   40.84</time>
 </calculation>
 <calculation>
  <scstep>
   <time name="dav">    1.89    1.89</time>
   <time name="total">    6.08    6.08</time>
   <energy>
    <i name="alphaZ">     -0.01479023 </i>
    <i name="ewald">    507.73781820 </i>
    <i name="hartreedc">   -785.53243034 </i>
    <i name="XCdc">   -189.16691525 </i>
    <i name="pawpsdc">    786.96218451 </i>
    <i name="pawaedc">   -563.42905347 </i>
    <i name="eentropy">      0.00616626 </i>
    <i name="bandstr">   -149.07586303 </i>
    <i name="atom">    374.76708025 </i>
    <i name="e_fr_energy">    -17.74580310 </i>
    <i name="e_wo_entrp">    -17.75196936 </i>
    <i name="e_0_energy">    -17.74785852 </i>
   </energy>
  </scstep>
  <scstep>
   <time name="dav">    2.03    2.03</time>
   <time name="total">    6.48    6.49</time>
   <energy>
    <i name="e_fr_energy">    -17.74588935 </i>
    <i name="e_wo_entrp">    -17.75205165 </i>
    <i name="e_0_energy">    -17.74794345 </i>
   </energy>
  </scstep>
  <scstep>
   <time name="dav">    1.79    1.79</time>
   <time name="total">    6.36    6.37</time>
   <energy>
    <i name="e_fr_energy">    -17.74553228 </i>
    <i name="e_wo_entrp">    -17.75169781 </i>
    <i name="e_0_energy">    -17.74758745 </i>
   </energy>
  </scstep>
  <scstep>
   <time name="dav">    1.35    1.35</time>
   <time name="total">    5.95    5.96</time>
   <energy>
    <i name="e_fr_energy">    -17.74532661 </i>
    <i name="e_wo_entrp">    -17.75149485 </i>
    <i name="e_0_energy">    -17.74738269 </i>
   </energy>
  </scstep>
  <scstep>
   <time name="dav">    1.48    1.48</time>
   <time name="total">    5.52    5.53</time>
   <energy>
    <i name="alphaZ">     -0.01479023 </i>
    <i name="ewald">    507.73781820 </i>
    <i name="hartreedc">   -785.43603216 </i>
    <i name="XCdc">   -189.16984171 </i>
    <i name="pawpsdc">    784.26566174 </i>
[...]
       <r>    -2.9960     3.7502    13.5659 </r>
       <r>    -2.9443     3.6588    13.7553 </r>
       <r>    -2.8925     2.8797    13.9043 </r>
       <r>    -2.8408     1.7094    13.9928 </r>
       <r>    -2.7890     0.6049    14.0241 </r>
       <r>    -2.7373    -0.1588    14.0158 </r>
       <r>    -2.6855    -0.5566    13.9870 </r>
       <r>    -2.6338    -0.6296    13.9545 </r>
       <r>    -2.5820    -0.2799    13.9400 </r>
       <r>    -2.5303     0.7415    13.9784 </r>
       <r>    -2.4785     2.5907    14.1124 </r>
       <r>    -2.4268     4.9982    14.3711 </r>
       <r>    -2.3750     7.1771    14.7425 </r>
       <r>    -2.3233     8.1831    15.1660 </r>
       <r>    -2.2715     7.5287    15.5556 </r>
       <r>    -2.2198     5.5372    15.8421 </r>
       <r>    -2.1680     3.1087    16.0030 </r>
       <r>    -2.1163     1.1158    16.0608 </r>
       <r>    -2.0645    -0.0527    16.0580 </r>
       <r>    -2.0128    -0.5087    16.0317 </r>
       <r>    -1.9610    -0.5706    16.0022 </r>
       <r>    -1.9093    -0.4612    15.9783 </r>
       <r>    -1.8575    -0.1827    15.9689 </r>
       <r>    -1.8057     0.4128    15.9902 </r>
       <r>    -1.7540     1.4224    16.0638 </r>
       <r>    -1.7022     2.6905    16.2031 </r>
       <r>    -1.6505     3.7782    16.3986 </r>
       <r>    -1.5987     4.1916    16.6155 </r>
       <r>    -1.5470     3.7236    16.8082 </r>
       <r>    -1.4952     2.6110    16.9433 </r>
       <r>    -1.4435     1.3597    17.0137 </r>
       <r>    -1.3917     0.4050    17.0346 </r>
       <r>    -1.3400    -0.1033    17.0293 </r>
       <r>    -1.2882    -0.2704    17.0153 </r>
       <r>    -1.2365    -0.2881    17.0004 </r>
       <r>    -1.1847    -0.2879    16.9855 </r>
       <r>    -1.1330    -0.2735    16.9713 </r>
       <r>    -1.0812    -0.1192    16.9652 </r>
       <r>    -1.0295     0.3666    16.9841 </r>
       <r>    -0.9777     1.2984    17.0513 </r>
       <r>    -0.9260     2.5428    17.1829 </r>
       <r>    -0.8742     3.6765    17.3732 </r>
       <r>    -0.8225     4.1889    17.5900 </r>
       <r>    -0.7707     3.8220    17.7878 </r>
       <r>    -0.7190     2.7622    17.9307 </r>
       <r>    -0.6672     1.5012    18.0084 </r>
       <r>    -0.6155     0.5003    18.0343 </r>
       <r>    -0.5637    -0.0490    18.0317 </r>
       <r>    -0.5120    -0.2203    18.0203 </r>
       <r>    -0.4602    -0.1937    18.0103 </r>
       <r>    -0.4085    -0.1157    18.0043 </r>
       <r>    -0.3567    -0.0540    18.0015 </r>
       <r>    -0.3050    -0.0207    18.0005 </r>
       <r>    -0.2532    -0.0066    18.0001 </r>
       <r>    -0.2015    -0.0018    18.0000 </r>
       <r>    -0.1497    -0.0004    18.0000 </r>
       <r>    -0.0980    -0.0001    18.0000 </r>
       <r>    -0.0462    -0.0000    18.0000 </r>
       <r>     0.0055    -0.0000    18.0000 </r>
       <r>     0.0573    -0.0000    18.0000 </r>
       <r>     0.1090    -0.0000    18.0000 </r>
       <r>     0.1608    -0.0000    18.0000 </r>
       <r>     0.2125    -0.0000    18.0000 </r>
       <r>     0.2643    -0.0000    18.0000 </r>
       <r>     0.3160    -0.0000    18.0000 </r>
       <r>     0.3678    -0.0000    18.0000 </r>
       <r>     0.4195    -0.0000    18.0000 </r>
       <r>     0.4713     0.0000    18.0000 </r>
       <r>     0.5230     0.0000    18.0000 </r>
       <r>     0.5748     0.0000    18.0000 </r>
       <r>     0.6265     0.0000    18.0000 </r>
       <r>     0.6783     0.0000    18.0000 </r>
       <r>     0.7300     0.0000    18.0000 </r>
       <r>     0.7818     0.0000    18.0000 </r>
       <r>     0.8335     0.0000    18.0000 </r>
       <r>     0.8853     0.0000    18.0000 </r>
       <r>     0.9370     0.0000    18.0000 </r>
       <r>     0.9888     0.0000    18.0000 </r>
       <r>     1.0405     0.0000    18.0000 </r>
       <r>     1.0923     0.0000    18.0000 </r>
       <r>     1.1440     0.0000    18.0000 </r>
       <r>     1.1958     0.0000    18.0000 </r>
      </set>
      <set comment="spin 2">
       <r>   -14.3294     0.0000     0.0000 </r>
       <r>   -14.2776     0.0000     0.0000 </r>
       <r>   -14.2259     0.0000     0.0000 </r>
       <r>   -14.1741     0.0000     0.0000 </r>
       <r>   -14.1224     0.0000     0.0000 </r>
       <r>   -14.0706     0.0000     0.0000 </r>
       <r>   -14.0189     0.0000     0.0000 </r>
       <r>   -13.9671     0.0000     0.0000 </r>
       <r>   -13.9154     0.0000     0.0000 </r>
       <r>   -13.8636    -0.0000    -0.0000 </r>
       <r>   -13.8119    -0.0000    -0.0000 </r>
       <r>   -13.7601    -0.0000    -0.0000 </r>
       <r>   -13.7084    -0.0000    -0.0000 </r>
       <r>   -13.6566    -0.0000    -0.0000 </r>
       <r>   -13.6049    -0.0000    -0.0000 </r>
       <r>   -13.5531    -0.0000    -0.0000 </r>
       <r>   -13.5014    -0.0000    -0.0000 </r>
       <r>   -13.4496    -0.0000    -0.0000 </r>
       <r>   -13.3979    -0.0000    -0.0000 </r>
       <r>   -13.3461    -0.0000    -0.0000 </r>
       <r>   -13.2944    -0.0000    -0.0000 </r>
       <r>   -13.2426    -0.0000    -0.0000 </r>
       <r>   -13.1908    -0.0000    -0.0000 </r>
       <r>   -13.1391    -0.0000    -0.0000 </r>
       <r>   -13.0873    -0.0000    -0.0000 </r>
       <r>   -13.0356    -0.0000    -0.0000 </r>
       <r>   -12.9838    -0.0000    -0.0000 </r>
       <r>   -12.9321    -0.0000    -0.0000 </r>
       <r>   -12.8803    -0.0002    -0.0000 </r>
       <r>   -12.8286    -0.0011    -0.0001 </r>
       <r>   -12.7768    -0.0042    -0.0003 </r>
       <r>   -12.7251    -0.0138    -0.0010 </r>
       <r>   -12.6733    -0.0386    -0.0030 </r>
       <r>   -12.6216    -0.0893    -0.0076 </r>
       <r>   -12.5698    -0.1653    -0.0162 </r>
       <r>   -12.5181    -0.2241    -0.0278 </r>
       <r>   -12.4663    -0.1480    -0.0354 </r>
       <r>   -12.4146     0.2419    -0.0229 </r>
       <r>   -12.3628     1.0798     0.0330 </r>
       <r>   -12.3111     2.2859     0.1513 </r>
       <r>   -12.2593     3.4844     0.3316 </r>
       <r>   -12.2076     4.1545     0.5466 </r>
       <r>   -12.1558     3.9633     0.7517 </r>
       <r>   -12.1041     3.0082     0.9074 </r>
       <r>   -12.0523     1.7447     0.9976 </r>
       <r>   -12.0006     0.6663     1.0321 </r>
       <r>   -11.9488     0.0258     1.0335 </r>
       <r>   -11.8971    -0.2077     1.0227 </r>
       <r>   -11.8453    -0.2068     1.0120 </r>
       <r>   -11.7936    -0.1311     1.0052 </r>
       <r>   -11.7418    -0.0640     1.0019 </r>
       <r>   -11.6901    -0.0254     1.0006 </r>
       <r>   -11.6383    -0.0085     1.0002 </r>
       <r>   -11.5866    -0.0024     1.0000 </r>
       <r>   -11.5348    -0.0006     1.0000 </r>
       <r>   -11.4831    -0.0001     1.0000 </r>
       <r>   -11.4313    -0.0000     1.0000 </r>
       <r>   -11.3796    -0.0000     1.0000 </r>
       <r>   -11.3278    -0.0000     1.0000 </r>
       <r>   -11.2761    -0.0000     1.0000 </r>
       <r>   -11.2243    -0.0000     1.0000 </r>
       <r>   -11.1726    -0.0000     1.0000 </r>
       <r>   -11.1208    -0.0000     1.0000 </r>
       <r>   -11.0691    -0.0000     1.0000 </r>
       <r>   -11.0173    -0.0000     1.0000 </r>
       <r>   -10.9656    -0.0000     1.0000 </r>
       <r>   -10.9138    -0.0000     1.0000 </r>
       <r>   -10.8621    -0.0000     1.0000 </r>
       <r>   -10.8103    -0.0000     1.0000 </r>
       <r>   -10.7586    -0.0000     1.0000 </r>
       <r>   -10.7068    -0.0000     1.0000 </r>
       <r>   -10.6551    -0.0000     1.0000 </r>
       <r>   -10.6033    -0.0000     1.0000 </r>
       <r>   -10.5516    -0.0000     1.0000 </r>
       <r>   -10.4998    -0.0000     1.0000 </r>
       <r>   -10.4481    -0.0000     1.0000 </r>
       <r>   -10.3963    -0.0000     1.0000 </r>
       <r>   -10.3446    -0.0000     1.0000 </r>
       <r>   -10.2928    -0.0000     1.0000 </r>
       <r>   -10.2411    -0.0000     1.0000 </r>
       <r>   -10.1893    -0.0000     1.0000 </r>
       <r>   -10.1376    -0.0002     1.0000 </r>
       <r>   -10.0858    -0.0011     0.9999 </r>
       <r>   -10.0341    -0.0042     0.9997 </r>
       <r>    -9.9823    -0.0139     0.9990 </r>
       <r>    -9.9306    -0.0387     0.9970 </r>
       <r>    -9.8788    -0.0896     0.9924 </r>
       <r>    -9.8271    -0.1657     0.9838 </r>
       <r>    -9.7753    -0.2241     0.9722 </r>
       <r>    -9.7236    -0.1470     0.9646 </r>
       <r>    -9.6718     0.2448     0.9772 </r>
       <r>    -9.6201     1.0849     1.0334 </r>
       <r>    -9.5683     2.2921     1.1520 </r>
       <r>    -9.5166     3.4891     1.3326 </r>
       <r>    -9.4648     4.1548     1.5476 </r>
       <r>    -9.4131     3.9562     1.7523 </r>
       <r>    -9.3613     2.9881     1.9069 </r>
       <r>    -9.3096     1.6950     1.9947 </r>
       <r>    -9.2578     0.5500     2.0231 </r>
       <r>    -9.2061    -0.2118     2.0122 </r>
       <r>    -9.1543    -0.5942     1.9814 </r>
       <r>    -9.1026    -0.6297     1.9488 </r>
       <r>    -9.0508    -0.1860     1.9392 </r>
       <r>    -8.9991     1.0016     1.9910 </r>
       <r>    -8.9473     3.0397     2.1483 </r>
       <r>    -8.8956     5.5415     2.4351 </r>
       <r>    -8.8438     7.6094     2.8289 </r>
       <r>    -8.7921     8.3004     3.2585 </r>
       <r>    -8.7403     7.2715     3.6348 </r>
       <r>    -8.6886     5.0356     3.8954 </r>
       <r>    -8.6368     2.5894     4.0294 </r>
       <r>    -8.5851     0.7594     4.0687 </r>
       <r>    -8.5333    -0.1827     4.0592 </r>
       <r>    -8.4816    -0.4371     4.0366 </r>
       <r>    -8.4298    -0.3574     4.0181 </r>
       <r>    -8.3781    -0.2057     4.0074 </r>
       <r>    -8.3263    -0.0936     4.0026 </r>
       <r>    -8.2746    -0.0351     4.0008 </r>
       <r>    -8.2228    -0.0111     4.0002 </r>
       <r>    -8.1711    -0.0030     4.0000 </r>
       <r>    -8.1193    -0.0007     4.0000 </r>
       <r>    -8.0676    -0.0001     4.0000 </r>
       <r>    -8.0158    -0.0000     4.0000 </r>
       <r>    -7.9641    -0.0000     4.0000 </r>
       <r>    -7.9123    -0.0000     4.0000 </r>
       <r>    -7.8606    -0.0000     4.0000 </r>
       <r>    -7.8088    -0.0000     4.0000 </r>
       <r>    -7.7571    -0.0000     4.0000 </r>
       <r>    -7.7053    -0.0000     4.0000 </r>
       <r>    -7.6536    -0.0000     4.0000 </r>
       <r>    -7.6018    -0.0000     4.0000 </r>
       <r>    -7.5500    -0.0000     4.0000 </r>
       <r>    -7.4983    -0.0000     4.0000 </r>
       <r>    -7.4465    -0.0000     4.0000 </r>
       <r>    -7.3948    -0.0000     4.0000 </r>
       <r>    -7.3430    -0.0000     4.0000 </r>
       <r>    -7.2913    -0.0000     4.0000 </r>
       <r>    -7.2395    -0.0000     4.0000 </r>
       <r>    -7.1878    -0.0000     4.0000 </r>
       <r>    -7.1360    -0.0000     4.0000 </r>
       <r>    -7.0843    -0.0000     4.0000 </r>
       <r>    -7.0325    -0.0000     4.0000 </r>
       <r>    -6.9808    -0.0001     4.0000 </r>
       <r>    -6.9290    -0.0003     4.0000 </r>
       <r>    -6.8773    -0.0015     3.9999 </r>
       <r>    -6.8255    -0.0057     3.9996 </r>
       <r>    -6.7738    -0.0181     3.9987 </r>
       <r>    -6.7220    -0.0483     3.9962 </r>
       <r>    -6.6703    -0.1064     3.9907 </r>
       <r>    -6.6185    -0.1847     3.9811 </r>
       <r>    -6.5668    -0.2247     3.9695 </r>
       <r>    -6.5150    -0.0906     3.9648 </r>
       <r>    -6.4633     0.3959     3.9853 </r>
       <r>    -6.4115     1.3225     4.0537 </r>
       <r>    -6.3598     2.5191     4.1841 </r>
       <r>    -6.3080     3.5298     4.3668 </r>
       <r>    -6.2563     3.8537     4.5662 </r>
       <r>    -6.2045     3.3463     4.7394 </r>
       <r>    -6.1528     2.4562     4.8665 </r>
       <r>    -6.1010     2.0332     4.9717 </r>
       <r>    -6.0493     2.7689     5.1150 </r>
       <r>    -5.9975     4.6433     5.3553 </r>
       <r>    -5.9458     6.8082     5.7076 </r>
       <r>    -5.8940     8.0719     6.1253 </r>
       <r>    -5.8423     7.6832     6.5229 </r>
       <r>    -5.7905     5.8131     6.8238 </r>
       <r>    -5.7388     3.3562     6.9974 </r>
       <r>    -5.6870     1.2713     7.0632 </r>
       <r>    -5.6353     0.0390     7.0653 </r>
       <r>    -5.5835    -0.4088     7.0441 </r>
       <r>    -5.5318    -0.4106     7.0228 </r>
       <r>    -5.4800    -0.2827     7.0082 </r>
       <r>    -5.4283    -0.2020     6.9978 </r>
       <r>    -5.3765    -0.2316     6.9858 </r>
       <r>    -5.3248    -0.3678     6.9667 </r>
       <r>    -5.2730    -0.5276     6.9394 </r>
       <r>    -5.2213    -0.4857     6.9143 </r>
       <r>    -5.1695     0.1503     6.9221 </r>
       <r>    -5.1178     1.8006     7.0153 </r>
       <r>    -5.0660     4.5786     7.2522 </r>
       <r>    -5.0143     7.9573     7.6640 </r>
       <r>    -4.9625    10.7897     8.2224 </r>
       <r>    -4.9108    11.8598     8.8361 </r>
       <r>    -4.8590    10.6503     9.3873 </r>
       <r>    -4.8073     7.7107     9.7863 </r>
       <r>    -4.7555     4.2895    10.0083 </r>
       <r>    -4.7038     1.5459    10.0883 </r>
       <r>    -4.6520    -0.0171    10.0874 </r>
       <r>    -4.6003    -0.5590    10.0585 </r>
       <r>    -4.5485    -0.5339    10.0309 </r>
       <r>    -4.4968    -0.3358    10.0135 </r>
       <r>    -4.4450    -0.1642    10.0050 </r>
       <r>    -4.3933    -0.0658    10.0016 </r>
       <r>    -4.3415    -0.0221    10.0004 </r>
       <r>    -4.2898    -0.0063    10.0001 </r>
       <r>    -4.2380    -0.0015    10.0000 </r>
       <r>    -4.1863    -0.0003    10.0000 </r>
       <r>    -4.1345    -0.0001    10.0000 </r>
       <r>    -4.0828    -0.0001    10.0000 </r>
       <r>    -4.0310    -0.0004    10.0000 </r>
       <r>    -3.9793    -0.0016     9.9999 </r>
       <r>    -3.9275    -0.0060     9.9996 </r>
       <r>    -3.8758    -0.0191     9.9986 </r>
       <r>    -3.8240    -0.0515     9.9959 </r>
       <r>    -3.7723    -0.1157     9.9899 </r>
       <r>    -3.7205    -0.2110     9.9790 </r>
       <r>    -3.6688    -0.2922     9.9639 </r>
       <r>    -3.6170    -0.2416     9.9514 </r>
       <r>    -3.5653     0.1184     9.9575 </r>
       <r>    -3.5135     0.9489    10.0066 </r>
       <r>    -3.4618     2.2966    10.1255 </r>
       <r>    -3.4100     4.0563    10.3354 </r>
       <r>    -3.3583     6.0052    10.6462 </r>
       <r>    -3.3065     7.8257    11.0512 </r>
       <r>    -3.2548     9.0983    11.5220 </r>
       <r>    -3.2030     9.4053    12.0087 </r>
       <r>    -3.1513     8.6201    12.4548 </r>
       <r>    -3.0995     7.1322    12.8239 </r>
       <r>    -3.0478     5.6558    13.1166 </r>
       <r>    -2.9960     4.6921    13.3594 </r>
       <r>    -2.9443     4.1713    13.5753 </r>
       <r>    -2.8925     3.6457    13.7640 </r>
       <r>    -2.8408     2.7924    13.9085 </r>
       <r>    -2.7890     1.6893    13.9959 </r>
       <r>    -2.7373     0.6592    14.0300 </r>
       <r>    -2.6855    -0.0553    14.0271 </r>
       <r>    -2.6338    -0.4413    14.0043 </r>
       <r>    -2.5820    -0.6071    13.9729 </r>
       <r>    -2.5303    -0.5689    13.9434 </r>
       <r>    -2.4785    -0.1291    13.9368 </r>
       <r>    -2.4268     1.0301    13.9901 </r>
       <r>    -2.3750     3.0401    14.1474 </r>
       <r>    -2.3233     5.5227    14.4332 </r>
       <r>    -2.2715     7.5846    14.8257 </r>
       <r>    -2.2198     8.2836    15.2544 </r>
       <r>    -2.1680     7.2683    15.6305 </r>
       <r>    -2.1163     5.0358    15.8911 </r>
       <r>    -2.0645     2.5645    16.0238 </r>
       <r>    -2.0128     0.6709    16.0586 </r>
       <r>    -1.9610    -0.3586    16.0400 </r>
       <r>    -1.9093    -0.6572    16.0060 </r>
       <r>    -1.8575    -0.4365    15.9834 </r>
       <r>    -1.8057     0.2222    15.9949 </r>
       <r>    -1.7540     1.2966    16.0620 </r>
       <r>    -1.7022     2.6087    16.1970 </r>
       <r>    -1.6505     3.7347    16.3903 </r>
       <r>    -1.5987     4.1893    16.6071 </r>
       <r>    -1.5470     3.7569    16.8015 </r>
       <r>    -1.4952     2.6616    16.9392 </r>
       <r>    -1.4435     1.4068    17.0120 </r>
       <r>    -1.3917     0.4377    17.0347 </r>
       <r>    -1.3400    -0.0815    17.0305 </r>
       <r>    -1.2882    -0.2451    17.0178 </r>
       <r>    -1.2365    -0.2449    17.0051 </r>
       <r>    -1.1847    -0.2300    16.9932 </r>
       <r>    -1.1330    -0.2483    16.9804 </r>
       <r>    -1.0812    -0.2364    16.9681 </r>
       <r>    -1.0295    -0.0342    16.9663 </r>
       <r>    -0.9777     0.5468    16.9946 </r>
       <r>    -0.9260     1.5732    17.0761 </r>
       <r>    -0.8742     2.8374    17.2229 </r>
       <r>    -0.8225     3.8678    17.4231 </r>
       <r>    -0.7707     4.1824    17.6395 </r>
       <r>    -0.7190     3.6212    17.8269 </r>
       <r>    -0.6672     2.4657    17.9545 </r>
       <r>    -0.6155     1.2319    18.0183 </r>
       <r>    -0.5637     0.3310    18.0354 </r>
       <r>    -0.5120    -0.1166    18.0293 </r>
       <r>    -0.4602    -0.2252    18.0177 </r>
       <r>    -0.4085    -0.1764    18.0086 </r>
       <r>    -0.3567    -0.0987    18.0034 </r>
       <r>    -0.3050    -0.0439    18.0012 </r>
       <r>    -0.2532    -0.0161    18.0003 </r>
       <r>    -0.2015    -0.0050    18.0001 </r>
       <r>    -0.1497    -0.0013    18.0000 </r>
       <r>    -0.0980    -0.0003    18.0000 </r>
       <r>    -0.0462    -0.0001    18.0000 </r>
       <r>     0.0055    -0.0000    18.0000 </r>
       <r>     0.0573    -0.0000    18.0000 </r>
       <r>     0.1090    -0.0000    18.0000 </r>
       <r>     0.1608    -0.0000    18.0000 </r>
       <r>     0.2125    -0.0000    18.0000 </r>
       <r>     0.2643    -0.0000    18.0000 </r>
       <r>     0.3160    -0.0000    18.0000 </r>
       <r>     0.3678    -0.0000    18.0000 </r>
       <r>     0.4195    -0.0000    18.0000 </r>
       <r>     0.4713     0.0000    18.0000 </r>
       <r>     0.5230     0.0000    18.0000 </r>
       <r>     0.5748     0.0000    18.0000 </r>
       <r>     0.6265     0.0000    18.0000 </r>
       <r>     0.6783     0.0000    18.0000 </r>
       <r>     0.7300     0.0000    18.0000 </r>
       <r>     0.7818     0.0000    18.0000 </r>
       <r>     0.8335     0.0000    18.0000 </r>
       <r>     0.8853     0.0000    18.0000 </r>
       <r>     0.9370     0.0000    18.0000 </r>
       <r>     0.9888     0.0000    18.0000 </r>
       <r>     1.0405     0.0000    18.0000 </r>
       <r>     1.0923     0.0000    18.0000 </r>
       <r>     1.1440     0.0000    18.0000 </r>
       <r>     1.1958     0.0000    18.0000 </r>
      </set>
     </set>
    </array>
   </total>
  </dos>
 </calculation>
 <structure name="finalpos" >
  <crystal>
   <varray name="basis" >
    <v>      22.54453563       0.00000000       0.00000000 </v>
    <v>       0.00000000      21.83981355       0.00000000 </v>
    <v>       0.00000000       0.00000000      22.60041050 </v>
   </varray>
   <i name="volume">  11127.72919559 </i>
   <varray name="rec_basis" >
    <v>       0.04435665       0.00000000       0.00000000 </v>
    <v>       0.00000000       0.04578794       0.00000000 </v>
    <v>       0.00000000       0.00000000       0.04424698 </v>
   </varray>
  </crystal>
  <varray name="positions" >
   <v>       0.27421226       0.59922863       0.71917414 </v>
   <v>       0.27394803       0.53743786       0.62071502 </v>
   <v>       0.37536950       0.53439733       0.67555202 </v>
   <v>       0.36958731       0.59833891       0.57931071 </v>
   <v>       0.37994079       0.60609249       0.77017534 </v>
   <v>       0.27172834       0.66102716       0.62160288 </v>
   <v>       0.37499995       0.66955143       0.67038319 </v>
  </varray>
 </structure>
</modeling>
