unknown system                          
            1
    22.544536    0.000000    0.000000
     0.000000   21.839814    0.000000
     0.000000    0.000000   22.600411
   Al
     7
Direct configuration=     1
   0.27099211  0.58636299  0.72157861
   0.26996094  0.53900353  0.60937267
   0.36717465  0.52606412  0.67977051
   0.37729182  0.59430797  0.59118793
   0.38026737  0.61567130  0.75587693
   0.27265375  0.66006533  0.63584307
   0.38144553  0.68459857  0.66328359
Direct configuration=     2
   0.27130330  0.58647877  0.72175151
   0.27007049  0.53909299  0.60928383
   0.36729993  0.52587573  0.68002086
   0.37711433  0.59426485  0.59088823
   0.38002567  0.61563881  0.75575436
   0.27272824  0.66020972  0.63571435
   0.38124422  0.68451295  0.66350016
Direct configuration=     3
   0.27178293  0.58665723  0.72201800
   0.27023934  0.53923088  0.60914691
   0.36749301  0.52558536  0.68040672
   0.37684077  0.59419837  0.59042633
   0.37965313  0.61558873  0.75556544
   0.27284305  0.66043225  0.63551595
   0.38093395  0.68438098  0.66383397
Direct configuration=     4
   0.27189051  0.58681649  0.72190025
   0.27032186  0.53933748  0.60918715
   0.36761991  0.52553735  0.68032447
   0.37669563  0.59410655  0.59043816
   0.37962952  0.61560596  0.75567258
   0.27280002  0.66042247  0.63547980
   0.38082871  0.68424752  0.66391090
Direct configuration=     5
   0.27210178  0.58712922  0.72166903
   0.27048392  0.53954681  0.60926617
   0.36786911  0.52544305  0.68016297
   0.37641062  0.59392625  0.59046140
   0.37958316  0.61563978  0.75588297
   0.27271552  0.66040327  0.63540882
   0.38062204  0.68398543  0.66406197
Direct configuration=     6
   0.27220006  0.58719359  0.72153303
   0.27048239  0.53960858  0.60938803
   0.36799172  0.52547602  0.68013791
   0.37634635  0.59396835  0.59040497
   0.37966596  0.61556669  0.75619749
   0.27256751  0.66050560  0.63520219
   0.38053219  0.68375499  0.66404970
Direct configuration=     7
   0.27249490  0.58738670  0.72112503
   0.27047777  0.53979386  0.60975364
   0.36835953  0.52557493  0.68006274
   0.37615353  0.59409465  0.59023568
   0.37991435  0.61534743  0.75714108
   0.27212349  0.66081259  0.63458228
   0.38026261  0.68306364  0.66401287
Direct configuration=     8
   0.27266200  0.58742297  0.72124391
   0.27047608  0.53969467  0.60977110
   0.36817438  0.52596115  0.68014389
   0.37634548  0.59399128  0.58974543
   0.37992920  0.61525810  0.75725434
   0.27207340  0.66087267  0.63449779
   0.38012563  0.68287296  0.66425684
Direct configuration=     9
   0.27280111  0.58745317  0.72134288
   0.27047468  0.53961209  0.60978564
   0.36802024  0.52628267  0.68021145
   0.37650527  0.59390522  0.58933731
   0.37994157  0.61518374  0.75734863
   0.27203171  0.66092269  0.63442746
   0.38001159  0.68271422  0.66445994
Direct configuration=    10
   0.27280443  0.58756367  0.72131676
   0.27053088  0.53962304  0.60985240
   0.36795930  0.52655627  0.68011986
   0.37659506  0.59386088  0.58910917
   0.38006677  0.61513225  0.75764002
   0.27196611  0.66090259  0.63437498
   0.37986362  0.68243512  0.66450013
Direct configuration=    11
   0.27281441  0.58789515  0.72123838
   0.27069948  0.53965588  0.61005268
   0.36777647  0.52737707  0.67984507
   0.37686440  0.59372785  0.58842476
   0.38044238  0.61497779  0.75851420
   0.27176932  0.66084227  0.63421753
   0.37941972  0.68159780  0.66462070
Direct configuration=    12
   0.27283435  0.58855811  0.72108164
   0.27103668  0.53972157  0.61045323
   0.36741082  0.52901867  0.67929549
   0.37740310  0.59346179  0.58705594
   0.38119358  0.61466887  0.76026256
   0.27137574  0.66072163  0.63390263
   0.37853191  0.67992316  0.66486183
Direct configuration=    13
   0.27302213  0.58853176  0.72123803
   0.27119281  0.53999163  0.61044093
   0.36777508  0.52866735  0.67966117
   0.37705804  0.59364699  0.58700764
   0.38108286  0.61449084  0.76036295
   0.27107849  0.66098641  0.63341923
   0.37857677  0.67975883  0.66478337
Direct configuration=    14
   0.27322451  0.58850336  0.72140658
   0.27136107  0.54028268  0.61042767
   0.36816767  0.52828872  0.68005527
   0.37668616  0.59384658  0.58695559
   0.38096352  0.61429897  0.76047114
   0.27075813  0.66127178  0.63289825
   0.37862512  0.67958174  0.66469880
Direct configuration=    15
   0.27340726  0.58873002  0.72107927
   0.27162326  0.54059395  0.61058809
   0.36843279  0.52813058  0.67996284
   0.37632350  0.59376431  0.58705762
   0.38098249  0.61423713  0.76082259
   0.27055437  0.66131046  0.63273296
   0.37846250  0.67930735  0.66466995
Direct configuration=    16
   0.27365643  0.58903906  0.72063298
   0.27198075  0.54101837  0.61080681
   0.36879428  0.52791496  0.67983680
   0.37582902  0.59365215  0.58719673
   0.38100836  0.61415282  0.76130178
   0.27027654  0.66136321  0.63250759
   0.37824079  0.67893324  0.66463061
Direct configuration=    17
   0.27399028  0.58926895  0.72041458
   0.27205480  0.54111271  0.61101819
   0.36893918  0.52805120  0.67983110
   0.37574805  0.59359523  0.58681975
   0.38106124  0.61401267  0.76182089
   0.27009202  0.66154681  0.63221712
   0.37790061  0.67848624  0.66479169
Direct configuration=    18
   0.27499181  0.58995863  0.71975936
   0.27227697  0.54139576  0.61165231
   0.36937386  0.52845990  0.67981400
   0.37550514  0.59342445  0.58568882
   0.38121986  0.61359222  0.76337821
   0.26953846  0.66209761  0.63134571
   0.37688009  0.67714524  0.66527491
Direct configuration=    19
   0.27699487  0.59133800  0.71844894
   0.27272129  0.54196185  0.61292055
   0.37024322  0.52927730  0.67977980
   0.37501931  0.59308291  0.58342694
   0.38153710  0.61275132  0.76649284
   0.26843133  0.66319922  0.62960289
   0.37483905  0.67446323  0.66624135
Direct configuration=    20
   0.27624917  0.59153130  0.71925580
   0.27262697  0.54185556  0.61287461
   0.37043901  0.52974005  0.67939160
   0.37517360  0.59337549  0.58361646
   0.38157598  0.61257021  0.76631872
   0.26844067  0.66280123  0.62929122
   0.37528078  0.67419998  0.66616490
Direct configuration=    21
   0.27538274  0.59175589  0.72019330
   0.27251738  0.54173207  0.61282123
   0.37066650  0.53027772  0.67894055
   0.37535287  0.59371544  0.58383665
   0.38162116  0.61235978  0.76611640
   0.26845151  0.66233882  0.62892910
   0.37579401  0.67389410  0.66607608
Direct configuration=    22
   0.27511064  0.59187688  0.72024276
   0.27264216  0.54156783  0.61315569
   0.37043992  0.53063043  0.67886965
   0.37525323  0.59396353  0.58359375
   0.38163753  0.61211491  0.76601690
   0.26886167  0.66197305  0.62883700
   0.37584103  0.67394718  0.66619756
Direct configuration=    23
   0.27467003  0.59207279  0.72032286
   0.27284421  0.54130190  0.61369726
   0.37007303  0.53120157  0.67875485
   0.37509188  0.59436526  0.58320044
   0.38166403  0.61171840  0.76585579
   0.26952581  0.66138077  0.62868785
   0.37591718  0.67403312  0.66639426
Direct configuration=    24
   0.27459866  0.59239045  0.72031461
   0.27292851  0.54081583  0.61386062
   0.37018086  0.53129625  0.67872123
   0.37469483  0.59456771  0.58297344
   0.38166174  0.61146294  0.76596541
   0.26976731  0.66145270  0.62838807
   0.37595426  0.67408792  0.66668994
Direct configuration=    25
   0.27445736  0.59301938  0.72029828
   0.27309543  0.53985351  0.61418405
   0.37039434  0.53148370  0.67865465
   0.37390874  0.59496852  0.58252401
   0.38165719  0.61095717  0.76618245
   0.27024543  0.66159512  0.62779455
   0.37602768  0.67419642  0.66727531
Direct configuration=    26
   0.27442526  0.59330683  0.72013731
   0.27312521  0.53964581  0.61438177
   0.37059916  0.53158745  0.67853082
   0.37360219  0.59514731  0.58252991
   0.38164747  0.61077756  0.76635429
   0.27032919  0.66156529  0.62757504
   0.37605769  0.67404356  0.66740416
Direct configuration=    27
   0.27432897  0.59416918  0.71965440
   0.27321458  0.53902272  0.61497496
   0.37121359  0.53189869  0.67815932
   0.37268256  0.59568366  0.58254762
   0.38161832  0.61023875  0.76686981
   0.27058044  0.66147581  0.62691651
   0.37614772  0.67358499  0.66779070
Direct configuration=    28
   0.27443341  0.59427552  0.71963244
   0.27318738  0.53916566  0.61524566
   0.37142499  0.53202008  0.67809084
   0.37263277  0.59581603  0.58242100
   0.38147921  0.61011987  0.76701711
   0.27050513  0.66141513  0.62666225
   0.37612327  0.67326153  0.66784400
Direct configuration=    29
   0.27474673  0.59459457  0.71956657
   0.27310580  0.53959448  0.61605779
   0.37205920  0.53238422  0.67788537
   0.37248341  0.59621311  0.58204117
   0.38106188  0.60976321  0.76745903
   0.27027922  0.66123309  0.62589947
   0.37604994  0.67229112  0.66800391
Direct configuration=    30
   0.27484455  0.59482240  0.71961305
   0.27316640  0.53961980  0.61632380
   0.37227293  0.53247114  0.67765537
   0.37240162  0.59619415  0.58173426
   0.38096463  0.60962730  0.76782459
   0.27030981  0.66129751  0.62562830
   0.37582623  0.67204151  0.66813394
Direct configuration=    31
   0.27511447  0.59545102  0.71974126
   0.27333362  0.53968965  0.61705775
   0.37286264  0.53271096  0.67702077
   0.37217594  0.59614184  0.58088747
   0.38069631  0.60925230  0.76883321
   0.27039421  0.66147526  0.62488013
   0.37520899  0.67135278  0.66849272
Direct configuration=    32
   0.27509407  0.59588099  0.71959367
   0.27334522  0.53947507  0.61740684
   0.37318746  0.53300460  0.67693817
   0.37189905  0.59630086  0.58058907
   0.38073229  0.60887112  0.76916687
   0.27053010  0.66150798  0.62448582
   0.37499798  0.67103319  0.66873288
Direct configuration=    33
   0.27503288  0.59717087  0.71915087
   0.27338002  0.53883131  0.61845413
   0.37416195  0.53388551  0.67669035
   0.37106836  0.59677793  0.57969386
   0.38084022  0.60772761  0.77016783
   0.27093777  0.66160614  0.62330288
   0.37436497  0.67007444  0.66945339
Direct configuration=    34
   0.27495185  0.59751037  0.71910178
   0.27346730  0.53859762  0.61881608
   0.37436217  0.53413343  0.67654278
   0.37077865  0.59699982  0.57960485
   0.38078949  0.60739853  0.77027266
   0.27103296  0.66157037  0.62291138
   0.37440375  0.66986367  0.66966378
Direct configuration=    35
   0.27470876  0.59852887  0.71895453
   0.27372915  0.53789654  0.61990192
   0.37496283  0.53487719  0.67610007
   0.36990951  0.59766549  0.57933780
   0.38063730  0.60641130  0.77058716
   0.27131852  0.66146305  0.62173687
   0.37452010  0.66923137  0.67029496
Direct configuration=    36
   0.27456312  0.59870994  0.71902813
   0.27381783  0.53775538  0.62013730
   0.37503138  0.53473863  0.67589702
   0.36982590  0.59785161  0.57936188
   0.38044420  0.60633951  0.77048586
   0.27145520  0.66134776  0.62171116
   0.37464855  0.66933098  0.67029196
Direct configuration=    37
   0.27426034  0.59908638  0.71918115
   0.27400220  0.53746191  0.62062666
   0.37517388  0.53445057  0.67547490
   0.36965206  0.59823856  0.57941194
   0.38004275  0.60619026  0.77027525
   0.27173934  0.66110808  0.62165771
   0.37491560  0.66953806  0.67028571
Direct configuration=    38
   0.27421543  0.59921925  0.71917460
   0.27395160  0.53743945  0.62070919
   0.37535659  0.53440084  0.67554694
   0.36959158  0.59833229  0.57931739
   0.37994751  0.60609894  0.77018193
   0.27172906  0.66103250  0.62160650
   0.37499438  0.66955055  0.67037676
Direct configuration=    39
   0.27421226  0.59922863  0.71917414
   0.27394803  0.53743786  0.62071502
   0.37536950  0.53439733  0.67555202
   0.36958731  0.59833891  0.57931071
   0.37994079  0.60609249  0.77017534
   0.27172834  0.66102716  0.62160288
   0.37499995  0.66955143  0.67038319
