   8   8   0   0
  0.1419692E+04  0.2316203E-08  0.2386869E-08  0.2054371E-08  0.5000000E-15
   1.0000000000000000E-004
  CAR 
 unknown system                          
      2.08044314    -12.51806007  301     -4.67470637      1.00000000
    -12.518  0.0000E+00  0.0000E+00  0.0000E+00  0.0000E+00
    -12.469  0.0000E+00  0.0000E+00  0.0000E+00  0.0000E+00
    -12.421  0.0000E+00  0.0000E+00  0.0000E+00  0.0000E+00
    -12.372  0.0000E+00  0.0000E+00  0.0000E+00  0.0000E+00
    -12.323  0.0000E+00  0.0000E+00  0.0000E+00  0.0000E+00
    -12.275  0.0000E+00  0.0000E+00  0.0000E+00  0.0000E+00
    -12.226  0.0000E+00  0.0000E+00  0.0000E+00  0.0000E+00
    -12.177  0.0000E+00  0.0000E+00  0.0000E+00  0.0000E+00
    -12.129 -0.3170E-29 -0.3170E-29 -0.1543E-30 -0.1543E-30
    -12.080 -0.1427E-27 -0.1427E-27 -0.7100E-29 -0.7100E-29
    -12.031 -0.5813E-26 -0.5813E-26 -0.2900E-27 -0.2900E-27
    -11.983 -0.2100E-24 -0.2100E-24 -0.1051E-25 -0.1051E-25
    -11.934 -0.6731E-23 -0.6731E-23 -0.3381E-24 -0.3381E-24
    -11.885 -0.1913E-21 -0.1913E-21 -0.9647E-23 -0.9647E-23
    -11.837 -0.4821E-20 -0.4821E-20 -0.2443E-21 -0.2443E-21
    -11.788 -0.1077E-18 -0.1077E-18 -0.5486E-20 -0.5486E-20
    -11.739 -0.2134E-17 -0.2134E-17 -0.1093E-18 -0.1093E-18
    -11.691 -0.3631E-16 -0.3631E-16 -0.1876E-17 -0.1876E-17
    -11.642 -0.5641E-15 -0.5641E-15 -0.2933E-16 -0.2933E-16
    -11.593 -0.7747E-14 -0.7747E-14 -0.4063E-15 -0.4063E-15
    -11.545 -0.9417E-13 -0.9417E-13 -0.4989E-14 -0.4989E-14
    -11.496 -0.1012E-11 -0.1012E-11 -0.5426E-13 -0.5426E-13
    -11.448 -0.9624E-11 -0.9624E-11 -0.5226E-12 -0.5226E-12
    -11.399 -0.8083E-10 -0.8083E-10 -0.4456E-11 -0.4456E-11
    -11.350 -0.5992E-09 -0.5992E-09 -0.3361E-10 -0.3361E-10
    -11.302 -0.3917E-08 -0.3917E-08 -0.2242E-09 -0.2242E-09
    -11.253 -0.2255E-07 -0.2255E-07 -0.1322E-08 -0.1322E-08
    -11.204 -0.1141E-06 -0.1141E-06 -0.6875E-08 -0.6875E-08
    -11.156 -0.5067E-06 -0.5067E-06 -0.3153E-07 -0.3153E-07
    -11.107 -0.1967E-05 -0.1967E-05 -0.1273E-06 -0.1273E-06
    -11.058 -0.6650E-05 -0.6650E-05 -0.4509E-06 -0.4509E-06
    -11.010 -0.1945E-04 -0.1945E-04 -0.1398E-05 -0.1398E-05
    -10.961 -0.4875E-04 -0.4875E-04 -0.3770E-05 -0.3770E-05
    -10.912 -0.1029E-03 -0.1029E-03 -0.8775E-05 -0.8775E-05
    -10.864 -0.1765E-03 -0.1765E-03 -0.1736E-04 -0.1736E-04
    -10.815 -0.2257E-03 -0.2257E-03 -0.2835E-04 -0.2835E-04
    -10.766 -0.1453E-03 -0.1453E-03 -0.3542E-04 -0.3542E-04
    -10.718  0.2167E-03  0.2167E-03 -0.2488E-04 -0.2488E-04
    -10.669  0.9754E-03  0.9754E-03  0.2259E-04  0.2259E-04
    -10.620  0.2083E-02  0.2083E-02  0.1239E-03  0.1239E-03
    -10.572  0.3253E-02  0.3253E-02  0.2822E-03  0.2822E-03
    -10.523  0.4052E-02  0.4052E-02  0.4794E-03  0.4794E-03
    -10.474  0.4132E-02  0.4132E-02  0.6805E-03  0.6805E-03
    -10.426  0.3457E-02  0.3457E-02  0.8487E-03  0.8487E-03
    -10.377  0.2325E-02  0.2325E-02  0.9618E-03  0.9618E-03
    -10.328  0.1175E-02  0.1175E-02  0.1019E-02  0.1019E-02
    -10.280  0.3352E-03  0.3352E-03  0.1035E-02  0.1035E-02
    -10.231 -0.1003E-03 -0.1003E-03  0.1030E-02  0.1030E-02
    -10.182 -0.2245E-03 -0.2245E-03  0.1019E-02  0.1019E-02
    -10.134 -0.1907E-03 -0.1907E-03  0.1010E-02  0.1010E-02
    -10.085 -0.1167E-03 -0.1167E-03  0.1005E-02  0.1005E-02
    -10.036 -0.5744E-04 -0.5744E-04  0.1002E-02  0.1002E-02
     -9.988 -0.2368E-04 -0.2368E-04  0.1001E-02  0.1001E-02
     -9.939 -0.8345E-05 -0.8345E-05  0.1000E-02  0.1000E-02
     -9.890 -0.2552E-05 -0.2552E-05  0.1000E-02  0.1000E-02
     -9.842 -0.7424E-06 -0.7424E-06  0.1000E-02  0.1000E-02
     -9.793 -0.4806E-06 -0.4806E-06  0.1000E-02  0.1000E-02
     -9.744 -0.1347E-05 -0.1347E-05  0.9999E-03  0.9999E-03
     -9.696 -0.4650E-05 -0.4650E-05  0.9997E-03  0.9997E-03
     -9.647 -0.1422E-04 -0.1422E-04  0.9990E-03  0.9990E-03
     -9.598 -0.3742E-04 -0.3742E-04  0.9972E-03  0.9972E-03
     -9.550 -0.8350E-04 -0.8350E-04  0.9931E-03  0.9931E-03
     -9.501 -0.1538E-03 -0.1538E-03  0.9856E-03  0.9856E-03
     -9.452 -0.2199E-03 -0.2199E-03  0.9749E-03  0.9749E-03
     -9.404 -0.1986E-03 -0.1986E-03  0.9653E-03  0.9653E-03
     -9.355  0.4719E-04  0.4719E-04  0.9676E-03  0.9676E-03
     -9.306  0.6451E-03  0.6451E-03  0.9990E-03  0.9990E-03
     -9.258  0.1592E-02  0.1592E-02  0.1076E-02  0.1076E-02
     -9.209  0.2664E-02  0.2664E-02  0.1206E-02  0.1206E-02
     -9.160  0.3481E-02  0.3481E-02  0.1375E-02  0.1375E-02
     -9.112  0.3762E-02  0.3762E-02  0.1559E-02  0.1559E-02
     -9.063  0.3599E-02  0.3599E-02  0.1734E-02  0.1734E-02
     -9.014  0.3488E-02  0.3488E-02  0.1903E-02  0.1903E-02
     -8.966  0.3992E-02  0.3992E-02  0.2098E-02  0.2098E-02
     -8.917  0.5259E-02  0.5259E-02  0.2354E-02  0.2354E-02
     -8.868  0.6798E-02  0.6798E-02  0.2684E-02  0.2684E-02
     -8.820  0.7784E-02  0.7784E-02  0.3063E-02  0.3063E-02
     -8.771  0.7661E-02  0.7661E-02  0.3436E-02  0.3436E-02
     -8.722  0.6556E-02  0.6556E-02  0.3755E-02  0.3755E-02
     -8.674  0.5144E-02  0.5144E-02  0.4005E-02  0.4005E-02
     -8.625  0.4121E-02  0.4121E-02  0.4206E-02  0.4206E-02
     -8.576  0.3790E-02  0.3790E-02  0.4390E-02  0.4390E-02
     -8.528  0.4062E-02  0.4062E-02  0.4588E-02  0.4588E-02
     -8.479  0.4734E-02  0.4734E-02  0.4818E-02  0.4818E-02
     -8.430  0.5680E-02  0.5680E-02  0.5095E-02  0.5095E-02
     -8.382  0.6796E-02  0.6796E-02  0.5425E-02  0.5425E-02
     -8.333  0.7919E-02  0.7919E-02  0.5811E-02  0.5811E-02
     -8.284  0.8924E-02  0.8924E-02  0.6245E-02  0.6245E-02
     -8.236  0.9851E-02  0.9851E-02  0.6724E-02  0.6724E-02
     -8.187  0.1083E-01  0.1083E-01  0.7251E-02  0.7251E-02
     -8.139  0.1178E-01  0.1178E-01  0.7825E-02  0.7825E-02
     -8.090  0.1234E-01  0.1234E-01  0.8425E-02  0.8425E-02
     -8.041  0.1210E-01  0.1210E-01  0.9014E-02  0.9014E-02
     -7.993  0.1110E-01  0.1110E-01  0.9554E-02  0.9554E-02
     -7.944  0.9856E-02  0.9856E-02  0.1003E-01  0.1003E-01
     -7.895  0.8957E-02  0.8957E-02  0.1047E-01  0.1047E-01
     -7.847  0.8594E-02  0.8594E-02  0.1089E-01  0.1089E-01
     -7.798  0.8523E-02  0.8523E-02  0.1130E-01  0.1130E-01
     -7.749  0.8439E-02  0.8439E-02  0.1171E-01  0.1171E-01
     -7.701  0.8321E-02  0.8321E-02  0.1212E-01  0.1212E-01
     -7.652  0.8413E-02  0.8413E-02  0.1253E-01  0.1253E-01
     -7.603  0.8934E-02  0.8934E-02  0.1296E-01  0.1296E-01
     -7.555  0.9859E-02  0.9859E-02  0.1344E-01  0.1344E-01
     -7.506  0.1094E-01  0.1094E-01  0.1397E-01  0.1397E-01
     -7.457  0.1191E-01  0.1191E-01  0.1455E-01  0.1455E-01
     -7.409  0.1258E-01  0.1258E-01  0.1517E-01  0.1517E-01
     -7.360  0.1291E-01  0.1291E-01  0.1579E-01  0.1579E-01
     -7.311  0.1288E-01  0.1288E-01  0.1642E-01  0.1642E-01
     -7.263  0.1252E-01  0.1252E-01  0.1703E-01  0.1703E-01
     -7.214  0.1191E-01  0.1191E-01  0.1761E-01  0.1761E-01
     -7.165  0.1125E-01  0.1125E-01  0.1816E-01  0.1816E-01
     -7.117  0.1083E-01  0.1083E-01  0.1868E-01  0.1868E-01
     -7.068  0.1087E-01  0.1087E-01  0.1921E-01  0.1921E-01
     -7.019  0.1126E-01  0.1126E-01  0.1976E-01  0.1976E-01
     -6.971  0.1153E-01  0.1153E-01  0.2032E-01  0.2032E-01
     -6.922  0.1105E-01  0.1105E-01  0.2086E-01  0.2086E-01
     -6.873  0.9480E-02  0.9480E-02  0.2132E-01  0.2132E-01
     -6.825  0.6964E-02  0.6964E-02  0.2166E-01  0.2166E-01
     -6.776  0.4148E-02  0.4148E-02  0.2186E-01  0.2186E-01
     -6.727  0.1866E-02  0.1866E-02  0.2195E-01  0.2195E-01
     -6.679  0.8262E-03  0.8262E-03  0.2199E-01  0.2199E-01
     -6.630  0.1385E-02  0.1385E-02  0.2206E-01  0.2206E-01
     -6.581  0.3454E-02  0.3454E-02  0.2223E-01  0.2223E-01
     -6.533  0.6521E-02  0.6521E-02  0.2255E-01  0.2255E-01
     -6.484  0.9820E-02  0.9820E-02  0.2302E-01  0.2302E-01
     -6.435  0.1258E-01  0.1258E-01  0.2364E-01  0.2364E-01
     -6.387  0.1425E-01  0.1425E-01  0.2433E-01  0.2433E-01
     -6.338  0.1462E-01  0.1462E-01  0.2504E-01  0.2504E-01
     -6.289  0.1376E-01  0.1376E-01  0.2571E-01  0.2571E-01
     -6.241  0.1204E-01  0.1204E-01  0.2630E-01  0.2630E-01
     -6.192  0.1002E-01  0.1002E-01  0.2678E-01  0.2678E-01
     -6.143  0.8359E-02  0.8359E-02  0.2719E-01  0.2719E-01
     -6.095  0.7597E-02  0.7597E-02  0.2756E-01  0.2756E-01
     -6.046  0.7944E-02  0.7944E-02  0.2795E-01  0.2795E-01
     -5.997  0.9212E-02  0.9212E-02  0.2840E-01  0.2840E-01
     -5.949  0.1093E-01  0.1093E-01  0.2893E-01  0.2893E-01
     -5.900  0.1261E-01  0.1261E-01  0.2954E-01  0.2954E-01
     -5.851  0.1400E-01  0.1400E-01  0.3022E-01  0.3022E-01
     -5.803  0.1518E-01  0.1518E-01  0.3096E-01  0.3096E-01
     -5.754  0.1649E-01  0.1649E-01  0.3176E-01  0.3176E-01
     -5.705  0.1828E-01  0.1828E-01  0.3265E-01  0.3265E-01
     -5.657  0.2065E-01  0.2065E-01  0.3366E-01  0.3366E-01
     -5.608  0.2331E-01  0.2331E-01  0.3479E-01  0.3479E-01
     -5.559  0.2564E-01  0.2564E-01  0.3604E-01  0.3604E-01
     -5.511  0.2685E-01  0.2685E-01  0.3735E-01  0.3735E-01
     -5.462  0.2638E-01  0.2638E-01  0.3863E-01  0.3863E-01
     -5.413  0.2416E-01  0.2416E-01  0.3981E-01  0.3981E-01
     -5.365  0.2062E-01  0.2062E-01  0.4081E-01  0.4081E-01
     -5.316  0.1644E-01  0.1644E-01  0.4161E-01  0.4161E-01
     -5.267  0.1224E-01  0.1224E-01  0.4220E-01  0.4220E-01
     -5.219  0.8395E-02  0.8395E-02  0.4261E-01  0.4261E-01
     -5.170  0.5136E-02  0.5136E-02  0.4286E-01  0.4286E-01
     -5.121  0.2628E-02  0.2628E-02  0.4299E-01  0.4299E-01
     -5.073  0.1046E-02  0.1046E-02  0.4304E-01  0.4304E-01
     -5.024  0.5118E-03  0.5118E-03  0.4307E-01  0.4307E-01
     -4.976  0.9643E-03  0.9643E-03  0.4311E-01  0.4311E-01
     -4.927  0.2067E-02  0.2067E-02  0.4321E-01  0.4321E-01
     -4.878  0.3256E-02  0.3256E-02  0.4337E-01  0.4337E-01
     -4.830  0.3955E-02  0.3955E-02  0.4357E-01  0.4357E-01
     -4.781  0.3846E-02  0.3846E-02  0.4375E-01  0.4375E-01
     -4.732  0.3016E-02  0.3016E-02  0.4390E-01  0.4390E-01
     -4.684  0.1858E-02  0.1858E-02  0.4399E-01  0.4399E-01
     -4.635  0.8092E-03  0.8092E-03  0.4403E-01  0.4403E-01
     -4.586  0.1259E-03  0.1259E-03  0.4404E-01  0.4404E-01
     -4.538 -0.1753E-03 -0.1753E-03  0.4403E-01  0.4403E-01
     -4.489 -0.2229E-03 -0.2229E-03  0.4402E-01  0.4402E-01
     -4.440 -0.1638E-03 -0.1638E-03  0.4401E-01  0.4401E-01
     -4.392 -0.9224E-04 -0.9224E-04  0.4400E-01  0.4400E-01
     -4.343 -0.4438E-04 -0.4438E-04  0.4400E-01  0.4400E-01
     -4.294 -0.2397E-04 -0.2397E-04  0.4400E-01  0.4400E-01
     -4.246 -0.2739E-04 -0.2739E-04  0.4400E-01  0.4400E-01
     -4.197 -0.5548E-04 -0.5548E-04  0.4400E-01  0.4400E-01
     -4.148 -0.1116E-03 -0.1116E-03  0.4399E-01  0.4399E-01
     -4.100 -0.1854E-03 -0.1854E-03  0.4398E-01  0.4398E-01
     -4.051 -0.2257E-03 -0.2257E-03  0.4397E-01  0.4397E-01
     -4.002 -0.1195E-03 -0.1195E-03  0.4396E-01  0.4396E-01
     -3.954  0.2863E-03  0.2863E-03  0.4398E-01  0.4398E-01
     -3.905  0.1093E-02  0.1093E-02  0.4403E-01  0.4403E-01
     -3.856  0.2224E-02  0.2224E-02  0.4414E-01  0.4414E-01
     -3.808  0.3361E-02  0.3361E-02  0.4430E-01  0.4430E-01
     -3.759  0.4059E-02  0.4059E-02  0.4450E-01  0.4450E-01
     -3.710  0.3990E-02  0.3990E-02  0.4470E-01  0.4470E-01
     -3.662  0.3165E-02  0.3165E-02  0.4485E-01  0.4485E-01
     -3.613  0.1953E-02  0.1953E-02  0.4494E-01  0.4494E-01
     -3.564  0.8897E-03  0.8897E-03  0.4499E-01  0.4499E-01
     -3.516  0.4284E-03  0.4284E-03  0.4501E-01  0.4501E-01
     -3.467  0.7579E-03  0.7579E-03  0.4505E-01  0.4505E-01
     -3.418  0.1740E-02  0.1740E-02  0.4513E-01  0.4513E-01
     -3.370  0.2954E-02  0.2954E-02  0.4527E-01  0.4527E-01
     -3.321  0.3851E-02  0.3851E-02  0.4546E-01  0.4546E-01
     -3.272  0.4008E-02  0.4008E-02  0.4566E-01  0.4566E-01
     -3.224  0.3352E-02  0.3352E-02  0.4582E-01  0.4582E-01
     -3.175  0.2201E-02  0.2201E-02  0.4593E-01  0.4593E-01
     -3.126  0.1099E-02  0.1099E-02  0.4598E-01  0.4598E-01
     -3.078  0.5411E-03  0.5411E-03  0.4601E-01  0.4601E-01
     -3.029  0.7590E-03  0.7590E-03  0.4604E-01  0.4604E-01
     -2.980  0.1636E-02  0.1636E-02  0.4612E-01  0.4612E-01
     -2.932  0.2769E-02  0.2769E-02  0.4626E-01  0.4626E-01
     -2.883  0.3670E-02  0.3670E-02  0.4644E-01  0.4644E-01
     -2.834  0.4042E-02  0.4042E-02  0.4663E-01  0.4663E-01
     -2.786  0.3957E-02  0.3957E-02  0.4683E-01  0.4683E-01
     -2.737  0.3769E-02  0.3769E-02  0.4701E-01  0.4701E-01
     -2.688  0.3788E-02  0.3788E-02  0.4719E-01  0.4719E-01
     -2.640  0.4003E-02  0.4003E-02  0.4739E-01  0.4739E-01
     -2.591  0.4096E-02  0.4096E-02  0.4759E-01  0.4759E-01
     -2.542  0.3736E-02  0.3736E-02  0.4777E-01  0.4777E-01
     -2.494  0.2866E-02  0.2866E-02  0.4791E-01  0.4791E-01
     -2.445  0.1744E-02  0.1744E-02  0.4799E-01  0.4799E-01
     -2.396  0.7227E-03  0.7227E-03  0.4803E-01  0.4803E-01
     -2.348  0.2137E-04  0.2137E-04  0.4803E-01  0.4803E-01
     -2.299 -0.3580E-03 -0.3580E-03  0.4801E-01  0.4801E-01
     -2.250 -0.5330E-03 -0.5330E-03  0.4799E-01  0.4799E-01
     -2.202 -0.5798E-03 -0.5798E-03  0.4796E-01  0.4796E-01
     -2.153 -0.4170E-03 -0.4170E-03  0.4794E-01  0.4794E-01
     -2.104  0.1924E-03  0.1924E-03  0.4795E-01  0.4795E-01
     -2.056  0.1493E-02  0.1493E-02  0.4802E-01  0.4802E-01
     -2.007  0.3494E-02  0.3494E-02  0.4819E-01  0.4819E-01
     -1.958  0.5781E-02  0.5781E-02  0.4847E-01  0.4847E-01
     -1.910  0.7589E-02  0.7589E-02  0.4884E-01  0.4884E-01
     -1.861  0.8185E-02  0.8185E-02  0.4924E-01  0.4924E-01
     -1.812  0.7305E-02  0.7305E-02  0.4959E-01  0.4959E-01
     -1.764  0.5335E-02  0.5335E-02  0.4985E-01  0.4985E-01
     -1.715  0.3057E-02  0.3057E-02  0.5000E-01  0.5000E-01
     -1.667  0.1191E-02  0.1191E-02  0.5006E-01  0.5006E-01
     -1.618  0.6989E-04  0.6989E-04  0.5006E-01  0.5006E-01
     -1.569 -0.3748E-03 -0.3748E-03  0.5005E-01  0.5005E-01
     -1.521 -0.4136E-03 -0.4136E-03  0.5003E-01  0.5003E-01
     -1.472 -0.3109E-03 -0.3109E-03  0.5001E-01  0.5001E-01
     -1.423 -0.2276E-03 -0.2276E-03  0.5000E-01  0.5000E-01
     -1.375 -0.2235E-03 -0.2235E-03  0.4999E-01  0.4999E-01
     -1.326 -0.2864E-03 -0.2864E-03  0.4997E-01  0.4997E-01
     -1.277 -0.3393E-03 -0.3393E-03  0.4996E-01  0.4996E-01
     -1.229 -0.2305E-03 -0.2305E-03  0.4995E-01  0.4995E-01
     -1.180  0.2474E-03  0.2474E-03  0.4996E-01  0.4996E-01
     -1.131  0.1269E-02  0.1269E-02  0.5002E-01  0.5002E-01
     -1.083  0.2832E-02  0.2832E-02  0.5016E-01  0.5016E-01
     -1.034  0.4661E-02  0.4661E-02  0.5039E-01  0.5039E-01
     -0.985  0.6252E-02  0.6252E-02  0.5069E-01  0.5069E-01
     -0.937  0.7105E-02  0.7105E-02  0.5103E-01  0.5103E-01
     -0.888  0.7013E-02  0.7013E-02  0.5138E-01  0.5138E-01
     -0.839  0.6200E-02  0.6200E-02  0.5168E-01  0.5168E-01
     -0.791  0.5190E-02  0.5190E-02  0.5193E-01  0.5193E-01
     -0.742  0.4481E-02  0.4481E-02  0.5215E-01  0.5215E-01
     -0.693  0.4270E-02  0.4270E-02  0.5236E-01  0.5236E-01
     -0.645  0.4435E-02  0.4435E-02  0.5257E-01  0.5257E-01
     -0.596  0.4728E-02  0.4728E-02  0.5280E-01  0.5280E-01
     -0.547  0.4959E-02  0.4959E-02  0.5304E-01  0.5304E-01
     -0.499  0.5006E-02  0.5006E-02  0.5329E-01  0.5329E-01
     -0.450  0.4740E-02  0.4740E-02  0.5352E-01  0.5352E-01
     -0.401  0.4041E-02  0.4041E-02  0.5371E-01  0.5371E-01
     -0.353  0.2935E-02  0.2935E-02  0.5386E-01  0.5386E-01
     -0.304  0.1694E-02  0.1694E-02  0.5394E-01  0.5394E-01
     -0.255  0.7676E-03  0.7677E-03  0.5398E-01  0.5398E-01
     -0.207  0.5781E-03  0.5781E-03  0.5401E-01  0.5401E-01
     -0.158  0.1323E-02  0.1323E-02  0.5407E-01  0.5407E-01
     -0.109  0.2868E-02  0.2868E-02  0.5421E-01  0.5421E-01
     -0.061  0.4769E-02  0.4769E-02  0.5444E-01  0.5444E-01
     -0.012  0.6408E-02  0.6408E-02  0.5475E-01  0.5475E-01
      0.037  0.7225E-02  0.7224E-02  0.5510E-01  0.5510E-01
      0.085  0.6942E-02  0.6942E-02  0.5544E-01  0.5544E-01
      0.134  0.5683E-02  0.5683E-02  0.5572E-01  0.5572E-01
      0.183  0.3892E-02  0.3893E-02  0.5591E-01  0.5591E-01
      0.231  0.2119E-02  0.2120E-02  0.5601E-01  0.5601E-01
      0.280  0.7748E-03  0.7754E-03  0.5605E-01  0.5605E-01
      0.329  0.9424E-06  0.1264E-05  0.5605E-01  0.5605E-01
      0.377 -0.2936E-03 -0.2934E-03  0.5603E-01  0.5603E-01
      0.426 -0.3052E-03 -0.3052E-03  0.5602E-01  0.5602E-01
      0.475 -0.2117E-03 -0.2117E-03  0.5601E-01  0.5601E-01
      0.523 -0.1160E-03 -0.1161E-03  0.5600E-01  0.5600E-01
      0.572 -0.5300E-04 -0.5303E-04  0.5600E-01  0.5600E-01
      0.621 -0.2064E-04 -0.2065E-04  0.5600E-01  0.5600E-01
      0.669 -0.6940E-05 -0.6944E-05  0.5600E-01  0.5600E-01
      0.718 -0.2029E-05 -0.2030E-05  0.5600E-01  0.5600E-01
      0.767 -0.5181E-06 -0.5186E-06  0.5600E-01  0.5600E-01
      0.815 -0.1160E-06 -0.1161E-06  0.5600E-01  0.5600E-01
      0.864 -0.2281E-07 -0.2284E-07  0.5600E-01  0.5600E-01
      0.913 -0.3950E-08 -0.3954E-08  0.5600E-01  0.5600E-01
      0.961 -0.6027E-09 -0.6034E-09  0.5600E-01  0.5600E-01
      1.010 -0.8115E-10 -0.8125E-10  0.5600E-01  0.5600E-01
      1.059 -0.9649E-11 -0.9662E-11  0.5600E-01  0.5600E-01
      1.107 -0.1014E-11 -0.1015E-11  0.5600E-01  0.5600E-01
      1.156 -0.9423E-13 -0.9437E-13  0.5600E-01  0.5600E-01
      1.205 -0.7753E-14 -0.7762E-14  0.5600E-01  0.5600E-01
      1.253 -0.5613E-15 -0.5613E-15  0.5600E-01  0.5600E-01
      1.302 -0.4107E-16 -0.4107E-16  0.5600E-01  0.5600E-01
      1.351  0.0000E+00  0.0000E+00  0.5600E-01  0.5600E-01
      1.399  0.0000E+00  0.0000E+00  0.5600E-01  0.5600E-01
      1.448  0.0000E+00  0.0000E+00  0.5600E-01  0.5600E-01
      1.497  0.0000E+00  0.0000E+00  0.5600E-01  0.5600E-01
      1.545  0.0000E+00  0.0000E+00  0.5600E-01  0.5600E-01
      1.594  0.0000E+00  0.0000E+00  0.5600E-01  0.5600E-01
      1.642  0.0000E+00  0.0000E+00  0.5600E-01  0.5600E-01
      1.691  0.0000E+00  0.0000E+00  0.5600E-01  0.5600E-01
      1.740  0.0000E+00  0.0000E+00  0.5600E-01  0.5600E-01
      1.788  0.0000E+00  0.0000E+00  0.5600E-01  0.5600E-01
      1.837  0.0000E+00  0.0000E+00  0.5600E-01  0.5600E-01
      1.886  0.0000E+00  0.0000E+00  0.5600E-01  0.5600E-01
      1.934  0.0000E+00  0.0000E+00  0.5600E-01  0.5600E-01
      1.983  0.0000E+00  0.0000E+00  0.5600E-01  0.5600E-01
      2.032  0.0000E+00  0.0000E+00  0.5600E-01  0.5600E-01
      2.080  0.0000E+00  0.0000E+00  0.5600E-01  0.5600E-01
