    8    8 1000    2
  0.1419692E+04  0.2316203E-08  0.2386869E-08  0.2054371E-08  0.5000000E-15
   1.0000000000000000E-004
  CAR 
 unknown system                          
     88      1     56
 
  0.1262379E-14  0.1262379E-14  0.1262379E-14  0.1000000E+01
    1      -10.518060    -10.518060   1.000000   1.000000
    2       -9.140585     -9.140585   1.000000   1.000000
    3       -8.844305     -8.844305   1.000000   1.000000
    4       -8.813492     -8.813492   1.000000   1.000000
    5       -8.550684     -8.550684   1.000000   1.000000
    6       -8.343542     -8.343542   1.000000   1.000000
    7       -8.292052     -8.292052   1.000000   1.000000
    8       -8.125096     -8.125096   1.000000   1.000000
    9       -8.074631     -8.074631   1.000000   1.000000
   10       -8.053401     -8.053401   1.000000   1.000000
   11       -7.853594     -7.853594   1.000000   1.000000
   12       -7.803172     -7.803172   1.000000   1.000000
   13       -7.649916     -7.649916   1.000000   1.000000
   14       -7.532954     -7.532954   1.000000   1.000000
   15       -7.474687     -7.474687   1.000000   1.000000
   16       -7.366468     -7.366468   1.000000   1.000000
   17       -7.321886     -7.321886   1.000000   1.000000
   18       -7.213458     -7.213458   1.000000   1.000000
   19       -7.155585     -7.155585   1.000000   1.000000
   20       -6.996042     -6.996042   1.000000   1.000000
   21       -6.973108     -6.973108   1.000000   1.000000
   22       -6.871302     -6.871302   1.000000   1.000000
   23       -6.506600     -6.506600   1.000000   1.000000
   24       -6.450285     -6.450285   1.000000   1.000000
   25       -6.381286     -6.381286   1.000000   1.000000
   26       -6.290591     -6.290591   1.000000   1.000000
   27       -6.263816     -6.263816   1.000000   1.000000
   28       -6.097953     -6.097953   1.000000   1.000000
   29       -5.969911     -5.969911   1.000000   1.000000
   30       -5.885424     -5.885424   1.000000   1.000000
   31       -5.872994     -5.872994   1.000000   1.000000
   32       -5.743411     -5.743411   1.000000   1.000000
   33       -5.720142     -5.720142   1.000000   1.000000
   34       -5.674546     -5.674546   1.000000   1.000000
   35       -5.600314     -5.600314   1.000000   1.000000
   36       -5.548420     -5.548420   1.000000   1.000000
   37       -5.536545     -5.536545   1.000000   1.000000
   38       -5.518321     -5.518321   1.000000   1.000000
   39       -5.486622     -5.486622   1.000000   1.000000
   40       -5.432526     -5.432526   1.000001   1.000001
   41       -5.382147     -5.382147   1.000003   1.000003
   42       -5.341948     -5.341948   1.000013   1.000013
   43       -5.230955     -5.230955   1.000301   1.000301
   44       -4.842794     -4.842794   0.999682   0.999682
   45       -3.760015     -3.760015  -0.000000  -0.000000
   46       -3.311659     -3.311659  -0.000000  -0.000000
   47       -2.874317     -2.874317  -0.000000  -0.000000
   48       -2.604316     -2.604316  -0.000000  -0.000000
   49       -1.914630     -1.914630  -0.000000  -0.000000
   50       -1.866094     -1.866094  -0.000000  -0.000000
   51       -1.000679     -1.000678  -0.000000  -0.000000
   52       -0.890747     -0.890746  -0.000000  -0.000000
   53       -0.655179     -0.655179  -0.000000  -0.000000
   54       -0.448221     -0.448220  -0.000000  -0.000000
   55       -0.035157     -0.035153  -0.000000  -0.000000
   56        0.080414      0.080443  -0.000000  -0.000000
