       N       E                     dE             d eps       ncg     rms          rms(c)
DAV:   1     0.678125999551E+03    0.67813E+03   -0.13566E+04   224   0.713E+02
DAV:   2     0.330969978304E+03   -0.34716E+03   -0.32084E+03   336   0.135E+02
DAV:   3     0.998123868104E+02   -0.23116E+03   -0.22090E+03   424   0.122E+02
DAV:   4     0.164864013041E+01   -0.98164E+02   -0.93579E+02   400   0.907E+01
DAV:   5    -0.181847949124E+02   -0.19833E+02   -0.18323E+02   360   0.498E+01    0.216E+01
DAV:   6    -0.487939879263E+01    0.13305E+02   -0.66566E+01   320   0.670E+01    0.105E+01
DAV:   7    -0.436225156136E+01    0.51715E+00   -0.11936E+01   288   0.748E+01    0.725E+00
DAV:   8    -0.684073163971E+01   -0.24785E+01   -0.28825E+00   320   0.330E+01    0.320E+00
DAV:   9    -0.815024806797E+01   -0.13095E+01   -0.12480E+00   320   0.221E+01    0.189E+00
DAV:  10    -0.101544180835E+02   -0.20042E+01   -0.73766E-01   336   0.139E+01    0.150E+00
DAV:  11    -0.131342528472E+02   -0.29798E+01   -0.12840E+00   328   0.706E+00    0.108E+00
DAV:  12    -0.152915138892E+02   -0.21573E+01   -0.94009E-01   304   0.531E+00    0.789E-01
DAV:  13    -0.161702980410E+02   -0.87878E+00   -0.25692E-01   328   0.483E+00    0.648E-01
DAV:  14    -0.171220861138E+02   -0.95179E+00   -0.27705E-01   296   0.333E+00    0.420E-01
DAV:  15    -0.174375659433E+02   -0.31548E+00   -0.93303E-02   288   0.116E+00    0.305E-01
DAV:  16    -0.176683827029E+02   -0.23082E+00   -0.22124E-02   320   0.849E-01    0.203E-01
DAV:  17    -0.179105304521E+02   -0.24215E+00   -0.11224E-02   296   0.653E-01    0.140E-01
DAV:  18    -0.180814474554E+02   -0.17092E+00   -0.63344E-03   312   0.430E-01    0.770E-02
DAV:  19    -0.181453514569E+02   -0.63904E-01   -0.21012E-03   264   0.400E-01    0.503E-02
DAV:  20    -0.181728339699E+02   -0.27483E-01   -0.56291E-04   192   0.334E-01    0.340E-02
DAV:  21    -0.181852594434E+02   -0.12425E-01   -0.40490E-04   216   0.228E-01    0.224E-02
DAV:  22    -0.181938907077E+02   -0.86313E-02   -0.12903E-04   176   0.134E-01    0.164E-02
DAV:  23    -0.182037702740E+02   -0.98796E-02   -0.15155E-04   184   0.139E-01    0.123E-02
DAV:  24    -0.182084402664E+02   -0.46700E-02   -0.10286E-04   168   0.967E-02    0.870E-03
DAV:  25    -0.182108341882E+02   -0.23939E-02   -0.34523E-05   176   0.642E-02    0.632E-03
DAV:  26    -0.182133658006E+02   -0.25316E-02   -0.30398E-05   152   0.497E-02    0.491E-03
DAV:  27    -0.182145297584E+02   -0.11640E-02   -0.16199E-05   160   0.398E-02    0.421E-03
DAV:  28    -0.182150990124E+02   -0.56925E-03   -0.78112E-06   152   0.371E-02    0.210E-03
DAV:  29    -0.182153297777E+02   -0.23077E-03   -0.64603E-06   144   0.186E-02    0.247E-03
DAV:  30    -0.182153905248E+02   -0.60747E-04   -0.33054E-06   144   0.176E-02
   1 F= -.18215391E+02 E0= -.18221540E+02  d E =-.182154E+02  mag=     0.0009
       N       E                     dE             d eps       ncg     rms          rms(c)
DAV:   1    -0.177464204903E+02    0.46891E+00   -0.28099E+02   224   0.611E+01    0.341E+00
DAV:   2    -0.187645439869E+02   -0.10181E+01   -0.10793E+01   352   0.284E+01    0.294E+00
DAV:   3    -0.186977761309E+02    0.66768E-01   -0.47902E-01   320   0.138E+01    0.179E+00
DAV:   4    -0.186897868392E+02    0.79893E-02   -0.10943E-01   328   0.776E+00    0.108E+00
DAV:   5    -0.186908995022E+02   -0.11127E-02   -0.86715E-02   320   0.964E+00    0.431E-01
DAV:   6    -0.186871368054E+02    0.37627E-02   -0.23310E-02   288   0.571E+00    0.180E-01
DAV:   7    -0.186866320751E+02    0.50473E-03   -0.75320E-03   344   0.649E-01    0.105E-01
DAV:   8    -0.186865502232E+02    0.81852E-04   -0.85719E-04   256   0.749E-01
   2 F= -.18686550E+02 E0= -.18691760E+02  d E =-.471160E+00  mag=     0.0004
       N       E                     dE             d eps       ncg     rms          rms(c)
DAV:   1    -0.186155074246E+02    0.71125E-01   -0.35198E+01   224   0.206E+01    0.939E-01
DAV:   2    -0.187158765630E+02   -0.10037E+00   -0.10661E+00   352   0.102E+01    0.820E-01
DAV:   3    -0.187094087951E+02    0.64678E-02   -0.49025E-02   320   0.507E+00    0.476E-01
DAV:   4    -0.187085938582E+02    0.81494E-03   -0.11388E-02   352   0.223E+00    0.292E-01
DAV:   5    -0.187087556922E+02   -0.16183E-03   -0.66308E-03   312   0.268E+00    0.133E-01
DAV:   6    -0.187085264176E+02    0.22927E-03   -0.18243E-03   288   0.146E+00    0.562E-02
DAV:   7    -0.187084853067E+02    0.41111E-04   -0.56206E-04   272   0.237E-01
   3 F= -.18708485E+02 E0= -.18713548E+02  d E =-.493095E+00  mag=     0.0002
       N       E                     dE             d eps       ncg     rms          rms(c)
DAV:   1    -0.187143366098E+02   -0.58102E-02   -0.18691E+01   240   0.176E+01    0.538E-01
DAV:   2    -0.187603469348E+02   -0.46010E-01   -0.52299E-01   352   0.776E+00    0.562E-01
DAV:   3    -0.187553643430E+02    0.49826E-02   -0.30184E-02   304   0.424E+00    0.217E-01
DAV:   4    -0.187553312575E+02    0.33086E-04   -0.56663E-03   336   0.113E+00    0.164E-01
DAV:   5    -0.187551985158E+02    0.13274E-03   -0.59977E-04   240   0.618E-01    0.129E-01
DAV:   6    -0.187552434057E+02   -0.44890E-04   -0.19472E-03   336   0.394E-01    0.719E-02
DAV:   7    -0.187551387197E+02    0.10469E-03   -0.27875E-04   192   0.449E-01    0.289E-02
DAV:   8    -0.187551410043E+02   -0.22846E-05   -0.15039E-04   160   0.237E-01
   4 F= -.18755141E+02 E0= -.18760150E+02  d E =-.466557E-01  mag=     0.0001
       N       E                     dE             d eps       ncg     rms          rms(c)
DAV:   1    -0.185542696972E+02    0.20087E+00   -0.93479E+01   240   0.416E+01    0.118E+00
DAV:   2    -0.188073577226E+02   -0.25309E+00   -0.27787E+00   352   0.161E+01    0.105E+00
DAV:   3    -0.187903350007E+02    0.17023E-01   -0.11392E-01   304   0.899E+00    0.467E-01
DAV:   4    -0.187894637845E+02    0.87122E-03   -0.19456E-02   328   0.229E+00    0.368E-01
DAV:   5    -0.187883644309E+02    0.10994E-02   -0.46867E-03   328   0.152E+00    0.252E-01
DAV:   6    -0.187878137147E+02    0.55072E-03   -0.62991E-03   400   0.110E+00    0.796E-02
DAV:   7    -0.187877364613E+02    0.77253E-04   -0.11429E-03   296   0.905E-01    0.376E-02
DAV:   8    -0.187877730291E+02   -0.36568E-04   -0.27639E-04   200   0.328E-01
   5 F= -.18787773E+02 E0= -.18792710E+02  d E =-.792877E-01  mag=     0.0000
       N       E                     dE             d eps       ncg     rms          rms(c)
DAV:   1    -0.187825881286E+02    0.51483E-02   -0.33235E+00   240   0.737E+00    0.157E-01
DAV:   2    -0.187902941911E+02   -0.77061E-02   -0.80134E-02   352   0.265E+00    0.196E-01
DAV:   3    -0.187898344183E+02    0.45977E-03   -0.25061E-03   272   0.137E+00    0.103E-01
DAV:   4    -0.187898114611E+02    0.22957E-04   -0.55771E-04   256   0.366E-01
   6 F= -.18789811E+02 E0= -.18794709E+02  d E =-.813262E-01  mag=     0.0000
       N       E                     dE             d eps       ncg     rms          rms(c)
DAV:   1    -0.187590697268E+02    0.30765E-01   -0.23725E+01   240   0.198E+01    0.530E-01
DAV:   2    -0.188269235931E+02   -0.67854E-01   -0.72695E-01   352   0.895E+00    0.599E-01
DAV:   3    -0.188219737219E+02    0.49499E-02   -0.30681E-02   320   0.472E+00    0.280E-01
DAV:   4    -0.188216121277E+02    0.36159E-03   -0.49127E-03   336   0.118E+00    0.210E-01
DAV:   5    -0.188212977216E+02    0.31441E-03   -0.14337E-03   336   0.951E-01    0.160E-01
DAV:   6    -0.188210659206E+02    0.23180E-03   -0.21006E-03   384   0.621E-01    0.504E-02
DAV:   7    -0.188210642783E+02    0.16423E-05   -0.45528E-04   224   0.513E-01
   7 F= -.18821064E+02 E0= -.18825833E+02  d E =-.312528E-01  mag=     0.0000
       N       E                     dE             d eps       ncg     rms          rms(c)
DAV:   1    -0.184942425338E+02    0.32682E+00   -0.12113E+02   240   0.476E+01    0.124E+00
DAV:   2    -0.188716326574E+02   -0.37739E+00   -0.39948E+00   352   0.194E+01    0.122E+00
DAV:   3    -0.188511452095E+02    0.20487E-01   -0.13935E-01   320   0.108E+01    0.584E-01
DAV:   4    -0.188497016602E+02    0.14435E-02   -0.20184E-02   336   0.235E+00    0.469E-01
DAV:   5    -0.188476522487E+02    0.20494E-02   -0.82969E-03   336   0.177E+00    0.323E-01
DAV:   6    -0.188465269423E+02    0.11253E-02   -0.89843E-03   384   0.147E+00    0.903E-02
DAV:   7    -0.188465782358E+02   -0.51294E-04   -0.22184E-03   336   0.125E+00    0.647E-02
DAV:   8    -0.188465609882E+02    0.17248E-04   -0.35745E-04   208   0.517E-01
   8 F= -.18846561E+02 E0= -.18851031E+02  d E =-.567495E-01  mag=     0.0000
       N       E                     dE             d eps       ncg     rms          rms(c)
DAV:   1    -0.187888618894E+02    0.57716E-01   -0.25821E+01   240   0.200E+01    0.616E-01
DAV:   2    -0.188689581628E+02   -0.80096E-01   -0.86498E-01   352   0.996E+00    0.761E-01
DAV:   3    -0.188618597124E+02    0.70985E-02   -0.40919E-02   320   0.470E+00    0.373E-01
DAV:   4    -0.188612567582E+02    0.60295E-03   -0.87060E-03   336   0.183E+00    0.272E-01
DAV:   5    -0.188607265026E+02    0.53026E-03   -0.32783E-03   304   0.171E+00    0.179E-01
DAV:   6    -0.188606352596E+02    0.91243E-04   -0.30887E-03   336   0.610E-01    0.484E-02
DAV:   7    -0.188606626512E+02   -0.27392E-04   -0.54377E-04   256   0.480E-01
   9 F= -.18860663E+02 E0= -.18865054E+02  d E =-.141017E-01  mag=     0.0000
       N       E                     dE             d eps       ncg     rms          rms(c)
DAV:   1    -0.188405494047E+02    0.20086E-01   -0.87061E+00   240   0.115E+01    0.349E-01
DAV:   2    -0.188653719277E+02   -0.24823E-01   -0.27124E-01   352   0.581E+00    0.449E-01
DAV:   3    -0.188628873118E+02    0.24846E-02   -0.14381E-02   304   0.257E+00    0.209E-01
DAV:   4    -0.188626947618E+02    0.19255E-03   -0.26007E-03   336   0.899E-01    0.149E-01
DAV:   5    -0.188625662185E+02    0.12854E-03   -0.10516E-03   208   0.104E+00    0.103E-01
DAV:   6    -0.188625797331E+02   -0.13515E-04   -0.13461E-03   336   0.421E-01    0.357E-02
DAV:   7    -0.188625753375E+02    0.43956E-05   -0.10766E-04   160   0.219E-01
  10 F= -.18862575E+02 E0= -.18866913E+02  d E =-.160143E-01  mag=     0.0000
       N       E                     dE             d eps       ncg     rms          rms(c)
DAV:   1    -0.188446530358E+02    0.17927E-01   -0.10874E+01   240   0.133E+01    0.427E-01
DAV:   2    -0.188712474137E+02   -0.26594E-01   -0.29995E-01   336   0.702E+00    0.451E-01
DAV:   3    -0.188682510081E+02    0.29964E-02   -0.22549E-02   288   0.439E+00    0.176E-01
DAV:   4    -0.188682053993E+02    0.45609E-04   -0.40464E-03   336   0.990E-01    0.130E-01
DAV:   5    -0.188680904288E+02    0.11497E-03   -0.65859E-04   208   0.520E-01    0.882E-02
DAV:   6    -0.188681013536E+02   -0.10925E-04   -0.91382E-04   304   0.365E-01
  11 F= -.18868101E+02 E0= -.18872316E+02  d E =-.552602E-02  mag=     0.0000
       N       E                     dE             d eps       ncg     rms          rms(c)
DAV:   1    -0.188673444678E+02    0.74596E-03   -0.43682E-01   240   0.267E+00    0.671E-02
DAV:   2    -0.188682563382E+02   -0.91187E-03   -0.95723E-03   336   0.841E-01    0.546E-02
DAV:   3    -0.188682344231E+02    0.21915E-04   -0.32237E-04   208   0.554E-01
  12 F= -.18868234E+02 E0= -.18872440E+02  d E =-.565909E-02  mag=     0.0000
       N       E                     dE             d eps       ncg     rms          rms(c)
DAV:   1    -0.188589648201E+02    0.92915E-02   -0.57848E+00   240   0.979E+00    0.257E-01
DAV:   2    -0.188727787249E+02   -0.13814E-01   -0.15166E-01   336   0.455E+00    0.325E-01
DAV:   3    -0.188714931790E+02    0.12855E-02   -0.99421E-03   288   0.241E+00    0.146E-01
DAV:   4    -0.188713913881E+02    0.10179E-03   -0.14644E-03   288   0.693E-01    0.110E-01
DAV:   5    -0.188713125005E+02    0.78888E-04   -0.37772E-04   208   0.491E-01
  13 F= -.18871313E+02 E0= -.18875418E+02  d E =-.307808E-02  mag=     0.0000
       N       E                     dE             d eps       ncg     rms          rms(c)
DAV:   1    -0.188619124775E+02    0.94789E-02   -0.48347E+00   240   0.893E+00    0.229E-01
DAV:   2    -0.188727453528E+02   -0.10833E-01   -0.11821E-01   336   0.410E+00    0.279E-01
DAV:   3    -0.188718881263E+02    0.85723E-03   -0.85916E-03   256   0.239E+00    0.116E-01
DAV:   4    -0.188718576296E+02    0.30497E-04   -0.13553E-03   272   0.656E-01    0.874E-02
DAV:   5    -0.188718232346E+02    0.34395E-04   -0.31719E-04   192   0.391E-01
  14 F= -.18871823E+02 E0= -.18875861E+02  d E =-.358881E-02  mag=     0.0000
       N       E                     dE             d eps       ncg     rms          rms(c)
DAV:   1    -0.188635207539E+02    0.83369E-02   -0.43244E+00   240   0.821E+00    0.209E-01
DAV:   2    -0.188737044618E+02   -0.10184E-01   -0.10777E-01   320   0.328E+00    0.230E-01
DAV:   3    -0.188731761663E+02    0.52830E-03   -0.49392E-03   256   0.164E+00    0.114E-01
DAV:   4    -0.188731324288E+02    0.43737E-04   -0.99963E-04   256   0.724E-01
  15 F= -.18873132E+02 E0= -.18877124E+02  d E =-.130919E-02  mag=     0.0000
       N       E                     dE             d eps       ncg     rms          rms(c)
DAV:   1    -0.188729171755E+02    0.25899E-03   -0.95877E-02   256   0.138E+00    0.650E-02
DAV:   2    -0.188731661278E+02   -0.24895E-03   -0.26709E-03   304   0.470E-01    0.460E-02
DAV:   3    -0.188731584337E+02    0.76940E-05   -0.11725E-04   128   0.260E-01
  16 F= -.18873158E+02 E0= -.18877144E+02  d E =-.133520E-02  mag=     0.0000
       N       E                     dE             d eps       ncg     rms          rms(c)
DAV:   1    -0.188701042407E+02    0.30619E-02   -0.23139E+00   240   0.616E+00    0.173E-01
DAV:   2    -0.188745461307E+02   -0.44419E-02   -0.48612E-02   336   0.231E+00    0.171E-01
DAV:   3    -0.188741831220E+02    0.36301E-03   -0.31757E-03   256   0.147E+00    0.768E-02
DAV:   4    -0.188741833937E+02   -0.27171E-06   -0.64733E-04   224   0.553E-01
  17 F= -.18874183E+02 E0= -.18878147E+02  d E =-.102496E-02  mag=     0.0000
       N       E                     dE             d eps       ncg     rms          rms(c)
DAV:   1    -0.188741713886E+02    0.11733E-04   -0.78803E-03   320   0.523E-01    0.275E-02
DAV:   2    -0.188741919948E+02   -0.20606E-04   -0.65921E-05   144   0.265E-01
  18 F= -.18874192E+02 E0= -.18878155E+02  d E =-.103356E-02  mag=     0.0000
       N       E                     dE             d eps       ncg     rms          rms(c)
DAV:   1    -0.188728421614E+02    0.13292E-02   -0.76108E-01   240   0.339E+00    0.965E-02
DAV:   2    -0.188747351179E+02   -0.18930E-02   -0.19755E-02   320   0.134E+00    0.941E-02
DAV:   3    -0.188746346151E+02    0.10050E-03   -0.68663E-04   240   0.792E-01    0.489E-02
DAV:   4    -0.188746311004E+02    0.35147E-05   -0.13529E-04   128   0.288E-01
  19 F= -.18874631E+02 E0= -.18878586E+02  d E =-.439106E-03  mag=     0.0000
       N       E                     dE             d eps       ncg     rms          rms(c)
DAV:   1    -0.188744137853E+02    0.22083E-03   -0.63817E-02   240   0.104E+00    0.286E-02
DAV:   2    -0.188746208226E+02   -0.20704E-03   -0.21135E-03   336   0.378E-01    0.184E-02
DAV:   3    -0.188746277959E+02   -0.69734E-05   -0.79392E-05   128   0.159E-01
  20 F= -.18874628E+02 E0= -.18878584E+02  d E =-.435801E-03  mag=     0.0000
