 vasp.6.1.2 22Jul20 (build Aug  2 2021 21:04:21) gamma-only                      
 executed on             LinuxPGI date 2021.12.11  20:27:55
 running on   16 total cores
 distrk:  each k-point on   16 cores,    1 groups
 distr:  one band on NCORE=   8 cores,    2 groups


--------------------------------------------------------------------------------------------------------


 INCAR:
 POTCAR:    PAW_PBE Au 04Oct2007                  
 POTCAR:    PAW_PBE Cu 22Jun2005                  
 -----------------------------------------------------------------------------
|                                                                             |
|           W    W    AA    RRRRR   N    N  II  N    N   GGGG   !!!           |
|           W    W   A  A   R    R  NN   N  II  NN   N  G    G  !!!           |
|           W    W  A    A  R    R  N N  N  II  N N  N  G       !!!           |
|           W WW W  AAAAAA  RRRRR   N  N N  II  N  N N  G  GGG   !            |
|           WW  WW  A    A  R   R   N   NN  II  N   NN  G    G                |
|           W    W  A    A  R    R  N    N  II  N    N   GGGG   !!!           |
|                                                                             |
|     You use a magnetic or noncollinear calculation, but did not specify     |
|     the initial magnetic moment with the MAGMOM tag. Note that a            |
|     default of 1 will be used for all atoms. This ferromagnetic setup       |
|     may break the symmetry of the crystal, in particular it may rule        |
|     out finding an antiferromagnetic solution. Thence, we recommend         |
|     setting the initial magnetic moment manually or verifying carefully     |
|     that this magnetic setup is desired.                                    |
|                                                                             |
 -----------------------------------------------------------------------------

 POTCAR:    PAW_PBE Au 04Oct2007                  
   SHA256 =  d0044ae04e2bdce24051b198fc5c053d722a5bc6fe3c3b100514a13fc5d2db88 Au/POTCAR             
   COPYR  = (c) Copyright 04Oct2007 Georg Kresse                                                    
   COPYR  = This file is part of the software VASP. Any use, copying, and all other rights are regul
   COPYR  = If you do not have a valid VASP license, you may not use, copy or distribute this file. 
   VRHFIN =Au: s1d10                                                                                
   LEXCH  = PE                                                                                      
   EATOM  =   926.0867 eV,   68.0654 Ry                                                             
                                                                                                    
   TITEL  = PAW_PBE Au 04Oct2007                                                                    
   LULTRA =        F    use ultrasoft PP ?                                                          
   IUNSCR =        1    unscreen: 0-lin 1-nonlin 2-no                                               
   RPACOR =    2.330    partial core radius                                                         
   POMASS =  196.966; ZVAL   =   11.000    mass and valenz                                          
   RCORE  =    2.500    outmost cutoff radius                                                       
   RWIGS  =    2.840; RWIGS  =    1.503    wigner-seitz radius (au A)                               
   ENMAX  =  229.943; ENMIN  =  172.457 eV                                                          
   ICORE  =        3    local potential                                                             
   LCOR   =        T    correct aug charges                                                         
   LPAW   =        T    paw PP                                                                      
   EAUG   =  356.670                                                                                
   DEXC   =    0.000                                                                                
   RMAX   =    2.562    core radius for proj-oper                                                   
   RAUG   =    1.300    factor for augmentation sphere                                              
   RDEP   =    2.598    radius for radial grids                                                     
   RDEPT  =    2.193    core radius for aug-charge                                                  
                                                                                                    
   Atomic configuration                                                                             
   16 entries                                                                                       
     n  l   j            E        occ.                                                              
     1  0  0.50    -80748.5001   2.0000                                                             
     2  0  0.50    -14244.7466   2.0000                                                             
     2  1  1.50    -12310.9591   6.0000                                                             
     3  0  0.50     -3362.1768   2.0000                                                             
     3  1  1.50     -2801.5463   6.0000                                                             
     3  2  2.50     -2203.8206  10.0000                                                             
     4  0  0.50      -729.8168   2.0000                                                             
     4  1  1.50      -546.0527   6.0000                                                             
     4  2  2.50      -325.7302  10.0000                                                             
     4  3  3.50       -81.1472  14.0000                                                             
     5  0  0.50      -108.3201   2.0000                                                             
     5  1  1.50       -59.7479   6.0000                                                             
     5  2  2.50        -6.8783  10.0000                                                             
     6  0  0.50        -5.7602   1.0000                                                             
     6  1  1.50        -6.8029   0.0000                                                             
     5  3  2.50        -1.3606   0.0000                                                             
   Description                                                                                      
     l       E           TYP  RCUT    TYP  RCUT                                                     
     2     -6.8782861     23  2.500                                                                 
     2     -8.2388687     23  2.500                                                                 
     0     -5.7601759     23  2.500                                                                 
     0     -0.8493231     23  2.500                                                                 
     1     -2.7211652     23  2.500                                                                 
     1     27.2116520     23  2.500                                                                 
     3     -1.3605826     23  2.500                                                                 
  local pseudopotential read in
  partial core-charges read in
  partial kinetic energy density read in
  atomic valenz-charges read in
  non local Contribution for L=            2  read in
    real space projection operators read in
  non local Contribution for L=            2  read in
    real space projection operators read in
  non local Contribution for L=            0  read in
    real space projection operators read in
  non local Contribution for L=            0  read in
    real space projection operators read in
  non local Contribution for L=            1  read in
    real space projection operators read in
  non local Contribution for L=            1  read in
    real space projection operators read in
    PAW grid and wavefunctions read in
 
   number of l-projection  operators is LMAX  =            6
   number of lm-projection operators is LMMAX =           18
 
 POTCAR:    PAW_PBE Cu 22Jun2005                  
   SHA256 =  0e71e558f37a4e8407882b4609ceaae59938afaad9ced71dfe8490308a0ab630 Cu/POTCAR             
   COPYR  = (c) Copyright 22Jun2005 Georg Kresse                                                    
   COPYR  = This file is part of the software VASP. Any use, copying, and all other rights are regul
   COPYR  = If you do not have a valid VASP license, you may not use, copy or distribute this file. 
   VRHFIN =Cu: d10 p1                                                                               
   LEXCH  = PE                                                                                      
   EATOM  =  1390.9808 eV,  102.2342 Ry                                                             
                                                                                                    
   TITEL  = PAW_PBE Cu 22Jun2005                                                                    
   LULTRA =        F    use ultrasoft PP ?                                                          
   IUNSCR =        1    unscreen: 0-lin 1-nonlin 2-no                                               
   RPACOR =    2.000    partial core radius                                                         
   POMASS =   63.546; ZVAL   =   11.000    mass and valenz                                          
   RCORE  =    2.300    outmost cutoff radius                                                       
   RWIGS  =    2.200; RWIGS  =    1.164    wigner-seitz radius (au A)                               
   ENMAX  =  295.446; ENMIN  =  221.585 eV                                                          
   ICORE  =        3    local potential                                                             
   LCOR   =        T    correct aug charges                                                         
   LPAW   =        T    paw PP                                                                      
   EAUG   =  586.980                                                                                
   DEXC   =    0.000                                                                                
   RMAX   =    2.344    core radius for proj-oper                                                   
   RAUG   =    1.300    factor for augmentation sphere                                              
   RDEP   =    2.302    radius for radial grids                                                     
   RDEPT  =    1.771    core radius for aug-charge                                                  
                                                                                                    
   Atomic configuration                                                                             
    9 entries                                                                                       
     n  l   j            E        occ.                                                              
     1  0  0.50     -8850.2468   2.0000                                                             
     2  0  0.50     -1062.3498   2.0000                                                             
     2  1  1.50      -916.8226   6.0000                                                             
     3  0  0.50      -114.6929   2.0000                                                             
     3  1  1.50       -72.1325   6.0000                                                             
     3  2  2.50        -5.0394  10.0000                                                             
     4  0  0.50        -4.6097   1.0000                                                             
     4  1  0.50        -4.0817   0.0000                                                             
     4  3  2.50        -1.3606   0.0000                                                             
   Description                                                                                      
     l       E           TYP  RCUT    TYP  RCUT                                                     
     2     -5.0393973     23  2.200                                                                 
     2     10.8846608     23  2.200                                                                 
     0     -4.6097109     23  2.200                                                                 
     0      8.2520465     23  2.200                                                                 
     1     -2.7211652     23  2.200                                                                 
     1     21.7055443     23  2.200                                                                 
     3      2.7211652     23  2.300                                                                 
  local pseudopotential read in
  partial core-charges read in
  partial kinetic energy density read in
  atomic valenz-charges read in
  non local Contribution for L=            2  read in
    real space projection operators read in
  non local Contribution for L=            2  read in
    real space projection operators read in
  non local Contribution for L=            0  read in
    real space projection operators read in
  non local Contribution for L=            0  read in
    real space projection operators read in
  non local Contribution for L=            1  read in
    real space projection operators read in
  non local Contribution for L=            1  read in
    real space projection operators read in
    PAW grid and wavefunctions read in
 
   number of l-projection  operators is LMAX  =            6
   number of lm-projection operators is LMMAX =           18
 
  PAW_PBE Au 04Oct2007                  :
 energy of atom  1       EATOM= -926.0867
 kinetic energy error for atom=    0.0062 (will be added to EATOM!!)
  PAW_PBE Cu 22Jun2005                  :
 energy of atom  2       EATOM=-1390.9808
 kinetic energy error for atom=    0.0232 (will be added to EATOM!!)
 
 
 POSCAR: Au Cu
  positions in cartesian coordinates
  No initial velocities read in
 exchange correlation table for  LEXCH =        8
   RHO(1)=    0.500       N(1)  =     2000
   RHO(2)=  100.500       N(2)  =     4000
 


--------------------------------------------------------------------------------------------------------


 ion  position               nearest neighbor table
   1  0.421  0.466  0.516-   5 2.55   2 2.55   7 2.56   8 2.58   3 2.61
   2  0.442  0.570  0.532-   5 2.51   6 2.51   1 2.55   8 2.56
   3  0.506  0.396  0.530-   4 2.52   7 2.55   8 2.57   1 2.61
   4  0.587  0.458  0.489-   3 2.52   6 2.53   8 2.54   7 2.54
   5  0.427  0.533  0.419-   6 2.48   2 2.51   7 2.53   1 2.55
   6  0.527  0.543  0.462-   5 2.48   7 2.48   8 2.51   2 2.51   4 2.53
   7  0.494  0.449  0.424-   6 2.48   5 2.53   4 2.54   3 2.55   1 2.56
   8  0.515  0.497  0.571-   6 2.51   4 2.54   2 2.56   3 2.57   1 2.58
 

IMPORTANT INFORMATION: All symmetrisations will be switched off!
NOSYMM: (Re-)initialisation of all symmetry stuff for point group C_1.


----------------------------------------------------------------------------------------

                                     Primitive cell                                     

  volume of cell :   11357.5336

  direct lattice vectors                    reciprocal lattice vectors
    23.162027032  0.000000000  0.000000000     0.043174114  0.000000000  0.000000000
     0.000000000 23.868687275  0.000000000     0.000000000  0.041895894  0.000000000
     0.000000000  0.000000000 20.543712699     0.000000000  0.000000000  0.048676693

  length of vectors
    23.162027032 23.868687275 20.543712699     0.043174114  0.041895894  0.048676693

  position of ions in fractional coordinates (direct lattice)
     0.420925253  0.466098765  0.515571165
     0.442118077  0.570162335  0.531918009
     0.506319852  0.395694353  0.530468152
     0.586666927  0.457701029  0.489436089
     0.426913700  0.533050305  0.419112295
     0.526585671  0.543025547  0.461993057
     0.493923301  0.449404596  0.424000283
     0.515239526  0.497230481  0.571224755

  ion indices of the primitive-cell ions
   primitive index   ion index
                 1           1
                 2           2
                 3           3
                 4           4
                 5           5
                 6           6
                 7           7
                 8           8

----------------------------------------------------------------------------------------

 
 
 KPOINTS: KPOINTS created by Atomic Simulation Env

Automatic generation of k-mesh.
Space group operators:
 irot       det(A)        alpha          n_x          n_y          n_z        tau_x        tau_y        tau_z
    1     1.000000     0.000000     1.000000     0.000000     0.000000     0.000000     0.000000     0.000000
 
 Subroutine IBZKPT returns following result:
 ===========================================
 
 Found      1 irreducible k-points:
 
 Following reciprocal coordinates:
            Coordinates               Weight
  0.000000  0.000000  0.000000      1.000000
 
 Following cartesian coordinates:
            Coordinates               Weight
  0.000000  0.000000  0.000000      1.000000
 


--------------------------------------------------------------------------------------------------------




 Dimension of arrays:
   k-points           NKPTS =      1   k-points in BZ     NKDIM =      1   number of bands    NBANDS=     56
   number of dos      NEDOS =    301   number of ions     NIONS =      8
   non local maximal  LDIM  =      6   non local SUM 2l+1 LMDIM =     18
   total plane-waves  NPLWV = ******
   max r-space proj   IRMAX =      1   max aug-charges    IRDMAX=   8572
   dimension x,y,z NGX =   120 NGY =  120 NGZ =  108
   dimension x,y,z NGXF=   240 NGYF=  240 NGZF=  216
   support grid    NGXF=   240 NGYF=  240 NGZF=  216
   ions per type =               4   4
   NGX,Y,Z   is equivalent  to a cutoff of   8.61,  8.36,  8.74 a.u.
   NGXF,Y,Z  is equivalent  to a cutoff of  17.23, 16.72, 17.48 a.u.

 SYSTEM =  unknown system                          
 POSCAR =  Au Cu                                   

 Startparameter for this run:
   NWRITE =      2    write-flag & timer
   PREC   = normal    normal or accurate (medium, high low for compatibility)
   ISTART =      0    job   : 0-new  1-cont  2-samecut
   ICHARG =      2    charge: 1-file 2-atom 10-const
   ISPIN  =      2    spin polarized calculation?
   LNONCOLLINEAR =      F non collinear calculations
   LSORBIT =      F    spin-orbit coupling
   INIWAV =      1    electr: 0-lowe 1-rand  2-diag
   LASPH  =      F    aspherical Exc in radial PAW
   METAGGA=      F    non-selfconsistent MetaGGA calc.

 Electronic Relaxation 1
   ENCUT  =  400.0 eV  29.40 Ry    5.42 a.u.  37.77 38.92 33.50*2*pi/ulx,y,z
   ENINI  =  400.0     initial cutoff
   ENAUG  =  587.0 eV  augmentation charge cutoff
   NELM   =     60;   NELMIN=  2; NELMDL=  0     # of ELM steps 
   EDIFF  = 0.1E-03   stopping-criterion for ELM
   LREAL  =      F    real-space projection
   NLSPLINE    = F    spline interpolate recip. space projectors
   LCOMPAT=      F    compatible to vasp.4.4
   GGA_COMPAT  = T    GGA compatible to vasp.4.4-vasp.4.6
   LMAXPAW     = -100 max onsite density
   LMAXMIX     =    2 max onsite mixed and CHGCAR
   VOSKOWN=      0    Vosko Wilk Nusair interpolation
   ROPT   =    0.00000   0.00000
 Ionic relaxation
   EDIFFG = 0.1E-02   stopping-criterion for IOM
   NSW    =   1000    number of steps for IOM
   NBLOCK =      1;   KBLOCK =   1000    inner block; outer block 
   IBRION =      2    ionic relax: 0-MD 1-quasi-New 2-CG
   NFREE  =      1    steps in history (QN), initial steepest desc. (CG)
   ISIF   =      0    stress and relaxation
   IWAVPR =     11    prediction:  0-non 1-charg 2-wave 3-comb
   ISYM   =      0    0-nonsym 1-usesym 2-fastsym
   LCORR  =      T    Harris-Foulkes like correction to forces

   POTIM  = 0.5000    time-step for ionic-motion
   TEIN   =    0.0    initial temperature
   TEBEG  =    0.0;   TEEND  =   0.0 temperature during run
   SMASS  =  -3.00    Nose mass-parameter (am)
   estimated Nose-frequenzy (Omega)   =  0.10E-29 period in steps = 0.13E+47 mass=  -0.123E-25a.u.
   SCALEE = 1.0000    scale energy and forces
   NPACO  =    256;   APACO  = 16.0  distance and # of slots for P.C.
   PSTRESS=    0.0 pullay stress

  Mass of Ions in am
   POMASS = 196.97 63.55
  Ionic Valenz
   ZVAL   =  11.00 11.00
  Atomic Wigner-Seitz radii
   RWIGS  =  -1.00 -1.00
  virtual crystal weights 
   VCA    =   1.00  1.00
   NELECT =      88.0000    total number of electrons
   NUPDOWN=      -1.0000    fix difference up-down

 DOS related values:
   EMIN   =  10.00;   EMAX   =-10.00  energy-range for DOS
   EFERMI =   0.00
   ISMEAR =     1;   SIGMA  =   0.20  broadening in eV -4-tet -1-fermi 0-gaus

 Electronic relaxation 2 (details)
   IALGO  =     38    algorithm
   LDIAG  =      T    sub-space diagonalisation (order eigenvalues)
   LSUBROT=      F    optimize rotation matrix (better conditioning)
   TURBO    =      0    0=normal 1=particle mesh
   IRESTART =      0    0=no restart 2=restart with 2 vectors
   NREBOOT  =      0    no. of reboots
   NMIN     =      0    reboot dimension
   EREF     =   0.00    reference energy to select bands
   IMIX   =      4    mixing-type and parameters
     AMIX     =   0.40;   BMIX     =  1.00
     AMIX_MAG =   1.60;   BMIX_MAG =  1.00
     AMIN     =   0.10
     WC   =   100.;   INIMIX=   1;  MIXPRE=   1;  MAXMIX= -45

 Intra band minimization:
   WEIMIN = 0.0010     energy-eigenvalue tresh-hold
   EBREAK =  0.45E-06  absolut break condition
   DEPER  =   0.30     relativ break condition  

   TIME   =   0.40     timestep for ELM

  volume/ion in A,a.u.               =    1419.69      9580.55
  Fermi-wavevector in a.u.,A,eV,Ry     =   0.323947  0.612172  1.427821  0.104942
  Thomas-Fermi vector in A             =   1.213643
 
 Write flags
   LWAVE        =      F    write WAVECAR
   LDOWNSAMPLE  =      F    k-point downsampling of WAVECAR
   LCHARG       =      F    write CHGCAR
   LVTOT        =      F    write LOCPOT, total local potential
   LVHAR        =      F    write LOCPOT, Hartree potential only
   LELF         =      F    write electronic localiz. function (ELF)
   LORBIT       =      0    0 simple, 1 ext, 2 COOP (PROOUT), +10 PAW based schemes


 Dipole corrections
   LMONO  =      F    monopole corrections only (constant potential shift)
   LDIPOL =      F    correct potential (dipole corrections)
   IDIPOL =      0    1-x, 2-y, 3-z, 4-all directions 
   EPSILON=  1.0000000 bulk dielectric constant

 Exchange correlation treatment:
   GGA     =    PE    GGA type
   LEXCH   =     8    internal setting for exchange type
   VOSKOWN=      0    Vosko Wilk Nusair interpolation
   LHFCALC =     F    Hartree Fock is set to
   LHFONE  =     F    Hartree Fock one center treatment
   AEXX    =    0.0000 exact exchange contribution

 Linear response parameters
   LEPSILON=     F    determine dielectric tensor
   LRPA    =     F    only Hartree local field effects (RPA)
   LNABLA  =     F    use nabla operator in PAW spheres
   LVEL    =     F    velocity operator in full k-point grid
   LINTERFAST=   F  fast interpolation
   KINTER  =     0    interpolate to denser k-point grid
   CSHIFT  =0.1000    complex shift for real part using Kramers Kronig
   OMEGAMAX=  -1.0    maximum frequency
   DEG_THRESHOLD= 0.2000000E-02 threshold for treating states as degnerate
   RTIME   =   -0.100 relaxation time in fs
  (WPLASMAI=    0.000 imaginary part of plasma frequency in eV, 0.658/RTIME)
   DFIELD  = 0.0000000 0.0000000 0.0000000 field for delta impulse in time
 
 Orbital magnetization related:
   ORBITALMAG=     F  switch on orbital magnetization
   LCHIMAG   =     F  perturbation theory with respect to B field
   DQ        =  0.001000  dq finite difference perturbation B field
   LLRAUG    =     F  two centre corrections for induced B field



--------------------------------------------------------------------------------------------------------


 conjugate gradient relaxation of ions
 charge density and potential will be updated during run
 spin polarized calculation
 Variant of blocked Davidson
 Davidson routine will perform the subspace rotation
 perform sub-space diagonalisation
    after iterative eigenvector-optimisation
 modified Broyden-mixing scheme, WC =      100.0
 initial mixing is a Kerker type mixing with AMIX =  0.4000 and BMIX =      1.0000
 Hartree-type preconditioning will be used
 using additional bands            12
 reciprocal scheme for non local part
 use partial core corrections
 calculate Harris-corrections to forces 
   (improved forces if not selfconsistent)
 use gradient corrections 
 use of overlap-Matrix (Vanderbilt PP)
 Methfessel and Paxton  Order N= 1 SIGMA  =   0.20


--------------------------------------------------------------------------------------------------------


  energy-cutoff  :      400.00
  volume of cell :    11357.53
      direct lattice vectors                 reciprocal lattice vectors
    23.162027032  0.000000000  0.000000000     0.043174114  0.000000000  0.000000000
     0.000000000 23.868687275  0.000000000     0.000000000  0.041895894  0.000000000
     0.000000000  0.000000000 20.543712699     0.000000000  0.000000000  0.048676693

  length of vectors
    23.162027032 23.868687275 20.543712699     0.043174114  0.041895894  0.048676693


 
 k-points in units of 2pi/SCALE and weight: KPOINTS created by Atomic Simulation Env
   0.00000000  0.00000000  0.00000000       1.000
 
 k-points in reciprocal lattice and weights: KPOINTS created by Atomic Simulation Env
   0.00000000  0.00000000  0.00000000       1.000
 
 position of ions in fractional coordinates (direct lattice) 
   0.42092525  0.46609876  0.51557116
   0.44211808  0.57016234  0.53191801
   0.50631985  0.39569435  0.53046815
   0.58666693  0.45770103  0.48943609
   0.42691370  0.53305030  0.41911230
   0.52658567  0.54302555  0.46199306
   0.49392330  0.44940460  0.42400028
   0.51523953  0.49723048  0.57122475
 
 position of ions in cartesian coordinates  (Angst):
   9.74948210 11.12516565 10.59174589
  10.24035085 13.60902647 10.92757075
  11.72739410  9.44470477 10.89778532
  13.58839522 10.92472273 10.05483439
   9.88818665 12.72321103  8.61012258
  12.19679154 12.96130697  9.49105263
  11.44026485 10.72669775  8.71054000
  11.93399182 11.86823885 11.73507725
 


--------------------------------------------------------------------------------------------------------


 use parallel FFT for orbitals z direction half grid
 k-point   1 :   0.0000 0.0000 0.0000  plane waves:  103203

 maximum and minimum number of plane-waves per node :     12911    12894

 maximum number of plane-waves:    103203
 maximum index in each direction: 
   IXMAX=   37   IYMAX=   38   IZMAX=   33
   IXMIN=  -37   IYMIN=  -38   IZMIN=    0


 parallel 3D FFT for wavefunctions:
    minimum data exchange during FFTs selected (reduces bandwidth)
 parallel 3D FFT for charge:
    minimum data exchange during FFTs selected (reduces bandwidth)


 total amount of memory used by VASP MPI-rank0   155744. kBytes
=======================================================================

   base      :      30000. kBytes
   nonl-proj :       5371. kBytes
   fftplans  :      30503. kBytes
   grid      :      78278. kBytes
   one-center:         15. kBytes
   wavefun   :      11577. kBytes
 
     INWAV:  cpu time    0.0000: real time    0.0000
 Broyden mixing: mesh for mixing (old mesh)
   NGX = 75   NGY = 77   NGZ = 67
  (NGX  =240   NGY  =240   NGZ  =216)
  gives a total of 386925 points

 initial charge density was supplied:
 charge density of overlapping atoms calculated
 number of electron      88.0000000 magnetization       8.0000000
 keeping initial charge density in first step


--------------------------------------------------------------------------------------------------------


 Maximum index for augmentation-charges           560 (set IRDMAX)


--------------------------------------------------------------------------------------------------------


 First call to EWALD:  gamma=   0.079
 Maximum number of real-space cells 3x 3x 3
 Maximum number of reciprocal cells 3x 3x 3

    FEWALD:  cpu time    0.0013: real time    0.0013


--------------------------------------- Iteration      1(   1)  ---------------------------------------


    POTLOK:  cpu time    2.3932: real time    2.4000
    SETDIJ:  cpu time    0.0192: real time    0.0192
     EDDAV:  cpu time    3.9457: real time    3.9528
       DOS:  cpu time    0.0033: real time    0.0033
    --------------------------------------------
      LOOP:  cpu time    6.3614: real time    6.3753

 eigenvalue-minimisations  :   224
 total energy-change (2. order) : 0.6781260E+03  (-0.1356597E+04)
 number of electron      88.0000000 magnetization       8.0000000
 augmentation part       88.0000000 magnetization       8.0000000

 Free energy of the ion-electron system (eV)
  ---------------------------------------------------
  alpha Z        PSCENC =         5.34235449
  Ewald energy   TEWEN  =      9917.59655688
  -Hartree energ DENC   =    -18520.99878054
  -exchange      EXHF   =         0.00000000
  -V(xc)+E(xc)   XCENC  =       239.16443367
  PAW double counting   =      8408.47588452    -8739.43322972
  entropy T*S    EENTRO =        -0.02446640
  eigenvalues    EBANDS =        99.85061079
  atomic energy  EATOM  =      9268.15263587
  Solvation  Ediel_sol  =         0.00000000
  ---------------------------------------------------
  free energy    TOTEN  =       678.12599955 eV

  energy without entropy =      678.15046595  energy(sigma->0) =      678.13415502


--------------------------------------------------------------------------------------------------------




--------------------------------------- Iteration      1(   2)  ---------------------------------------


     EDDAV:  cpu time    5.2774: real time    5.2831
       DOS:  cpu time    0.0021: real time    0.0021
    --------------------------------------------
      LOOP:  cpu time    5.2795: real time    5.2852

 eigenvalue-minimisations  :   336
 total energy-change (2. order) :-0.3471560E+03  (-0.3208396E+03)
 number of electron      88.0000000 magnetization       8.0000000
 augmentation part       88.0000000 magnetization       8.0000000

 Free energy of the ion-electron system (eV)
  ---------------------------------------------------
  alpha Z        PSCENC =         5.34235449
  Ewald energy   TEWEN  =      9917.59655688
  -Hartree energ DENC   =    -18520.99878054
  -exchange      EXHF   =         0.00000000
  -V(xc)+E(xc)   XCENC  =       239.16443367
  PAW double counting   =      8408.47588452    -8739.43322972
  entropy T*S    EENTRO =        -0.02361180
  eigenvalues    EBANDS =      -247.30626506
  atomic energy  EATOM  =      9268.15263587
  Solvation  Ediel_sol  =         0.00000000
  ---------------------------------------------------
  free energy    TOTEN  =       330.96997830 eV

  energy without entropy =      330.99359011  energy(sigma->0) =      330.97784890


--------------------------------------------------------------------------------------------------------




--------------------------------------- Iteration      1(   3)  ---------------------------------------


     EDDAV:  cpu time    6.3378: real time    6.3467
       DOS:  cpu time    0.0010: real time    0.0010
    --------------------------------------------
      LOOP:  cpu time    6.3388: real time    6.3477

 eigenvalue-minimisations  :   424
 total energy-change (2. order) :-0.2311576E+03  (-0.2209032E+03)
 number of electron      88.0000000 magnetization       8.0000000
 augmentation part       88.0000000 magnetization       8.0000000

 Free energy of the ion-electron system (eV)
  ---------------------------------------------------
  alpha Z        PSCENC =         5.34235449
  Ewald energy   TEWEN  =      9917.59655688
  -Hartree energ DENC   =    -18520.99878054
  -exchange      EXHF   =         0.00000000
  -V(xc)+E(xc)   XCENC  =       239.16443367
  PAW double counting   =      8408.47588452    -8739.43322972
  entropy T*S    EENTRO =         0.00782895
  eigenvalues    EBANDS =      -478.49529731
  atomic energy  EATOM  =      9268.15263587
  Solvation  Ediel_sol  =         0.00000000
  ---------------------------------------------------
  free energy    TOTEN  =        99.81238681 eV

  energy without entropy =       99.80455786  energy(sigma->0) =       99.80977716


--------------------------------------------------------------------------------------------------------




--------------------------------------- Iteration      1(   4)  ---------------------------------------


     EDDAV:  cpu time    6.0077: real time    6.0173
       DOS:  cpu time    0.0022: real time    0.0022
    --------------------------------------------
      LOOP:  cpu time    6.0099: real time    6.0195

 eigenvalue-minimisations  :   400
 total energy-change (2. order) :-0.9816375E+02  (-0.9357898E+02)
 number of electron      88.0000000 magnetization       8.0000000
 augmentation part       88.0000000 magnetization       8.0000000

 Free energy of the ion-electron system (eV)
  ---------------------------------------------------
  alpha Z        PSCENC =         5.34235449
  Ewald energy   TEWEN  =      9917.59655688
  -Hartree energ DENC   =    -18520.99878054
  -exchange      EXHF   =         0.00000000
  -V(xc)+E(xc)   XCENC  =       239.16443367
  PAW double counting   =      8408.47588452    -8739.43322972
  entropy T*S    EENTRO =         0.02582207
  eigenvalues    EBANDS =      -576.67703710
  atomic energy  EATOM  =      9268.15263587
  Solvation  Ediel_sol  =         0.00000000
  ---------------------------------------------------
  free energy    TOTEN  =         1.64864013 eV

  energy without entropy =        1.62281806  energy(sigma->0) =        1.64003277


--------------------------------------------------------------------------------------------------------




--------------------------------------- Iteration      1(   5)  ---------------------------------------


     EDDAV:  cpu time    5.4639: real time    5.4790
       DOS:  cpu time    0.0027: real time    0.0027
    CHARGE:  cpu time    0.5344: real time    0.5349
    MIXING:  cpu time    0.0385: real time    0.0385
    --------------------------------------------
      LOOP:  cpu time    6.0395: real time    6.0551

 eigenvalue-minimisations  :   360
 total energy-change (2. order) :-0.1983344E+02  (-0.1832333E+02)
 number of electron      88.0000304 magnetization       7.1700549
 augmentation part       42.9953685 magnetization       7.5730070

 Broyden mixing:
  rms(total) = 0.21584E+01    rms(broyden)= 0.21583E+01
  rms(prec ) = 0.21868E+01
  weight for this iteration     100.00

 Free energy of the ion-electron system (eV)
  ---------------------------------------------------
  alpha Z        PSCENC =         5.34235449
  Ewald energy   TEWEN  =      9917.59655688
  -Hartree energ DENC   =    -18520.99878054
  -exchange      EXHF   =         0.00000000
  -V(xc)+E(xc)   XCENC  =       239.16443367
  PAW double counting   =      8408.47588452    -8739.43322972
  entropy T*S    EENTRO =         0.05541310
  eigenvalues    EBANDS =      -596.54006318
  atomic energy  EATOM  =      9268.15263587
  Solvation  Ediel_sol  =         0.00000000
  ---------------------------------------------------
  free energy    TOTEN  =       -18.18479491 eV

  energy without entropy =      -18.24020801  energy(sigma->0) =      -18.20326594


--------------------------------------------------------------------------------------------------------




--------------------------------------- Iteration      1(   6)  ---------------------------------------


    POTLOK:  cpu time    2.3877: real time    2.3967
    SETDIJ:  cpu time    0.0207: real time    0.0207
     EDDAV:  cpu time    5.0455: real time    5.0509
       DOS:  cpu time    0.0012: real time    0.0012
    CHARGE:  cpu time    0.5105: real time    0.5143
    MIXING:  cpu time    0.0392: real time    0.0393
    --------------------------------------------
      LOOP:  cpu time    8.0049: real time    8.0230

 eigenvalue-minimisations  :   320
 total energy-change (2. order) : 0.1330540E+02  (-0.6656627E+01)
 number of electron      88.0000323 magnetization       6.5946055
 augmentation part       45.1981910 magnetization       4.9957630

 Broyden mixing:
  rms(total) = 0.10492E+01    rms(broyden)= 0.10491E+01
  rms(prec ) = 0.10726E+01
  weight for this iteration     100.00

 eigenvalues of (default mixing * dielectric matrix)
  average eigenvalue GAMMA=   0.8857
  0.8857

 Free energy of the ion-electron system (eV)
  ---------------------------------------------------
  alpha Z        PSCENC =         5.34235449
  Ewald energy   TEWEN  =      9917.59655688
  -Hartree energ DENC   =    -18447.95278079
  -exchange      EXHF   =         0.00000000
  -V(xc)+E(xc)   XCENC  =       244.92242629
  PAW double counting   =      8689.61722842    -9015.11268313
  entropy T*S    EENTRO =        -0.04240087
  eigenvalues    EBANDS =      -667.40273595
  atomic energy  EATOM  =      9268.15263587
  Solvation  Ediel_sol  =         0.00000000
  ---------------------------------------------------
  free energy    TOTEN  =        -4.87939879 eV

  energy without entropy =       -4.83699792  energy(sigma->0) =       -4.86526517


--------------------------------------------------------------------------------------------------------




--------------------------------------- Iteration      1(   7)  ---------------------------------------


    POTLOK:  cpu time    2.3444: real time    2.3498
    SETDIJ:  cpu time    0.0222: real time    0.0222
     EDDAV:  cpu time    4.6706: real time    4.6946
       DOS:  cpu time    0.0014: real time    0.0014
    CHARGE:  cpu time    0.5259: real time    0.5264
    MIXING:  cpu time    0.0383: real time    0.0384
    --------------------------------------------
      LOOP:  cpu time    7.6028: real time    7.6328

 eigenvalue-minimisations  :   288
 total energy-change (2. order) : 0.5171472E+00  (-0.1193576E+01)
 number of electron      88.0000309 magnetization       5.8230990
 augmentation part       43.8996593 magnetization       4.0238994

 Broyden mixing:
  rms(total) = 0.72457E+00    rms(broyden)= 0.72450E+00
  rms(prec ) = 0.73915E+00
  weight for this iteration     100.00

 eigenvalues of (default mixing * dielectric matrix)
  average eigenvalue GAMMA=   1.0214
  1.3675  0.6753

 Free energy of the ion-electron system (eV)
  ---------------------------------------------------
  alpha Z        PSCENC =         5.34235449
  Ewald energy   TEWEN  =      9917.59655688
  -Hartree energ DENC   =    -18505.37129398
  -exchange      EXHF   =         0.00000000
  -V(xc)+E(xc)   XCENC  =       246.99293481
  PAW double counting   =      8924.84582401    -9269.44297470
  entropy T*S    EENTRO =        -0.03520348
  eigenvalues    EBANDS =      -592.44308545
  atomic energy  EATOM  =      9268.15263587
  Solvation  Ediel_sol  =         0.00000000
  ---------------------------------------------------
  free energy    TOTEN  =        -4.36225156 eV

  energy without entropy =       -4.32704808  energy(sigma->0) =       -4.35051707


--------------------------------------------------------------------------------------------------------




--------------------------------------- Iteration      1(   8)  ---------------------------------------


    POTLOK:  cpu time    2.3550: real time    2.3635
    SETDIJ:  cpu time    0.0209: real time    0.0209
     EDDAV:  cpu time    5.0781: real time    5.0961
       DOS:  cpu time    0.0017: real time    0.0017
    CHARGE:  cpu time    0.5016: real time    0.5052
    MIXING:  cpu time    0.0406: real time    0.0407
    --------------------------------------------
      LOOP:  cpu time    7.9980: real time    8.0282

 eigenvalue-minimisations  :   320
 total energy-change (2. order) :-0.2478480E+01  (-0.2882545E+00)
 number of electron      88.0000316 magnetization       5.0469086
 augmentation part       44.5099003 magnetization       4.3490013

 Broyden mixing:
  rms(total) = 0.31995E+00    rms(broyden)= 0.31982E+00
  rms(prec ) = 0.32911E+00
  weight for this iteration     100.00

 eigenvalues of (default mixing * dielectric matrix)
  average eigenvalue GAMMA=   1.1293
  1.9532  0.8843  0.5503

 Free energy of the ion-electron system (eV)
  ---------------------------------------------------
  alpha Z        PSCENC =         5.34235449
  Ewald energy   TEWEN  =      9917.59655688
  -Hartree energ DENC   =    -18495.14340222
  -exchange      EXHF   =         0.00000000
  -V(xc)+E(xc)   XCENC  =       244.06601188
  PAW double counting   =      9127.20088046    -9469.93354167
  entropy T*S    EENTRO =        -0.00561283
  eigenvalues    EBANDS =      -604.11661449
  atomic energy  EATOM  =      9268.15263587
  Solvation  Ediel_sol  =         0.00000000
  ---------------------------------------------------
  free energy    TOTEN  =        -6.84073164 eV

  energy without entropy =       -6.83511881  energy(sigma->0) =       -6.83886069


--------------------------------------------------------------------------------------------------------




--------------------------------------- Iteration      1(   9)  ---------------------------------------


    POTLOK:  cpu time    2.3015: real time    2.3076
    SETDIJ:  cpu time    0.0195: real time    0.0195
     EDDAV:  cpu time    5.1044: real time    5.1195
       DOS:  cpu time    0.0019: real time    0.0019
    CHARGE:  cpu time    0.4672: real time    0.4677
    MIXING:  cpu time    0.0442: real time    0.0442
    --------------------------------------------
      LOOP:  cpu time    7.9387: real time    7.9605

 eigenvalue-minimisations  :   320
 total energy-change (2. order) :-0.1309516E+01  (-0.1248014E+00)
 number of electron      88.0000316 magnetization       4.6082265
 augmentation part       44.4060831 magnetization       4.1586203

 Broyden mixing:
  rms(total) = 0.18918E+00    rms(broyden)= 0.18915E+00
  rms(prec ) = 0.19558E+00
  weight for this iteration     100.00

 eigenvalues of (default mixing * dielectric matrix)
  average eigenvalue GAMMA=   1.0805
  2.0906  1.0061  0.6296  0.5956

 Free energy of the ion-electron system (eV)
  ---------------------------------------------------
  alpha Z        PSCENC =         5.34235449
  Ewald energy   TEWEN  =      9917.59655688
  -Hartree energ DENC   =    -18508.55965303
  -exchange      EXHF   =         0.00000000
  -V(xc)+E(xc)   XCENC  =       243.34325256
  PAW double counting   =      9234.34118415    -9580.32992195
  entropy T*S    EENTRO =         0.02061606
  eigenvalues    EBANDS =      -588.05727309
  atomic energy  EATOM  =      9268.15263587
  Solvation  Ediel_sol  =         0.00000000
  ---------------------------------------------------
  free energy    TOTEN  =        -8.15024807 eV

  energy without entropy =       -8.17086412  energy(sigma->0) =       -8.15712009


--------------------------------------------------------------------------------------------------------




--------------------------------------- Iteration      1(  10)  ---------------------------------------


    POTLOK:  cpu time    2.3942: real time    2.4001
    SETDIJ:  cpu time    0.0210: real time    0.0210
     EDDAV:  cpu time    5.1830: real time    5.1923
       DOS:  cpu time    0.0019: real time    0.0019
    CHARGE:  cpu time    0.5354: real time    0.5359
    MIXING:  cpu time    0.0458: real time    0.0458
    --------------------------------------------
      LOOP:  cpu time    8.1812: real time    8.1969

 eigenvalue-minimisations  :   336
 total energy-change (2. order) :-0.2004170E+01  (-0.7376636E-01)
 number of electron      88.0000314 magnetization       3.8091691
 augmentation part       44.3417414 magnetization       3.4458535

 Broyden mixing:
  rms(total) = 0.14981E+00    rms(broyden)= 0.14980E+00
  rms(prec ) = 0.15310E+00
  weight for this iteration     100.00

 eigenvalues of (default mixing * dielectric matrix)
  average eigenvalue GAMMA=   1.1236
  1.8377  1.8377  0.7710  0.5859  0.5859

 Free energy of the ion-electron system (eV)
  ---------------------------------------------------
  alpha Z        PSCENC =         5.34235449
  Ewald energy   TEWEN  =      9917.59655688
  -Hartree energ DENC   =    -18511.61183282
  -exchange      EXHF   =         0.00000000
  -V(xc)+E(xc)   XCENC  =       241.92330264
  PAW double counting   =      9238.25688096    -9584.67846349
  entropy T*S    EENTRO =         0.02132306
  eigenvalues    EBANDS =      -585.15717566
  atomic energy  EATOM  =      9268.15263587
  Solvation  Ediel_sol  =         0.00000000
  ---------------------------------------------------
  free energy    TOTEN  =       -10.15441808 eV

  energy without entropy =      -10.17574115  energy(sigma->0) =      -10.16152577


--------------------------------------------------------------------------------------------------------




--------------------------------------- Iteration      1(  11)  ---------------------------------------


    POTLOK:  cpu time    2.3415: real time    2.3476
    SETDIJ:  cpu time    0.0204: real time    0.0204
     EDDAV:  cpu time    5.1077: real time    5.1165
       DOS:  cpu time    0.0078: real time    0.0078
    CHARGE:  cpu time    0.5103: real time    0.5141
    MIXING:  cpu time    0.0546: real time    0.0546
    --------------------------------------------
      LOOP:  cpu time    8.0422: real time    8.0611

 eigenvalue-minimisations  :   328
 total energy-change (2. order) :-0.2979835E+01  (-0.1284001E+00)
 number of electron      88.0000315 magnetization       2.9377496
 augmentation part       44.3450623 magnetization       2.6691389

 Broyden mixing:
  rms(total) = 0.10779E+00    rms(broyden)= 0.10779E+00
  rms(prec ) = 0.10935E+00
  weight for this iteration     100.00

 eigenvalues of (default mixing * dielectric matrix)
  average eigenvalue GAMMA=   1.2429
  2.3662  2.3662  0.8100  0.8100  0.5686  0.5363

 Free energy of the ion-electron system (eV)
  ---------------------------------------------------
  alpha Z        PSCENC =         5.34235449
  Ewald energy   TEWEN  =      9917.59655688
  -Hartree energ DENC   =    -18510.51421670
  -exchange      EXHF   =         0.00000000
  -V(xc)+E(xc)   XCENC  =       239.61023540
  PAW double counting   =      9219.15067237    -9564.90940203
  entropy T*S    EENTRO =         0.00693752
  eigenvalues    EBANDS =      -587.57002664
  atomic energy  EATOM  =      9268.15263587
  Solvation  Ediel_sol  =         0.00000000
  ---------------------------------------------------
  free energy    TOTEN  =       -13.13425285 eV

  energy without entropy =      -13.14119037  energy(sigma->0) =      -13.13656535


--------------------------------------------------------------------------------------------------------




--------------------------------------- Iteration      1(  12)  ---------------------------------------


    POTLOK:  cpu time    2.3964: real time    2.4018
    SETDIJ:  cpu time    0.0192: real time    0.0193
     EDDAV:  cpu time    4.8482: real time    4.8561
       DOS:  cpu time    0.0077: real time    0.0077
    CHARGE:  cpu time    0.5160: real time    0.5166
    MIXING:  cpu time    0.0534: real time    0.0535
    --------------------------------------------
      LOOP:  cpu time    7.8410: real time    7.8549

 eigenvalue-minimisations  :   304
 total energy-change (2. order) :-0.2157261E+01  (-0.9400933E-01)
 number of electron      88.0000315 magnetization       2.5159078
 augmentation part       44.3920139 magnetization       2.3502854

 Broyden mixing:
  rms(total) = 0.78913E-01    rms(broyden)= 0.78906E-01
  rms(prec ) = 0.80617E-01
  weight for this iteration     100.00

 eigenvalues of (default mixing * dielectric matrix)
  average eigenvalue GAMMA=   1.2316
  2.6839  1.9630  1.1180  1.1180  0.6014  0.6014  0.5357

 Free energy of the ion-electron system (eV)
  ---------------------------------------------------
  alpha Z        PSCENC =         5.34235449
  Ewald energy   TEWEN  =      9917.59655688
  -Hartree energ DENC   =    -18508.01808671
  -exchange      EXHF   =         0.00000000
  -V(xc)+E(xc)   XCENC  =       237.85101847
  PAW double counting   =      9204.55831653    -9549.70610478
  entropy T*S    EENTRO =         0.01257442
  eigenvalues    EBANDS =      -591.08077906
  atomic energy  EATOM  =      9268.15263587
  Solvation  Ediel_sol  =         0.00000000
  ---------------------------------------------------
  free energy    TOTEN  =       -15.29151389 eV

  energy without entropy =      -15.30408831  energy(sigma->0) =      -15.29570536


--------------------------------------------------------------------------------------------------------




--------------------------------------- Iteration      1(  13)  ---------------------------------------


    POTLOK:  cpu time    2.3453: real time    2.3488
    SETDIJ:  cpu time    0.0194: real time    0.0194
     EDDAV:  cpu time    5.1623: real time    5.1676
       DOS:  cpu time    0.0082: real time    0.0082
    CHARGE:  cpu time    0.5125: real time    0.5163
    MIXING:  cpu time    0.0596: real time    0.0597
    --------------------------------------------
      LOOP:  cpu time    8.1074: real time    8.1199

 eigenvalue-minimisations  :   328
 total energy-change (2. order) :-0.8787842E+00  (-0.2569212E-01)
 number of electron      88.0000315 magnetization       1.8436982
 augmentation part       44.3878004 magnetization       1.6976137

 Broyden mixing:
  rms(total) = 0.64787E-01    rms(broyden)= 0.64783E-01
  rms(prec ) = 0.66974E-01
  weight for this iteration     100.00

 eigenvalues of (default mixing * dielectric matrix)
  average eigenvalue GAMMA=   1.3308
  2.8173  2.8173  1.6056  0.9261  0.7812  0.5895  0.5895  0.5202

 Free energy of the ion-electron system (eV)
  ---------------------------------------------------
  alpha Z        PSCENC =         5.34235449
  Ewald energy   TEWEN  =      9917.59655688
  -Hartree energ DENC   =    -18505.52557190
  -exchange      EXHF   =         0.00000000
  -V(xc)+E(xc)   XCENC  =       237.11566498
  PAW double counting   =      9194.33871992    -9539.58169324
  entropy T*S    EENTRO =         0.01507352
  eigenvalues    EBANDS =      -593.62403856
  atomic energy  EATOM  =      9268.15263587
  Solvation  Ediel_sol  =         0.00000000
  ---------------------------------------------------
  free energy    TOTEN  =       -16.17029804 eV

  energy without entropy =      -16.18537156  energy(sigma->0) =      -16.17532255


--------------------------------------------------------------------------------------------------------




--------------------------------------- Iteration      1(  14)  ---------------------------------------


    POTLOK:  cpu time    2.3451: real time    2.3492
    SETDIJ:  cpu time    0.0204: real time    0.0204
     EDDAV:  cpu time    4.7695: real time    4.7785
       DOS:  cpu time    0.0076: real time    0.0076
    CHARGE:  cpu time    0.4839: real time    0.4844
    MIXING:  cpu time    0.0602: real time    0.0603
    --------------------------------------------
      LOOP:  cpu time    7.6867: real time    7.7002

 eigenvalue-minimisations  :   296
 total energy-change (2. order) :-0.9517881E+00  (-0.2770525E-01)
 number of electron      88.0000315 magnetization       1.2781711
 augmentation part       44.3987606 magnetization       1.1530556

 Broyden mixing:
  rms(total) = 0.41980E-01    rms(broyden)= 0.41976E-01
  rms(prec ) = 0.43202E-01
  weight for this iteration     100.00

 eigenvalues of (default mixing * dielectric matrix)
  average eigenvalue GAMMA=   1.3879
  3.9448  2.2582  1.9068  1.0354  1.0354  0.6099  0.6099  0.5723  0.5189

 Free energy of the ion-electron system (eV)
  ---------------------------------------------------
  alpha Z        PSCENC =         5.34235449
  Ewald energy   TEWEN  =      9917.59655688
  -Hartree energ DENC   =    -18498.83356441
  -exchange      EXHF   =         0.00000000
  -V(xc)+E(xc)   XCENC  =       236.21465976
  PAW double counting   =      9165.40770471    -9510.58450123
  entropy T*S    EENTRO =         0.01867549
  eigenvalues    EBANDS =      -600.43660766
  atomic energy  EATOM  =      9268.15263587
  Solvation  Ediel_sol  =         0.00000000
  ---------------------------------------------------
  free energy    TOTEN  =       -17.12208611 eV

  energy without entropy =      -17.14076160  energy(sigma->0) =      -17.12831128


--------------------------------------------------------------------------------------------------------




--------------------------------------- Iteration      1(  15)  ---------------------------------------


    POTLOK:  cpu time    2.3505: real time    2.3565
    SETDIJ:  cpu time    0.0204: real time    0.0204
     EDDAV:  cpu time    4.6654: real time    4.6766
       DOS:  cpu time    0.0076: real time    0.0076
    CHARGE:  cpu time    0.4749: real time    0.4754
    MIXING:  cpu time    0.0690: real time    0.0690
    --------------------------------------------
      LOOP:  cpu time    7.5878: real time    7.6054

 eigenvalue-minimisations  :   288
 total energy-change (2. order) :-0.3154798E+00  (-0.9330291E-02)
 number of electron      88.0000315 magnetization       0.9001278
 augmentation part       44.4078338 magnetization       0.8226213

 Broyden mixing:
  rms(total) = 0.30497E-01    rms(broyden)= 0.30495E-01
  rms(prec ) = 0.31527E-01
  weight for this iteration     100.00

 eigenvalues of (default mixing * dielectric matrix)
  average eigenvalue GAMMA=   1.4727
  5.1446  2.1901  2.1901  1.0700  1.0700  0.6932  0.6932  0.5820  0.5820  0.5120

 Free energy of the ion-electron system (eV)
  ---------------------------------------------------
  alpha Z        PSCENC =         5.34235449
  Ewald energy   TEWEN  =      9917.59655688
  -Hartree energ DENC   =    -18494.99933178
  -exchange      EXHF   =         0.00000000
  -V(xc)+E(xc)   XCENC  =       235.89505308
  PAW double counting   =      9158.53799597    -9503.79759458
  entropy T*S    EENTRO =         0.01872184
  eigenvalues    EBANDS =      -604.18395771
  atomic energy  EATOM  =      9268.15263587
  Solvation  Ediel_sol  =         0.00000000
  ---------------------------------------------------
  free energy    TOTEN  =       -17.43756594 eV

  energy without entropy =      -17.45628779  energy(sigma->0) =      -17.44380656


--------------------------------------------------------------------------------------------------------




--------------------------------------- Iteration      1(  16)  ---------------------------------------


    POTLOK:  cpu time    2.3809: real time    2.3887
    SETDIJ:  cpu time    0.0191: real time    0.0191
     EDDAV:  cpu time    5.0526: real time    5.0611
       DOS:  cpu time    0.0075: real time    0.0075
    CHARGE:  cpu time    0.5050: real time    0.5087
    MIXING:  cpu time    0.0788: real time    0.0789
    --------------------------------------------
      LOOP:  cpu time    8.0439: real time    8.0641

 eigenvalue-minimisations  :   320
 total energy-change (2. order) :-0.2308168E+00  (-0.2212359E-02)
 number of electron      88.0000315 magnetization       0.5951654
 augmentation part       44.4022363 magnetization       0.5483279

 Broyden mixing:
  rms(total) = 0.20271E-01    rms(broyden)= 0.20269E-01
  rms(prec ) = 0.21251E-01
  weight for this iteration     100.00

 eigenvalues of (default mixing * dielectric matrix)
  average eigenvalue GAMMA=   1.5438
  5.9114  2.2601  2.2601  1.4091  1.0608  1.0608  0.6621  0.6621  0.6193  0.5638
  0.5122

 Free energy of the ion-electron system (eV)
  ---------------------------------------------------
  alpha Z        PSCENC =         5.34235449
  Ewald energy   TEWEN  =      9917.59655688
  -Hartree energ DENC   =    -18493.21463141
  -exchange      EXHF   =         0.00000000
  -V(xc)+E(xc)   XCENC  =       235.65737102
  PAW double counting   =      9163.93874931    -9509.33909351
  entropy T*S    EENTRO =         0.01857121
  eigenvalues    EBANDS =      -605.82089656
  atomic energy  EATOM  =      9268.15263587
  Solvation  Ediel_sol  =         0.00000000
  ---------------------------------------------------
  free energy    TOTEN  =       -17.66838270 eV

  energy without entropy =      -17.68695391  energy(sigma->0) =      -17.67457311


--------------------------------------------------------------------------------------------------------




--------------------------------------- Iteration      1(  17)  ---------------------------------------


    POTLOK:  cpu time    2.3312: real time    2.3457
    SETDIJ:  cpu time    0.0210: real time    0.0210
     EDDAV:  cpu time    4.7439: real time    4.7485
       DOS:  cpu time    0.0077: real time    0.0077
    CHARGE:  cpu time    0.5066: real time    0.5103
    MIXING:  cpu time    0.0792: real time    0.0792
    --------------------------------------------
      LOOP:  cpu time    7.6895: real time    7.7124

 eigenvalue-minimisations  :   296
 total energy-change (2. order) :-0.2421477E+00  (-0.1122439E-02)
 number of electron      88.0000315 magnetization       0.3140405
 augmentation part       44.4049654 magnetization       0.2849377

 Broyden mixing:
  rms(total) = 0.14007E-01    rms(broyden)= 0.14004E-01
  rms(prec ) = 0.14728E-01
  weight for this iteration     100.00

 eigenvalues of (default mixing * dielectric matrix)
  average eigenvalue GAMMA=   1.6327
  6.6998  2.6257  2.1224  2.1224  1.0732  0.9366  0.9366  0.7678  0.6215  0.6215
  0.5465  0.5186

 Free energy of the ion-electron system (eV)
  ---------------------------------------------------
  alpha Z        PSCENC =         5.34235449
  Ewald energy   TEWEN  =      9917.59655688
  -Hartree energ DENC   =    -18490.74570975
  -exchange      EXHF   =         0.00000000
  -V(xc)+E(xc)   XCENC  =       235.39206837
  PAW double counting   =      9166.03657585    -9511.36865822
  entropy T*S    EENTRO =         0.01848084
  eigenvalues    EBANDS =      -608.33483479
  atomic energy  EATOM  =      9268.15263587
  Solvation  Ediel_sol  =         0.00000000
  ---------------------------------------------------
  free energy    TOTEN  =       -17.91053045 eV

  energy without entropy =      -17.92901129  energy(sigma->0) =      -17.91669073


--------------------------------------------------------------------------------------------------------




--------------------------------------- Iteration      1(  18)  ---------------------------------------


    POTLOK:  cpu time    2.3781: real time    2.3882
    SETDIJ:  cpu time    0.0204: real time    0.0204
     EDDAV:  cpu time    4.9171: real time    4.9252
       DOS:  cpu time    0.0070: real time    0.0070
    CHARGE:  cpu time    0.4776: real time    0.4781
    MIXING:  cpu time    0.0902: real time    0.0903
    --------------------------------------------
      LOOP:  cpu time    7.8905: real time    7.9092

 eigenvalue-minimisations  :   312
 total energy-change (2. order) :-0.1709170E+00  (-0.6334424E-03)
 number of electron      88.0000315 magnetization       0.1643292
 augmentation part       44.4059056 magnetization       0.1506069

 Broyden mixing:
  rms(total) = 0.76979E-02    rms(broyden)= 0.76953E-02
  rms(prec ) = 0.83223E-02
  weight for this iteration     100.00

 eigenvalues of (default mixing * dielectric matrix)
  average eigenvalue GAMMA=   1.7271
  7.8479  2.9685  2.3107  2.3107  1.1418  1.0653  1.0653  0.7139  0.7139  0.5195
  0.5411  0.6269  0.6269

 Free energy of the ion-electron system (eV)
  ---------------------------------------------------
  alpha Z        PSCENC =         5.34235449
  Ewald energy   TEWEN  =      9917.59655688
  -Hartree energ DENC   =    -18488.55811558
  -exchange      EXHF   =         0.00000000
  -V(xc)+E(xc)   XCENC  =       235.20107829
  PAW double counting   =      9169.25203266    -9514.54453144
  entropy T*S    EENTRO =         0.01847019
  eigenvalues    EBANDS =      -610.54192882
  atomic energy  EATOM  =      9268.15263587
  Solvation  Ediel_sol  =         0.00000000
  ---------------------------------------------------
  free energy    TOTEN  =       -18.08144746 eV

  energy without entropy =      -18.09991765  energy(sigma->0) =      -18.08760419


--------------------------------------------------------------------------------------------------------




--------------------------------------- Iteration      1(  19)  ---------------------------------------


    POTLOK:  cpu time    2.3768: real time    2.3798
    SETDIJ:  cpu time    0.0202: real time    0.0202
     EDDAV:  cpu time    4.2989: real time    4.3034
       DOS:  cpu time    0.0070: real time    0.0070
    CHARGE:  cpu time    0.5110: real time    0.5115
    MIXING:  cpu time    0.0929: real time    0.0930
    --------------------------------------------
      LOOP:  cpu time    7.3068: real time    7.3148

 eigenvalue-minimisations  :   264
 total energy-change (2. order) :-0.6390400E-01  (-0.2101206E-03)
 number of electron      88.0000315 magnetization       0.0935973
 augmentation part       44.4056710 magnetization       0.0893969

 Broyden mixing:
  rms(total) = 0.50268E-02    rms(broyden)= 0.50246E-02
  rms(prec ) = 0.55891E-02
  weight for this iteration     100.00

 eigenvalues of (default mixing * dielectric matrix)
  average eigenvalue GAMMA=   1.7522
  8.4532  3.3386  2.2589  2.2589  1.5668  0.9718  0.9718  0.8909  0.8909  0.6336
  0.6336  0.5203  0.5401  0.6012

 Free energy of the ion-electron system (eV)
  ---------------------------------------------------
  alpha Z        PSCENC =         5.34235449
  Ewald energy   TEWEN  =      9917.59655688
  -Hartree energ DENC   =    -18487.44744534
  -exchange      EXHF   =         0.00000000
  -V(xc)+E(xc)   XCENC  =       235.12801246
  PAW double counting   =      9171.00418210    -9516.29469963
  entropy T*S    EENTRO =         0.01839281
  eigenvalues    EBANDS =      -611.64534109
  atomic energy  EATOM  =      9268.15263587
  Solvation  Ediel_sol  =         0.00000000
  ---------------------------------------------------
  free energy    TOTEN  =       -18.14535146 eV

  energy without entropy =      -18.16374427  energy(sigma->0) =      -18.15148239


--------------------------------------------------------------------------------------------------------




--------------------------------------- Iteration      1(  20)  ---------------------------------------


    POTLOK:  cpu time    2.3841: real time    2.3873
    SETDIJ:  cpu time    0.0244: real time    0.0244
     EDDAV:  cpu time    3.4522: real time    3.4589
       DOS:  cpu time    0.0077: real time    0.0077
    CHARGE:  cpu time    0.5144: real time    0.5149
    MIXING:  cpu time    0.1053: real time    0.1054
    --------------------------------------------
      LOOP:  cpu time    6.4881: real time    6.4985

 eigenvalue-minimisations  :   192
 total energy-change (2. order) :-0.2748251E-01  (-0.5629123E-04)
 number of electron      88.0000315 magnetization       0.0602932
 augmentation part       44.4056550 magnetization       0.0574471

 Broyden mixing:
  rms(total) = 0.33963E-02    rms(broyden)= 0.33959E-02
  rms(prec ) = 0.38172E-02
  weight for this iteration     100.00

 eigenvalues of (default mixing * dielectric matrix)
  average eigenvalue GAMMA=   1.7534
  8.9939  3.4627  2.3280  2.0212  2.0212  1.2008  0.9763  0.9763  0.7352  0.7352
  0.6209  0.6209  0.5233  0.5233  0.5618

 Free energy of the ion-electron system (eV)
  ---------------------------------------------------
  alpha Z        PSCENC =         5.34235449
  Ewald energy   TEWEN  =      9917.59655688
  -Hartree energ DENC   =    -18486.84515088
  -exchange      EXHF   =         0.00000000
  -V(xc)+E(xc)   XCENC  =       235.09826712
  PAW double counting   =      9172.59999480    -9517.90679533
  entropy T*S    EENTRO =         0.01845850
  eigenvalues    EBANDS =      -612.22915542
  atomic energy  EATOM  =      9268.15263587
  Solvation  Ediel_sol  =         0.00000000
  ---------------------------------------------------
  free energy    TOTEN  =       -18.17283397 eV

  energy without entropy =      -18.19129247  energy(sigma->0) =      -18.17898680


--------------------------------------------------------------------------------------------------------




--------------------------------------- Iteration      1(  21)  ---------------------------------------


    POTLOK:  cpu time    2.3475: real time    2.3546
    SETDIJ:  cpu time    0.0194: real time    0.0194
     EDDAV:  cpu time    3.7815: real time    3.7984
       DOS:  cpu time    0.0078: real time    0.0079
    CHARGE:  cpu time    0.4832: real time    0.4837
    MIXING:  cpu time    0.0996: real time    0.0997
    --------------------------------------------
      LOOP:  cpu time    6.7391: real time    6.7635

 eigenvalue-minimisations  :   216
 total energy-change (2. order) :-0.1242547E-01  (-0.4048983E-04)
 number of electron      88.0000315 magnetization       0.0456824
 augmentation part       44.4061015 magnetization       0.0440919

 Broyden mixing:
  rms(total) = 0.22392E-02    rms(broyden)= 0.22391E-02
  rms(prec ) = 0.26024E-02
  weight for this iteration     100.00

 eigenvalues of (default mixing * dielectric matrix)
  average eigenvalue GAMMA=   1.7336
  9.1231  3.7313  2.1501  2.1501  2.0620  1.3076  1.0275  1.0275  0.8300  0.8300
  0.6333  0.6333  0.6306  0.5139  0.5436  0.5436

 Free energy of the ion-electron system (eV)
  ---------------------------------------------------
  alpha Z        PSCENC =         5.34235449
  Ewald energy   TEWEN  =      9917.59655688
  -Hartree energ DENC   =    -18486.45418088
  -exchange      EXHF   =         0.00000000
  -V(xc)+E(xc)   XCENC  =       235.08422865
  PAW double counting   =      9172.43966172    -9517.74589013
  entropy T*S    EENTRO =         0.01844418
  eigenvalues    EBANDS =      -612.61907022
  atomic energy  EATOM  =      9268.15263587
  Solvation  Ediel_sol  =         0.00000000
  ---------------------------------------------------
  free energy    TOTEN  =       -18.18525944 eV

  energy without entropy =      -18.20370362  energy(sigma->0) =      -18.19140750


--------------------------------------------------------------------------------------------------------




--------------------------------------- Iteration      1(  22)  ---------------------------------------


    POTLOK:  cpu time    2.3678: real time    2.3738
    SETDIJ:  cpu time    0.0210: real time    0.0210
     EDDAV:  cpu time    3.2803: real time    3.2900
       DOS:  cpu time    0.0091: real time    0.0091
    CHARGE:  cpu time    0.4679: real time    0.4684
    MIXING:  cpu time    0.1104: real time    0.1105
    --------------------------------------------
      LOOP:  cpu time    6.2565: real time    6.2729

 eigenvalue-minimisations  :   176
 total energy-change (2. order) :-0.8631264E-02  (-0.1290316E-04)
 number of electron      88.0000315 magnetization       0.0290208
 augmentation part       44.4066277 magnetization       0.0276207

 Broyden mixing:
  rms(total) = 0.16433E-02    rms(broyden)= 0.16433E-02
  rms(prec ) = 0.19476E-02
  weight for this iteration     100.00

 eigenvalues of (default mixing * dielectric matrix)
  average eigenvalue GAMMA=   1.7586
  9.2240  4.2679  2.3191  2.3191  2.2135  1.3269  1.3269  0.9442  0.9442  0.8576
  0.7272  0.6237  0.6237  0.6289  0.5296  0.5296  0.4901

 Free energy of the ion-electron system (eV)
  ---------------------------------------------------
  alpha Z        PSCENC =         5.34235449
  Ewald energy   TEWEN  =      9917.59655688
  -Hartree energ DENC   =    -18486.16699391
  -exchange      EXHF   =         0.00000000
  -V(xc)+E(xc)   XCENC  =       235.07505394
  PAW double counting   =      9171.91664907    -9517.21472921
  entropy T*S    EENTRO =         0.01847013
  eigenvalues    EBANDS =      -612.91388797
  atomic energy  EATOM  =      9268.15263587
  Solvation  Ediel_sol  =         0.00000000
  ---------------------------------------------------
  free energy    TOTEN  =       -18.19389071 eV

  energy without entropy =      -18.21236084  energy(sigma->0) =      -18.20004742


--------------------------------------------------------------------------------------------------------




--------------------------------------- Iteration      1(  23)  ---------------------------------------


    POTLOK:  cpu time    2.3700: real time    2.3782
    SETDIJ:  cpu time    0.0191: real time    0.0191
     EDDAV:  cpu time    3.3422: real time    3.3519
       DOS:  cpu time    0.0076: real time    0.0076
    CHARGE:  cpu time    0.5024: real time    0.5029
    MIXING:  cpu time    0.1172: real time    0.1173
    --------------------------------------------
      LOOP:  cpu time    6.3585: real time    6.3770

 eigenvalue-minimisations  :   184
 total energy-change (2. order) :-0.9879566E-02  (-0.1515464E-04)
 number of electron      88.0000315 magnetization       0.0177653
 augmentation part       44.4062489 magnetization       0.0162853

 Broyden mixing:
  rms(total) = 0.12343E-02    rms(broyden)= 0.12342E-02
  rms(prec ) = 0.14449E-02
  weight for this iteration     100.00

 eigenvalues of (default mixing * dielectric matrix)
  average eigenvalue GAMMA=   1.7645
  9.3709  4.7269  2.5953  2.5953  1.8218  1.7696  1.2435  0.9724  0.9724  0.8639
  0.7443  0.7443  0.6260  0.6260  0.5929  0.5414  0.5190  0.4344

 Free energy of the ion-electron system (eV)
  ---------------------------------------------------
  alpha Z        PSCENC =         5.34235449
  Ewald energy   TEWEN  =      9917.59655688
  -Hartree energ DENC   =    -18485.83919887
  -exchange      EXHF   =         0.00000000
  -V(xc)+E(xc)   XCENC  =       235.06496589
  PAW double counting   =      9171.60097850    -9516.90352594
  entropy T*S    EENTRO =         0.01847741
  eigenvalues    EBANDS =      -613.23701450
  atomic energy  EATOM  =      9268.15263587
  Solvation  Ediel_sol  =         0.00000000
  ---------------------------------------------------
  free energy    TOTEN  =       -18.20377027 eV

  energy without entropy =      -18.22224768  energy(sigma->0) =      -18.20992941


--------------------------------------------------------------------------------------------------------




--------------------------------------- Iteration      1(  24)  ---------------------------------------


    POTLOK:  cpu time    2.3477: real time    2.3576
    SETDIJ:  cpu time    0.0207: real time    0.0207
     EDDAV:  cpu time    3.1354: real time    3.1387
       DOS:  cpu time    0.0074: real time    0.0074
    CHARGE:  cpu time    0.5068: real time    0.5074
    MIXING:  cpu time    0.1251: real time    0.1252
    --------------------------------------------
      LOOP:  cpu time    6.1431: real time    6.1569

 eigenvalue-minimisations  :   168
 total energy-change (2. order) :-0.4669992E-02  (-0.1028636E-04)
 number of electron      88.0000315 magnetization       0.0116301
 augmentation part       44.4063302 magnetization       0.0107032

 Broyden mixing:
  rms(total) = 0.86955E-03    rms(broyden)= 0.86946E-03
  rms(prec ) = 0.10163E-02
  weight for this iteration     100.00

 eigenvalues of (default mixing * dielectric matrix)
  average eigenvalue GAMMA=   1.7264
  9.4238  4.8631  2.5516  2.3187  2.3187  1.6385  1.0683  1.0683  1.0299  0.9259
  0.9259  0.7817  0.6290  0.6290  0.6269  0.5145  0.5397  0.5397  0.4074

 Free energy of the ion-electron system (eV)
  ---------------------------------------------------
  alpha Z        PSCENC =         5.34235449
  Ewald energy   TEWEN  =      9917.59655688
  -Hartree energ DENC   =    -18485.60344304
  -exchange      EXHF   =         0.00000000
  -V(xc)+E(xc)   XCENC  =       235.05874669
  PAW double counting   =      9171.25591139    -9516.55792861
  entropy T*S    EENTRO =         0.01846349
  eigenvalues    EBANDS =      -613.47173743
  atomic energy  EATOM  =      9268.15263587
  Solvation  Ediel_sol  =         0.00000000
  ---------------------------------------------------
  free energy    TOTEN  =       -18.20844027 eV

  energy without entropy =      -18.22690376  energy(sigma->0) =      -18.21459476


--------------------------------------------------------------------------------------------------------




--------------------------------------- Iteration      1(  25)  ---------------------------------------


    POTLOK:  cpu time    2.3046: real time    2.3201
    SETDIJ:  cpu time    0.0231: real time    0.0232
     EDDAV:  cpu time    3.3430: real time    3.3593
       DOS:  cpu time    0.0072: real time    0.0072
    CHARGE:  cpu time    0.5082: real time    0.5088
    MIXING:  cpu time    0.1331: real time    0.1333
    --------------------------------------------
      LOOP:  cpu time    6.3194: real time    6.3518

 eigenvalue-minimisations  :   176
 total energy-change (2. order) :-0.2393922E-02  (-0.3452293E-05)
 number of electron      88.0000315 magnetization       0.0057067
 augmentation part       44.4063617 magnetization       0.0050478

 Broyden mixing:
  rms(total) = 0.63205E-03    rms(broyden)= 0.63198E-03
  rms(prec ) = 0.74598E-03
  weight for this iteration     100.00

 eigenvalues of (default mixing * dielectric matrix)
  average eigenvalue GAMMA=   1.7521
  9.5314  5.1417  3.0723  2.2579  2.2579  1.8614  1.2295  1.2295  1.1628  0.9479
  0.9479  0.7730  0.7730  0.6277  0.6277  0.6224  0.5349  0.5349  0.5071  0.4008

 Free energy of the ion-electron system (eV)
  ---------------------------------------------------
  alpha Z        PSCENC =         5.34235449
  Ewald energy   TEWEN  =      9917.59655688
  -Hartree energ DENC   =    -18485.45544370
  -exchange      EXHF   =         0.00000000
  -V(xc)+E(xc)   XCENC  =       235.05493859
  PAW double counting   =      9171.38490247    -9516.68854456
  entropy T*S    EENTRO =         0.01845730
  eigenvalues    EBANDS =      -613.61669152
  atomic energy  EATOM  =      9268.15263587
  Solvation  Ediel_sol  =         0.00000000
  ---------------------------------------------------
  free energy    TOTEN  =       -18.21083419 eV

  energy without entropy =      -18.22929149  energy(sigma->0) =      -18.21698662


--------------------------------------------------------------------------------------------------------




--------------------------------------- Iteration      1(  26)  ---------------------------------------


    POTLOK:  cpu time    2.2646: real time    2.2762
    SETDIJ:  cpu time    0.0203: real time    0.0204
     EDDAV:  cpu time    3.0554: real time    3.0587
       DOS:  cpu time    0.0073: real time    0.0073
    CHARGE:  cpu time    0.5138: real time    0.5143
    MIXING:  cpu time    0.1430: real time    0.1431
    --------------------------------------------
      LOOP:  cpu time    6.0044: real time    6.0199

 eigenvalue-minimisations  :   152
 total energy-change (2. order) :-0.2531612E-02  (-0.3039833E-05)
 number of electron      88.0000315 magnetization       0.0029957
 augmentation part       44.4068363 magnetization       0.0025096

 Broyden mixing:
  rms(total) = 0.49109E-03    rms(broyden)= 0.49102E-03
  rms(prec ) = 0.54959E-03
  weight for this iteration     100.00

 eigenvalues of (default mixing * dielectric matrix)
  average eigenvalue GAMMA=   1.7830
  9.6131  5.6125  3.7075  2.4006  2.4006  1.9544  1.3246  1.3246  1.0553  1.0553
  0.8556  0.8556  0.7354  0.7354  0.6204  0.6204  0.5997  0.5363  0.5363  0.5034
  0.3965

 Free energy of the ion-electron system (eV)
  ---------------------------------------------------
  alpha Z        PSCENC =         5.34235449
  Ewald energy   TEWEN  =      9917.59655688
  -Hartree energ DENC   =    -18485.25655932
  -exchange      EXHF   =         0.00000000
  -V(xc)+E(xc)   XCENC  =       235.05068728
  PAW double counting   =      9171.48260692    -9516.78448336
  entropy T*S    EENTRO =         0.01844254
  eigenvalues    EBANDS =      -613.81560710
  atomic energy  EATOM  =      9268.15263587
  Solvation  Ediel_sol  =         0.00000000
  ---------------------------------------------------
  free energy    TOTEN  =       -18.21336580 eV

  energy without entropy =      -18.23180834  energy(sigma->0) =      -18.21951331


--------------------------------------------------------------------------------------------------------




--------------------------------------- Iteration      1(  27)  ---------------------------------------


    POTLOK:  cpu time    2.2531: real time    2.2614
    SETDIJ:  cpu time    0.0208: real time    0.0208
     EDDAV:  cpu time    3.1270: real time    3.1306
       DOS:  cpu time    0.0076: real time    0.0076
    CHARGE:  cpu time    0.5044: real time    0.5050
    MIXING:  cpu time    0.1455: real time    0.1456
    --------------------------------------------
      LOOP:  cpu time    6.0583: real time    6.0710

 eigenvalue-minimisations  :   160
 total energy-change (2. order) :-0.1163958E-02  (-0.1619898E-05)
 number of electron      88.0000315 magnetization       0.0025459
 augmentation part       44.4067153 magnetization       0.0022264

 Broyden mixing:
  rms(total) = 0.42089E-03    rms(broyden)= 0.42086E-03
  rms(prec ) = 0.46385E-03
  weight for this iteration     100.00

 eigenvalues of (default mixing * dielectric matrix)
  average eigenvalue GAMMA=   1.7966
  9.6537  6.1375  3.8585  2.4407  2.4407  1.7456  1.7456  1.2683  1.2683  1.1481
  0.9314  0.9314  0.8394  0.6941  0.6941  0.6151  0.6151  0.5760  0.5386  0.5237
  0.4713  0.3888

 Free energy of the ion-electron system (eV)
  ---------------------------------------------------
  alpha Z        PSCENC =         5.34235449
  Ewald energy   TEWEN  =      9917.59655688
  -Hartree energ DENC   =    -18485.17372548
  -exchange      EXHF   =         0.00000000
  -V(xc)+E(xc)   XCENC  =       235.04924274
  PAW double counting   =      9171.56868441    -9516.87296210
  entropy T*S    EENTRO =         0.01844795
  eigenvalues    EBANDS =      -613.89576452
  atomic energy  EATOM  =      9268.15263587
  Solvation  Ediel_sol  =         0.00000000
  ---------------------------------------------------
  free energy    TOTEN  =       -18.21452976 eV

  energy without entropy =      -18.23297771  energy(sigma->0) =      -18.22067908


--------------------------------------------------------------------------------------------------------




--------------------------------------- Iteration      1(  28)  ---------------------------------------


    POTLOK:  cpu time    2.2599: real time    2.2723
    SETDIJ:  cpu time    0.0208: real time    0.0208
     EDDAV:  cpu time    2.9842: real time    2.9904
       DOS:  cpu time    0.0071: real time    0.0071
    CHARGE:  cpu time    0.5106: real time    0.5143
    MIXING:  cpu time    0.1654: real time    0.1656
    --------------------------------------------
      LOOP:  cpu time    5.9480: real time    5.9705

 eigenvalue-minimisations  :   152
 total energy-change (2. order) :-0.5692540E-03  (-0.7811158E-06)
 number of electron      88.0000315 magnetization       0.0018843
 augmentation part       44.4066862 magnetization       0.0015698

 Broyden mixing:
  rms(total) = 0.21037E-03    rms(broyden)= 0.21032E-03
  rms(prec ) = 0.23902E-03
  weight for this iteration     100.00

 eigenvalues of (default mixing * dielectric matrix)
[...]
  -Hartree energ DENC   =    -18247.96549828
  -exchange      EXHF   =         0.00000000
  -V(xc)+E(xc)   XCENC  =       234.21667312
  PAW double counting   =      8989.11492452    -9332.90875402
  entropy T*S    EENTRO =         0.01187113
  eigenvalues    EBANDS =      -603.40794735
  atomic energy  EATOM  =      9268.15263587
  Solvation  Ediel_sol  =         0.00000000
  ---------------------------------------------------
  free energy    TOTEN  =       -18.87462082 eV

  energy without entropy =      -18.88649196  energy(sigma->0) =      -18.87857787


--------------------------------------------------------------------------------------------------------




--------------------------------------- Iteration     20(   3)  ---------------------------------------


    POTLOK:  cpu time    2.2541: real time    2.2564
    SETDIJ:  cpu time    0.0195: real time    0.0195
     EDDAV:  cpu time    2.6904: real time    2.6934
       DOS:  cpu time    0.0010: real time    0.0010
    --------------------------------------------
      LOOP:  cpu time    4.9650: real time    4.9702

 eigenvalue-minimisations  :   128
 total energy-change (2. order) :-0.6973376E-05  (-0.7939221E-05)
 number of electron      88.0000024 magnetization       0.0000000
 augmentation part       44.4310387 magnetization       0.0000000

 Free energy of the ion-electron system (eV)
  ---------------------------------------------------
  alpha Z        PSCENC =         5.34235449
  Ewald energy   TEWEN  =      9668.56911970
  -Hartree energ DENC   =    -18247.89155420
  -exchange      EXHF   =         0.00000000
  -V(xc)+E(xc)   XCENC  =       234.21447722
  PAW double counting   =      8989.17533003    -9332.95747093
  entropy T*S    EENTRO =         0.01186945
  eigenvalues    EBANDS =      -603.49138942
  atomic energy  EATOM  =      9268.15263587
  Solvation  Ediel_sol  =         0.00000000
  ---------------------------------------------------
  free energy    TOTEN  =       -18.87462780 eV

  energy without entropy =      -18.88649725  energy(sigma->0) =      -18.87858428


--------------------------------------------------------------------------------------------------------




 average (electrostatic) potential at core
  the test charge radii are     1.2098  0.9430
  (the norm of the test charge is              1.0000)
       1 -77.0103       2 -76.8586       3 -76.9064       4 -76.9932       5 -74.5316
       6 -74.6495       7 -74.7092       8 -74.6796
 
 
 
 E-fermi :  -4.6747     XC(G=0):  -0.3297     alpha+bet : -0.1395


 spin component 1

 k-point     1 :       0.0000    0.0000    0.0000
  band No.  band energies     occupation 
      1     -10.5181      1.00000
      2      -9.1406      1.00000
      3      -8.8443      1.00000
      4      -8.8135      1.00000
      5      -8.5507      1.00000
      6      -8.3435      1.00000
      7      -8.2921      1.00000
      8      -8.1251      1.00000
      9      -8.0746      1.00000
     10      -8.0534      1.00000
     11      -7.8536      1.00000
     12      -7.8032      1.00000
     13      -7.6499      1.00000
     14      -7.5330      1.00000
     15      -7.4747      1.00000
     16      -7.3665      1.00000
     17      -7.3219      1.00000
     18      -7.2135      1.00000
     19      -7.1556      1.00000
     20      -6.9960      1.00000
     21      -6.9731      1.00000
     22      -6.8713      1.00000
     23      -6.5066      1.00000
     24      -6.4503      1.00000
     25      -6.3813      1.00000
     26      -6.2906      1.00000
     27      -6.2638      1.00000
     28      -6.0980      1.00000
     29      -5.9699      1.00000
     30      -5.8854      1.00000
     31      -5.8730      1.00000
     32      -5.7434      1.00000
     33      -5.7201      1.00000
     34      -5.6745      1.00000
     35      -5.6003      1.00000
     36      -5.5484      1.00000
     37      -5.5365      1.00000
     38      -5.5183      1.00000
     39      -5.4866      1.00000
     40      -5.4325      1.00000
     41      -5.3821      1.00000
     42      -5.3419      1.00001
     43      -5.2310      1.00030
     44      -4.8428      0.99968
     45      -3.7600     -0.00000
     46      -3.3117     -0.00000
     47      -2.8743     -0.00000
     48      -2.6043     -0.00000
     49      -1.9146     -0.00000
     50      -1.8661     -0.00000
     51      -1.0007     -0.00000
     52      -0.8907     -0.00000
     53      -0.6552     -0.00000
     54      -0.4482     -0.00000
     55      -0.0352     -0.00000
     56       0.0804     -0.00000

 spin component 2

 k-point     1 :       0.0000    0.0000    0.0000
  band No.  band energies     occupation 
      1     -10.5181      1.00000
      2      -9.1406      1.00000
      3      -8.8443      1.00000
      4      -8.8135      1.00000
      5      -8.5507      1.00000
      6      -8.3435      1.00000
      7      -8.2921      1.00000
      8      -8.1251      1.00000
      9      -8.0746      1.00000
     10      -8.0534      1.00000
     11      -7.8536      1.00000
     12      -7.8032      1.00000
     13      -7.6499      1.00000
     14      -7.5330      1.00000
     15      -7.4747      1.00000
     16      -7.3665      1.00000
     17      -7.3219      1.00000
     18      -7.2135      1.00000
     19      -7.1556      1.00000
     20      -6.9960      1.00000
     21      -6.9731      1.00000
     22      -6.8713      1.00000
     23      -6.5066      1.00000
     24      -6.4503      1.00000
     25      -6.3813      1.00000
     26      -6.2906      1.00000
     27      -6.2638      1.00000
     28      -6.0980      1.00000
     29      -5.9699      1.00000
     30      -5.8854      1.00000
     31      -5.8730      1.00000
     32      -5.7434      1.00000
     33      -5.7201      1.00000
     34      -5.6745      1.00000
     35      -5.6003      1.00000
     36      -5.5484      1.00000
     37      -5.5365      1.00000
     38      -5.5183      1.00000
     39      -5.4866      1.00000
     40      -5.4325      1.00000
     41      -5.3821      1.00000
     42      -5.3419      1.00001
     43      -5.2310      1.00030
     44      -4.8428      0.99968
     45      -3.7600     -0.00000
     46      -3.3117     -0.00000
     47      -2.8743     -0.00000
     48      -2.6043     -0.00000
     49      -1.9146     -0.00000
     50      -1.8661     -0.00000
     51      -1.0007     -0.00000
     52      -0.8907     -0.00000
     53      -0.6552     -0.00000
     54      -0.4482     -0.00000
     55      -0.0352     -0.00000
     56       0.0804     -0.00000


--------------------------------------------------------------------------------------------------------


 soft charge-density along one line, spin component            1
         0         1         2         3         4         5         6         7         8         9
 total charge-density along one line
 
 soft charge-density along one line, spin component            2
         0         1         2         3         4         5         6         7         8         9
 total charge-density along one line
 
 pseudopotential strength for first ion, spin component:            1
 -9.330   0.002  -0.012   0.008  -0.004  -9.449   0.002  -0.012
  0.002  -9.329   0.008   0.012  -0.015   0.002  -9.448   0.008
 -0.012   0.008  -9.325   0.004   0.004  -0.012   0.008  -9.444
  0.008   0.012   0.004  -9.337   0.004   0.008   0.012   0.004
 -0.004  -0.015   0.004   0.004  -9.334  -0.004  -0.015   0.004
 -9.449   0.002  -0.012   0.008  -0.004  -9.552   0.002  -0.012
  0.002  -9.448   0.008   0.012  -0.015   0.002  -9.551   0.008
 -0.012   0.008  -9.444   0.004   0.004  -0.012   0.008  -9.548
  0.008   0.012   0.004  -9.456   0.004   0.008   0.012   0.004
 -0.004  -0.015   0.004   0.004  -9.453  -0.004  -0.015   0.004
 -0.008  -0.008  -0.001  -0.002  -0.000  -0.008  -0.008  -0.001
 -0.012  -0.012  -0.001  -0.003  -0.000  -0.012  -0.012  -0.001
 -0.023   0.010   0.002  -0.000   0.003  -0.023   0.010   0.002
 -0.000  -0.002   0.013  -0.023   0.000  -0.000  -0.002   0.013
 -0.003  -0.000   0.013   0.011  -0.022  -0.002  -0.000   0.013
 -0.026   0.012   0.002  -0.000   0.002  -0.025   0.012   0.002
 -0.000  -0.002   0.014  -0.026   0.000  -0.000  -0.002   0.014
 -0.003  -0.000   0.015   0.012  -0.026  -0.003  -0.000   0.014
 pseudopotential strength for first ion, spin component:            2
 -9.330   0.002  -0.012   0.008  -0.004  -9.449   0.002  -0.012
  0.002  -9.329   0.008   0.012  -0.015   0.002  -9.448   0.008
 -0.012   0.008  -9.325   0.004   0.004  -0.012   0.008  -9.444
  0.008   0.012   0.004  -9.337   0.004   0.008   0.012   0.004
 -0.004  -0.015   0.004   0.004  -9.334  -0.004  -0.015   0.004
 -9.449   0.002  -0.012   0.008  -0.004  -9.552   0.002  -0.012
  0.002  -9.448   0.008   0.012  -0.015   0.002  -9.551   0.008
 -0.012   0.008  -9.444   0.004   0.004  -0.012   0.008  -9.548
  0.008   0.012   0.004  -9.456   0.004   0.008   0.012   0.004
 -0.004  -0.015   0.004   0.004  -9.453  -0.004  -0.015   0.004
 -0.008  -0.008  -0.001  -0.002  -0.000  -0.008  -0.008  -0.001
 -0.012  -0.012  -0.001  -0.003  -0.000  -0.012  -0.012  -0.001
 -0.023   0.010   0.002  -0.000   0.003  -0.023   0.010   0.002
 -0.000  -0.002   0.013  -0.023   0.000  -0.000  -0.002   0.013
 -0.003  -0.000   0.013   0.011  -0.022  -0.002  -0.000   0.013
 -0.026   0.012   0.002  -0.000   0.002  -0.025   0.012   0.002
 -0.000  -0.002   0.014  -0.026   0.000  -0.000  -0.002   0.014
 -0.003  -0.000   0.015   0.012  -0.026  -0.003  -0.000   0.014
 total augmentation occupancy for first ion, spin component:            1
  3.892  -0.014   0.058  -0.145  -0.463  -1.823  -0.014  -0.090   0.125   0.387   0.213   0.019  -0.331   0.027   0.044  -0.013
 -0.014   3.053  -0.248   0.369  -0.091  -0.014  -1.099   0.286  -0.307  -0.006   0.367  -0.046   0.001  -0.159  -0.004   0.010
  0.058  -0.248   3.332  -0.380  -0.108  -0.090   0.286  -1.270   0.401   0.112   0.210  -0.146   0.002   0.174   0.142   0.001
 -0.145   0.369  -0.380   3.439  -0.088   0.125  -0.306   0.401  -1.501   0.098   0.144  -0.034   0.024  -0.286  -0.009  -0.000
 -0.463  -0.091  -0.108  -0.088   3.589   0.387  -0.006   0.113   0.098  -1.583  -0.126   0.084   0.181   0.016  -0.186  -0.002
 -1.823  -0.014  -0.090   0.125   0.387   1.721   0.033   0.114  -0.107  -0.328  -0.156  -0.023   0.337  -0.017  -0.034  -0.009
 -0.014  -1.099   0.286  -0.306  -0.006   0.033   1.092  -0.321   0.260   0.089  -0.336   0.051  -0.029   0.164   0.008   0.001
 -0.090   0.286  -1.270   0.401   0.113   0.114  -0.321   1.172  -0.421  -0.124  -0.187   0.136   0.004  -0.189  -0.149  -0.000
  0.125  -0.307   0.401  -1.501   0.098  -0.107   0.260  -0.421   1.515  -0.108  -0.139   0.035  -0.014   0.310  -0.015   0.000
  0.387  -0.006   0.112   0.098  -1.583  -0.328   0.089  -0.124  -0.108   1.531   0.150  -0.081  -0.174  -0.008   0.217   0.005
  0.213   0.367   0.210   0.144  -0.126  -0.156  -0.336  -0.187  -0.139   0.150   2.200  -0.421   0.065  -0.094   0.264  -0.004
  0.019  -0.046  -0.146  -0.034   0.084  -0.023   0.051   0.136   0.035  -0.081  -0.421   0.119  -0.027   0.011  -0.080   0.001
 -0.331   0.001   0.002   0.024   0.181   0.337  -0.029   0.004  -0.014  -0.174   0.065  -0.027   0.104  -0.011  -0.012  -0.003
  0.027  -0.159   0.174  -0.286   0.016  -0.017   0.164  -0.189   0.310  -0.008  -0.094   0.011  -0.011   0.098   0.007   0.000
  0.044  -0.004   0.142  -0.009  -0.186  -0.034   0.008  -0.149  -0.015   0.217   0.264  -0.080  -0.012   0.007   0.081   0.000
 -0.013   0.010   0.001  -0.000  -0.002  -0.009   0.001  -0.000   0.000   0.005  -0.004   0.001  -0.003   0.000   0.000   0.000
 -0.001   0.002   0.011  -0.013  -0.000   0.000  -0.004   0.003  -0.008   0.000   0.006  -0.001   0.000  -0.003   0.000  -0.000
 -0.003  -0.001   0.007   0.010  -0.013   0.001   0.000   0.004   0.001  -0.006  -0.017   0.004   0.000   0.000  -0.004   0.000
 total augmentation occupancy for first ion, spin component:            2
  0.000   0.000  -0.000   0.000  -0.000   0.000  -0.000   0.000  -0.000   0.000   0.000  -0.000   0.000   0.000   0.000   0.000
  0.000   0.000  -0.000   0.000  -0.000  -0.000  -0.000   0.000  -0.000   0.000   0.000  -0.000  -0.000  -0.000  -0.000   0.000
 -0.000  -0.000  -0.000   0.000   0.000   0.000   0.000   0.000  -0.000  -0.000  -0.000   0.000   0.000  -0.000  -0.000  -0.000
  0.000   0.000   0.000  -0.000   0.000  -0.000  -0.000  -0.000   0.000  -0.000   0.000  -0.000  -0.000   0.000   0.000   0.000
 -0.000  -0.000   0.000   0.000  -0.000   0.000   0.000  -0.000  -0.000   0.000  -0.000   0.000   0.000   0.000   0.000  -0.000
  0.000  -0.000   0.000  -0.000   0.000  -0.000   0.000  -0.000   0.000  -0.000  -0.000  -0.000   0.000   0.000  -0.000  -0.000
 -0.000  -0.000   0.000  -0.000   0.000   0.000   0.000  -0.000   0.000  -0.000  -0.000   0.000   0.000   0.000   0.000  -0.000
  0.000   0.000   0.000  -0.000  -0.000  -0.000  -0.000  -0.000   0.000  -0.000   0.000  -0.000  -0.000   0.000   0.000   0.000
 -0.000  -0.000  -0.000   0.000  -0.000   0.000   0.000   0.000  -0.000   0.000  -0.000   0.000   0.000  -0.000  -0.000  -0.000
  0.000   0.000  -0.000  -0.000   0.000  -0.000  -0.000  -0.000   0.000   0.000   0.000   0.000  -0.000  -0.000  -0.000   0.000
  0.000   0.000  -0.000   0.000  -0.000  -0.000  -0.000   0.000  -0.000   0.000   0.000   0.000  -0.000  -0.000  -0.000   0.000
 -0.000  -0.000   0.000  -0.000   0.000  -0.000   0.000  -0.000   0.000   0.000   0.000  -0.000  -0.000   0.000   0.000  -0.000
  0.000  -0.000   0.000  -0.000   0.000   0.000   0.000  -0.000   0.000  -0.000  -0.000  -0.000  -0.000   0.000   0.000   0.000
  0.000  -0.000  -0.000   0.000   0.000   0.000   0.000   0.000  -0.000  -0.000  -0.000   0.000   0.000  -0.000  -0.000  -0.000
  0.000  -0.000  -0.000   0.000   0.000  -0.000   0.000   0.000  -0.000  -0.000  -0.000   0.000   0.000  -0.000  -0.000  -0.000
  0.000   0.000  -0.000   0.000  -0.000  -0.000  -0.000   0.000  -0.000   0.000   0.000  -0.000   0.000  -0.000  -0.000  -0.000
 -0.000   0.000  -0.000  -0.000  -0.000   0.000  -0.000   0.000   0.000   0.000  -0.000  -0.000   0.000  -0.000  -0.000  -0.000
  0.000   0.000   0.000  -0.000  -0.000   0.000   0.000  -0.000   0.000   0.000   0.000  -0.000  -0.000   0.000   0.000   0.000


------------------------ aborting loop because EDIFF is reached ----------------------------------------


    CHARGE:  cpu time    0.5500: real time    0.5537
    FORLOC:  cpu time    0.0791: real time    0.0792
    FORNL :  cpu time    1.7836: real time    1.7852
    FORCOR:  cpu time    2.2014: real time    2.2098
    FORHAR:  cpu time    0.3026: real time    0.3061
    MIXING:  cpu time    0.0412: real time    0.0412
    OFIELD:  cpu time    0.0000: real time    0.0000

 VOLUME and BASIS-vectors are now :
 -----------------------------------------------------------------------------
  energy-cutoff  :      400.00
  volume of cell :    11357.53
      direct lattice vectors                 reciprocal lattice vectors
    23.162027032  0.000000000  0.000000000     0.043174114  0.000000000  0.000000000
     0.000000000 23.868687275  0.000000000     0.000000000  0.041895894  0.000000000
     0.000000000  0.000000000 20.543712699     0.000000000  0.000000000  0.048676693

  length of vectors
    23.162027032 23.868687275 20.543712699     0.043174114  0.041895894  0.048676693


 FORCES acting on ions
    electron-ion (+dipol)            ewald-force                    non-local-force                 convergence-correction
 -----------------------------------------------------------------------------------------------
   0.907E+03 0.338E+03 -.252E+03   -.904E+03 -.338E+03 0.250E+03   -.335E+01 -.294E+00 0.243E+01   0.504E-01 0.319E-01 -.309E-02
   0.379E+03 -.796E+03 -.455E+03   -.375E+03 0.793E+03 0.454E+03   -.396E+01 0.375E+01 0.121E+01   0.166E-01 0.117E-02 0.231E-01
   -.663E+02 0.907E+03 -.355E+03   0.650E+02 -.902E+03 0.354E+03   0.119E+01 -.503E+01 0.103E+01   0.527E-01 0.318E-01 -.729E-02
   -.985E+03 0.203E+03 0.723E+02   0.980E+03 -.200E+03 -.727E+02   0.550E+01 -.262E+01 0.411E+00   -.549E-01 -.255E-01 0.199E-01
   0.637E+03 -.391E+03 0.739E+03   -.630E+03 0.385E+03 -.734E+03   -.670E+01 0.646E+01 -.453E+01   -.249E-01 -.278E-01 -.433E-01
   -.538E+03 -.782E+03 0.376E+03   0.535E+03 0.776E+03 -.374E+03   0.336E+01 0.568E+01 -.153E+01   -.902E-02 -.593E-02 -.417E-03
   -.610E+02 0.594E+03 0.780E+03   0.596E+02 -.589E+03 -.779E+03   0.147E+01 -.547E+01 -.192E+01   -.124E-01 0.404E-01 0.946E-01
   -.271E+03 -.746E+02 -.906E+03   0.269E+03 0.753E+02 0.902E+03   0.129E+01 -.635E+00 0.330E+01   0.128E-02 -.442E-01 -.122E-01
 -----------------------------------------------------------------------------------------------
   0.118E+01 -.187E+01 -.449E+00   -.227E-12 0.995E-13 0.341E-12   -.120E+01 0.185E+01 0.402E+00   0.198E-01 0.179E-02 0.713E-01
 
 
 POSITION                                       TOTAL-FORCE (eV/Angst)
 -----------------------------------------------------------------------------------
      9.53125     11.04011     10.51189        -0.010975     -0.018661     -0.001628
     10.39735     13.75082     11.11812        -0.009153      0.009679     -0.014293
     11.61629      9.30820     11.03634        -0.022744      0.007691      0.000526
     13.75462     11.12015      9.93686         0.009458      0.009837      0.000534
      9.97620     12.59576      8.56245         0.010815      0.008506      0.025889
     12.17588     13.03919      9.44593         0.012545     -0.006295      0.000743
     11.47418     10.76586      8.87802         0.006235     -0.003085     -0.001490
     11.83908     11.76297     11.52912         0.003817     -0.007671     -0.010282
 -----------------------------------------------------------------------------------
    total drift:                               -0.004596     -0.017765      0.024585


--------------------------------------------------------------------------------------------------------



  FREE ENERGIE OF THE ION-ELECTRON SYSTEM (eV)
  ---------------------------------------------------
  free  energy   TOTEN  =       -18.87462780 eV

  energy  without entropy=      -18.88649725  energy(sigma->0) =      -18.87858428
 
 d Force =-0.6170802E-05[-0.119E-03, 0.106E-03]  d Energy =-0.3304423E-05-0.287E-05
 d Force =-0.3000448E+01[-0.300E+01,-0.300E+01]  d Ewald  =-0.3000448E+01 0.155E-06


--------------------------------------------------------------------------------------------------------


    POTLOK:  cpu time    2.3406: real time    2.3460


--------------------------------------------------------------------------------------------------------




--------------------------------------------------------------------------------------------------------


  
 reached required accuracy - stopping structural energy minimisation
     LOOP+:  cpu time   27.2587: real time   27.3343
    4ORBIT:  cpu time    0.0000: real time    0.0000

 total amount of memory used by VASP MPI-rank0   155744. kBytes
=======================================================================

   base      :      30000. kBytes
   nonl-proj :       5371. kBytes
   fftplans  :      30503. kBytes
   grid      :      78278. kBytes
   one-center:         15. kBytes
   wavefun   :      11577. kBytes
 
  
  
 General timing and accounting informations for this job:
 ========================================================
  
                  Total CPU time used (sec):     1128.894
                            User time (sec):     1116.644
                          System time (sec):       12.249
                         Elapsed time (sec):     1136.284
  
                   Maximum memory used (kb):      301736.
                   Average memory used (kb):           0.
  
                          Minor page faults:      3518152
                          Major page faults:        33878
                 Voluntary context switches:         4604
