<?xml version="1.0" encoding="ISO-8859-1"?>
<modeling>
 <generator>
  <i name="program" type="string">vasp </i>
  <i name="version" type="string">6.1.2  </i>
  <i name="subversion" type="string">22Jul20 (build Aug  2 2021 21:04:21) gamma-only                       parallel </i>
  <i name="platform" type="string">LinuxPGI </i>
  <i name="date" type="string">2021 12 11 </i>
  <i name="time" type="string">20:27:55 </i>
 </generator>
 <incar>
  <i type="int" name="ISPIN">     2</i>
  <i type="int" name="IBRION">     2</i>
  <i type="int" name="NSW">  1000</i>
  <i type="int" name="ISIF">     0</i>
  <i type="int" name="ISYM">     0</i>
  <i name="ENCUT">    400.00000000</i>
  <i type="logical" name="LREAL"> F  </i>
  <i type="int" name="ISMEAR">     1</i>
  <i name="SIGMA">      0.20000000</i>
  <i type="logical" name="LWAVE"> F  </i>
  <i type="logical" name="LCHARG"> F  </i>
  <i type="int" name="KPAR">     1</i>
  <i type="int" name="NCORE">     8</i>
  <i type="string" name="GGA"> PE</i>
  <i type="int" name="ISPIN">     2</i>
 </incar>
 <structure name="primitive_cell" >
  <crystal>
   <varray name="basis" >
    <v>      23.16202703       0.00000000       0.00000000 </v>
    <v>       0.00000000      23.86868728       0.00000000 </v>
    <v>       0.00000000       0.00000000      20.54371270 </v>
   </varray>
   <i name="volume">  11357.53363013 </i>
   <varray name="rec_basis" >
    <v>       0.04317411       0.00000000       0.00000000 </v>
    <v>       0.00000000       0.04189589       0.00000000 </v>
    <v>       0.00000000       0.00000000       0.04867669 </v>
   </varray>
  </crystal>
  <varray name="positions" >
   <v>       0.42092525       0.46609876       0.51557116 </v>
   <v>       0.44211808       0.57016234       0.53191801 </v>
   <v>       0.50631985       0.39569435       0.53046815 </v>
   <v>       0.58666693       0.45770103       0.48943609 </v>
   <v>       0.42691370       0.53305030       0.41911230 </v>
   <v>       0.52658567       0.54302555       0.46199306 </v>
   <v>       0.49392330       0.44940460       0.42400028 </v>
   <v>       0.51523953       0.49723048       0.57122475 </v>
  </varray>
 </structure>
 <varray name="primitive_index" >
  <v type="int" >        1 </v>
  <v type="int" >        2 </v>
  <v type="int" >        3 </v>
  <v type="int" >        4 </v>
  <v type="int" >        5 </v>
  <v type="int" >        6 </v>
  <v type="int" >        7 </v>
  <v type="int" >        8 </v>
 </varray>
 <kpoints>
  <generation param="Gamma">
   <v type="int" name="divisions">       1        1        1 </v>
   <v name="usershift">      0.00000000       0.00000000       0.00000000 </v>
   <v name="genvec1">      1.00000000       0.00000000       0.00000000 </v>
   <v name="genvec2">      0.00000000       1.00000000       0.00000000 </v>
   <v name="genvec3">      0.00000000       0.00000000       1.00000000 </v>
   <v name="shift">      0.00000000       0.00000000       0.00000000 </v>
  </generation>
  <varray name="kpointlist" >
   <v>       0.00000000       0.00000000       0.00000000 </v>
  </varray>
  <varray name="weights" >
   <v>       1.00000000 </v>
  </varray>
 </kpoints>
 <parameters>
  <separator name="general" >
   <i type="string" name="SYSTEM">unknown system</i>
   <i type="logical" name="LCOMPAT"> F  </i>
  </separator>
  <separator name="electronic" >
   <i type="string" name="PREC">normal</i>
   <i name="ENMAX">    400.00000000</i>
   <i name="ENAUG">    586.98000000</i>
   <i name="EDIFF">      0.00010000</i>
   <i type="int" name="IALGO">    38</i>
   <i type="int" name="IWAVPR">    11</i>
   <i type="int" name="NBANDS">    56</i>
   <i type="int" name="NBANDSLOW">    -1</i>
   <i type="int" name="NBANDSHIGH">    -1</i>
   <i name="NELECT">     88.00000000</i>
   <i type="int" name="TURBO">     0</i>
   <i type="int" name="IRESTART">     0</i>
   <i type="int" name="NREBOOT">     0</i>
   <i type="int" name="NMIN">     0</i>
   <i name="EREF">      0.00000000</i>
   <separator name="electronic smearing" >
    <i type="int" name="ISMEAR">     1</i>
    <i name="SIGMA">      0.20000000</i>
    <i name="KSPACING">      0.50000000</i>
    <i type="logical" name="KGAMMA"> T  </i>
    <i type="logical" name="KBLOWUP"> T  </i>
   </separator>
   <separator name="electronic projectors" >
    <i type="logical" name="LREAL"> F  </i>
    <v name="ROPT">      0.00000000      0.00000000</v>
    <i type="int" name="LMAXPAW">  -100</i>
    <i type="int" name="LMAXMIX">     2</i>
    <i type="logical" name="NLSPLINE"> F  </i>
   </separator>
   <separator name="electronic startup" >
    <i type="int" name="ISTART">     0</i>
    <i type="int" name="ICHARG">     2</i>
    <i type="int" name="INIWAV">     1</i>
   </separator>
   <separator name="electronic spin" >
    <i type="int" name="ISPIN">     2</i>
    <i type="logical" name="LNONCOLLINEAR"> F  </i>
    <v name="MAGMOM">      1.00000000      1.00000000      1.00000000      1.00000000      1.00000000      1.00000000      1.00000000      1.00000000</v>
    <i name="NUPDOWN">     -1.00000000</i>
    <i type="logical" name="LSORBIT"> F  </i>
    <v name="SAXIS">      0.00000000      0.00000000      1.00000000</v>
    <i type="logical" name="LSPIRAL"> F  </i>
    <v name="QSPIRAL">      0.00000000      0.00000000      0.00000000</v>
    <i type="logical" name="LZEROZ"> F  </i>
   </separator>
   <separator name="electronic exchange-correlation" >
    <i type="logical" name="LASPH"> F  </i>
    <i type="logical" name="LMETAGGA"> F  </i>
   </separator>
   <separator name="electronic convergence" >
    <i type="int" name="NELM">    60</i>
    <i type="int" name="NELMDL">     0</i>
    <i type="int" name="NELMIN">     2</i>
    <i name="ENINI">    400.00000000</i>
    <separator name="electronic convergence detail" >
     <i type="logical" name="LDIAG"> T  </i>
     <i type="logical" name="LSUBROT"> F  </i>
     <i name="WEIMIN">      0.00100000</i>
     <i name="EBREAK">      0.00000045</i>
     <i name="DEPER">      0.30000000</i>
     <i type="int" name="NRMM">     4</i>
     <i name="TIME">      0.40000000</i>
    </separator>
   </separator>
   <separator name="electronic mixer" >
    <i name="AMIX">      0.40000000</i>
    <i name="BMIX">      1.00000000</i>
    <i name="AMIN">      0.10000000</i>
    <i name="AMIX_MAG">      1.60000000</i>
    <i name="BMIX_MAG">      1.00000000</i>
    <separator name="electronic mixer details" >
     <i type="int" name="IMIX">     4</i>
     <i type="logical" name="MIXFIRST"> F  </i>
     <i type="int" name="MAXMIX">   -45</i>
     <i name="WC">    100.00000000</i>
     <i type="int" name="INIMIX">     1</i>
     <i type="int" name="MIXPRE">     1</i>
     <i type="int" name="MREMOVE">     5</i>
    </separator>
   </separator>
   <separator name="electronic dipolcorrection" >
    <i type="logical" name="LDIPOL"> F  </i>
    <i type="logical" name="LMONO"> F  </i>
    <i type="int" name="IDIPOL">     0</i>
    <i name="EPSILON">      1.00000000</i>
    <v name="DIPOL">   -100.00000000   -100.00000000   -100.00000000</v>
    <i name="EFIELD">      0.00000000</i>
   </separator>
  </separator>
  <separator name="grids" >
   <i type="int" name="NGX">   120</i>
   <i type="int" name="NGY">   120</i>
   <i type="int" name="NGZ">   108</i>
   <i type="int" name="NGXF">   240</i>
   <i type="int" name="NGYF">   240</i>
   <i type="int" name="NGZF">   216</i>
   <i type="logical" name="ADDGRID"> F  </i>
  </separator>
  <separator name="ionic" >
   <i type="int" name="NSW">  1000</i>
   <i type="int" name="IBRION">     2</i>
   <i type="int" name="MDALGO">     0</i>
   <i type="int" name="ISIF">     0</i>
   <i name="PSTRESS">      0.00000000</i>
   <i name="EDIFFG">      0.00100000</i>
   <i type="int" name="NFREE">     1</i>
   <i name="POTIM">      0.50000000</i>
   <i name="SMASS">     -3.00000000</i>
   <i name="SCALEE">      1.00000000</i>
  </separator>
  <separator name="ionic md" >
   <i name="TEBEG">      0.00010000</i>
   <i name="TEEND">      0.00010000</i>
   <i type="int" name="NBLOCK">     1</i>
   <i type="int" name="KBLOCK">  1000</i>
   <i type="int" name="NPACO">   256</i>
   <i name="APACO">     16.00000000</i>
  </separator>
  <separator name="symmetry" >
   <i type="int" name="ISYM">     0</i>
   <i name="SYMPREC">      0.00001000</i>
  </separator>
  <separator name="dos" >
   <i type="int" name="LORBIT">     0</i>
   <v name="RWIGS">     -1.00000000     -1.00000000</v>
   <i type="int" name="NEDOS">   301</i>
   <i name="EMIN">     10.00000000</i>
   <i name="EMAX">    -10.00000000</i>
   <i name="EFERMI">      0.00000000</i>
  </separator>
  <separator name="writing" >
   <i type="int" name="NWRITE">     2</i>
   <i type="logical" name="LWAVE"> F  </i>
   <i type="logical" name="LDOWNSAMPLE"> F  </i>
   <i type="logical" name="LCHARG"> F  </i>
   <i type="logical" name="LPARD"> F  </i>
   <i type="logical" name="LVTOT"> F  </i>
   <i type="logical" name="LVHAR"> F  </i>
   <i type="logical" name="LELF"> F  </i>
   <i type="logical" name="LOPTICS"> F  </i>
   <v name="STM">      0.00000000      0.00000000      0.00000000      0.00000000      0.00000000      0.00000000      0.00000000</v>
  </separator>
  <separator name="performance" >
   <i type="int" name="NPAR">     2</i>
   <i type="int" name="NSIM">     4</i>
   <i type="int" name="NBLK">    -1</i>
   <i type="logical" name="LPLANE"> T  </i>
   <i type="logical" name="LSCALAPACK"> T  </i>
   <i type="logical" name="LSCAAWARE"> F  </i>
   <i type="logical" name="LSCALU"> F  </i>
   <i type="logical" name="LASYNC"> F  </i>
   <i type="logical" name="LORBITALREAL"> F  </i>
  </separator>
  <separator name="miscellaneous" >
   <i type="int" name="IDIOT">     3</i>
   <i type="int" name="PHON_NSTRUCT">    -1</i>
   <i type="logical" name="LMUSIC"> F  </i>
   <v name="POMASS">    196.96600000     63.54600000</v>
   <v name="DARWINR">      0.00000000      0.00000000</v>
   <v name="DARWINV">      1.00000000      1.00000000</v>
   <i type="logical" name="LCORR"> T  </i>
  </separator>
  <i type="logical" name="GGA_COMPAT"> T  </i>
  <i type="logical" name="LBERRY"> F  </i>
  <i type="int" name="ICORELEVEL">     0</i>
  <i type="logical" name="LDAU"> F  </i>
  <i type="int" name="I_CONSTRAINED_M">     0</i>
  <separator name="electronic exchange-correlation" >
   <i type="string" name="GGA">PE</i>
   <i type="int" name="VOSKOWN">     0</i>
   <i type="logical" name="LHFCALC"> F  </i>
   <i type="string" name="PRECFOCK"></i>
   <i type="logical" name="LSYMGRAD"> F  </i>
   <i type="logical" name="LHFONE"> F  </i>
   <i type="logical" name="LRHFCALC"> F  </i>
   <i type="logical" name="LTHOMAS"> F  </i>
   <i type="logical" name="LMODELHF"> F  </i>
   <i type="logical" name="LFOCKACE"> F  </i>
   <i name="ENCUT4O">     -1.00000000</i>
   <i type="int" name="EXXOEP">     0</i>
   <i type="int" name="FOURORBIT">     0</i>
   <i name="AEXX">      0.00000000</i>
   <i name="HFALPHA">      0.00000000</i>
   <i name="MCALPHA">      0.00000000</i>
   <i name="ALDAX">      1.00000000</i>
   <i name="AGGAX">      1.00000000</i>
   <i name="ALDAC">      1.00000000</i>
   <i name="AGGAC">      1.00000000</i>
   <i type="int" name="NKREDX">     1</i>
   <i type="int" name="NKREDY">     1</i>
   <i type="int" name="NKREDZ">     1</i>
   <i type="logical" name="SHIFTRED"> F  </i>
   <i type="logical" name="ODDONLY"> F  </i>
   <i type="logical" name="EVENONLY"> F  </i>
   <i type="int" name="LMAXFOCK">     0</i>
   <i type="int" name="NMAXFOCKAE">     0</i>
   <i type="logical" name="LFOCKAEDFT"> F  </i>
   <i name="HFSCREEN">      0.00000000</i>
   <i name="HFSCREENC">      0.00000000</i>
   <i type="int" name="NBANDSGWLOW">     0</i>
  </separator>
  <separator name="vdW DFT" >
   <i type="logical" name="LUSE_VDW"> F  </i>
   <i name="Zab_VDW">     -0.84910000</i>
   <i name="PARAM1">      0.12340000</i>
   <i name="PARAM2">      1.00000000</i>
   <i name="PARAM3">      0.00000000</i>
  </separator>
  <separator name="model GW" >
   <i type="int" name="MODEL_GW">     0</i>
   <i name="MODEL_EPS0">    851.81502226</i>
   <i name="MODEL_ALPHA">      1.00000000</i>
  </separator>
  <separator name="linear response parameters" >
   <i type="logical" name="LEPSILON"> F  </i>
   <i type="logical" name="LRPA"> F  </i>
   <i type="logical" name="LNABLA"> F  </i>
   <i type="logical" name="LVEL"> F  </i>
   <i type="int" name="KINTER">     0</i>
   <i name="CSHIFT">      0.10000000</i>
   <i name="OMEGAMAX">     -1.00000000</i>
   <i name="DEG_THRESHOLD">      0.00200000</i>
   <i name="RTIME">     -0.10000000</i>
   <i name="WPLASMAI">      0.00000000</i>
   <v name="DFIELD">      0.00000000      0.00000000      0.00000000</v>
   <v name="WPLASMA">      0.00000000      0.00000000      0.00000000      0.00000000      0.00000000      0.00000000      0.00000000      0.00000000      0.00000000</v>
  </separator>
  <separator name="orbital magnetization" >
   <i type="logical" name="NUCIND"> F  </i>
   <v name="MAGPOS">      0.00000000      0.00000000      0.00000000</v>
   <i type="logical" name="LNICSALL"> T  </i>
   <i type="logical" name="ORBITALMAG"> F  </i>
   <i type="logical" name="LMAGBLOCH"> F  </i>
   <i type="logical" name="LCHIMAG"> F  </i>
   <i type="logical" name="LGAUGE"> T  </i>
   <i type="int" name="MAGATOM">     0</i>
   <v name="MAGDIPOL">      0.00000000      0.00000000      0.00000000</v>
   <v name="AVECCONST">      0.00000000      0.00000000      0.00000000</v>
  </separator>
  <separator name="response functions" >
   <i type="logical" name="LFINITE_TEMPERATURE"> F  </i>
   <i type="logical" name="LADDER"> F  </i>
   <i type="logical" name="LRPAFORCE"> F  </i>
   <i type="logical" name="LFXC"> F  </i>
   <i type="logical" name="LHARTREE"> T  </i>
   <i type="int" name="IBSE">     0</i>
   <v type="int" name="KPOINT">    -1     0     0     0</v>
   <i type="logical" name="LTCTC"> F  </i>
   <i type="logical" name="LTCTE"> F  </i>
   <i type="logical" name="LTETE"> F  </i>
   <i type="logical" name="LTRIPLET"> F  </i>
   <i type="logical" name="LFXCEPS"> F  </i>
   <i type="logical" name="LFXHEG"> F  </i>
   <i type="int" name="NATURALO">     2</i>
   <i type="logical" name="LHOLEGF"> F  </i>
   <i type="logical" name="L2ORDER"> F  </i>
   <i type="logical" name="LDMP1"> F  </i>
   <i type="logical" name="LMP2LT"> F  </i>
   <i type="logical" name="LSMP2LT"> F  </i>
   <i type="logical" name="LGWLF"> F  </i>
   <i name="ENCUTGW">     -2.00000000</i>
   <i name="ENCUTGWSOFT">     -2.00000000</i>
   <i name="ENCUTLF">     -1.00000000</i>
   <i type="logical" name="LESF_SPLINES"> F  </i>
   <i type="int" name="LMAXMP2">    -1</i>
   <i name="SCISSOR">      0.00000000</i>
   <i type="int" name="NOMEGA">     0</i>
   <i type="int" name="NOMEGAR">     0</i>
   <i type="int" name="NBANDSGW">    -1</i>
   <i type="int" name="NBANDSO">    -1</i>
   <i type="int" name="NBANDSV">    -1</i>
   <i type="int" name="NELM">     1</i>
   <i type="int" name="NELMHF">     1</i>
   <i type="int" name="DIM">     3</i>
   <i type="int" name="IESPILON">     4</i>
   <i type="int" name="ANTIRES">     0</i>
   <i name="OMEGAMAX">    -30.00000000</i>
   <i name="OMEGAMIN">    -30.00000000</i>
   <i name="OMEGATL">   -200.00000000</i>
   <i type="int" name="OMEGAGRID">     0</i>
   <i name="CSHIFT">     -0.10000000</i>
   <i type="logical" name="LSELFENERGY"> F  </i>
   <i type="logical" name="LSPECTRAL"> F  </i>
   <i type="logical" name="LSPECTRALGW"> F  </i>
   <i type="logical" name="LSINGLES"> F  </i>
   <i type="logical" name="LFERMIGW"> F  </i>
   <i type="logical" name="ODDONLYGW"> F  </i>
   <i type="logical" name="EVENONLYGW"> F  </i>
   <i type="int" name="NKREDLFX">     1</i>
   <i type="int" name="NKREDLFY">     1</i>
   <i type="int" name="NKREDLFZ">     1</i>
   <i type="int" name="MAXMEM">  2800</i>
   <i type="int" name="TELESCOPE">     0</i>
   <i type="int" name="NTAUPAR">    -1</i>
   <i type="int" name="NOMEGAPAR">    -1</i>
   <i name="LAMBDA">      1.00000000</i>
  </separator>
  <separator name="External order field" >
   <i name="OFIELD_KAPPA">      0.00000000</i>
   <v name="OFIELD_K">      0.00000000      0.00000000      0.00000000</v>
   <i name="OFIELD_Q6_NEAR">      0.00000000</i>
   <i name="OFIELD_Q6_FAR">      0.00000000</i>
   <i name="OFIELD_A">      0.00000000</i>
  </separator>
 </parameters>
 <atominfo>
  <atoms>       8 </atoms>
  <types>       2 </types>
  <array name="atoms" >
   <dimension dim="1">ion</dimension>
   <field type="string">element</field>
   <field type="int">atomtype</field>
   <set>
    <rc><c>Au</c><c>   1</c></rc>
    <rc><c>Au</c><c>   1</c></rc>
    <rc><c>Au</c><c>   1</c></rc>
    <rc><c>Au</c><c>   1</c></rc>
    <rc><c>Cu</c><c>   2</c></rc>
    <rc><c>Cu</c><c>   2</c></rc>
    <rc><c>Cu</c><c>   2</c></rc>
    <rc><c>Cu</c><c>   2</c></rc>
   </set>
  </array>
  <array name="atomtypes" >
   <dimension dim="1">type</dimension>
   <field type="int">atomspertype</field>
   <field type="string">element</field>
   <field>mass</field>
   <field>valence</field>
   <field type="string">pseudopotential</field>
   <set>
    <rc><c>   4</c><c>Au</c><c>    196.96600000</c><c>     11.00000000</c><c>  PAW_PBE Au 04Oct2007                  </c></rc>
    <rc><c>   4</c><c>Cu</c><c>     63.54600000</c><c>     11.00000000</c><c>  PAW_PBE Cu 22Jun2005                  </c></rc>
   </set>
  </array>
 </atominfo>
 <structure name="initialpos" >
  <crystal>
   <varray name="basis" >
    <v>      23.16202703       0.00000000       0.00000000 </v>
    <v>       0.00000000      23.86868728       0.00000000 </v>
    <v>       0.00000000       0.00000000      20.54371270 </v>
   </varray>
   <i name="volume">  11357.53363013 </i>
   <varray name="rec_basis" >
    <v>       0.04317411       0.00000000       0.00000000 </v>
    <v>       0.00000000       0.04189589       0.00000000 </v>
    <v>       0.00000000       0.00000000       0.04867669 </v>
   </varray>
  </crystal>
  <varray name="positions" >
   <v>       0.42092525       0.46609876       0.51557116 </v>
   <v>       0.44211808       0.57016234       0.53191801 </v>
   <v>       0.50631985       0.39569435       0.53046815 </v>
   <v>       0.58666693       0.45770103       0.48943609 </v>
   <v>       0.42691370       0.53305030       0.41911230 </v>
   <v>       0.52658567       0.54302555       0.46199306 </v>
   <v>       0.49392330       0.44940460       0.42400028 </v>
   <v>       0.51523953       0.49723048       0.57122475 </v>
  </varray>
 </structure>
 <calculation>
  <scstep>
   <time name="dav">    3.95    3.95</time>
   <time name="total">    6.36    6.38</time>
   <energy>
    <i name="alphaZ">      5.34235449 </i>
    <i name="ewald">   9917.59655688 </i>
    <i name="hartreedc"> -18520.99878054 </i>
    <i name="XCdc">    239.16443367 </i>
    <i name="pawpsdc">   8408.47588452 </i>
    <i name="pawaedc">  -8739.43322972 </i>
    <i name="eentropy">     -0.02446640 </i>
    <i name="bandstr">     99.85061079 </i>
    <i name="atom">   9268.15263587 </i>
    <i name="e_fr_energy">    678.12599955 </i>
    <i name="e_wo_entrp">    678.15046595 </i>
    <i name="e_0_energy">    678.13415502 </i>
   </energy>
  </scstep>
  <scstep>
   <time name="dav">    5.28    5.28</time>
   <time name="total">    5.28    5.29</time>
   <energy>
    <i name="e_fr_energy">    330.96997830 </i>
    <i name="e_wo_entrp">    330.99359011 </i>
    <i name="e_0_energy">    330.97784890 </i>
   </energy>
  </scstep>
  <scstep>
   <time name="dav">    6.34    6.35</time>
   <time name="total">    6.34    6.35</time>
   <energy>
    <i name="e_fr_energy">     99.81238681 </i>
    <i name="e_wo_entrp">     99.80455786 </i>
    <i name="e_0_energy">     99.80977716 </i>
   </energy>
  </scstep>
  <scstep>
   <time name="dav">    6.01    6.02</time>
   <time name="total">    6.01    6.02</time>
   <energy>
    <i name="e_fr_energy">      1.64864013 </i>
    <i name="e_wo_entrp">      1.62281806 </i>
    <i name="e_0_energy">      1.64003277 </i>
   </energy>
  </scstep>
  <scstep>
   <time name="dav">    5.46    5.48</time>
   <time name="total">    6.04    6.06</time>
   <energy>
    <i name="e_fr_energy">    -18.18479491 </i>
    <i name="e_wo_entrp">    -18.24020801 </i>
    <i name="e_0_energy">    -18.20326594 </i>
   </energy>
  </scstep>
  <scstep>
   <time name="dav">    5.05    5.05</time>
   <time name="total">    8.00    8.02</time>
   <energy>
    <i name="e_fr_energy">     -4.87939879 </i>
    <i name="e_wo_entrp">     -4.83699792 </i>
    <i name="e_0_energy">     -4.86526517 </i>
   </energy>
  </scstep>
  <scstep>
   <time name="dav">    4.67    4.69</time>
   <time name="total">    7.60    7.63</time>
   <energy>
    <i name="e_fr_energy">     -4.36225156 </i>
    <i name="e_wo_entrp">     -4.32704808 </i>
    <i name="e_0_energy">     -4.35051707 </i>
   </energy>
  </scstep>
  <scstep>
   <time name="dav">    5.08    5.10</time>
   <time name="total">    8.00    8.03</time>
   <energy>
    <i name="e_fr_energy">     -6.84073164 </i>
    <i name="e_wo_entrp">     -6.83511881 </i>
    <i name="e_0_energy">     -6.83886069 </i>
   </energy>
  </scstep>
  <scstep>
   <time name="dav">    5.10    5.12</time>
   <time name="total">    7.94    7.96</time>
   <energy>
    <i name="e_fr_energy">     -8.15024807 </i>
    <i name="e_wo_entrp">     -8.17086412 </i>
    <i name="e_0_energy">     -8.15712009 </i>
   </energy>
  </scstep>
  <scstep>
   <time name="dav">    5.18    5.19</time>
   <time name="total">    8.18    8.20</time>
   <energy>
    <i name="e_fr_energy">    -10.15441808 </i>
    <i name="e_wo_entrp">    -10.17574115 </i>
    <i name="e_0_energy">    -10.16152577 </i>
   </energy>
  </scstep>
  <scstep>
   <time name="dav">    5.11    5.12</time>
   <time name="total">    8.04    8.06</time>
   <energy>
    <i name="e_fr_energy">    -13.13425285 </i>
    <i name="e_wo_entrp">    -13.14119037 </i>
    <i name="e_0_energy">    -13.13656535 </i>
   </energy>
  </scstep>
  <scstep>
   <time name="dav">    4.85    4.86</time>
   <time name="total">    7.84    7.85</time>
   <energy>
    <i name="e_fr_energy">    -15.29151389 </i>
    <i name="e_wo_entrp">    -15.30408831 </i>
    <i name="e_0_energy">    -15.29570536 </i>
   </energy>
  </scstep>
  <scstep>
   <time name="dav">    5.16    5.17</time>
   <time name="total">    8.11    8.12</time>
   <energy>
    <i name="e_fr_energy">    -16.17029804 </i>
    <i name="e_wo_entrp">    -16.18537156 </i>
    <i name="e_0_energy">    -16.17532255 </i>
   </energy>
  </scstep>
  <scstep>
   <time name="dav">    4.77    4.78</time>
   <time name="total">    7.69    7.70</time>
   <energy>
    <i name="e_fr_energy">    -17.12208611 </i>
    <i name="e_wo_entrp">    -17.14076160 </i>
    <i name="e_0_energy">    -17.12831128 </i>
   </energy>
  </scstep>
  <scstep>
   <time name="dav">    4.67    4.68</time>
   <time name="total">    7.59    7.61</time>
   <energy>
    <i name="e_fr_energy">    -17.43756594 </i>
    <i name="e_wo_entrp">    -17.45628779 </i>
    <i name="e_0_energy">    -17.44380656 </i>
   </energy>
  </scstep>
  <scstep>
   <time name="dav">    5.05    5.06</time>
   <time name="total">    8.04    8.06</time>
   <energy>
    <i name="e_fr_energy">    -17.66838270 </i>
    <i name="e_wo_entrp">    -17.68695391 </i>
    <i name="e_0_energy">    -17.67457311 </i>
   </energy>
  </scstep>
  <scstep>
   <time name="dav">    4.74    4.75</time>
   <time name="total">    7.69    7.71</time>
   <energy>
    <i name="e_fr_energy">    -17.91053045 </i>
    <i name="e_wo_entrp">    -17.92901129 </i>
    <i name="e_0_energy">    -17.91669073 </i>
   </energy>
  </scstep>
  <scstep>
   <time name="dav">    4.92    4.93</time>
   <time name="total">    7.89    7.91</time>
   <energy>
    <i name="e_fr_energy">    -18.08144746 </i>
    <i name="e_wo_entrp">    -18.09991765 </i>
    <i name="e_0_energy">    -18.08760419 </i>
   </energy>
  </scstep>
  <scstep>
   <time name="dav">    4.30    4.30</time>
   <time name="total">    7.31    7.31</time>
   <energy>
    <i name="e_fr_energy">    -18.14535146 </i>
    <i name="e_wo_entrp">    -18.16374427 </i>
    <i name="e_0_energy">    -18.15148239 </i>
   </energy>
  </scstep>
  <scstep>
   <time name="dav">    3.45    3.46</time>
   <time name="total">    6.49    6.50</time>
   <energy>
    <i name="e_fr_energy">    -18.17283397 </i>
    <i name="e_wo_entrp">    -18.19129247 </i>
    <i name="e_0_energy">    -18.17898680 </i>
   </energy>
  </scstep>
  <scstep>
   <time name="dav">    3.78    3.80</time>
   <time name="total">    6.74    6.76</time>
   <energy>
    <i name="e_fr_energy">    -18.18525944 </i>
    <i name="e_wo_entrp">    -18.20370362 </i>
    <i name="e_0_energy">    -18.19140750 </i>
   </energy>
  </scstep>
  <scstep>
   <time name="dav">    3.28    3.29</time>
   <time name="total">    6.26    6.27</time>
   <energy>
    <i name="e_fr_energy">    -18.19389071 </i>
    <i name="e_wo_entrp">    -18.21236084 </i>
    <i name="e_0_energy">    -18.20004742 </i>
   </energy>
  </scstep>
  <scstep>
   <time name="dav">    3.34    3.35</time>
   <time name="total">    6.36    6.38</time>
   <energy>
    <i name="e_fr_energy">    -18.20377027 </i>
    <i name="e_wo_entrp">    -18.22224768 </i>
    <i name="e_0_energy">    -18.20992941 </i>
   </energy>
  </scstep>
  <scstep>
   <time name="dav">    3.14    3.14</time>
   <time name="total">    6.14    6.16</time>
   <energy>
    <i name="e_fr_energy">    -18.20844027 </i>
    <i name="e_wo_entrp">    -18.22690376 </i>
    <i name="e_0_energy">    -18.21459476 </i>
   </energy>
  </scstep>
  <scstep>
   <time name="dav">    3.34    3.36</time>
   <time name="total">    6.32    6.35</time>
   <energy>
    <i name="e_fr_energy">    -18.21083419 </i>
    <i name="e_wo_entrp">    -18.22929149 </i>
    <i name="e_0_energy">    -18.21698662 </i>
   </energy>
  </scstep>
  <scstep>
   <time name="dav">    3.06    3.06</time>
   <time name="total">    6.00    6.02</time>
   <energy>
    <i name="e_fr_energy">    -18.21336580 </i>
    <i name="e_wo_entrp">    -18.23180834 </i>
    <i name="e_0_energy">    -18.21951331 </i>
   </energy>
  </scstep>
  <scstep>
   <time name="dav">    3.13    3.13</time>
   <time name="total">    6.06    6.07</time>
   <energy>
    <i name="e_fr_energy">    -18.21452976 </i>
    <i name="e_wo_entrp">    -18.23297771 </i>
    <i name="e_0_energy">    -18.22067908 </i>
   </energy>
  </scstep>
  <scstep>
   <time name="dav">    2.98    2.99</time>
   <time name="total">    5.95    5.97</time>
   <energy>
    <i name="e_fr_energy">    -18.21509901 </i>
    <i name="e_wo_entrp">    -18.23354862 </i>
    <i name="e_0_energy">    -18.22124888 </i>
   </energy>
  </scstep>
  <scstep>
   <time name="dav">    2.86    2.87</time>
   <time name="total">    5.95    5.96</time>
   <energy>
    <i name="e_fr_energy">    -18.21532978 </i>
    <i name="e_wo_entrp">    -18.23378332 </i>
    <i name="e_0_energy">    -18.22148096 </i>
   </energy>
  </scstep>
  <scstep>
   <time name="dav">    2.88    2.88</time>
   <time name="total">    5.25    5.26</time>
   <energy>
    <i name="alphaZ">      5.34235449 </i>
    <i name="ewald">   9917.59655688 </i>
    <i name="hartreedc"> -18485.11749500 </i>
    <i name="XCdc">    235.04860857 </i>
    <i name="pawpsdc">   9171.75852992 </i>
    <i name="pawaedc">  -9517.06377008 </i>
    <i name="eentropy">      0.01844814 </i>
    <i name="bandstr">   -613.95125931 </i>
    <i name="atom">   9268.15263587 </i>
    <i name="e_fr_energy">    -18.21539052 </i>
    <i name="e_wo_entrp">    -18.23383866 </i>
    <i name="e_0_energy">    -18.22153990 </i>
   </energy>
  </scstep>
  <structure>
   <crystal>
    <varray name="basis" >
     <v>      23.16202703       0.00000000       0.00000000 </v>
     <v>       0.00000000      23.86868728       0.00000000 </v>
     <v>       0.00000000       0.00000000      20.54371270 </v>
    </varray>
    <i name="volume">  11357.53363013 </i>
    <varray name="rec_basis" >
     <v>       0.04317411       0.00000000       0.00000000 </v>
     <v>       0.00000000       0.04189589       0.00000000 </v>
     <v>       0.00000000       0.00000000       0.04867669 </v>
    </varray>
   </crystal>
   <varray name="positions" >
    <v>       0.42092525       0.46609876       0.51557116 </v>
    <v>       0.44211808       0.57016234       0.53191801 </v>
    <v>       0.50631985       0.39569435       0.53046815 </v>
    <v>       0.58666693       0.45770103       0.48943609 </v>
    <v>       0.42691370       0.53305030       0.41911230 </v>
    <v>       0.52658567       0.54302555       0.46199306 </v>
    <v>       0.49392330       0.44940460       0.42400028 </v>
    <v>       0.51523953       0.49723048       0.57122475 </v>
   </varray>
  </structure>
  <varray name="forces" >
   <v>      -1.06088664      -1.12953369      -0.16200197 </v>
   <v>       0.22185606       1.70037105       0.98537798 </v>
   <v>      -1.03793483      -1.83293282       0.96108861 </v>
   <v>       1.87431396       1.16918892      -0.66710354 </v>
   <v>       0.33901800      -0.46674112      -0.59367737 </v>
   <v>      -0.01595631      -0.20224117      -0.21193097 </v>
   <v>      -0.33706664       0.49911319      -0.44714542 </v>
   <v>       0.01665640       0.26277564       0.13539268 </v>
  </varray>
  <energy>
   <i name="e_fr_energy">    -18.21539052 </i>
   <i name="e_wo_entrp">    -18.23383866 </i>
   <i name="e_0_energy">    -18.22153990 </i>
  </energy>
  <time name="totalsc">  215.45  215.98</time>
 </calculation>
 <calculation>
  <scstep>
   <time name="dav">    3.86    3.86</time>
   <time name="total">    6.83    6.85</time>
   <energy>
    <i name="alphaZ">      5.34235449 </i>
    <i name="ewald">   9588.14033651 </i>
    <i name="hartreedc"> -18161.78953123 </i>
    <i name="XCdc">    234.08581599 </i>
    <i name="pawpsdc">   9171.74789403 </i>
    <i name="pawaedc">  -9517.05247342 </i>
    <i name="eentropy">      0.01624274 </i>
    <i name="bandstr">   -606.38969548 </i>
    <i name="atom">   9268.15263587 </i>
    <i name="e_fr_energy">    -17.74642049 </i>
    <i name="e_wo_entrp">    -17.76266323 </i>
    <i name="e_0_energy">    -17.75183474 </i>
   </energy>
  </scstep>
  <scstep>
   <time name="dav">    5.40    5.41</time>
   <time name="total">    8.31    8.32</time>
   <energy>
    <i name="e_fr_energy">    -18.76454399 </i>
    <i name="e_wo_entrp">    -18.77792284 </i>
    <i name="e_0_energy">    -18.76900360 </i>
   </energy>
  </scstep>
  <scstep>
   <time name="dav">    5.09    5.10</time>
   <time name="total">    7.94    7.96</time>
   <energy>
    <i name="e_fr_energy">    -18.69777613 </i>
    <i name="e_wo_entrp">    -18.71395661 </i>
    <i name="e_0_energy">    -18.70316962 </i>
   </energy>
  </scstep>
  <scstep>
   <time name="dav">    5.17    5.18</time>
   <time name="total">    7.99    8.01</time>
   <energy>
    <i name="e_fr_energy">    -18.68978684 </i>
    <i name="e_wo_entrp">    -18.70437779 </i>
    <i name="e_0_energy">    -18.69465049 </i>
   </energy>
  </scstep>
  <scstep>
   <time name="dav">    5.06    5.07</time>
   <time name="total">    7.94    7.96</time>
   <energy>
    <i name="e_fr_energy">    -18.69089950 </i>
    <i name="e_wo_entrp">    -18.70783617 </i>
    <i name="e_0_energy">    -18.69654506 </i>
   </energy>
  </scstep>
  <scstep>
   <time name="dav">    4.67    4.68</time>
   <time name="total">    7.53    7.54</time>
   <energy>
    <i name="e_fr_energy">    -18.68713681 </i>
    <i name="e_wo_entrp">    -18.70290905 </i>
    <i name="e_0_energy">    -18.69239422 </i>
   </energy>
  </scstep>
  <scstep>
   <time name="dav">    5.57    5.58</time>
   <time name="total">    8.44    8.46</time>
   <energy>
    <i name="e_fr_energy">    -18.68663208 </i>
    <i name="e_wo_entrp">    -18.70231717 </i>
    <i name="e_0_energy">    -18.69186044 </i>
   </energy>
  </scstep>
  <scstep>
   <time name="dav">    4.24    4.24</time>
   <time name="total">    6.60    6.61</time>
   <energy>
    <i name="alphaZ">      5.34235449 </i>
    <i name="ewald">   9588.14033651 </i>
    <i name="hartreedc"> -18168.07176446 </i>
    <i name="XCdc">    234.26984820 </i>
    <i name="pawpsdc">   9002.51164601 </i>
    <i name="pawaedc">  -9345.91116062 </i>
    <i name="eentropy">      0.01562966 </i>
    <i name="bandstr">   -603.13607588 </i>
    <i name="atom">   9268.15263587 </i>
    <i name="e_fr_energy">    -18.68655022 </i>
    <i name="e_wo_entrp">    -18.70217989 </i>
    <i name="e_0_energy">    -18.69176011 </i>
   </energy>
  </scstep>
  <structure>
   <crystal>
    <varray name="basis" >
     <v>      23.16202703       0.00000000       0.00000000 </v>
     <v>       0.00000000      23.86868728       0.00000000 </v>
     <v>       0.00000000       0.00000000      20.54371270 </v>
    </varray>
    <i name="volume">  11357.53363013 </i>
    <varray name="rec_basis" >
     <v>       0.04317411       0.00000000       0.00000000 </v>
     <v>       0.00000000       0.04189589       0.00000000 </v>
     <v>       0.00000000       0.00000000       0.04867669 </v>
    </varray>
   </crystal>
   <varray name="positions" >
    <v>       0.41871560       0.46381579       0.51519074 </v>
    <v>       0.44258017       0.57359907       0.53423196 </v>
    <v>       0.50415801       0.39198969       0.53272507 </v>
    <v>       0.59057081       0.46006416       0.48786953 </v>
    <v>       0.42761982       0.53210694       0.41771817 </v>
    <v>       0.52655244       0.54261678       0.46149538 </v>
    <v>       0.49322125       0.45041339       0.42295025 </v>
    <v>       0.51527422       0.49776159       0.57154270 </v>
   </varray>
  </structure>
  <varray name="forces" >
   <v>      -0.27012775      -0.08334670      -0.15945075 </v>
   <v>       0.27872871       0.29097502       0.34030943 </v>
   <v>      -0.08391219      -0.16782430       0.18662489 </v>
   <v>       0.12482198       0.33439480      -0.12514892 </v>
   <v>       0.31808947      -0.35783073      -0.02420505 </v>
   <v>      -0.21423823      -0.19137437      -0.00543792 </v>
   <v>      -0.01787356       0.26566811       0.16066021 </v>
   <v>      -0.13548844      -0.09066182      -0.37335189 </v>
  </varray>
  <energy>
   <i name="e_fr_energy">    -18.68655022 </i>
   <i name="e_wo_entrp">    -18.70217989 </i>
   <i name="e_0_energy">    -18.69176011 </i>
  </energy>
  <time name="totalsc">   69.36   69.57</time>
 </calculation>
 <calculation>
  <scstep>
   <time name="dav">    3.88    3.89</time>
   <time name="total">    6.73    6.75</time>
   <energy>
    <i name="alphaZ">      5.34235449 </i>
    <i name="ewald">   9475.34232978 </i>
    <i name="hartreedc"> -18056.81930949 </i>
    <i name="XCdc">    233.96450303 </i>
    <i name="pawpsdc">   9001.78570897 </i>
    <i name="pawaedc">  -9345.13853413 </i>
    <i name="eentropy">      0.01532838 </i>
    <i name="bandstr">   -601.26052433 </i>
    <i name="atom">   9268.15263587 </i>
    <i name="e_fr_energy">    -18.61550742 </i>
    <i name="e_wo_entrp">    -18.63083580 </i>
    <i name="e_0_energy">    -18.62061688 </i>
   </energy>
  </scstep>
  <scstep>
   <time name="dav">    5.40    5.42</time>
   <time name="total">    8.27    8.31</time>
   <energy>
    <i name="e_fr_energy">    -18.71587656 </i>
    <i name="e_wo_entrp">    -18.73065724 </i>
    <i name="e_0_energy">    -18.72080346 </i>
   </energy>
  </scstep>
  <scstep>
   <time name="dav">    5.05    5.07</time>
   <time name="total">    7.89    7.91</time>
   <energy>
    <i name="e_fr_energy">    -18.70940880 </i>
    <i name="e_wo_entrp">    -18.72460684 </i>
    <i name="e_0_energy">    -18.71447481 </i>
   </energy>
  </scstep>
  <scstep>
   <time name="dav">    5.47    5.47</time>
   <time name="total">    8.22    8.23</time>
   <energy>
    <i name="e_fr_energy">    -18.70859386 </i>
    <i name="e_wo_entrp">    -18.72391298 </i>
    <i name="e_0_energy">    -18.71370023 </i>
   </energy>
  </scstep>
  <scstep>
   <time name="dav">    4.99    5.00</time>
   <time name="total">    7.88    7.90</time>
   <energy>
    <i name="e_fr_energy">    -18.70875569 </i>
    <i name="e_wo_entrp">    -18.72382304 </i>
    <i name="e_0_energy">    -18.71377814 </i>
   </energy>
  </scstep>
  <scstep>
   <time name="dav">    4.67    4.68</time>
   <time name="total">    7.53    7.55</time>
   <energy>
    <i name="e_fr_energy">    -18.70852642 </i>
    <i name="e_wo_entrp">    -18.72374850 </i>
    <i name="e_0_energy">    -18.71360044 </i>
   </energy>
  </scstep>
  <scstep>
   <time name="dav">    4.40    4.40</time>
   <time name="total">    6.71    6.73</time>
   <energy>
    <i name="alphaZ">      5.34235449 </i>
    <i name="ewald">   9475.34232978 </i>
    <i name="hartreedc"> -18059.20312207 </i>
    <i name="XCdc">    234.03769364 </i>
    <i name="pawpsdc">   8955.98319607 </i>
    <i name="pawaedc">  -9298.83327087 </i>
    <i name="eentropy">      0.01518841 </i>
    <i name="bandstr">   -599.54549062 </i>
    <i name="atom">   9268.15263587 </i>
    <i name="e_fr_energy">    -18.70848531 </i>
    <i name="e_wo_entrp">    -18.72367372 </i>
    <i name="e_0_energy">    -18.71354811 </i>
   </energy>
  </scstep>
  <structure>
   <crystal>
    <varray name="basis" >
     <v>      23.16202703       0.00000000       0.00000000 </v>
     <v>       0.00000000      23.86868728       0.00000000 </v>
     <v>       0.00000000       0.00000000      20.54371270 </v>
    </varray>
    <i name="volume">  11357.53363013 </i>
    <varray name="rec_basis" >
     <v>       0.04317411       0.00000000       0.00000000 </v>
     <v>       0.00000000       0.04189589       0.00000000 </v>
     <v>       0.00000000       0.00000000       0.04867669 </v>
    </varray>
   </crystal>
   <varray name="positions" >
    <v>       0.41792828       0.46300234       0.51505519 </v>
    <v>       0.44274481       0.57482362       0.53505645 </v>
    <v>       0.50338772       0.39066968       0.53352923 </v>
    <v>       0.59196180       0.46090616       0.48731136 </v>
    <v>       0.42787141       0.53177081       0.41722143 </v>
    <v>       0.52654059       0.54247114       0.46131805 </v>
    <v>       0.49297110       0.45077283       0.42257612 </v>
    <v>       0.51528658       0.49795084       0.57165598 </v>
   </varray>
  </structure>
  <varray name="forces" >
   <v>      -0.04682504       0.12139487      -0.17239556 </v>
   <v>       0.32264416      -0.03310742       0.17654324 </v>
   <v>       0.03583876       0.18714634       0.04383790 </v>
   <v>      -0.22501757       0.21678097      -0.02990756 </v>
   <v>       0.29490433      -0.32232379       0.11720844 </v>
   <v>      -0.26731325      -0.18399661       0.06887416 </v>
   <v>       0.06701665       0.18845008       0.31232378 </v>
   <v>      -0.18124805      -0.17434444      -0.51648439 </v>
  </varray>
  <energy>
   <i name="e_fr_energy">    -18.70848531 </i>
   <i name="e_wo_entrp">    -18.72367372 </i>
   <i name="e_0_energy">    -18.71354811 </i>
  </energy>
  <time name="totalsc">   61.01   61.18</time>
 </calculation>
 <calculation>
  <scstep>
   <time name="dav">    4.02    4.02</time>
   <time name="total">    7.10    7.12</time>
   <energy>
    <i name="alphaZ">      5.34235449 </i>
    <i name="ewald">   9559.07460635 </i>
    <i name="hartreedc"> -18142.18114763 </i>
    <i name="XCdc">    234.21484159 </i>
    <i name="pawpsdc">   8956.02336972 </i>
    <i name="pawaedc">  -9298.85532529 </i>
    <i name="eentropy">      0.01555411 </i>
    <i name="bandstr">   -600.50122582 </i>
    <i name="atom">   9268.15263587 </i>
    <i name="e_fr_energy">    -18.71433661 </i>
    <i name="e_wo_entrp">    -18.72989072 </i>
    <i name="e_0_energy">    -18.71952131 </i>
   </energy>
  </scstep>
  <scstep>
   <time name="dav">    5.38    5.39</time>
   <time name="total">    8.22    8.24</time>
   <energy>
    <i name="e_fr_energy">    -18.76034693 </i>
    <i name="e_wo_entrp">    -18.77461601 </i>
    <i name="e_0_energy">    -18.76510329 </i>
   </energy>
  </scstep>
  <scstep>
   <time name="dav">    4.84    4.85</time>
   <time name="total">    7.69    7.70</time>
   <energy>
    <i name="e_fr_energy">    -18.75536434 </i>
    <i name="e_wo_entrp">    -18.77032596 </i>
    <i name="e_0_energy">    -18.76035155 </i>
   </energy>
  </scstep>
  <scstep>
   <time name="dav">    5.24    5.25</time>
   <time name="total">    8.12    8.14</time>
   <energy>
    <i name="e_fr_energy">    -18.75533126 </i>
    <i name="e_wo_entrp">    -18.77034140 </i>
    <i name="e_0_energy">    -18.76033464 </i>
   </energy>
  </scstep>
  <scstep>
   <time name="dav">    4.10    4.11</time>
   <time name="total">    6.95    6.97</time>
   <energy>
    <i name="e_fr_energy">    -18.75519852 </i>
    <i name="e_wo_entrp">    -18.77016440 </i>
    <i name="e_0_energy">    -18.76018714 </i>
   </energy>
  </scstep>
  <scstep>
   <time name="dav">    5.26    5.28</time>
   <time name="total">    8.12    8.14</time>
   <energy>
    <i name="e_fr_energy">    -18.75524341 </i>
    <i name="e_wo_entrp">    -18.77015249 </i>
    <i name="e_0_energy">    -18.76021310 </i>
   </energy>
  </scstep>
  <scstep>
   <time name="dav">    3.50    3.50</time>
   <time name="total">    6.31    6.31</time>
   <energy>
    <i name="e_fr_energy">    -18.75513872 </i>
    <i name="e_wo_entrp">    -18.77010156 </i>
    <i name="e_0_energy">    -18.76012633 </i>
   </energy>
  </scstep>
  <scstep>
   <time name="dav">    3.13    3.14</time>
   <time name="total">    5.43    5.45</time>
   <energy>
    <i name="alphaZ">      5.34235449 </i>
    <i name="ewald">   9559.07460635 </i>
    <i name="hartreedc"> -18140.92923417 </i>
    <i name="XCdc">    234.14852556 </i>
    <i name="pawpsdc">   8976.71355912 </i>
    <i name="pawaedc">  -9319.91873238 </i>
    <i name="eentropy">      0.01502809 </i>
    <i name="bandstr">   -601.35388393 </i>
    <i name="atom">   9268.15263587 </i>
    <i name="e_fr_energy">    -18.75514100 </i>
    <i name="e_wo_entrp">    -18.77016909 </i>
    <i name="e_0_energy">    -18.76015037 </i>
   </energy>
  </scstep>
  <structure>
   <crystal>
    <varray name="basis" >
     <v>      23.16202703       0.00000000       0.00000000 </v>
     <v>       0.00000000      23.86868728       0.00000000 </v>
     <v>       0.00000000       0.00000000      20.54371270 </v>
    </varray>
    <i name="volume">  11357.53363013 </i>
    <varray name="rec_basis" >
     <v>       0.04317411       0.00000000       0.00000000 </v>
     <v>       0.00000000       0.04189589       0.00000000 </v>
     <v>       0.00000000       0.00000000       0.04867669 </v>
    </varray>
   </crystal>
   <varray name="positions" >
    <v>       0.41763929       0.46307454       0.51458973 </v>
    <v>       0.44350330       0.57503892       0.53569380 </v>
    <v>       0.50328716       0.39076553       0.53382798 </v>
    <v>       0.59178573       0.46157287       0.48710530 </v>
    <v>       0.42858839       0.53099414       0.41739986 </v>
    <v>       0.52594137       0.54203861       0.46144976 </v>
    <v>       0.49306201       0.45126510       0.42327413 </v>
    <v>       0.51488506       0.49761770       0.57038325 </v>
   </varray>
  </structure>
  <varray name="forces" >
   <v>      -0.10990625       0.08209282      -0.11645722 </v>
   <v>       0.26206461      -0.00423391       0.17739507 </v>
   <v>       0.03403583       0.16739428       0.04941439 </v>
   <v>      -0.12384811       0.13866651      -0.03313558 </v>
   <v>       0.16574934      -0.20793024       0.05247733 </v>
   <v>      -0.17186024      -0.01146655       0.02108024 </v>
   <v>       0.10163564       0.02320034       0.22801748 </v>
   <v>      -0.15787083      -0.18772326      -0.37879169 </v>
  </varray>
  <energy>
   <i name="e_fr_energy">    -18.75514100 </i>
   <i name="e_wo_entrp">    -18.77016909 </i>
   <i name="e_0_energy">    -18.76015037 </i>
  </energy>
  <time name="totalsc">   65.74   66.00</time>
 </calculation>
 <calculation>
  <scstep>
   <time name="dav">    4.08    4.09</time>
   <time name="total">    6.93    6.94</time>
   <energy>
    <i name="alphaZ">      5.34235449 </i>
    <i name="ewald">   9748.02927041 </i>
    <i name="hartreedc"> -18328.05076287 </i>
    <i name="XCdc">    234.57427403 </i>
    <i name="pawpsdc">   8976.80929410 </i>
    <i name="pawaedc">  -9320.00895131 </i>
    <i name="eentropy">      0.01614507 </i>
    <i name="bandstr">   -603.41852949 </i>
    <i name="atom">   9268.15263587 </i>
    <i name="e_fr_energy">    -18.55426970 </i>
    <i name="e_wo_entrp">    -18.57041477 </i>
    <i name="e_0_energy">    -18.55965139 </i>
   </energy>
  </scstep>
  <scstep>
   <time name="dav">    5.42    5.42</time>
   <time name="total">    8.26    8.28</time>
   <energy>
    <i name="e_fr_energy">    -18.80735772 </i>
    <i name="e_wo_entrp">    -18.82105125 </i>
    <i name="e_0_energy">    -18.81192223 </i>
   </energy>
  </scstep>
  <scstep>
   <time name="dav">    4.85    4.86</time>
   <time name="total">    7.70    7.72</time>
   <energy>
    <i name="e_fr_energy">    -18.79033500 </i>
    <i name="e_wo_entrp">    -18.80513119 </i>
    <i name="e_0_energy">    -18.79526706 </i>
   </energy>
  </scstep>
  <scstep>
   <time name="dav">    5.11    5.11</time>
   <time name="total">    7.93    7.95</time>
   <energy>
    <i name="e_fr_energy">    -18.78946378 </i>
    <i name="e_wo_entrp">    -18.80427711 </i>
    <i name="e_0_energy">    -18.79440156 </i>
   </energy>
  </scstep>
  <scstep>
   <time name="dav">    5.10    5.11</time>
   <time name="total">    7.99    8.01</time>
   <energy>
    <i name="e_fr_energy">    -18.78836443 </i>
    <i name="e_wo_entrp">    -18.80298869 </i>
    <i name="e_0_energy">    -18.79323918 </i>
   </energy>
  </scstep>
  <scstep>
   <time name="dav">    6.50    6.52</time>
   <time name="total">    9.41    9.44</time>
   <energy>
    <i name="e_fr_energy">    -18.78781371 </i>
    <i name="e_wo_entrp">    -18.80250724 </i>
    <i name="e_0_energy">    -18.79271156 </i>
   </energy>
  </scstep>
  <scstep>
   <time name="dav">    4.83    4.85</time>
   <time name="total">    7.64    7.66</time>
   <energy>
    <i name="e_fr_energy">    -18.78773646 </i>
    <i name="e_wo_entrp">    -18.80250293 </i>
    <i name="e_0_energy">    -18.79265862 </i>
   </energy>
  </scstep>
  <scstep>
   <time name="dav">    3.62    3.63</time>
   <time name="total">    5.90    5.92</time>
   <energy>
    <i name="alphaZ">      5.34235449 </i>
    <i name="ewald">   9748.02927041 </i>
    <i name="hartreedc"> -18324.85396181 </i>
    <i name="XCdc">    234.42123898 </i>
    <i name="pawpsdc">   9029.29481445 </i>
    <i name="pawaedc">  -9373.48605158 </i>
    <i name="eentropy">      0.01481225 </i>
    <i name="bandstr">   -605.70288610 </i>
    <i name="atom">   9268.15263587 </i>
    <i name="e_fr_energy">    -18.78777303 </i>
    <i name="e_wo_entrp">    -18.80258528 </i>
    <i name="e_0_energy">    -18.79271045 </i>
   </energy>
  </scstep>
  <structure>
   <crystal>
    <varray name="basis" >
     <v>      23.16202703       0.00000000       0.00000000 </v>
     <v>       0.00000000      23.86868728       0.00000000 </v>
     <v>       0.00000000       0.00000000      20.54371270 </v>
    </varray>
    <i name="volume">  11357.53363013 </i>
    <varray name="rec_basis" >
     <v>       0.04317411       0.00000000       0.00000000 </v>
     <v>       0.00000000       0.04189589       0.00000000 </v>
     <v>       0.00000000       0.00000000       0.04867669 </v>
    </varray>
   </crystal>
   <varray name="positions" >
    <v>       0.41699743       0.46323490       0.51355597 </v>
    <v>       0.44518791       0.57551710       0.53710934 </v>
    <v>       0.50306382       0.39097841       0.53449149 </v>
    <v>       0.59139466       0.46305363       0.48664766 </v>
    <v>       0.43018078       0.52926916       0.41779617 </v>
    <v>       0.52461051       0.54107798       0.46174227 </v>
    <v>       0.49326391       0.45235844       0.42482441 </v>
    <v>       0.51399330       0.49687779       0.56755650 </v>
   </varray>
  </structure>
  <varray name="forces" >
   <v>      -0.26879613      -0.01955971       0.06292189 </v>
   <v>       0.07494749       0.07978501       0.16944356 </v>
   <v>       0.04122830       0.10931480       0.04126565 </v>
   <v>       0.16428986      -0.09640704      -0.03616115 </v>
   <v>      -0.19227113       0.11829193      -0.13804510 </v>
   <v>       0.06729277       0.46628463      -0.08640108 </v>
   <v>       0.21697832      -0.43315723       0.02358607 </v>
   <v>      -0.10366948      -0.22455240      -0.03660985 </v>
  </varray>
  <energy>
   <i name="e_fr_energy">    -18.78777303 </i>
   <i name="e_wo_entrp">    -18.80258528 </i>
   <i name="e_0_energy">    -18.79271045 </i>
  </energy>
  <time name="totalsc">   69.58   69.78</time>
 </calculation>
 <calculation>
  <scstep>
   <time name="dav">    4.08    4.08</time>
   <time name="total">    6.96    6.97</time>
   <energy>
    <i name="alphaZ">      5.34235449 </i>
    <i name="ewald">   9711.79884099 </i>
    <i name="hartreedc"> -18288.99768257 </i>
    <i name="XCdc">    234.33699118 </i>
    <i name="pawpsdc">   9029.48067040 </i>
    <i name="pawaedc">  -9373.65735540 </i>
    <i name="eentropy">      0.01458239 </i>
    <i name="bandstr">   -605.25362549 </i>
    <i name="atom">   9268.15263587 </i>
    <i name="e_fr_energy">    -18.78258813 </i>
    <i name="e_wo_entrp">    -18.79717052 </i>
    <i name="e_0_energy">    -18.78744893 </i>
   </energy>
  </scstep>
  <scstep>
   <time name="dav">    5.45    5.46</time>
   <time name="total">    8.27    8.29</time>
   <energy>
    <i name="e_fr_energy">    -18.79029419 </i>
    <i name="e_wo_entrp">    -18.80473697 </i>
    <i name="e_0_energy">    -18.79510845 </i>
   </energy>
  </scstep>
  <scstep>
   <time name="dav">    4.44    4.45</time>
   <time name="total">    7.30    7.33</time>
   <energy>
    <i name="e_fr_energy">    -18.78983442 </i>
    <i name="e_wo_entrp">    -18.80447681 </i>
    <i name="e_0_energy">    -18.79471522 </i>
   </energy>
  </scstep>
  <scstep>
   <time name="dav">    4.23    4.24</time>
   <time name="total">    6.56    6.58</time>
   <energy>
    <i name="alphaZ">      5.34235449 </i>
    <i name="ewald">   9711.79884099 </i>
    <i name="hartreedc"> -18289.40692398 </i>
    <i name="XCdc">    234.35627666 </i>
    <i name="pawpsdc">   9023.20650486 </i>
    <i name="pawaedc">  -9367.24948846 </i>
    <i name="eentropy">      0.01469224 </i>
    <i name="bandstr">   -605.00470413 </i>
    <i name="atom">   9268.15263587 </i>
    <i name="e_fr_energy">    -18.78981146 </i>
    <i name="e_wo_entrp">    -18.80450370 </i>
    <i name="e_0_energy">    -18.79470887 </i>
   </energy>
  </scstep>
  <structure>
   <crystal>
    <varray name="basis" >
     <v>      23.16202703       0.00000000       0.00000000 </v>
     <v>       0.00000000      23.86868728       0.00000000 </v>
     <v>       0.00000000       0.00000000      20.54371270 </v>
    </varray>
    <i name="volume">  11357.53363013 </i>
    <varray name="rec_basis" >
     <v>       0.04317411       0.00000000       0.00000000 </v>
     <v>       0.00000000       0.04189589       0.00000000 </v>
     <v>       0.00000000       0.00000000       0.04867669 </v>
    </varray>
   </crystal>
   <varray name="positions" >
    <v>       0.41711941       0.46320443       0.51375244 </v>
    <v>       0.44486774       0.57542622       0.53684031 </v>
    <v>       0.50310626       0.39093795       0.53436538 </v>
    <v>       0.59146898       0.46277220       0.48673464 </v>
    <v>       0.42987814       0.52959700       0.41772085 </v>
    <v>       0.52486344       0.54126055       0.46168668 </v>
    <v>       0.49322553       0.45215064       0.42452977 </v>
    <v>       0.51416279       0.49701842       0.56809374 </v>
   </varray>
  </structure>
  <varray name="forces" >
   <v>      -0.23993373       0.00030891       0.02252064 </v>
   <v>       0.11240683       0.06592811       0.17228798 </v>
   <v>       0.03783426       0.11875450       0.04649269 </v>
   <v>       0.10286098      -0.04570319      -0.03928640 </v>
   <v>      -0.11962640       0.05218554      -0.09496908 </v>
   <v>       0.02272639       0.36702447      -0.06786863 </v>
   <v>       0.19193477      -0.34263372       0.05553452 </v>
   <v>      -0.10820312      -0.21586462      -0.09471174 </v>
  </varray>
  <energy>
   <i name="e_fr_energy">    -18.78981146 </i>
   <i name="e_wo_entrp">    -18.80450370 </i>
   <i name="e_0_energy">    -18.79470887 </i>
  </energy>
  <time name="totalsc">   36.89   37.00</time>
 </calculation>
 <calculation>
  <scstep>
   <time name="dav">    4.06    4.07</time>
   <time name="total">    6.94    6.96</time>
   <energy>
    <i name="alphaZ">      5.34235449 </i>
    <i name="ewald">   9709.32900773 </i>
    <i name="hartreedc"> -18287.03498545 </i>
    <i name="XCdc">    234.34044529 </i>
    <i name="pawpsdc">   9021.28811647 </i>
    <i name="pawaedc">  -9365.26585578 </i>
    <i name="eentropy">      0.01463145 </i>
    <i name="bandstr">   -604.92541980 </i>
    <i name="atom">   9268.15263587 </i>
    <i name="e_fr_energy">    -18.75906973 </i>
    <i name="e_wo_entrp">    -18.77370118 </i>
    <i name="e_0_energy">    -18.76394688 </i>
   </energy>
  </scstep>
  <scstep>
   <time name="dav">    5.43    5.44</time>
   <time name="total">    8.30    8.31</time>
   <energy>
    <i name="e_fr_energy">    -18.82692359 </i>
    <i name="e_wo_entrp">    -18.84035971 </i>
    <i name="e_0_energy">    -18.83140230 </i>
   </energy>
  </scstep>
  <scstep>
   <time name="dav">    5.07    5.08</time>
   <time name="total">    7.80    7.82</time>
   <energy>
    <i name="e_fr_energy">    -18.82197372 </i>
    <i name="e_wo_entrp">    -18.83623477 </i>
    <i name="e_0_energy">    -18.82672740 </i>
   </energy>
  </scstep>
  <scstep>
   <time name="dav">    5.21    5.22</time>
   <time name="total">    8.07    8.09</time>
   <energy>
    <i name="e_fr_energy">    -18.82161213 </i>
    <i name="e_wo_entrp">    -18.83580555 </i>
    <i name="e_0_energy">    -18.82634327 </i>
   </energy>
  </scstep>
  <scstep>
   <time name="dav">    5.23    5.24</time>
   <time name="total">    8.09    8.10</time>
   <energy>
    <i name="e_fr_energy">    -18.82129772 </i>
    <i name="e_wo_entrp">    -18.83553861 </i>
    <i name="e_0_energy">    -18.82604469 </i>
   </energy>
  </scstep>
  <scstep>
   <time name="dav">    6.45    6.47</time>
   <time name="total">    9.33    9.36</time>
   <energy>
    <i name="e_fr_energy">    -18.82106592 </i>
    <i name="e_wo_entrp">    -18.83525160 </i>
    <i name="e_0_energy">    -18.82579448 </i>
   </energy>
  </scstep>
  <scstep>
   <time name="dav">    3.91    3.92</time>
   <time name="total">    6.24    6.24</time>
   <energy>
    <i name="alphaZ">      5.34235449 </i>
    <i name="ewald">   9709.32900773 </i>
    <i name="hartreedc"> -18287.32791631 </i>
    <i name="XCdc">    234.35046049 </i>
    <i name="pawpsdc">   9014.74835049 </i>
    <i name="pawaedc">  -9358.73684364 </i>
    <i name="eentropy">      0.01430712 </i>
    <i name="bandstr">   -604.69342051 </i>
    <i name="atom">   9268.15263587 </i>
    <i name="e_fr_energy">    -18.82106428 </i>
    <i name="e_wo_entrp">    -18.83537139 </i>
    <i name="e_0_energy">    -18.82583332 </i>
   </energy>
  </scstep>
  <structure>
   <crystal>
    <varray name="basis" >
     <v>      23.16202703       0.00000000       0.00000000 </v>
     <v>       0.00000000      23.86868728       0.00000000 </v>
     <v>       0.00000000       0.00000000      20.54371270 </v>
    </varray>
    <i name="volume">  11357.53363013 </i>
    <varray name="rec_basis" >
     <v>       0.04317411       0.00000000       0.00000000 </v>
     <v>       0.00000000       0.04189589       0.00000000 </v>
     <v>       0.00000000       0.00000000       0.04867669 </v>
    </varray>
   </crystal>
   <varray name="positions" >
    <v>       0.41620202       0.46325266       0.51352438 </v>
    <v>       0.44570596       0.57576145       0.53784742 </v>
    <v>       0.50315514       0.39135041       0.53472024 </v>
    <v>       0.59166565       0.46307466       0.48646519 </v>
    <v>       0.42998515       0.52924155       0.41751295 </v>
    <v>       0.52453962       0.54205763       0.46154085 </v>
    <v>       0.49386746       0.45146454       0.42517727 </v>
    <v>       0.51357131       0.49616450       0.56693550 </v>
   </varray>
  </structure>
  <varray name="forces" >
   <v>      -0.18738670       0.00384469      -0.01517832 </v>
   <v>       0.06965935       0.03546879       0.13675679 </v>
   <v>       0.01680866       0.05477664       0.04298288 </v>
   <v>       0.10253573      -0.01089768      -0.06187270 </v>
   <v>      -0.07957075       0.00713472      -0.06404100 </v>
   <v>       0.06785859       0.24703949      -0.08937641 </v>
   <v>       0.10284614      -0.19455773       0.09205886 </v>
   <v>      -0.09275103      -0.14280891      -0.04133010 </v>
  </varray>
  <energy>
   <i name="e_fr_energy">    -18.82106428 </i>
   <i name="e_wo_entrp">    -18.83537139 </i>
   <i name="e_0_energy">    -18.82583332 </i>
  </energy>
  <time name="totalsc">   62.56   62.71</time>
 </calculation>
 <calculation>
  <scstep>
   <time name="dav">    4.10    4.11</time>
   <time name="total">    6.96    6.96</time>
   <energy>
    <i name="alphaZ">      5.34235449 </i>
    <i name="ewald">   9701.07524423 </i>
    <i name="hartreedc"> -18279.50557431 </i>
    <i name="XCdc">    234.33603431 </i>
    <i name="pawpsdc">   9014.76126344 </i>
    <i name="pawaedc">  -9358.73851663 </i>
    <i name="eentropy">      0.01430890 </i>
    <i name="bandstr">   -603.93199284 </i>
    <i name="atom">   9268.15263587 </i>
    <i name="e_fr_energy">    -18.49424253 </i>
    <i name="e_wo_entrp">    -18.50855143 </i>
    <i name="e_0_energy">    -18.49901217 </i>
   </energy>
  </scstep>
  <scstep>
   <time name="dav">    5.42    5.42</time>
   <time name="total">    8.26    8.28</time>
   <energy>
    <i name="e_fr_energy">    -18.87163266 </i>
    <i name="e_wo_entrp">    -18.88418653 </i>
    <i name="e_0_energy">    -18.87581728 </i>
   </energy>
  </scstep>
  <scstep>
   <time name="dav">    5.03    5.04</time>
   <time name="total">    7.87    7.88</time>
   <energy>
    <i name="e_fr_energy">    -18.85114521 </i>
    <i name="e_wo_entrp">    -18.86472260 </i>
    <i name="e_0_energy">    -18.85567100 </i>
   </energy>
  </scstep>
  <scstep>
   <time name="dav">    5.29    5.29</time>
   <time name="total">    8.05    8.07</time>
   <energy>
    <i name="e_fr_energy">    -18.84970166 </i>
    <i name="e_wo_entrp">    -18.86311423 </i>
    <i name="e_0_energy">    -18.85417252 </i>
   </energy>
  </scstep>
  <scstep>
   <time name="dav">    5.20    5.21</time>
   <time name="total">    8.12    8.14</time>
   <energy>
    <i name="e_fr_energy">    -18.84765225 </i>
    <i name="e_wo_entrp">    -18.86098821 </i>
    <i name="e_0_energy">    -18.85209757 </i>
   </energy>
  </scstep>
  <scstep>
   <time name="dav">    5.82    5.83</time>
   <time name="total">    8.67    8.69</time>
   <energy>
    <i name="e_fr_energy">    -18.84652694 </i>
    <i name="e_wo_entrp">    -18.85985236 </i>
    <i name="e_0_energy">    -18.85096875 </i>
   </energy>
  </scstep>
  <scstep>
   <time name="dav">    5.32    5.32</time>
   <time name="total">    8.13    8.15</time>
   <energy>
    <i name="e_fr_energy">    -18.84657824 </i>
    <i name="e_wo_entrp">    -18.86007446 </i>
    <i name="e_0_energy">    -18.85107698 </i>
   </energy>
  </scstep>
  <scstep>
   <time name="dav">    3.70    3.70</time>
   <time name="total">    5.98    5.99</time>
   <energy>
    <i name="alphaZ">      5.34235449 </i>
    <i name="ewald">   9701.07524423 </i>
    <i name="hartreedc"> -18279.27287798 </i>
    <i name="XCdc">    234.31733337 </i>
    <i name="pawpsdc">   9008.86874236 </i>
    <i name="pawaedc">  -9352.80472176 </i>
    <i name="eentropy">      0.01341046 </i>
    <i name="bandstr">   -604.53868202 </i>
    <i name="atom">   9268.15263587 </i>
    <i name="e_fr_energy">    -18.84656099 </i>
    <i name="e_wo_entrp">    -18.85997145 </i>
    <i name="e_0_energy">    -18.85103114 </i>
   </energy>
  </scstep>
  <structure>
   <crystal>
    <varray name="basis" >
     <v>      23.16202703       0.00000000       0.00000000 </v>
     <v>       0.00000000      23.86868728       0.00000000 </v>
     <v>       0.00000000       0.00000000      20.54371270 </v>
    </varray>
    <i name="volume">  11357.53363013 </i>
    <varray name="rec_basis" >
     <v>       0.04317411       0.00000000       0.00000000 </v>
     <v>       0.00000000       0.04189589       0.00000000 </v>
     <v>       0.00000000       0.00000000       0.04867669 </v>
    </varray>
   </crystal>
   <varray name="positions" >
    <v>       0.41414987       0.46336057       0.51301423 </v>
    <v>       0.44758100       0.57651134       0.54010027 </v>
    <v>       0.50326447       0.39227306       0.53551404 </v>
    <v>       0.59210558       0.46375123       0.48586245 </v>
    <v>       0.43022454       0.52844643       0.41704789 </v>
    <v>       0.52381524       0.54384064       0.46121464 </v>
    <v>       0.49530339       0.44992977       0.42662568 </v>
    <v>       0.51224822       0.49425436       0.56434461 </v>
   </varray>
  </structure>
  <varray name="forces" >
   <v>      -0.07139369      -0.00056837      -0.09978085 </v>
   <v>      -0.00514325      -0.01078427       0.08395867 </v>
   <v>      -0.03680228      -0.21854297       0.04172642 </v>
   <v>       0.12365734       0.06976173      -0.10784132 </v>
   <v>      -0.01598065      -0.08786124      -0.01997483 </v>
   <v>       0.17459271       0.01579128      -0.11138082 </v>
   <v>      -0.10049456       0.11976046       0.13664903 </v>
   <v>      -0.06843561       0.11244337       0.07664370 </v>
  </varray>
  <energy>
   <i name="e_fr_energy">    -18.84656099 </i>
   <i name="e_wo_entrp">    -18.85997145 </i>
   <i name="e_0_energy">    -18.85103114 </i>
  </energy>
  <time name="totalsc">   70.42   70.69</time>
 </calculation>
 <calculation>
  <scstep>
   <time name="dav">    4.08    4.08</time>
   <time name="total">    6.92    6.93</time>
   <energy>
    <i name="alphaZ">      5.34235449 </i>
    <i name="ewald">   9655.79131845 </i>
    <i name="hartreedc"> -18234.63156528 </i>
    <i name="XCdc">    234.20029469 </i>
    <i name="pawpsdc">   9008.64728210 </i>
    <i name="pawaedc">  -9352.55963760 </i>
    <i name="eentropy">      0.01344299 </i>
    <i name="bandstr">   -603.74498759 </i>
    <i name="atom">   9268.15263587 </i>
    <i name="e_fr_energy">    -18.78886189 </i>
    <i name="e_wo_entrp">    -18.80230488 </i>
    <i name="e_0_energy">    -18.79334289 </i>
   </energy>
  </scstep>
  <scstep>
   <time name="dav">    5.40    5.41</time>
   <time name="total">    8.28    8.29</time>
   <energy>
    <i name="e_fr_energy">    -18.86895816 </i>
    <i name="e_wo_entrp">    -18.88148536 </i>
    <i name="e_0_energy">    -18.87313389 </i>
   </energy>
  </scstep>
  <scstep>
   <time name="dav">    5.04    5.05</time>
   <time name="total">    7.86    7.88</time>
   <energy>
    <i name="e_fr_energy">    -18.86185971 </i>
    <i name="e_wo_entrp">    -18.87493940 </i>
    <i name="e_0_energy">    -18.86621961 </i>
   </energy>
  </scstep>
  <scstep>
   <time name="dav">    5.26    5.30</time>
   <time name="total">    8.11    8.15</time>
   <energy>
    <i name="e_fr_energy">    -18.86125676 </i>
    <i name="e_wo_entrp">    -18.87429005 </i>
    <i name="e_0_energy">    -18.86560119 </i>
   </energy>
  </scstep>
  <scstep>
   <time name="dav">    4.80    4.81</time>
   <time name="total">    7.64    7.67</time>
   <energy>
    <i name="e_fr_energy">    -18.86072650 </i>
    <i name="e_wo_entrp">    -18.87386299 </i>
    <i name="e_0_energy">    -18.86510533 </i>
   </energy>
  </scstep>
  <scstep>
   <time name="dav">    5.25    5.26</time>
   <time name="total">    8.07    8.10</time>
   <energy>
    <i name="e_fr_energy">    -18.86063526 </i>
    <i name="e_wo_entrp">    -18.87376265 </i>
    <i name="e_0_energy">    -18.86501106 </i>
   </energy>
  </scstep>
  <scstep>
   <time name="dav">    4.27    4.27</time>
   <time name="total">    6.48    6.49</time>
   <energy>
    <i name="alphaZ">      5.34235449 </i>
    <i name="ewald">   9655.79131845 </i>
    <i name="hartreedc"> -18235.47750202 </i>
    <i name="XCdc">    234.23172986 </i>
    <i name="pawpsdc">   8991.13069727 </i>
    <i name="pawaedc">  -9334.90893519 </i>
    <i name="eentropy">      0.01317487 </i>
    <i name="bandstr">   -603.13613625 </i>
    <i name="atom">   9268.15263587 </i>
    <i name="e_fr_energy">    -18.86066265 </i>
    <i name="e_wo_entrp">    -18.87383752 </i>
    <i name="e_0_energy">    -18.86505427 </i>
   </energy>
  </scstep>
  <structure>
   <crystal>
    <varray name="basis" >
     <v>      23.16202703       0.00000000       0.00000000 </v>
     <v>       0.00000000      23.86868728       0.00000000 </v>
     <v>       0.00000000       0.00000000      20.54371270 </v>
    </varray>
    <i name="volume">  11357.53363013 </i>
    <varray name="rec_basis" >
     <v>       0.04317411       0.00000000       0.00000000 </v>
     <v>       0.00000000       0.04189589       0.00000000 </v>
     <v>       0.00000000       0.00000000       0.04867669 </v>
    </varray>
   </crystal>
   <varray name="positions" >
    <v>       0.41316477       0.46339346       0.51235325 </v>
    <v>       0.44817204       0.57671079       0.54125322 </v>
    <v>       0.50313863       0.39164372       0.53598041 </v>
    <v>       0.59279258       0.46426993       0.48513126 </v>
    <v>       0.43023270       0.52781181       0.41679680 </v>
    <v>       0.52434489       0.54449144       0.46055643 </v>
    <v>       0.49533200       0.44993785       0.42777624 </v>
    <v>       0.51151470       0.49410841       0.56387619 </v>
   </varray>
  </structure>
  <varray name="forces" >
   <v>       0.02201301      -0.05040157      -0.05083934 </v>
   <v>       0.01866085      -0.03146403      -0.00360376 </v>
   <v>      -0.05265197      -0.06921068       0.01247486 </v>
   <v>      -0.02098895       0.07051493      -0.04830961 </v>
   <v>       0.01582558      -0.02976744      -0.01550629 </v>
   <v>       0.07050485      -0.01810665      -0.02285386 </v>
   <v>      -0.05622066       0.11227045       0.15437361 </v>
   <v>       0.00285729       0.01616499      -0.02573561 </v>
  </varray>
  <energy>
   <i name="e_fr_energy">    -18.86066265 </i>
   <i name="e_wo_entrp">    -18.87383752 </i>
   <i name="e_0_energy">    -18.86505427 </i>
  </energy>
  <time name="totalsc">   61.11   61.30</time>
 </calculation>
 <calculation>
  <scstep>
   <time name="dav">    4.09    4.09</time>
   <time name="total">    7.23    7.23</time>
   <energy>
    <i name="alphaZ">      5.34235449 </i>
    <i name="ewald">   9629.34588615 </i>
    <i name="hartreedc"> -18209.24463255 </i>
    <i name="XCdc">    234.15940207 </i>
    <i name="pawpsdc">   8991.19303402 </i>
    <i name="pawaedc">  -9334.92096877 </i>
    <i name="eentropy">      0.01317514 </i>
    <i name="bandstr">   -602.88143583 </i>
    <i name="atom">   9268.15263587 </i>
    <i name="e_fr_energy">    -18.84054940 </i>
    <i name="e_wo_entrp">    -18.85372454 </i>
    <i name="e_0_energy">    -18.84494112 </i>
   </energy>
  </scstep>
  <scstep>
   <time name="dav">    5.41    5.41</time>
   <time name="total">    8.21    8.23</time>
   <energy>
    <i name="e_fr_energy">    -18.86537193 </i>
    <i name="e_wo_entrp">    -18.87801716 </i>
    <i name="e_0_energy">    -18.86958701 </i>
   </energy>
  </scstep>
  <scstep>
   <time name="dav">    4.85    4.85</time>
   <time name="total">    7.70    7.72</time>
   <energy>
    <i name="e_fr_energy">    -18.86288731 </i>
    <i name="e_wo_entrp">    -18.87585085 </i>
    <i name="e_0_energy">    -18.86720849 </i>
   </energy>
  </scstep>
  <scstep>
   <time name="dav">    5.18    5.19</time>
   <time name="total">    8.10    8.12</time>
   <energy>
    <i name="e_fr_energy">    -18.86269476 </i>
    <i name="e_wo_entrp">    -18.87564358 </i>
    <i name="e_0_energy">    -18.86701104 </i>
   </energy>
  </scstep>
  <scstep>
   <time name="dav">    3.67    3.67</time>
   <time name="total">    6.47    6.49</time>
   <energy>
    <i name="e_fr_energy">    -18.86256622 </i>
    <i name="e_wo_entrp">    -18.87557968 </i>
    <i name="e_0_energy">    -18.86690404 </i>
   </energy>
  </scstep>
  <scstep>
   <time name="dav">    5.21    5.21</time>
   <time name="total">    8.07    8.09</time>
   <energy>
    <i name="e_fr_energy">    -18.86257973 </i>
    <i name="e_wo_entrp">    -18.87557773 </i>
    <i name="e_0_energy">    -18.86691240 </i>
   </energy>
  </scstep>
  <scstep>
   <time name="dav">    3.07    3.08</time>
   <time name="total">    5.39    5.40</time>
   <energy>
    <i name="alphaZ">      5.34235449 </i>
    <i name="ewald">   9629.34588615 </i>
    <i name="hartreedc"> -18209.71408169 </i>
    <i name="XCdc">    234.17623328 </i>
    <i name="pawpsdc">   8981.33313537 </i>
    <i name="pawaedc">  -9324.95172235 </i>
    <i name="eentropy">      0.01301334 </i>
    <i name="bandstr">   -602.56002980 </i>
    <i name="atom">   9268.15263587 </i>
    <i name="e_fr_energy">    -18.86257534 </i>
    <i name="e_wo_entrp">    -18.87558868 </i>
    <i name="e_0_energy">    -18.86691312 </i>
   </energy>
  </scstep>
  <structure>
   <crystal>
    <varray name="basis" >
     <v>      23.16202703       0.00000000       0.00000000 </v>
     <v>       0.00000000      23.86868728       0.00000000 </v>
     <v>       0.00000000       0.00000000      20.54371270 </v>
    </varray>
    <i name="volume">  11357.53363013 </i>
    <varray name="rec_basis" >
     <v>       0.04317411       0.00000000       0.00000000 </v>
     <v>       0.00000000       0.04189589       0.00000000 </v>
     <v>       0.00000000       0.00000000       0.04867669 </v>
    </varray>
   </crystal>
   <varray name="positions" >
    <v>       0.41259265       0.46341256       0.51196938 </v>
    <v>       0.44851529       0.57682663       0.54192282 </v>
    <v>       0.50306555       0.39127821       0.53625126 </v>
    <v>       0.59319157       0.46457117       0.48470661 </v>
    <v>       0.43023744       0.52744325       0.41665098 </v>
    <v>       0.52465249       0.54486941       0.46017416 </v>
    <v>       0.49534861       0.44994254       0.42844446 </v>
    <v>       0.51108870       0.49402365       0.56360414 </v>
   </varray>
  </structure>
  <varray name="forces" >
   <v>       0.07220550      -0.07547845      -0.01461194 </v>
   <v>       0.02724621      -0.03802476      -0.05245139 </v>
   <v>      -0.06198273       0.01483751      -0.00421431 </v>
   <v>      -0.10023491       0.07021379      -0.01499626 </v>
   <v>       0.03204040       0.00342901      -0.01749017 </v>
   <v>       0.01838336      -0.03764292       0.02829891 </v>
   <v>      -0.03044460       0.10660273       0.15836818 </v>
   <v>       0.04278676      -0.04393690      -0.08290303 </v>
  </varray>
  <energy>
   <i name="e_fr_energy">    -18.86257534 </i>
   <i name="e_wo_entrp">    -18.87558868 </i>
   <i name="e_0_energy">    -18.86691312 </i>
  </energy>
  <time name="totalsc">   58.84   58.97</time>
 </calculation>
 <calculation>
  <scstep>
   <time name="dav">    4.01    4.01</time>
   <time name="total">    6.88    6.89</time>
   <energy>
    <i name="alphaZ">      5.34235449 </i>
    <i name="ewald">   9670.94292124 </i>
    <i name="hartreedc"> -18250.78867510 </i>
    <i name="XCdc">    234.27369167 </i>
    <i name="pawpsdc">   8981.26010166 </i>
    <i name="pawaedc">  -9324.85621389 </i>
    <i name="eentropy">      0.01291076 </i>
    <i name="bandstr">   -603.18437974 </i>
    <i name="atom">   9268.15263587 </i>
    <i name="e_fr_energy">    -18.84465304 </i>
    <i name="e_wo_entrp">    -18.85756380 </i>
    <i name="e_0_energy">    -18.84895662 </i>
   </energy>
  </scstep>
  <scstep>
   <time name="dav">    5.25    5.27</time>
   <time name="total">    8.09    8.13</time>
   <energy>
    <i name="e_fr_energy">    -18.87124741 </i>
    <i name="e_wo_entrp">    -18.88358959 </i>
    <i name="e_0_energy">    -18.87536147 </i>
   </energy>
  </scstep>
  <scstep>
   <time name="dav">    4.65    4.66</time>
   <time name="total">    7.50    7.51</time>
   <energy>
    <i name="e_fr_energy">    -18.86825101 </i>
    <i name="e_wo_entrp">    -18.88094742 </i>
    <i name="e_0_energy">    -18.87248315 </i>
   </energy>
  </scstep>
  <scstep>
   <time name="dav">    5.28    5.29</time>
   <time name="total">    8.06    8.08</time>
   <energy>
    <i name="e_fr_energy">    -18.86820540 </i>
    <i name="e_wo_entrp">    -18.88090011 </i>
    <i name="e_0_energy">    -18.87243697 </i>
   </energy>
  </scstep>
  <scstep>
   <time name="dav">    3.70    3.70</time>
   <time name="total">    6.49    6.51</time>
   <energy>
    <i name="e_fr_energy">    -18.86809043 </i>
    <i name="e_wo_entrp">    -18.88075975 </i>
    <i name="e_0_energy">    -18.87231354 </i>
   </energy>
  </scstep>
  <scstep>
   <time name="dav">    4.86    4.88</time>
   <time name="total">    7.15    7.18</time>
   <energy>
    <i name="alphaZ">      5.34235449 </i>
    <i name="ewald">   9670.94292124 </i>
    <i name="hartreedc"> -18250.11951191 </i>
    <i name="XCdc">    234.24152465 </i>
    <i name="pawpsdc">   8994.48203278 </i>
    <i name="pawaedc">  -9338.30229773 </i>
    <i name="eentropy">      0.01264311 </i>
    <i name="bandstr">   -603.62040385 </i>
    <i name="atom">   9268.15263587 </i>
    <i name="e_fr_energy">    -18.86810135 </i>
    <i name="e_wo_entrp">    -18.88074446 </i>
    <i name="e_0_energy">    -18.87231572 </i>
   </energy>
  </scstep>
  <structure>
   <crystal>
    <varray name="basis" >
     <v>      23.16202703       0.00000000       0.00000000 </v>
     <v>       0.00000000      23.86868728       0.00000000 </v>
     <v>       0.00000000       0.00000000      20.54371270 </v>
    </varray>
    <i name="volume">  11357.53363013 </i>
    <varray name="rec_basis" >
     <v>       0.04317411       0.00000000       0.00000000 </v>
     <v>       0.00000000       0.04189589       0.00000000 </v>
     <v>       0.00000000       0.00000000       0.04867669 </v>
    </varray>
   </crystal>
   <varray name="positions" >
    <v>       0.41255255       0.46306671       0.51162426 </v>
    <v>       0.44888524       0.57672555       0.54209412 </v>
    <v>       0.50271141       0.39109706       0.53641451 </v>
    <v>       0.59297505       0.46511260       0.48433128 </v>
    <v>       0.43039775       0.52720572       0.41645389 </v>
    <v>       0.52495445       0.54495067       0.46006727 </v>
    <v>       0.49521083       0.45045281       0.42977983 </v>
    <v>       0.51100502       0.49375629       0.56295864 </v>
   </varray>
  </structure>
  <varray name="forces" >
   <v>      -0.02283385      -0.04290107       0.03483041 </v>
   <v>       0.00831321      -0.02138117      -0.06616310 </v>
   <v>      -0.02963318      -0.03781499       0.02133325 </v>
   <v>       0.02391803       0.00302925       0.00550752 </v>
   <v>       0.00458190       0.05535477      -0.01999228 </v>
   <v>      -0.02317752       0.07417761       0.01693681 </v>
   <v>      -0.00381008       0.00589901       0.03516958 </v>
   <v>       0.04264148      -0.03636340      -0.02762218 </v>
  </varray>
  <energy>
   <i name="e_fr_energy">    -18.86810135 </i>
   <i name="e_wo_entrp">    -18.88074446 </i>
   <i name="e_0_energy">    -18.87231572 </i>
  </energy>
  <time name="totalsc">   51.89   52.03</time>
 </calculation>
 <calculation>
  <scstep>
   <time name="dav">    4.08    4.09</time>
   <time name="total">    6.89    6.90</time>
   <energy>
    <i name="alphaZ">      5.34235449 </i>
    <i name="ewald">   9679.32111301 </i>
    <i name="hartreedc"> -18258.49996269 </i>
    <i name="XCdc">    234.26435696 </i>
    <i name="pawpsdc">   8994.51344166 </i>
    <i name="pawaedc">  -9338.35766691 </i>
    <i name="eentropy">      0.01265732 </i>
    <i name="bandstr">   -603.61627418 </i>
    <i name="atom">   9268.15263587 </i>
    <i name="e_fr_energy">    -18.86734447 </i>
    <i name="e_wo_entrp">    -18.88000179 </i>
    <i name="e_0_energy">    -18.87156357 </i>
   </energy>
  </scstep>
  <scstep>
   <time name="dav">    5.26    5.27</time>
   <time name="total">    8.10    8.13</time>
   <energy>
    <i name="e_fr_energy">    -18.86825634 </i>
    <i name="e_wo_entrp">    -18.88089567 </i>
    <i name="e_0_energy">    -18.87246945 </i>
   </energy>
  </scstep>
  <scstep>
   <time name="dav">    3.70    3.72</time>
   <time name="total">    5.96    5.99</time>
   <energy>
    <i name="alphaZ">      5.34235449 </i>
    <i name="ewald">   9679.32111301 </i>
    <i name="hartreedc"> -18258.38274565 </i>
    <i name="XCdc">    234.25764423 </i>
    <i name="pawpsdc">   8995.94019687 </i>
    <i name="pawaedc">  -9339.79093903 </i>
    <i name="eentropy">      0.01261784 </i>
    <i name="bandstr">   -603.72111204 </i>
    <i name="atom">   9268.15263587 </i>
    <i name="e_fr_energy">    -18.86823442 </i>
    <i name="e_wo_entrp">    -18.88085226 </i>
    <i name="e_0_energy">    -18.87244037 </i>
   </energy>
  </scstep>
  <structure>
   <crystal>
    <varray name="basis" >
     <v>      23.16202703       0.00000000       0.00000000 </v>
     <v>       0.00000000      23.86868728       0.00000000 </v>
     <v>       0.00000000       0.00000000      20.54371270 </v>
    </varray>
    <i name="volume">  11357.53363013 </i>
    <varray name="rec_basis" >
     <v>       0.04317411       0.00000000       0.00000000 </v>
     <v>       0.00000000       0.04189589       0.00000000 </v>
     <v>       0.00000000       0.00000000       0.04867669 </v>
    </varray>
   </crystal>
   <varray name="positions" >
    <v>       0.41254448       0.46299719       0.51155488 </v>
    <v>       0.44895961       0.57670523       0.54212855 </v>
    <v>       0.50264022       0.39106064       0.53644732 </v>
    <v>       0.59293153       0.46522144       0.48425583 </v>
    <v>       0.43042997       0.52715798       0.41641427 </v>
    <v>       0.52501514       0.54496700       0.46004579 </v>
    <v>       0.49518314       0.45055539       0.43004826 </v>
    <v>       0.51098820       0.49370255       0.56282889 </v>
   </varray>
  </structure>
  <varray name="forces" >
   <v>      -0.05022060      -0.02376891       0.05172275 </v>
   <v>      -0.01042881      -0.01472327      -0.07378305 </v>
   <v>      -0.01074091      -0.04474788       0.02091079 </v>
   <v>       0.06329382      -0.03462504       0.01840052 </v>
   <v>      -0.00395215       0.06806088      -0.02225604 </v>
   <v>      -0.03657941       0.09851316       0.01046846 </v>
   <v>       0.00468820      -0.01441281       0.00833829 </v>
   <v>       0.04393987      -0.03429614      -0.01380173 </v>
  </varray>
  <energy>
   <i name="e_fr_energy">    -18.86823442 </i>
   <i name="e_wo_entrp">    -18.88085226 </i>
   <i name="e_0_energy">    -18.87244037 </i>
  </energy>
  <time name="totalsc">   28.68   28.79</time>
 </calculation>
 <calculation>
  <scstep>
   <time name="dav">    4.09    4.11</time>
   <time name="total">    6.95    6.98</time>
   <energy>
    <i name="alphaZ">      5.34235449 </i>
    <i name="ewald">   9674.37131142 </i>
    <i name="hartreedc"> -18253.46114341 </i>
[...]
       <r>    -1.8125     7.3052    49.5939 </r>
       <r>    -1.7638     5.3354    49.8536 </r>
       <r>    -1.7152     3.0574    50.0024 </r>
       <r>    -1.6665     1.1911    50.0603 </r>
       <r>    -1.6178     0.0699    50.0637 </r>
       <r>    -1.5692    -0.3748    50.0455 </r>
       <r>    -1.5205    -0.4136    50.0254 </r>
       <r>    -1.4719    -0.3109    50.0102 </r>
       <r>    -1.4232    -0.2276    49.9992 </r>
       <r>    -1.3745    -0.2235    49.9883 </r>
       <r>    -1.3259    -0.2864    49.9743 </r>
       <r>    -1.2772    -0.3393    49.9578 </r>
       <r>    -1.2286    -0.2305    49.9466 </r>
       <r>    -1.1799     0.2474    49.9587 </r>
       <r>    -1.1312     1.2687    50.0204 </r>
       <r>    -1.0826     2.8324    50.1582 </r>
       <r>    -1.0339     4.6611    50.3850 </r>
       <r>    -0.9852     6.2515    50.6892 </r>
       <r>    -0.9366     7.1048    51.0350 </r>
       <r>    -0.8879     7.0129    51.3762 </r>
       <r>    -0.8393     6.1997    51.6779 </r>
       <r>    -0.7906     5.1896    51.9305 </r>
       <r>    -0.7419     4.4806    52.1485 </r>
       <r>    -0.6933     4.2700    52.3563 </r>
       <r>    -0.6446     4.4347    52.5721 </r>
       <r>    -0.5959     4.7276    52.8021 </r>
       <r>    -0.5473     4.9587    53.0434 </r>
       <r>    -0.4986     5.0062    53.2870 </r>
       <r>    -0.4500     4.7401    53.5177 </r>
       <r>    -0.4013     4.0407    53.7143 </r>
       <r>    -0.3526     2.9347    53.8571 </r>
       <r>    -0.3040     1.6942    53.9396 </r>
       <r>    -0.2553     0.7676    53.9769 </r>
       <r>    -0.2067     0.5781    54.0051 </r>
       <r>    -0.1580     1.3229    54.0694 </r>
       <r>    -0.1093     2.8683    54.2090 </r>
       <r>    -0.0607     4.7692    54.4411 </r>
       <r>    -0.0120     6.4083    54.7529 </r>
       <r>     0.0367     7.2248    55.1045 </r>
       <r>     0.0853     6.9424    55.4423 </r>
       <r>     0.1340     5.6827    55.7189 </r>
       <r>     0.1826     3.8920    55.9082 </r>
       <r>     0.2313     2.1195    56.0114 </r>
       <r>     0.2800     0.7748    56.0491 </r>
       <r>     0.3286     0.0009    56.0491 </r>
       <r>     0.3773    -0.2936    56.0348 </r>
       <r>     0.4259    -0.3052    56.0200 </r>
       <r>     0.4746    -0.2117    56.0097 </r>
       <r>     0.5233    -0.1160    56.0041 </r>
       <r>     0.5719    -0.0530    56.0015 </r>
       <r>     0.6206    -0.0206    56.0005 </r>
       <r>     0.6693    -0.0069    56.0001 </r>
       <r>     0.7179    -0.0020    56.0000 </r>
       <r>     0.7666    -0.0005    56.0000 </r>
       <r>     0.8152    -0.0001    56.0000 </r>
       <r>     0.8639    -0.0000    56.0000 </r>
       <r>     0.9126    -0.0000    56.0000 </r>
       <r>     0.9612    -0.0000    56.0000 </r>
       <r>     1.0099    -0.0000    56.0000 </r>
       <r>     1.0585    -0.0000    56.0000 </r>
       <r>     1.1072    -0.0000    56.0000 </r>
       <r>     1.1559    -0.0000    56.0000 </r>
       <r>     1.2045    -0.0000    56.0000 </r>
       <r>     1.2532    -0.0000    56.0000 </r>
       <r>     1.3019    -0.0000    56.0000 </r>
       <r>     1.3505     0.0000    56.0000 </r>
       <r>     1.3992     0.0000    56.0000 </r>
       <r>     1.4478     0.0000    56.0000 </r>
       <r>     1.4965     0.0000    56.0000 </r>
       <r>     1.5452     0.0000    56.0000 </r>
       <r>     1.5938     0.0000    56.0000 </r>
       <r>     1.6425     0.0000    56.0000 </r>
       <r>     1.6911     0.0000    56.0000 </r>
       <r>     1.7398     0.0000    56.0000 </r>
       <r>     1.7885     0.0000    56.0000 </r>
       <r>     1.8371     0.0000    56.0000 </r>
       <r>     1.8858     0.0000    56.0000 </r>
       <r>     1.9345     0.0000    56.0000 </r>
       <r>     1.9831     0.0000    56.0000 </r>
       <r>     2.0318     0.0000    56.0000 </r>
       <r>     2.0804     0.0000    56.0000 </r>
      </set>
      <set comment="spin 2">
       <r>   -12.5181     0.0000     0.0000 </r>
       <r>   -12.4694     0.0000     0.0000 </r>
       <r>   -12.4207     0.0000     0.0000 </r>
       <r>   -12.3721     0.0000     0.0000 </r>
       <r>   -12.3234     0.0000     0.0000 </r>
       <r>   -12.2748     0.0000     0.0000 </r>
       <r>   -12.2261     0.0000     0.0000 </r>
       <r>   -12.1774     0.0000     0.0000 </r>
       <r>   -12.1288    -0.0000    -0.0000 </r>
       <r>   -12.0801    -0.0000    -0.0000 </r>
       <r>   -12.0314    -0.0000    -0.0000 </r>
       <r>   -11.9828    -0.0000    -0.0000 </r>
       <r>   -11.9341    -0.0000    -0.0000 </r>
       <r>   -11.8855    -0.0000    -0.0000 </r>
       <r>   -11.8368    -0.0000    -0.0000 </r>
       <r>   -11.7881    -0.0000    -0.0000 </r>
       <r>   -11.7395    -0.0000    -0.0000 </r>
       <r>   -11.6908    -0.0000    -0.0000 </r>
       <r>   -11.6421    -0.0000    -0.0000 </r>
       <r>   -11.5935    -0.0000    -0.0000 </r>
       <r>   -11.5448    -0.0000    -0.0000 </r>
       <r>   -11.4962    -0.0000    -0.0000 </r>
       <r>   -11.4475    -0.0000    -0.0000 </r>
       <r>   -11.3988    -0.0000    -0.0000 </r>
       <r>   -11.3502    -0.0000    -0.0000 </r>
       <r>   -11.3015    -0.0000    -0.0000 </r>
       <r>   -11.2529    -0.0000    -0.0000 </r>
       <r>   -11.2042    -0.0001    -0.0000 </r>
       <r>   -11.1555    -0.0005    -0.0000 </r>
       <r>   -11.1069    -0.0020    -0.0001 </r>
       <r>   -11.0582    -0.0067    -0.0005 </r>
       <r>   -11.0095    -0.0195    -0.0014 </r>
       <r>   -10.9609    -0.0487    -0.0038 </r>
       <r>   -10.9122    -0.1029    -0.0088 </r>
       <r>   -10.8636    -0.1765    -0.0174 </r>
       <r>   -10.8149    -0.2257    -0.0283 </r>
       <r>   -10.7662    -0.1453    -0.0354 </r>
       <r>   -10.7176     0.2167    -0.0249 </r>
       <r>   -10.6689     0.9754     0.0226 </r>
       <r>   -10.6203     2.0826     0.1239 </r>
       <r>   -10.5716     3.2530     0.2822 </r>
       <r>   -10.5229     4.0517     0.4794 </r>
       <r>   -10.4743     4.1319     0.6805 </r>
       <r>   -10.4256     3.4568     0.8487 </r>
       <r>   -10.3769     2.3249     0.9618 </r>
       <r>   -10.3283     1.1749     1.0190 </r>
       <r>   -10.2796     0.3352     1.0353 </r>
       <r>   -10.2310    -0.1003     1.0304 </r>
       <r>   -10.1823    -0.2245     1.0195 </r>
       <r>   -10.1336    -0.1907     1.0102 </r>
       <r>   -10.0850    -0.1167     1.0045 </r>
       <r>   -10.0363    -0.0574     1.0017 </r>
       <r>    -9.9877    -0.0237     1.0006 </r>
       <r>    -9.9390    -0.0083     1.0002 </r>
       <r>    -9.8903    -0.0026     1.0000 </r>
       <r>    -9.8417    -0.0007     1.0000 </r>
       <r>    -9.7930    -0.0005     1.0000 </r>
       <r>    -9.7443    -0.0013     0.9999 </r>
       <r>    -9.6957    -0.0046     0.9997 </r>
       <r>    -9.6470    -0.0142     0.9990 </r>
       <r>    -9.5984    -0.0374     0.9972 </r>
       <r>    -9.5497    -0.0835     0.9931 </r>
       <r>    -9.5010    -0.1538     0.9856 </r>
       <r>    -9.4524    -0.2199     0.9749 </r>
       <r>    -9.4037    -0.1986     0.9653 </r>
       <r>    -9.3551     0.0472     0.9676 </r>
       <r>    -9.3064     0.6451     0.9990 </r>
       <r>    -9.2577     1.5922     1.0764 </r>
       <r>    -9.2091     2.6642     1.2061 </r>
       <r>    -9.1604     3.4814     1.3755 </r>
       <r>    -9.1117     3.7619     1.5585 </r>
       <r>    -9.0631     3.5986     1.7337 </r>
       <r>    -9.0144     3.4876     1.9034 </r>
       <r>    -8.9658     3.9925     2.0976 </r>
       <r>    -8.9171     5.2589     2.3536 </r>
       <r>    -8.8684     6.7982     2.6844 </r>
       <r>    -8.8198     7.7839     3.0631 </r>
       <r>    -8.7711     7.6611     3.4359 </r>
       <r>    -8.7224     6.5565     3.7550 </r>
       <r>    -8.6738     5.1440     4.0053 </r>
       <r>    -8.6251     4.1214     4.2059 </r>
       <r>    -8.5765     3.7904     4.3903 </r>
       <r>    -8.5278     4.0616     4.5880 </r>
       <r>    -8.4791     4.7340     4.8183 </r>
       <r>    -8.4305     5.6802     5.0947 </r>
       <r>    -8.3818     6.7957     5.4254 </r>
       <r>    -8.3332     7.9195     5.8108 </r>
       <r>    -8.2845     8.9240     6.2451 </r>
       <r>    -8.2358     9.8510     6.7244 </r>
       <r>    -8.1872    10.8273     7.2513 </r>
       <r>    -8.1385    11.7830     7.8247 </r>
       <r>    -8.0898    12.3388     8.4251 </r>
       <r>    -8.0412    12.1018     9.0140 </r>
       <r>    -7.9925    11.1013     9.5542 </r>
       <r>    -7.9439     9.8562    10.0338 </r>
       <r>    -7.8952     8.9567    10.4697 </r>
       <r>    -7.8465     8.5938    10.8879 </r>
       <r>    -7.7979     8.5228    11.3026 </r>
       <r>    -7.7492     8.4388    11.7132 </r>
       <r>    -7.7006     8.3214    12.1182 </r>
       <r>    -7.6519     8.4134    12.5276 </r>
       <r>    -7.6032     8.9343    12.9624 </r>
       <r>    -7.5546     9.8590    13.4421 </r>
       <r>    -7.5059    10.9441    13.9747 </r>
       <r>    -7.4572    11.9104    14.5542 </r>
       <r>    -7.4086    12.5839    15.1666 </r>
       <r>    -7.3599    12.9079    15.7947 </r>
       <r>    -7.3113    12.8801    16.4215 </r>
       <r>    -7.2626    12.5199    17.0307 </r>
       <r>    -7.2139    11.9082    17.6102 </r>
       <r>    -7.1653    11.2472    18.1575 </r>
       <r>    -7.1166    10.8309    18.6846 </r>
       <r>    -7.0680    10.8694    19.2135 </r>
       <r>    -7.0193    11.2604    19.7614 </r>
       <r>    -6.9706    11.5280    20.3224 </r>
       <r>    -6.9220    11.0548    20.8603 </r>
       <r>    -6.8733     9.4796    21.3216 </r>
       <r>    -6.8246     6.9641    21.6605 </r>
       <r>    -6.7760     4.1482    21.8624 </r>
       <r>    -6.7273     1.8664    21.9532 </r>
       <r>    -6.6787     0.8262    21.9934 </r>
       <r>    -6.6300     1.3853    22.0608 </r>
       <r>    -6.5813     3.4535    22.2289 </r>
       <r>    -6.5327     6.5211    22.5462 </r>
       <r>    -6.4840     9.8199    23.0241 </r>
       <r>    -6.4354    12.5790    23.6362 </r>
       <r>    -6.3867    14.2527    24.3297 </r>
       <r>    -6.3380    14.6191    25.0411 </r>
       <r>    -6.2894    13.7647    25.7109 </r>
       <r>    -6.2407    12.0423    26.2969 </r>
       <r>    -6.1920    10.0201    26.7845 </r>
       <r>    -6.1434     8.3588    27.1913 </r>
       <r>    -6.0947     7.5969    27.5609 </r>
       <r>    -6.0461     7.9443    27.9475 </r>
       <r>    -5.9974     9.2125    28.3958 </r>
       <r>    -5.9487    10.9333    28.9279 </r>
       <r>    -5.9001    12.6145    29.5417 </r>
       <r>    -5.8514    13.9994    30.2229 </r>
       <r>    -5.8027    15.1796    30.9616 </r>
       <r>    -5.7541    16.4935    31.7642 </r>
       <r>    -5.7054    18.2823    32.6538 </r>
       <r>    -5.6568    20.6477    33.6586 </r>
       <r>    -5.6081    23.3110    34.7930 </r>
       <r>    -5.5594    25.6361    36.0405 </r>
       <r>    -5.5108    26.8462    37.3468 </r>
       <r>    -5.4621    26.3763    38.6303 </r>
       <r>    -5.4135    24.1559    39.8058 </r>
       <r>    -5.3648    20.6182    40.8091 </r>
       <r>    -5.3161    16.4412    41.6092 </r>
       <r>    -5.2675    12.2359    42.2046 </r>
       <r>    -5.2188     8.3945    42.6131 </r>
       <r>    -5.1701     5.1361    42.8630 </r>
       <r>    -5.1215     2.6284    42.9909 </r>
       <r>    -5.0728     1.0462    43.0418 </r>
       <r>    -5.0242     0.5118    43.0667 </r>
       <r>    -4.9755     0.9643    43.1137 </r>
       <r>    -4.9268     2.0672    43.2143 </r>
       <r>    -4.8782     3.2564    43.3727 </r>
       <r>    -4.8295     3.9551    43.5652 </r>
       <r>    -4.7809     3.8461    43.7523 </r>
       <r>    -4.7322     3.0160    43.8991 </r>
       <r>    -4.6835     1.8577    43.9895 </r>
       <r>    -4.6349     0.8092    44.0289 </r>
       <r>    -4.5862     0.1259    44.0350 </r>
       <r>    -4.5375    -0.1753    44.0265 </r>
       <r>    -4.4889    -0.2229    44.0156 </r>
       <r>    -4.4402    -0.1638    44.0077 </r>
       <r>    -4.3916    -0.0922    44.0032 </r>
       <r>    -4.3429    -0.0444    44.0010 </r>
       <r>    -4.2942    -0.0240    43.9998 </r>
       <r>    -4.2456    -0.0274    43.9985 </r>
       <r>    -4.1969    -0.0555    43.9958 </r>
       <r>    -4.1483    -0.1116    43.9904 </r>
       <r>    -4.0996    -0.1854    43.9814 </r>
       <r>    -4.0509    -0.2257    43.9704 </r>
       <r>    -4.0023    -0.1195    43.9646 </r>
       <r>    -3.9536     0.2863    43.9785 </r>
       <r>    -3.9049     1.0934    44.0317 </r>
       <r>    -3.8563     2.2239    44.1399 </r>
       <r>    -3.8076     3.3613    44.3035 </r>
       <r>    -3.7590     4.0591    44.5010 </r>
       <r>    -3.7103     3.9900    44.6952 </r>
       <r>    -3.6616     3.1651    44.8492 </r>
       <r>    -3.6130     1.9527    44.9442 </r>
       <r>    -3.5643     0.8897    44.9875 </r>
       <r>    -3.5156     0.4284    45.0084 </r>
       <r>    -3.4670     0.7579    45.0452 </r>
       <r>    -3.4183     1.7403    45.1299 </r>
       <r>    -3.3697     2.9539    45.2737 </r>
       <r>    -3.3210     3.8510    45.4611 </r>
       <r>    -3.2723     4.0084    45.6561 </r>
       <r>    -3.2237     3.3517    45.8192 </r>
       <r>    -3.1750     2.2010    45.9263 </r>
       <r>    -3.1264     1.0989    45.9798 </r>
       <r>    -3.0777     0.5411    46.0061 </r>
       <r>    -3.0290     0.7590    46.0431 </r>
       <r>    -2.9804     1.6362    46.1227 </r>
       <r>    -2.9317     2.7691    46.2574 </r>
       <r>    -2.8830     3.6697    46.4360 </r>
       <r>    -2.8344     4.0415    46.6327 </r>
       <r>    -2.7857     3.9571    46.8252 </r>
       <r>    -2.7371     3.7686    47.0086 </r>
       <r>    -2.6884     3.7876    47.1929 </r>
       <r>    -2.6397     4.0029    47.3877 </r>
       <r>    -2.5911     4.0962    47.5870 </r>
       <r>    -2.5424     3.7357    47.7688 </r>
       <r>    -2.4938     2.8664    47.9083 </r>
       <r>    -2.4451     1.7437    47.9932 </r>
       <r>    -2.3964     0.7227    48.0283 </r>
       <r>    -2.3478     0.0214    48.0294 </r>
       <r>    -2.2991    -0.3580    48.0119 </r>
       <r>    -2.2504    -0.5330    47.9860 </r>
       <r>    -2.2018    -0.5798    47.9578 </r>
       <r>    -2.1531    -0.4170    47.9375 </r>
       <r>    -2.1045     0.1924    47.9469 </r>
       <r>    -2.0558     1.4935    48.0195 </r>
       <r>    -2.0071     3.4944    48.1896 </r>
       <r>    -1.9585     5.7807    48.4709 </r>
       <r>    -1.9098     7.5893    48.8402 </r>
       <r>    -1.8612     8.1845    49.2385 </r>
       <r>    -1.8125     7.3052    49.5939 </r>
       <r>    -1.7638     5.3354    49.8536 </r>
       <r>    -1.7152     3.0574    50.0024 </r>
       <r>    -1.6665     1.1911    50.0603 </r>
       <r>    -1.6178     0.0699    50.0637 </r>
       <r>    -1.5692    -0.3748    50.0455 </r>
       <r>    -1.5205    -0.4136    50.0254 </r>
       <r>    -1.4719    -0.3109    50.0102 </r>
       <r>    -1.4232    -0.2276    49.9992 </r>
       <r>    -1.3745    -0.2235    49.9883 </r>
       <r>    -1.3259    -0.2864    49.9743 </r>
       <r>    -1.2772    -0.3393    49.9578 </r>
       <r>    -1.2286    -0.2305    49.9466 </r>
       <r>    -1.1799     0.2474    49.9587 </r>
       <r>    -1.1312     1.2686    50.0204 </r>
       <r>    -1.0826     2.8324    50.1582 </r>
       <r>    -1.0339     4.6610    50.3850 </r>
       <r>    -0.9852     6.2515    50.6892 </r>
       <r>    -0.9366     7.1048    51.0350 </r>
       <r>    -0.8879     7.0129    51.3762 </r>
       <r>    -0.8393     6.1997    51.6779 </r>
       <r>    -0.7906     5.1896    51.9305 </r>
       <r>    -0.7419     4.4806    52.1485 </r>
       <r>    -0.6933     4.2700    52.3563 </r>
       <r>    -0.6446     4.4347    52.5721 </r>
       <r>    -0.5959     4.7276    52.8021 </r>
       <r>    -0.5473     4.9587    53.0434 </r>
       <r>    -0.4986     5.0061    53.2870 </r>
       <r>    -0.4500     4.7401    53.5177 </r>
       <r>    -0.4013     4.0407    53.7143 </r>
       <r>    -0.3526     2.9347    53.8571 </r>
       <r>    -0.3040     1.6943    53.9396 </r>
       <r>    -0.2553     0.7677    53.9769 </r>
       <r>    -0.2067     0.5781    54.0051 </r>
       <r>    -0.1580     1.3227    54.0694 </r>
       <r>    -0.1093     2.8679    54.2090 </r>
       <r>    -0.0607     4.7685    54.4410 </r>
       <r>    -0.0120     6.4076    54.7528 </r>
       <r>     0.0367     7.2243    55.1044 </r>
       <r>     0.0853     6.9423    55.4422 </r>
       <r>     0.1340     5.6830    55.7187 </r>
       <r>     0.1826     3.8927    55.9082 </r>
       <r>     0.2313     2.1202    56.0113 </r>
       <r>     0.2800     0.7754    56.0491 </r>
       <r>     0.3286     0.0013    56.0491 </r>
       <r>     0.3773    -0.2934    56.0349 </r>
       <r>     0.4259    -0.3052    56.0200 </r>
       <r>     0.4746    -0.2117    56.0097 </r>
       <r>     0.5233    -0.1161    56.0041 </r>
       <r>     0.5719    -0.0530    56.0015 </r>
       <r>     0.6206    -0.0207    56.0005 </r>
       <r>     0.6693    -0.0069    56.0001 </r>
       <r>     0.7179    -0.0020    56.0000 </r>
       <r>     0.7666    -0.0005    56.0000 </r>
       <r>     0.8152    -0.0001    56.0000 </r>
       <r>     0.8639    -0.0000    56.0000 </r>
       <r>     0.9126    -0.0000    56.0000 </r>
       <r>     0.9612    -0.0000    56.0000 </r>
       <r>     1.0099    -0.0000    56.0000 </r>
       <r>     1.0585    -0.0000    56.0000 </r>
       <r>     1.1072    -0.0000    56.0000 </r>
       <r>     1.1559    -0.0000    56.0000 </r>
       <r>     1.2045    -0.0000    56.0000 </r>
       <r>     1.2532    -0.0000    56.0000 </r>
       <r>     1.3019    -0.0000    56.0000 </r>
       <r>     1.3505     0.0000    56.0000 </r>
       <r>     1.3992     0.0000    56.0000 </r>
       <r>     1.4478     0.0000    56.0000 </r>
       <r>     1.4965     0.0000    56.0000 </r>
       <r>     1.5452     0.0000    56.0000 </r>
       <r>     1.5938     0.0000    56.0000 </r>
       <r>     1.6425     0.0000    56.0000 </r>
       <r>     1.6911     0.0000    56.0000 </r>
       <r>     1.7398     0.0000    56.0000 </r>
       <r>     1.7885     0.0000    56.0000 </r>
       <r>     1.8371     0.0000    56.0000 </r>
       <r>     1.8858     0.0000    56.0000 </r>
       <r>     1.9345     0.0000    56.0000 </r>
       <r>     1.9831     0.0000    56.0000 </r>
       <r>     2.0318     0.0000    56.0000 </r>
       <r>     2.0804     0.0000    56.0000 </r>
      </set>
     </set>
    </array>
   </total>
  </dos>
 </calculation>
 <structure name="finalpos" >
  <crystal>
   <varray name="basis" >
    <v>      23.16202703       0.00000000       0.00000000 </v>
    <v>       0.00000000      23.86868728       0.00000000 </v>
    <v>       0.00000000       0.00000000      20.54371270 </v>
   </varray>
   <i name="volume">  11357.53363013 </i>
   <varray name="rec_basis" >
    <v>       0.04317411       0.00000000       0.00000000 </v>
    <v>       0.00000000       0.04189589       0.00000000 </v>
    <v>       0.00000000       0.00000000       0.04867669 </v>
   </varray>
  </crystal>
  <varray name="positions" >
   <v>       0.41150307       0.46253546       0.51168417 </v>
   <v>       0.44889649       0.57610307       0.54119342 </v>
   <v>       0.50152302       0.38997557       0.53721249 </v>
   <v>       0.59384371       0.46588851       0.48369369 </v>
   <v>       0.43071346       0.52771077       0.41679187 </v>
   <v>       0.52568294       0.54628853       0.45979641 </v>
   <v>       0.49538771       0.45104522       0.43215241 </v>
   <v>       0.51114191       0.49282027       0.56119934 </v>
  </varray>
 </structure>
</modeling>
