unknown system                          
            1
    23.162027    0.000000    0.000000
     0.000000   23.868687    0.000000
     0.000000    0.000000   20.543713
   Au   Cu
     4     4
Direct configuration=     1
   0.42092525  0.46609876  0.51557116
   0.44211808  0.57016234  0.53191801
   0.50631985  0.39569435  0.53046815
   0.58666693  0.45770103  0.48943609
   0.42691370  0.53305030  0.41911230
   0.52658567  0.54302555  0.46199306
   0.49392330  0.44940460  0.42400028
   0.51523953  0.49723048  0.57122475
Direct configuration=     2
   0.41871560  0.46381579  0.51519074
   0.44258017  0.57359907  0.53423196
   0.50415801  0.39198969  0.53272507
   0.59057081  0.46006416  0.48786953
   0.42761982  0.53210694  0.41771817
   0.52655244  0.54261678  0.46149538
   0.49322125  0.45041339  0.42295025
   0.51527422  0.49776159  0.57154270
Direct configuration=     3
   0.41792828  0.46300234  0.51505519
   0.44274481  0.57482362  0.53505645
   0.50338772  0.39066968  0.53352923
   0.59196180  0.46090616  0.48731136
   0.42787141  0.53177081  0.41722143
   0.52654059  0.54247114  0.46131805
   0.49297110  0.45077283  0.42257612
   0.51528658  0.49795084  0.57165598
Direct configuration=     4
   0.41763929  0.46307454  0.51458973
   0.44350330  0.57503892  0.53569380
   0.50328716  0.39076553  0.53382798
   0.59178573  0.46157287  0.48710530
   0.42858839  0.53099414  0.41739986
   0.52594137  0.54203861  0.46144976
   0.49306201  0.45126510  0.42327413
   0.51488506  0.49761770  0.57038325
Direct configuration=     5
   0.41699743  0.46323490  0.51355597
   0.44518791  0.57551710  0.53710934
   0.50306382  0.39097841  0.53449149
   0.59139466  0.46305363  0.48664766
   0.43018078  0.52926916  0.41779617
   0.52461051  0.54107798  0.46174227
   0.49326391  0.45235844  0.42482441
   0.51399330  0.49687779  0.56755650
Direct configuration=     6
   0.41711941  0.46320443  0.51375244
   0.44486774  0.57542622  0.53684031
   0.50310626  0.39093795  0.53436538
   0.59146898  0.46277220  0.48673464
   0.42987814  0.52959700  0.41772085
   0.52486344  0.54126055  0.46168668
   0.49322553  0.45215064  0.42452977
   0.51416279  0.49701842  0.56809374
Direct configuration=     7
   0.41620202  0.46325266  0.51352438
   0.44570596  0.57576145  0.53784742
   0.50315514  0.39135041  0.53472024
   0.59166565  0.46307466  0.48646519
   0.42998515  0.52924155  0.41751295
   0.52453962  0.54205763  0.46154085
   0.49386746  0.45146454  0.42517727
   0.51357131  0.49616450  0.56693550
Direct configuration=     8
   0.41414987  0.46336057  0.51301423
   0.44758100  0.57651134  0.54010027
   0.50326447  0.39227306  0.53551404
   0.59210558  0.46375123  0.48586245
   0.43022454  0.52844643  0.41704789
   0.52381524  0.54384064  0.46121464
   0.49530339  0.44992977  0.42662568
   0.51224822  0.49425436  0.56434461
Direct configuration=     9
   0.41316477  0.46339346  0.51235325
   0.44817204  0.57671079  0.54125322
   0.50313863  0.39164372  0.53598041
   0.59279258  0.46426993  0.48513126
   0.43023270  0.52781181  0.41679680
   0.52434489  0.54449144  0.46055643
   0.49533200  0.44993785  0.42777624
   0.51151470  0.49410841  0.56387619
Direct configuration=    10
   0.41259265  0.46341256  0.51196938
   0.44851529  0.57682663  0.54192282
   0.50306555  0.39127821  0.53625126
   0.59319157  0.46457117  0.48470661
   0.43023744  0.52744325  0.41665098
   0.52465249  0.54486941  0.46017416
   0.49534861  0.44994254  0.42844446
   0.51108870  0.49402365  0.56360414
Direct configuration=    11
   0.41255255  0.46306671  0.51162426
   0.44888524  0.57672555  0.54209412
   0.50271141  0.39109706  0.53641451
   0.59297505  0.46511260  0.48433128
   0.43039775  0.52720572  0.41645389
   0.52495445  0.54495067  0.46006727
   0.49521083  0.45045281  0.42977983
   0.51100502  0.49375629  0.56295864
Direct configuration=    12
   0.41254448  0.46299719  0.51155488
   0.44895961  0.57670523  0.54212855
   0.50264022  0.39106064  0.53644732
   0.59293153  0.46522144  0.48425583
   0.43042997  0.52715798  0.41641427
   0.52501514  0.54496700  0.46004579
   0.49518314  0.45055539  0.43004826
   0.51098820  0.49370255  0.56282889
Direct configuration=    13
   0.41226619  0.46268779  0.51166080
   0.44911161  0.57657632  0.54179943
   0.50238906  0.39073878  0.53665806
   0.59313416  0.46535040  0.48415345
   0.43049873  0.52736298  0.41617704
   0.52499611  0.54549947  0.46004669
   0.49513063  0.45076707  0.43083679
   0.51116582  0.49338459  0.56239156
Direct configuration=    14
   0.41201192  0.46240509  0.51175757
   0.44925049  0.57645855  0.54149871
   0.50215958  0.39044471  0.53685061
   0.59331929  0.46546823  0.48405991
   0.43056155  0.52755029  0.41596028
   0.52497871  0.54598597  0.46004751
   0.49508265  0.45096048  0.43155723
   0.51132811  0.49309408  0.56199199
Direct configuration=    15
   0.41164955  0.46253784  0.51170945
   0.44907976  0.57628835  0.54133374
   0.50195103  0.38998315  0.53710979
   0.59356031  0.46564728  0.48386569
   0.43057587  0.52763318  0.41619253
   0.52531443  0.54629849  0.45988035
   0.49521066  0.45109059  0.43201898
   0.51135070  0.49288853  0.56161328
Direct configuration=    16
   0.41159591  0.46255749  0.51170233
   0.44905449  0.57626316  0.54130932
   0.50192016  0.38991483  0.53714815
   0.59359598  0.46567378  0.48383694
   0.43057799  0.52764545  0.41622691
   0.52536413  0.54634475  0.45985561
   0.49522960  0.45110984  0.43208733
   0.51135405  0.49285810  0.56155722
Direct configuration=    17
   0.41162558  0.46261132  0.51163962
   0.44891395  0.57611674  0.54125934
   0.50162196  0.39002081  0.53718377
   0.59370700  0.46584916  0.48370416
   0.43065233  0.52764043  0.41669219
   0.52568312  0.54628329  0.45976428
   0.49534993  0.45110973  0.43229432
   0.51113843  0.49273594  0.56118613
Direct configuration=    18
   0.41162386  0.46260819  0.51164327
   0.44892212  0.57612526  0.54126224
   0.50163931  0.39001465  0.53718169
   0.59370054  0.46583895  0.48371189
   0.43064800  0.52764072  0.41666512
   0.52566455  0.54628686  0.45976959
   0.49534293  0.45110974  0.43228228
   0.51115098  0.49274305  0.56120772
Direct configuration=    19
   0.41145284  0.46250522  0.51170118
   0.44888583  0.57609385  0.54116480
   0.50147465  0.38995932  0.53722530
   0.59390324  0.46590913  0.48368612
   0.43074069  0.52773990  0.41684458
   0.52569059  0.54628923  0.45980757
   0.49540633  0.45101838  0.43209841
   0.51113813  0.49285239  0.56119586
Direct configuration=    20
   0.41150307  0.46253546  0.51168417
   0.44889649  0.57610307  0.54119342
   0.50152302  0.38997557  0.53721249
   0.59384371  0.46588851  0.48369369
   0.43071346  0.52771077  0.41679187
   0.52568294  0.54628853  0.45979641
   0.49538771  0.45104522  0.43215241
   0.51114191  0.49282027  0.56119934
