   7   7   0   0
  0.1431710E+04  0.2143395E-08  0.2140828E-08  0.2184083E-08  0.5000000E-15
   1.0000000000000000E-004
  CAR 
 unknown system                          
      1.22536459    -14.32112873  301     -4.01356866      1.00000000
    -14.321  0.0000E+00  0.0000E+00  0.0000E+00  0.0000E+00
    -14.269  0.0000E+00  0.0000E+00  0.0000E+00  0.0000E+00
    -14.217  0.0000E+00  0.0000E+00  0.0000E+00  0.0000E+00
    -14.166  0.0000E+00  0.0000E+00  0.0000E+00  0.0000E+00
    -14.114  0.0000E+00  0.0000E+00  0.0000E+00  0.0000E+00
    -14.062  0.0000E+00  0.0000E+00  0.0000E+00  0.0000E+00
    -14.010  0.0000E+00  0.0000E+00  0.0000E+00  0.0000E+00
    -13.958 -0.3507E-30  0.0000E+00 -0.1817E-31  0.0000E+00
    -13.907 -0.2174E-28  0.0000E+00 -0.1145E-29  0.0000E+00
    -13.855 -0.1193E-26 -0.1916E-30 -0.6297E-28 -0.9930E-32
    -13.803 -0.5717E-25 -0.1211E-28 -0.3026E-26 -0.6377E-30
    -13.751 -0.2391E-23 -0.6779E-27 -0.1270E-24 -0.3577E-28
    -13.699 -0.8731E-22 -0.3312E-25 -0.4651E-23 -0.1752E-26
    -13.647 -0.2782E-20 -0.1413E-23 -0.1488E-21 -0.7496E-25
    -13.596 -0.7732E-19 -0.5259E-22 -0.4156E-20 -0.2800E-23
    -13.544 -0.1875E-17 -0.1709E-20 -0.1013E-18 -0.9134E-22
    -13.492 -0.3857E-16 -0.4843E-19 -0.2100E-17 -0.2601E-20
    -13.440 -0.7071E-15 -0.1197E-17 -0.3874E-16 -0.6466E-19
    -13.388 -0.1133E-13 -0.2475E-16 -0.6259E-15 -0.1347E-17
    -13.337 -0.1580E-12 -0.4704E-15 -0.8811E-14 -0.2573E-16
    -13.285 -0.1916E-11 -0.7681E-14 -0.1081E-12 -0.4238E-15
    -13.233 -0.2021E-10 -0.1092E-12 -0.1156E-11 -0.6084E-14
    -13.181 -0.1852E-09 -0.1352E-11 -0.1076E-10 -0.7614E-13
    -13.129 -0.1473E-08 -0.1455E-10 -0.8710E-10 -0.8301E-12
    -13.077 -0.1015E-07 -0.1361E-09 -0.6132E-09 -0.7881E-11
    -13.026 -0.6053E-07 -0.1104E-08 -0.3750E-08 -0.6511E-10
    -12.974 -0.3114E-06 -0.7769E-08 -0.1989E-07 -0.4677E-09
    -12.922 -0.1378E-05 -0.4729E-07 -0.9129E-07 -0.2918E-08
    -12.870 -0.5220E-05 -0.2485E-06 -0.3618E-06 -0.1580E-07
    -12.818 -0.1681E-04 -0.1124E-05 -0.1233E-05 -0.7405E-07
    -12.766 -0.4554E-04 -0.4356E-05 -0.3593E-05 -0.2998E-06
    -12.715 -0.1017E-03 -0.1437E-04 -0.8863E-05 -0.1044E-05
    -12.663 -0.1797E-03 -0.3993E-04 -0.1818E-04 -0.3114E-05
    -12.611 -0.2250E-03 -0.9183E-04 -0.2984E-04 -0.7873E-05
    -12.559 -0.1048E-03 -0.1685E-03 -0.3527E-04 -0.1660E-04
    -12.507  0.3633E-03 -0.2247E-03 -0.1644E-04 -0.2825E-04
    -12.456  0.1287E-02 -0.1391E-03  0.5025E-04 -0.3546E-04
    -12.404  0.2530E-02  0.2689E-03  0.1814E-03 -0.2152E-04
    -12.352  0.3669E-02  0.1128E-02  0.3715E-03  0.3695E-04
    -12.300  0.4188E-02  0.2346E-02  0.5885E-03  0.1585E-03
    -12.248  0.3827E-02  0.3533E-02  0.7868E-03  0.3416E-03
    -12.196  0.2768E-02  0.4166E-02  0.9303E-03  0.5575E-03
    -12.145  0.1505E-02  0.3930E-02  0.1008E-02  0.7612E-03
    -12.093  0.5020E-03  0.2945E-02  0.1034E-02  0.9138E-03
    -12.041 -0.4873E-04  0.1679E-02  0.1032E-02  0.1001E-02
    -11.989 -0.2203E-03  0.6190E-03  0.1020E-02  0.1033E-02
    -11.937 -0.1936E-03  0.3146E-05  0.1010E-02  0.1033E-02
    -11.886 -0.1154E-03 -0.2122E-03  0.1004E-02  0.1022E-02
    -11.834 -0.5379E-04 -0.2032E-03  0.1002E-02  0.1011E-02
    -11.782 -0.2055E-04 -0.1264E-03  0.1000E-02  0.1005E-02
    -11.730 -0.6585E-05 -0.6078E-04  0.1000E-02  0.1002E-02
    -11.678 -0.1791E-05 -0.2386E-04  0.1000E-02  0.1001E-02
    -11.626 -0.4165E-06 -0.7831E-05  0.1000E-02  0.1000E-02
    -11.575 -0.8327E-07 -0.2179E-05  0.1000E-02  0.1000E-02
    -11.523 -0.1436E-07 -0.5181E-06  0.1000E-02  0.1000E-02
    -11.471 -0.2140E-08 -0.1058E-06  0.1000E-02  0.1000E-02
    -11.419 -0.2764E-09 -0.1863E-07  0.1000E-02  0.1000E-02
    -11.367 -0.3098E-10 -0.2836E-08  0.1000E-02  0.1000E-02
    -11.315 -0.3015E-11 -0.3738E-09  0.1000E-02  0.1000E-02
    -11.264 -0.2551E-12 -0.4275E-10  0.1000E-02  0.1000E-02
    -11.212 -0.1878E-13 -0.4245E-11  0.1000E-02  0.1000E-02
    -11.160 -0.1204E-14 -0.3665E-12  0.1000E-02  0.1000E-02
    -11.108 -0.6427E-16 -0.2752E-13  0.1000E-02  0.1000E-02
    -11.056 -0.4285E-17 -0.1800E-14  0.1000E-02  0.1000E-02
    -11.005 -0.6550E-20 -0.1028E-15  0.1000E-02  0.1000E-02
    -10.953 -0.1759E-18 -0.4285E-17  0.1000E-02  0.1000E-02
    -10.901 -0.4118E-17 -0.2152E-23  0.1000E-02  0.1000E-02
    -10.849 -0.8196E-16 -0.7886E-22  0.1000E-02  0.1000E-02
    -10.797 -0.1448E-14 -0.2522E-20  0.1000E-02  0.1000E-02
    -10.745 -0.2240E-13 -0.7039E-19  0.1000E-02  0.1000E-02
    -10.694 -0.3015E-12 -0.1713E-17  0.1000E-02  0.1000E-02
    -10.642 -0.3530E-11 -0.3530E-16  0.1000E-02  0.1000E-02
    -10.590 -0.3593E-10 -0.6517E-15  0.1000E-02  0.1000E-02
    -10.538 -0.3177E-09 -0.1048E-13  0.1000E-02  0.1000E-02
    -10.486 -0.2437E-08 -0.1467E-12  0.1000E-02  0.1000E-02
    -10.435 -0.1619E-07 -0.1787E-11  0.1000E-02  0.1000E-02
    -10.383 -0.9300E-07 -0.1892E-10  0.1000E-02  0.1000E-02
    -10.331 -0.4607E-06 -0.1741E-09  0.1000E-02  0.1000E-02
    -10.279 -0.1961E-05 -0.1391E-08  0.9999E-03  0.1000E-02
    -10.227 -0.7135E-05 -0.9623E-08  0.9995E-03  0.1000E-02
    -10.175 -0.2202E-04 -0.5761E-07  0.9984E-03  0.1000E-02
    -10.124 -0.5693E-04 -0.2976E-06  0.9954E-03  0.1000E-02
    -10.072 -0.1204E-03 -0.1323E-05  0.9892E-03  0.9999E-03
    -10.020 -0.1981E-03 -0.5035E-05  0.9789E-03  0.9997E-03
     -9.968 -0.2171E-03 -0.1630E-04  0.9676E-03  0.9988E-03
     -9.916 -0.2589E-04 -0.4437E-04  0.9663E-03  0.9965E-03
     -9.864  0.5546E-03 -0.9966E-04  0.9950E-03  0.9913E-03
     -9.813  0.1584E-02 -0.1775E-03  0.1077E-02  0.9821E-03
     -9.761  0.2850E-02 -0.2252E-03  0.1225E-02  0.9705E-03
     -9.709  0.3876E-02 -0.1123E-03  0.1426E-02  0.9647E-03
     -9.657  0.4180E-02  0.3436E-03  0.1642E-02  0.9825E-03
     -9.605  0.3608E-02  0.1254E-02  0.1829E-02  0.1047E-02
     -9.554  0.2445E-02  0.2493E-02  0.1956E-02  0.1177E-02
     -9.502  0.1212E-02  0.3642E-02  0.2019E-02  0.1365E-02
     -9.450  0.3156E-03  0.4185E-02  0.2035E-02  0.1582E-02
     -9.398 -0.1330E-03  0.3845E-02  0.2028E-02  0.1782E-02
     -9.346 -0.2619E-03  0.2792E-02  0.2015E-02  0.1926E-02
     -9.294 -0.2725E-03  0.1501E-02  0.2001E-02  0.2004E-02
     -9.243 -0.3120E-03  0.4228E-03  0.1984E-02  0.2026E-02
     -9.191 -0.4144E-03 -0.2605E-03  0.1963E-02  0.2012E-02
     -9.139 -0.4631E-03 -0.5973E-03  0.1939E-02  0.1981E-02
     -9.087 -0.1698E-03 -0.6407E-03  0.1930E-02  0.1948E-02
     -9.035  0.8395E-03 -0.2552E-03  0.1974E-02  0.1935E-02
     -8.983  0.2757E-02  0.8531E-03  0.2117E-02  0.1979E-02
     -8.932  0.5264E-02  0.2842E-02  0.2389E-02  0.2127E-02
     -8.880  0.7478E-02  0.5373E-02  0.2777E-02  0.2405E-02
     -8.828  0.8384E-02  0.7552E-02  0.3211E-02  0.2796E-02
     -8.776  0.7524E-02  0.8383E-02  0.3601E-02  0.3231E-02
     -8.724  0.5335E-02  0.7447E-02  0.3878E-02  0.3617E-02
     -8.673  0.2822E-02  0.5219E-02  0.4024E-02  0.3887E-02
     -8.621  0.8818E-03  0.2716E-02  0.4070E-02  0.4028E-02
     -8.569 -0.1484E-03  0.8150E-03  0.4062E-02  0.4070E-02
     -8.517 -0.4461E-03 -0.1752E-03  0.4039E-02  0.4061E-02
     -8.465 -0.3757E-03 -0.4482E-03  0.4019E-02  0.4038E-02
     -8.413 -0.2190E-03 -0.3689E-03  0.4008E-02  0.4019E-02
     -8.362 -0.1003E-03 -0.2123E-03  0.4003E-02  0.4008E-02
     -8.310 -0.3777E-04 -0.9633E-04  0.4001E-02  0.4003E-02
     -8.258 -0.1194E-04 -0.3597E-04  0.4000E-02  0.4001E-02
     -8.206 -0.3206E-05 -0.1129E-04  0.4000E-02  0.4000E-02
     -8.154 -0.7366E-06 -0.3008E-05  0.4000E-02  0.4000E-02
     -8.103 -0.1455E-06 -0.6864E-06  0.4000E-02  0.4000E-02
     -8.051 -0.2480E-07 -0.1347E-06  0.4000E-02  0.4000E-02
     -7.999 -0.3655E-08 -0.2280E-07  0.4000E-02  0.4000E-02
     -7.947 -0.4667E-09 -0.3338E-08  0.4000E-02  0.4000E-02
     -7.895 -0.5171E-10 -0.4235E-09  0.4000E-02  0.4000E-02
     -7.843 -0.4977E-11 -0.4662E-10  0.4000E-02  0.4000E-02
     -7.792 -0.4166E-12 -0.4458E-11  0.4000E-02  0.4000E-02
     -7.740 -0.3214E-13 -0.3707E-12  0.4000E-02  0.4000E-02
     -7.688 -0.2969E-13 -0.2682E-13  0.4000E-02  0.4000E-02
     -7.636 -0.3698E-12 -0.1688E-14  0.4000E-02  0.4000E-02
     -7.584 -0.4280E-11 -0.8999E-16  0.4000E-02  0.4000E-02
     -7.532 -0.4308E-10 -0.8792E-17  0.4000E-02  0.4000E-02
     -7.481 -0.3765E-09 -0.5150E-17  0.4000E-02  0.4000E-02
     -7.429 -0.2855E-08 -0.1009E-15  0.4000E-02  0.4000E-02
     -7.377 -0.1875E-07 -0.1775E-14  0.4000E-02  0.4000E-02
     -7.325 -0.1064E-06 -0.2718E-13  0.4000E-02  0.4000E-02
     -7.273 -0.5208E-06 -0.3621E-12  0.4000E-02  0.4000E-02
     -7.222 -0.2189E-05 -0.4197E-11  0.4000E-02  0.4000E-02
     -7.170 -0.7864E-05 -0.4229E-10  0.3999E-02  0.4000E-02
     -7.118 -0.2394E-04 -0.3701E-09  0.3998E-02  0.4000E-02
     -7.066 -0.6096E-04 -0.2810E-08  0.3995E-02  0.4000E-02
     -7.014 -0.1267E-03 -0.1847E-07  0.3988E-02  0.4000E-02
     -6.962 -0.2034E-03 -0.1050E-06  0.3978E-02  0.4000E-02
     -6.911 -0.2120E-03 -0.5144E-06  0.3967E-02  0.4000E-02
     -6.859  0.4486E-05 -0.2165E-05  0.3967E-02  0.4000E-02
     -6.807  0.6219E-03 -0.7787E-05  0.3999E-02  0.3999E-02
     -6.755  0.1683E-02 -0.2374E-04  0.4087E-02  0.3998E-02
     -6.703  0.2949E-02 -0.6054E-04  0.4239E-02  0.3995E-02
     -6.652  0.3932E-02 -0.1260E-03  0.4443E-02  0.3989E-02
     -6.600  0.4165E-02 -0.2030E-03  0.4659E-02  0.3978E-02
     -6.548  0.3525E-02 -0.2131E-03  0.4842E-02  0.3967E-02
     -6.496  0.2327E-02 -0.1233E-05  0.4962E-02  0.3967E-02
     -6.444  0.1079E-02  0.6053E-03  0.5018E-02  0.3998E-02
     -6.392  0.1502E-03  0.1641E-02  0.5026E-02  0.4083E-02
     -6.341 -0.3850E-03  0.2853E-02  0.5006E-02  0.4231E-02
     -6.289 -0.6246E-03  0.3733E-02  0.4974E-02  0.4425E-02
     -6.237 -0.5992E-03  0.3818E-02  0.4943E-02  0.4623E-02
     -6.185 -0.1229E-03  0.3087E-02  0.4936E-02  0.4782E-02
     -6.133  0.1115E-02  0.2110E-02  0.4994E-02  0.4892E-02
     -6.081  0.3222E-02  0.1772E-02  0.5161E-02  0.4984E-02
     -6.030  0.5765E-02  0.2700E-02  0.5460E-02  0.5124E-02
     -5.978  0.7791E-02  0.4756E-02  0.5864E-02  0.5370E-02
     -5.926  0.8351E-02  0.6992E-02  0.6296E-02  0.5732E-02
     -5.874  0.7162E-02  0.8192E-02  0.6667E-02  0.6157E-02
     -5.822  0.4819E-02  0.7659E-02  0.6917E-02  0.6554E-02
     -5.771  0.2364E-02  0.5657E-02  0.7040E-02  0.6847E-02
     -5.719  0.6009E-03  0.3151E-02  0.7071E-02  0.7010E-02
     -5.667 -0.2564E-03  0.1103E-02  0.7058E-02  0.7067E-02
     -5.615 -0.4520E-03 -0.5419E-04  0.7034E-02  0.7065E-02
     -5.563 -0.3519E-03 -0.4368E-03  0.7016E-02  0.7042E-02
     -5.511 -0.2140E-03 -0.4047E-03  0.7005E-02  0.7021E-02
     -5.460 -0.1508E-03 -0.2689E-03  0.6997E-02  0.7007E-02
     -5.408 -0.1917E-03 -0.1926E-03  0.6987E-02  0.6997E-02
     -5.356 -0.3283E-03 -0.2292E-03  0.6970E-02  0.6985E-02
     -5.304 -0.4944E-03 -0.3705E-03  0.6944E-02  0.6966E-02
     -5.252 -0.4969E-03 -0.5306E-03  0.6919E-02  0.6939E-02
     -5.201  0.2347E-04 -0.4789E-03  0.6920E-02  0.6914E-02
     -5.149  0.1485E-02  0.1822E-03  0.6997E-02  0.6923E-02
     -5.097  0.4065E-02  0.1872E-02  0.7207E-02  0.7020E-02
     -5.045  0.7358E-02  0.4688E-02  0.7589E-02  0.7263E-02
     -4.993  0.1032E-01  0.8078E-02  0.8124E-02  0.7682E-02
     -4.941  0.1174E-01  0.1087E-01  0.8732E-02  0.8245E-02
     -4.890  0.1093E-01  0.1186E-01  0.9298E-02  0.8860E-02
     -4.838  0.8253E-02  0.1056E-01  0.9726E-02  0.9407E-02
     -4.786  0.4862E-02  0.7570E-02  0.9978E-02  0.9800E-02
     -4.734  0.1960E-02  0.4150E-02  0.1008E-01  0.1001E-01
     -4.682  0.1778E-03  0.1448E-02  0.1009E-01  0.1009E-01
     -4.630 -0.5482E-03 -0.6331E-04  0.1006E-01  0.1009E-01
     -4.579 -0.6514E-03 -0.5679E-03  0.1003E-01  0.1006E-01
     -4.527 -0.5454E-03 -0.5262E-03  0.9998E-02  0.1003E-01
     -4.475 -0.4143E-03 -0.3257E-03  0.9977E-02  0.1001E-01
     -4.423 -0.1987E-03 -0.1573E-03  0.9967E-02  0.1000E-01
     -4.371  0.2950E-03 -0.6231E-04  0.9982E-02  0.1000E-01
     -4.320  0.1211E-02 -0.2072E-04  0.1004E-01  0.1000E-01
     -4.268  0.2450E-02 -0.5856E-05  0.1017E-01  0.1000E-01
     -4.216  0.3612E-02 -0.1418E-05  0.1036E-01  0.1000E-01
     -4.164  0.4181E-02 -0.2991E-06  0.1058E-01  0.1000E-01
     -4.112  0.3872E-02 -0.7940E-07  0.1078E-01  0.1000E-01
     -4.060  0.2843E-02 -0.1542E-06  0.1092E-01  0.1000E-01
     -4.009  0.1578E-02 -0.6962E-06  0.1101E-01  0.1000E-01
     -3.957  0.5490E-03 -0.2845E-05  0.1103E-01  0.1000E-01
     -3.905 -0.3296E-04 -0.9956E-05  0.1103E-01  0.9999E-02
     -3.853 -0.2356E-03 -0.2958E-04  0.1102E-01  0.9998E-02
     -3.801 -0.2519E-03 -0.7380E-04  0.1101E-01  0.9994E-02
     -3.750 -0.2548E-03 -0.1516E-03  0.1099E-01  0.9986E-02
     -3.698 -0.3291E-03 -0.2459E-03  0.1098E-01  0.9973E-02
     -3.646 -0.4430E-03 -0.2811E-03  0.1095E-01  0.9959E-02
     -3.594 -0.4111E-03 -0.1099E-03  0.1093E-01  0.9953E-02
     -3.542  0.1041E-03  0.4395E-03  0.1094E-01  0.9976E-02
     -3.490  0.1442E-02  0.1466E-02  0.1101E-01  0.1005E-01
     -3.439  0.3627E-02  0.2927E-02  0.1120E-01  0.1020E-01
     -3.387  0.6097E-02  0.4668E-02  0.1152E-01  0.1045E-01
     -3.335  0.7846E-02  0.6486E-02  0.1192E-01  0.1078E-01
     -3.283  0.8039E-02  0.8105E-02  0.1234E-01  0.1120E-01
     -3.231  0.6668E-02  0.9121E-02  0.1268E-01  0.1167E-01
     -3.179  0.4633E-02  0.9129E-02  0.1293E-01  0.1215E-01
     -3.128  0.3109E-02  0.8080E-02  0.1309E-01  0.1257E-01
     -3.076  0.2719E-02  0.6483E-02  0.1323E-01  0.1290E-01
     -3.024  0.3193E-02  0.5096E-02  0.1339E-01  0.1317E-01
     -2.972  0.3718E-02  0.4336E-02  0.1359E-01  0.1339E-01
     -2.920  0.3619E-02  0.3989E-02  0.1377E-01  0.1360E-01
     -2.869  0.2781E-02  0.3536E-02  0.1392E-01  0.1378E-01
     -2.817  0.1585E-02  0.2683E-02  0.1400E-01  0.1392E-01
     -2.765  0.5032E-03  0.1574E-02  0.1403E-01  0.1400E-01
     -2.713 -0.2208E-03  0.5664E-03  0.1401E-01  0.1403E-01
     -2.661 -0.5915E-03 -0.1104E-03  0.1398E-01  0.1403E-01
     -2.609 -0.6492E-03 -0.4682E-03  0.1395E-01  0.1400E-01
     -2.558 -0.2641E-03 -0.6202E-03  0.1394E-01  0.1397E-01
     -2.506  0.8487E-03 -0.5616E-03  0.1398E-01  0.1394E-01
     -2.454  0.2841E-02 -0.6257E-04  0.1413E-01  0.1394E-01
     -2.402  0.5373E-02  0.1207E-02  0.1441E-01  0.1400E-01
     -2.350  0.7552E-02  0.3343E-02  0.1480E-01  0.1417E-01
     -2.299  0.8382E-02  0.5882E-02  0.1523E-01  0.1448E-01
     -2.247  0.7445E-02  0.7856E-02  0.1562E-01  0.1488E-01
     -2.195  0.5215E-02  0.8331E-02  0.1589E-01  0.1532E-01
     -2.143  0.2709E-02  0.7064E-02  0.1603E-01  0.1568E-01
     -2.091  0.7965E-03  0.4680E-02  0.1607E-01  0.1592E-01
     -2.039 -0.2229E-03  0.2215E-02  0.1606E-01  0.1604E-01
     -1.988 -0.5532E-03  0.4372E-03  0.1603E-01  0.1606E-01
     -1.936 -0.5521E-03 -0.4590E-03  0.1600E-01  0.1604E-01
     -1.884 -0.4366E-03 -0.6739E-03  0.1598E-01  0.1600E-01
     -1.832 -0.1880E-03 -0.4342E-03  0.1597E-01  0.1598E-01
     -1.780  0.3612E-03  0.2000E-03  0.1599E-01  0.1599E-01
     -1.728  0.1330E-02  0.1240E-02  0.1606E-01  0.1606E-01
     -1.677  0.2588E-02  0.2539E-02  0.1619E-01  0.1619E-01
     -1.625  0.3711E-02  0.3686E-02  0.1638E-01  0.1638E-01
     -1.573  0.4191E-02  0.4188E-02  0.1660E-01  0.1659E-01
     -1.521  0.3788E-02  0.3803E-02  0.1680E-01  0.1679E-01
     -1.469  0.2707E-02  0.2731E-02  0.1694E-01  0.1693E-01
     -1.418  0.1447E-02  0.1470E-02  0.1701E-01  0.1701E-01
     -1.366  0.4593E-03  0.4774E-03  0.1703E-01  0.1703E-01
     -1.314 -0.8232E-04 -0.6497E-04  0.1703E-01  0.1703E-01
     -1.262 -0.2703E-03 -0.2420E-03  0.1702E-01  0.1702E-01
     -1.210 -0.2964E-03 -0.2453E-03  0.1700E-01  0.1701E-01
     -1.158 -0.2964E-03 -0.2286E-03  0.1699E-01  0.1699E-01
     -1.107 -0.2757E-03 -0.2460E-03  0.1697E-01  0.1698E-01
     -1.055 -0.1069E-03 -0.2402E-03  0.1697E-01  0.1697E-01
     -1.003  0.4021E-03 -0.5508E-04  0.1699E-01  0.1697E-01
     -0.951  0.1358E-02  0.5002E-03  0.1706E-01  0.1699E-01
     -0.899  0.2611E-02  0.1505E-02  0.1719E-01  0.1707E-01
     -0.848  0.3725E-02  0.2768E-02  0.1738E-01  0.1721E-01
     -0.796  0.4192E-02  0.3827E-02  0.1760E-01  0.1741E-01
     -0.744  0.3776E-02  0.4188E-02  0.1780E-01  0.1763E-01
     -0.692  0.2688E-02  0.3669E-02  0.1794E-01  0.1782E-01
     -0.640  0.1430E-02  0.2530E-02  0.1801E-01  0.1795E-01
     -0.588  0.4533E-03  0.1287E-02  0.1803E-01  0.1802E-01
     -0.537 -0.6914E-04  0.3633E-03  0.1803E-01  0.1804E-01
     -0.485 -0.2226E-03 -0.1048E-03  0.1802E-01  0.1803E-01
     -0.433 -0.1890E-03 -0.2250E-03  0.1801E-01  0.1802E-01
     -0.381 -0.1107E-03 -0.1797E-03  0.1800E-01  0.1801E-01
     -0.329 -0.5089E-04 -0.1017E-03  0.1800E-01  0.1800E-01
     -0.277 -0.1922E-04 -0.4554E-04  0.1800E-01  0.1800E-01
     -0.226 -0.6092E-05 -0.1681E-04  0.1800E-01  0.1800E-01
     -0.174 -0.1640E-05 -0.5220E-05  0.1800E-01  0.1800E-01
     -0.122 -0.3778E-06 -0.1378E-05  0.1800E-01  0.1800E-01
     -0.070 -0.7480E-07 -0.3114E-06  0.1800E-01  0.1800E-01
     -0.018 -0.1278E-07 -0.6053E-07  0.1800E-01  0.1800E-01
      0.033 -0.1888E-08 -0.1015E-07  0.1800E-01  0.1800E-01
      0.085 -0.2416E-09 -0.1473E-08  0.1800E-01  0.1800E-01
      0.137 -0.2683E-10 -0.1852E-09  0.1800E-01  0.1800E-01
      0.189 -0.2588E-11 -0.2021E-10  0.1800E-01  0.1800E-01
      0.241 -0.2171E-12 -0.1916E-11  0.1800E-01  0.1800E-01
      0.293 -0.1584E-13 -0.1580E-12  0.1800E-01  0.1800E-01
      0.344 -0.1007E-14 -0.1133E-13  0.1800E-01  0.1800E-01
      0.396 -0.5570E-16 -0.7027E-15  0.1800E-01  0.1800E-01
      0.448 -0.4285E-17 -0.4285E-16  0.1800E-01  0.1800E-01
      0.500  0.0000E+00  0.0000E+00  0.1800E-01  0.1800E-01
      0.552  0.0000E+00  0.0000E+00  0.1800E-01  0.1800E-01
      0.604  0.0000E+00  0.0000E+00  0.1800E-01  0.1800E-01
      0.655  0.0000E+00  0.0000E+00  0.1800E-01  0.1800E-01
      0.707  0.0000E+00  0.0000E+00  0.1800E-01  0.1800E-01
      0.759  0.0000E+00  0.0000E+00  0.1800E-01  0.1800E-01
      0.811  0.0000E+00  0.0000E+00  0.1800E-01  0.1800E-01
      0.863  0.0000E+00  0.0000E+00  0.1800E-01  0.1800E-01
      0.914  0.0000E+00  0.0000E+00  0.1800E-01  0.1800E-01
      0.966  0.0000E+00  0.0000E+00  0.1800E-01  0.1800E-01
      1.018  0.0000E+00  0.0000E+00  0.1800E-01  0.1800E-01
      1.070  0.0000E+00  0.0000E+00  0.1800E-01  0.1800E-01
      1.122  0.0000E+00  0.0000E+00  0.1800E-01  0.1800E-01
      1.174  0.0000E+00  0.0000E+00  0.1800E-01  0.1800E-01
      1.225  0.0000E+00  0.0000E+00  0.1800E-01  0.1800E-01
