    7    7 1000    2
  0.1431710E+04  0.2143395E-08  0.2140828E-08  0.2184083E-08  0.5000000E-15
   1.0000000000000000E-004
  CAR 
 unknown system                          
     21      1     18
 
  0.1262379E-14  0.1262379E-14  0.1262379E-14  0.1000000E+01
    1      -12.321129    -12.210064   1.000000   1.000000
    2       -9.691371     -9.469445   1.000000   1.000000
    3       -8.853915     -8.804316   1.000000   1.000000
    4       -8.852532     -8.803204   1.000000   1.000000
    5       -6.638080     -6.274904   1.000000   1.000000
    6       -5.962478     -5.892488   1.000000   1.000000
    7       -5.960844     -5.891294   1.000000   1.000000
    8       -5.019196     -4.973927   1.000000   1.000000
    9       -4.933146     -4.893901   1.000000   1.000000
   10       -4.932848     -4.893740   1.000000   1.000000
   11       -4.181993     -3.383169   1.000053  -0.000039
   12       -3.329216     -3.198490  -0.000007  -0.000000
   13       -3.326299     -3.197433  -0.000007  -0.000000
   14       -2.985128     -2.927616  -0.000000  -0.000000
   15       -2.327946     -2.234415  -0.000000  -0.000000
   16       -2.324257     -2.231483  -0.000000  -0.000000
   17       -1.596536     -1.595572  -0.000000  -0.000000
   18       -0.820011     -0.774635  -0.000000  -0.000000
