       N       E                     dE             d eps       ncg     rms          rms(c)
DAV:   1     0.384931275746E+02    0.38493E+02   -0.33891E+03   104   0.417E+02
DAV:   2    -0.952653290002E+01   -0.48020E+02   -0.47904E+02   110   0.605E+01
DAV:   3    -0.190409872589E+02   -0.95145E+01   -0.94606E+01   104   0.234E+01
DAV:   4    -0.192804621569E+02   -0.23947E+00   -0.23884E+00    82   0.653E+00
DAV:   5    -0.192942143869E+02   -0.13752E-01   -0.13751E-01   120   0.181E+00    0.707E+00
DAV:   6    -0.862275361919E+01    0.10671E+02   -0.20127E+01    74   0.159E+01    0.373E+00
DAV:   7    -0.602049026612E+01    0.26023E+01   -0.53248E+00    72   0.801E+00    0.196E+00
DAV:   8    -0.826369707885E+01   -0.22432E+01   -0.97730E-01    90   0.479E+00    0.154E+00
DAV:   9    -0.113386622489E+02   -0.30750E+01   -0.12233E+00    82   0.406E+00    0.101E+00
DAV:  10    -0.138041782786E+02   -0.24655E+01   -0.10534E+00    74   0.313E+00    0.712E-01
DAV:  11    -0.152041157414E+02   -0.13999E+01   -0.45431E-01    74   0.209E+00    0.542E-01
DAV:  12    -0.165942851616E+02   -0.13902E+01   -0.56131E-01    74   0.236E+00    0.325E-01
DAV:  13    -0.169133499437E+02   -0.31906E+00   -0.93234E-02    74   0.110E+00    0.228E-01
DAV:  14    -0.172041520509E+02   -0.29080E+00   -0.25269E-02    74   0.644E-01    0.147E-01
DAV:  15    -0.175881142836E+02   -0.38396E+00   -0.27981E-02    84   0.495E-01    0.770E-02
DAV:  16    -0.177010558585E+02   -0.11294E+00   -0.69219E-03    82   0.286E-01    0.486E-02
DAV:  17    -0.177499012138E+02   -0.48845E-01   -0.22194E-03    74   0.165E-01    0.276E-02
DAV:  18    -0.177919363580E+02   -0.42035E-01   -0.19541E-03    82   0.127E-01    0.151E-02
DAV:  19    -0.177990959720E+02   -0.71596E-02   -0.17986E-04    82   0.452E-02    0.875E-03
DAV:  20    -0.178007017239E+02   -0.16058E-02   -0.13397E-04    76   0.383E-02    0.593E-03
DAV:  21    -0.178011206321E+02   -0.41891E-03   -0.44484E-05    60   0.228E-02    0.386E-03
DAV:  22    -0.178018061201E+02   -0.68549E-03   -0.47367E-05    60   0.203E-02    0.249E-03
DAV:  23    -0.178022400891E+02   -0.43397E-03   -0.15471E-05    52   0.111E-02    0.147E-03
DAV:  24    -0.178024948440E+02   -0.25475E-03   -0.60896E-06    42   0.682E-03    0.860E-04
DAV:  25    -0.178025583678E+02   -0.63524E-04   -0.30276E-06    50   0.455E-03
   1 F= -.17802558E+02 E0= -.17804505E+02  d E =-.178026E+02  mag=     1.0007
       N       E                     dE             d eps       ncg     rms          rms(c)
DAV:   1    -0.178026526075E+02   -0.15776E-03   -0.82943E-04    72   0.138E-01    0.780E-03
DAV:   2    -0.178026715597E+02   -0.18952E-04   -0.41461E-05    38   0.354E-02
   2 F= -.17802672E+02 E0= -.17804619E+02  d E =-.113192E-03  mag=     1.0005
       N       E                     dE             d eps       ncg     rms          rms(c)
DAV:   1    -0.178027302583E+02   -0.77651E-04   -0.17552E-03    72   0.205E-01    0.119E-02
DAV:   2    -0.178027314468E+02   -0.11885E-05   -0.89996E-05    38   0.533E-02
   3 F= -.17802731E+02 E0= -.17804679E+02  d E =-.173079E-03  mag=     1.0004
