 vasp.6.1.2 22Jul20 (build Aug  2 2021 21:04:21) gamma-only                      
 executed on             LinuxPGI date 2021.12.29  01:22:51
 running on    8 total cores
 distrk:  each k-point on    8 cores,    1 groups
 distr:  one band on NCORE=   8 cores,    1 groups


--------------------------------------------------------------------------------------------------------


 INCAR:
 POTCAR:    PAW_PBE Al 04Jan2001                  
 -----------------------------------------------------------------------------
|                                                                             |
|           W    W    AA    RRRRR   N    N  II  N    N   GGGG   !!!           |
|           W    W   A  A   R    R  NN   N  II  NN   N  G    G  !!!           |
|           W    W  A    A  R    R  N N  N  II  N N  N  G       !!!           |
|           W WW W  AAAAAA  RRRRR   N  N N  II  N  N N  G  GGG   !            |
|           WW  WW  A    A  R   R   N   NN  II  N   NN  G    G                |
|           W    W  A    A  R    R  N    N  II  N    N   GGGG   !!!           |
|                                                                             |
|     You use a magnetic or noncollinear calculation, but did not specify     |
|     the initial magnetic moment with the MAGMOM tag. Note that a            |
|     default of 1 will be used for all atoms. This ferromagnetic setup       |
|     may break the symmetry of the crystal, in particular it may rule        |
|     out finding an antiferromagnetic solution. Thence, we recommend         |
|     setting the initial magnetic moment manually or verifying carefully     |
|     that this magnetic setup is desired.                                    |
|                                                                             |
 -----------------------------------------------------------------------------

 -----------------------------------------------------------------------------
|                                                                             |
|           W    W    AA    RRRRR   N    N  II  N    N   GGGG   !!!           |
|           W    W   A  A   R    R  NN   N  II  NN   N  G    G  !!!           |
|           W    W  A    A  R    R  N N  N  II  N N  N  G       !!!           |
|           W WW W  AAAAAA  RRRRR   N  N N  II  N  N N  G  GGG   !            |
|           WW  WW  A    A  R   R   N   NN  II  N   NN  G    G                |
|           W    W  A    A  R    R  N    N  II  N    N   GGGG   !!!           |
|                                                                             |
|     For optimal performance we recommend to set                             |
|       NCORE = 4 - approx SQRT(number of cores).                             |
|     NCORE specifies how many cores store one orbital (NPAR=cpu/NCORE).      |
|     This setting can greatly improve the performance of VASP for DFT.       |
|     The default, NCORE=1 might be grossly inefficient on modern             |
|     multi-core architectures or massively parallel machines. Do your        |
|     own testing!!!!                                                         |
|     Unfortunately you need to use the default for GW and RPA                |
|     calculations (for HF NCORE is supported but not extensively tested      |
|     yet).                                                                   |
|                                                                             |
 -----------------------------------------------------------------------------

 POTCAR:    PAW_PBE Al 04Jan2001                  
   SHA256 =  17880443556af62b473fe41b62a467bd001ad55d2cabe504a3f22e34d4e9db96 Al/POTCAR             
   COPYR  = (c) Copyright 04Jan2001 Georg Kresse                                                    
   COPYR  = This file is part of the software VASP. Any use, copying, and all other rights are regul
   COPYR  = If you do not have a valid VASP license, you may not use, copy or distribute this file. 
   VRHFIN =Al: s2p1                                                                                 
   LEXCH  = PE                                                                                      
   EATOM  =    53.5387 eV,    3.9350 Ry                                                             
                                                                                                    
   TITEL  = PAW_PBE Al 04Jan2001                                                                    
   LULTRA =        F    use ultrasoft PP ?                                                          
   IUNSCR =        1    unscreen: 0-lin 1-nonlin 2-no                                               
   RPACOR =    1.500    partial core radius                                                         
   POMASS =   26.981; ZVAL   =    3.000    mass and valenz                                          
   RCORE  =    1.900    outmost cutoff radius                                                       
   RWIGS  =    2.650; RWIGS  =    1.402    wigner-seitz radius (au A)                               
   ENMAX  =  240.300; ENMIN  =  180.225 eV                                                          
   ICORE  =        2    local potential                                                             
   LCOR   =        T    correct aug charges                                                         
   LPAW   =        T    paw PP                                                                      
   EAUG   =  291.052                                                                                
   DEXC   =    0.000                                                                                
   RMAX   =    1.939    core radius for proj-oper                                                   
   RAUG   =    1.300    factor for augmentation sphere                                              
   RDEP   =    1.966    radius for radial grids                                                     
   RDEPT  =    1.856    core radius for aug-charge                                                  
                                                                                                    
   Atomic configuration                                                                             
    6 entries                                                                                       
     n  l   j            E        occ.                                                              
     1  0  0.50     -1511.1048   2.0000                                                             
     2  0  0.50      -108.1629   2.0000                                                             
     2  1  1.50       -69.6402   6.0000                                                             
     3  0  0.50        -7.7528   2.0000                                                             
     3  1  1.50        -2.7121   1.0000                                                             
     3  2  2.50        -2.7212   0.0000                                                             
   Description                                                                                      
     l       E           TYP  RCUT    TYP  RCUT                                                     
     0     -7.7528455     23  1.900                                                                 
     0     -3.3096929     23  1.900                                                                 
     1     -2.7120682     23  1.900                                                                 
     1     13.6058260     23  1.900                                                                 
     2     -2.7211652      7  1.900                                                                 
  local pseudopotential read in
  partial core-charges read in
  partial kinetic energy density read in
  atomic valenz-charges read in
  non local Contribution for L=            0  read in
    real space projection operators read in
  non local Contribution for L=            0  read in
    real space projection operators read in
  non local Contribution for L=            1  read in
    real space projection operators read in
  non local Contribution for L=            1  read in
    real space projection operators read in
    PAW grid and wavefunctions read in
 
   number of l-projection  operators is LMAX  =            4
   number of lm-projection operators is LMMAX =            8
 
  PAW_PBE Al 04Jan2001                  :
 energy of atom  1       EATOM=  -53.5387
 kinetic energy error for atom=    0.0005 (will be added to EATOM!!)
 
 
 POSCAR: Al
  positions in cartesian coordinates
  No initial velocities read in
 exchange correlation table for  LEXCH =        8
   RHO(1)=    0.500       N(1)  =     2000
   RHO(2)=  100.500       N(2)  =     4000
 


--------------------------------------------------------------------------------------------------------


 ion  position               nearest neighbor table
   1  0.462  0.541  0.549-   6 2.59   3 2.59   2 2.65   7 2.91   5 2.91
   2  0.375  0.516  0.467-   1 2.65   5 2.65   7 2.65
   3  0.561  0.589  0.500-   5 2.59   1 2.59   6 2.72   4 2.72
   4  0.570  0.494  0.417-   7 2.59   5 2.59   3 2.72   6 2.72
   5  0.475  0.569  0.419-   3 2.59   4 2.59   2 2.65   1 2.91   7 2.91
   6  0.558  0.468  0.539-   1 2.59   7 2.59   3 2.72   4 2.72
   7  0.472  0.440  0.461-   4 2.59   6 2.59   2 2.65   1 2.91   5 2.91
 

IMPORTANT INFORMATION: All symmetrisations will be switched off!
NOSYMM: (Re-)initialisation of all symmetry stuff for point group C_1.


----------------------------------------------------------------------------------------

                                     Primitive cell                                     

  volume of cell :   10021.9733

  direct lattice vectors                    reciprocal lattice vectors
    21.433949823  0.000000000  0.000000000     0.046654957  0.000000000  0.000000000
     0.000000000 21.408281684  0.000000000     0.000000000  0.046710895  0.000000000
     0.000000000  0.000000000 21.840834240     0.000000000  0.000000000  0.045785797

  length of vectors
    21.433949823 21.408281684 21.840834240     0.046654957  0.046710895  0.045785797

  position of ions in fractional coordinates (direct lattice)
     0.462103178  0.541070733  0.548790045
     0.374536820  0.516325398  0.466518207
     0.561336014  0.588817443  0.500020739
     0.570148554  0.494123270  0.417284546
     0.475462232  0.569176291  0.419099672
     0.557892101  0.468309140  0.538743389
     0.471697351  0.439849832  0.460552674

  ion indices of the primitive-cell ions
   primitive index   ion index
                 1           1
                 2           2
                 3           3
                 4           4
                 5           5
                 6           6
                 7           7

----------------------------------------------------------------------------------------

 
 
 KPOINTS: KPOINTS created by Atomic Simulation Env

Automatic generation of k-mesh.
Space group operators:
 irot       det(A)        alpha          n_x          n_y          n_z        tau_x        tau_y        tau_z
    1     1.000000     0.000000     1.000000     0.000000     0.000000     0.000000     0.000000     0.000000
 
 Subroutine IBZKPT returns following result:
 ===========================================
 
 Found      1 irreducible k-points:
 
 Following reciprocal coordinates:
            Coordinates               Weight
  0.000000  0.000000  0.000000      1.000000
 
 Following cartesian coordinates:
            Coordinates               Weight
  0.000000  0.000000  0.000000      1.000000
 


--------------------------------------------------------------------------------------------------------




 Dimension of arrays:
   k-points           NKPTS =      1   k-points in BZ     NKDIM =      1   number of bands    NBANDS=     18
   number of dos      NEDOS =    301   number of ions     NIONS =      7
   non local maximal  LDIM  =      4   non local SUM 2l+1 LMDIM =      8
   total plane-waves  NPLWV = ******
   max r-space proj   IRMAX =      1   max aug-charges    IRDMAX=   5091
   dimension x,y,z NGX =   108 NGY =  108 NGZ =  108
   dimension x,y,z NGXF=   216 NGYF=  216 NGZF=  216
   support grid    NGXF=   216 NGYF=  216 NGZF=  216
   ions per type =               7
   NGX,Y,Z   is equivalent  to a cutoff of   8.38,  8.39,  8.22 a.u.
   NGXF,Y,Z  is equivalent  to a cutoff of  16.75, 16.77, 16.44 a.u.

 SYSTEM =  unknown system                          
 POSCAR =  Al                                      

 Startparameter for this run:
   NWRITE =      2    write-flag & timer
   PREC   = normal    normal or accurate (medium, high low for compatibility)
   ISTART =      0    job   : 0-new  1-cont  2-samecut
   ICHARG =      2    charge: 1-file 2-atom 10-const
   ISPIN  =      2    spin polarized calculation?
   LNONCOLLINEAR =      F non collinear calculations
   LSORBIT =      F    spin-orbit coupling
   INIWAV =      1    electr: 0-lowe 1-rand  2-diag
   LASPH  =      F    aspherical Exc in radial PAW
   METAGGA=      F    non-selfconsistent MetaGGA calc.

 Electronic Relaxation 1
   ENCUT  =  400.0 eV  29.40 Ry    5.42 a.u.  34.95 34.91 35.62*2*pi/ulx,y,z
   ENINI  =  400.0     initial cutoff
   ENAUG  =  291.1 eV  augmentation charge cutoff
   NELM   =     60;   NELMIN=  2; NELMDL=  0     # of ELM steps 
   EDIFF  = 0.1E-03   stopping-criterion for ELM
   LREAL  =      F    real-space projection
   NLSPLINE    = F    spline interpolate recip. space projectors
   LCOMPAT=      F    compatible to vasp.4.4
   GGA_COMPAT  = T    GGA compatible to vasp.4.4-vasp.4.6
   LMAXPAW     = -100 max onsite density
   LMAXMIX     =    2 max onsite mixed and CHGCAR
   VOSKOWN=      0    Vosko Wilk Nusair interpolation
   ROPT   =    0.00000
 Ionic relaxation
   EDIFFG = 0.1E-02   stopping-criterion for IOM
   NSW    =   1000    number of steps for IOM
   NBLOCK =      1;   KBLOCK =   1000    inner block; outer block 
   IBRION =      2    ionic relax: 0-MD 1-quasi-New 2-CG
   NFREE  =      1    steps in history (QN), initial steepest desc. (CG)
   ISIF   =      0    stress and relaxation
   IWAVPR =     11    prediction:  0-non 1-charg 2-wave 3-comb
   ISYM   =      0    0-nonsym 1-usesym 2-fastsym
   LCORR  =      T    Harris-Foulkes like correction to forces

   POTIM  = 0.5000    time-step for ionic-motion
   TEIN   =    0.0    initial temperature
   TEBEG  =    0.0;   TEEND  =   0.0 temperature during run
   SMASS  =  -3.00    Nose mass-parameter (am)
   estimated Nose-frequenzy (Omega)   =  0.10E-29 period in steps = 0.13E+47 mass=  -0.105E-25a.u.
   SCALEE = 1.0000    scale energy and forces
   NPACO  =    256;   APACO  = 16.0  distance and # of slots for P.C.
   PSTRESS=    0.0 pullay stress

  Mass of Ions in am
   POMASS =  26.98
  Ionic Valenz
   ZVAL   =   3.00
  Atomic Wigner-Seitz radii
   RWIGS  =  -1.00
  virtual crystal weights 
   VCA    =   1.00
   NELECT =      21.0000    total number of electrons
   NUPDOWN=      -1.0000    fix difference up-down

 DOS related values:
   EMIN   =  10.00;   EMAX   =-10.00  energy-range for DOS
   EFERMI =   0.00
   ISMEAR =     1;   SIGMA  =   0.20  broadening in eV -4-tet -1-fermi 0-gaus

 Electronic relaxation 2 (details)
   IALGO  =     38    algorithm
   LDIAG  =      T    sub-space diagonalisation (order eigenvalues)
   LSUBROT=      F    optimize rotation matrix (better conditioning)
   TURBO    =      0    0=normal 1=particle mesh
   IRESTART =      0    0=no restart 2=restart with 2 vectors
   NREBOOT  =      0    no. of reboots
   NMIN     =      0    reboot dimension
   EREF     =   0.00    reference energy to select bands
   IMIX   =      4    mixing-type and parameters
     AMIX     =   0.40;   BMIX     =  1.00
     AMIX_MAG =   1.60;   BMIX_MAG =  1.00
     AMIN     =   0.10
     WC   =   100.;   INIMIX=   1;  MIXPRE=   1;  MAXMIX= -45

 Intra band minimization:
   WEIMIN = 0.0010     energy-eigenvalue tresh-hold
   EBREAK =  0.14E-05  absolut break condition
   DEPER  =   0.30     relativ break condition  

   TIME   =   0.40     timestep for ELM

  volume/ion in A,a.u.               =    1431.71      9661.66
  Fermi-wavevector in a.u.,A,eV,Ry     =   0.209490  0.395879  0.597107  0.043886
  Thomas-Fermi vector in A             =   0.975968
 
 Write flags
   LWAVE        =      F    write WAVECAR
   LDOWNSAMPLE  =      F    k-point downsampling of WAVECAR
   LCHARG       =      F    write CHGCAR
   LVTOT        =      F    write LOCPOT, total local potential
   LVHAR        =      F    write LOCPOT, Hartree potential only
   LELF         =      F    write electronic localiz. function (ELF)
   LORBIT       =      0    0 simple, 1 ext, 2 COOP (PROOUT), +10 PAW based schemes


 Dipole corrections
   LMONO  =      F    monopole corrections only (constant potential shift)
   LDIPOL =      F    correct potential (dipole corrections)
   IDIPOL =      0    1-x, 2-y, 3-z, 4-all directions 
   EPSILON=  1.0000000 bulk dielectric constant

 Exchange correlation treatment:
   GGA     =    PE    GGA type
   LEXCH   =     8    internal setting for exchange type
   VOSKOWN=      0    Vosko Wilk Nusair interpolation
   LHFCALC =     F    Hartree Fock is set to
   LHFONE  =     F    Hartree Fock one center treatment
   AEXX    =    0.0000 exact exchange contribution

 Linear response parameters
   LEPSILON=     F    determine dielectric tensor
   LRPA    =     F    only Hartree local field effects (RPA)
   LNABLA  =     F    use nabla operator in PAW spheres
   LVEL    =     F    velocity operator in full k-point grid
   LINTERFAST=   F  fast interpolation
   KINTER  =     0    interpolate to denser k-point grid
   CSHIFT  =0.1000    complex shift for real part using Kramers Kronig
   OMEGAMAX=  -1.0    maximum frequency
   DEG_THRESHOLD= 0.2000000E-02 threshold for treating states as degnerate
   RTIME   =   -0.100 relaxation time in fs
  (WPLASMAI=    0.000 imaginary part of plasma frequency in eV, 0.658/RTIME)
   DFIELD  = 0.0000000 0.0000000 0.0000000 field for delta impulse in time
 
 Orbital magnetization related:
   ORBITALMAG=     F  switch on orbital magnetization
   LCHIMAG   =     F  perturbation theory with respect to B field
   DQ        =  0.001000  dq finite difference perturbation B field
   LLRAUG    =     F  two centre corrections for induced B field



--------------------------------------------------------------------------------------------------------


 conjugate gradient relaxation of ions
 charge density and potential will be updated during run
 spin polarized calculation
 Variant of blocked Davidson
 Davidson routine will perform the subspace rotation
 perform sub-space diagonalisation
    after iterative eigenvector-optimisation
 modified Broyden-mixing scheme, WC =      100.0
 initial mixing is a Kerker type mixing with AMIX =  0.4000 and BMIX =      1.0000
 Hartree-type preconditioning will be used
 using additional bands             7
 reciprocal scheme for non local part
 use partial core corrections
 calculate Harris-corrections to forces 
   (improved forces if not selfconsistent)
 use gradient corrections 
 use of overlap-Matrix (Vanderbilt PP)
 Methfessel and Paxton  Order N= 1 SIGMA  =   0.20


--------------------------------------------------------------------------------------------------------


  energy-cutoff  :      400.00
  volume of cell :    10021.97
      direct lattice vectors                 reciprocal lattice vectors
    21.433949823  0.000000000  0.000000000     0.046654957  0.000000000  0.000000000
     0.000000000 21.408281684  0.000000000     0.000000000  0.046710895  0.000000000
     0.000000000  0.000000000 21.840834240     0.000000000  0.000000000  0.045785797

  length of vectors
    21.433949823 21.408281684 21.840834240     0.046654957  0.046710895  0.045785797


 
 k-points in units of 2pi/SCALE and weight: KPOINTS created by Atomic Simulation Env
   0.00000000  0.00000000  0.00000000       1.000
 
 k-points in reciprocal lattice and weights: KPOINTS created by Atomic Simulation Env
   0.00000000  0.00000000  0.00000000       1.000
 
 position of ions in fractional coordinates (direct lattice) 
   0.46210318  0.54107073  0.54879004
   0.37453682  0.51632540  0.46651821
   0.56133601  0.58881744  0.50002074
   0.57014855  0.49412327  0.41728455
   0.47546223  0.56917629  0.41909967
   0.55789210  0.46830914  0.53874339
   0.47169735  0.43984983  0.46055267
 
 position of ions in cartesian coordinates  (Angst):
   9.90469633 11.58339466 11.98603240
   8.02780340 11.05363956 10.18914683
  12.03164795 12.60556968 10.92087009
  12.22053550 10.57833015  9.11384259
  10.19103363 12.18508637  9.15348646
  11.95783130 10.02569398 11.76660506
  10.11033734  9.41642911 10.05885462
 


--------------------------------------------------------------------------------------------------------


 use parallel FFT for orbitals z direction half grid
 k-point   1 :   0.0000 0.0000 0.0000  plane waves:   91024

 maximum and minimum number of plane-waves per node :     11382    11374

 maximum number of plane-waves:     91024
 maximum index in each direction: 
   IXMAX=   34   IYMAX=   34   IZMAX=   35
   IXMIN=  -34   IYMIN=  -34   IZMIN=    0


 parallel 3D FFT for wavefunctions:
    minimum data exchange during FFTs selected (reduces bandwidth)
 parallel 3D FFT for charge:
    minimum data exchange during FFTs selected (reduces bandwidth)


 total amount of memory used by VASP MPI-rank0   189167. kBytes
=======================================================================

   base      :      30000. kBytes
   nonl-proj :       2003. kBytes
   fftplans  :      46139. kBytes
   grid      :     104464. kBytes
   one-center:          3. kBytes
   wavefun   :       6558. kBytes
 
     INWAV:  cpu time    0.0000: real time    0.0000
 Broyden mixing: mesh for mixing (old mesh)
   NGX = 69   NGY = 69   NGZ = 71
  (NGX  =216   NGY  =216   NGZ  =216)
  gives a total of 338031 points

 initial charge density was supplied:
 charge density of overlapping atoms calculated
 number of electron      21.0000000 magnetization       7.0000000
 keeping initial charge density in first step


--------------------------------------------------------------------------------------------------------


 Maximum index for augmentation-charges           621 (set IRDMAX)


--------------------------------------------------------------------------------------------------------


 First call to EWALD:  gamma=   0.082
 Maximum number of real-space cells 3x 3x 3
 Maximum number of reciprocal cells 3x 3x 3

    FEWALD:  cpu time    0.0007: real time    0.0007


--------------------------------------- Iteration      1(   1)  ---------------------------------------


    POTLOK:  cpu time    2.7580: real time    2.7669
    SETDIJ:  cpu time    0.0278: real time    0.0279
     EDDAV:  cpu time    1.5245: real time    1.5265
       DOS:  cpu time    0.0007: real time    0.0007
    --------------------------------------------
      LOOP:  cpu time    4.3111: real time    4.3220

 eigenvalue-minimisations  :   104
 total energy-change (2. order) : 0.3849313E+02  (-0.3389142E+03)
 number of electron      21.0000000 magnetization       7.0000000
 augmentation part       21.0000000 magnetization       7.0000000

 Free energy of the ion-electron system (eV)
  ---------------------------------------------------
  alpha Z        PSCENC =        -0.01642208
  Ewald energy   TEWEN  =       502.49539384
  -Hartree energ DENC   =      -744.19905824
  -exchange      EXHF   =         0.00000000
  -V(xc)+E(xc)   XCENC  =      -189.68754612
  PAW double counting   =       462.65713654     -238.99141827
  entropy T*S    EENTRO =         0.02347143
  eigenvalues    EBANDS =      -128.55550977
  atomic energy  EATOM  =       374.76708025
  Solvation  Ediel_sol  =         0.00000000
  ---------------------------------------------------
  free energy    TOTEN  =        38.49312757 eV

  energy without entropy =       38.46965614  energy(sigma->0) =       38.48530376


--------------------------------------------------------------------------------------------------------




--------------------------------------- Iteration      1(   2)  ---------------------------------------


     EDDAV:  cpu time    1.5196: real time    1.5221
       DOS:  cpu time    0.0011: real time    0.0011
    --------------------------------------------
      LOOP:  cpu time    1.5208: real time    1.5249

 eigenvalue-minimisations  :   110
 total energy-change (2. order) :-0.4801966E+02  (-0.4790399E+02)
 number of electron      21.0000000 magnetization       7.0000000
 augmentation part       21.0000000 magnetization       7.0000000

 Free energy of the ion-electron system (eV)
  ---------------------------------------------------
  alpha Z        PSCENC =        -0.01642208
  Ewald energy   TEWEN  =       502.49539384
  -Hartree energ DENC   =      -744.19905824
  -exchange      EXHF   =         0.00000000
  -V(xc)+E(xc)   XCENC  =      -189.68754612
  PAW double counting   =       462.65713654     -238.99141827
  entropy T*S    EENTRO =         0.03285057
  eigenvalues    EBANDS =      -176.58454939
  atomic energy  EATOM  =       374.76708025
  Solvation  Ediel_sol  =         0.00000000
  ---------------------------------------------------
  free energy    TOTEN  =        -9.52653290 eV

  energy without entropy =       -9.55938347  energy(sigma->0) =       -9.53748309


--------------------------------------------------------------------------------------------------------




--------------------------------------- Iteration      1(   3)  ---------------------------------------


     EDDAV:  cpu time    1.4541: real time    1.4582
       DOS:  cpu time    0.0010: real time    0.0010
    --------------------------------------------
      LOOP:  cpu time    1.4550: real time    1.4575

 eigenvalue-minimisations  :   104
 total energy-change (2. order) :-0.9514454E+01  (-0.9460593E+01)
 number of electron      21.0000000 magnetization       7.0000000
 augmentation part       21.0000000 magnetization       7.0000000

 Free energy of the ion-electron system (eV)
  ---------------------------------------------------
  alpha Z        PSCENC =        -0.01642208
  Ewald energy   TEWEN  =       502.49539384
  -Hartree energ DENC   =      -744.19905824
  -exchange      EXHF   =         0.00000000
  -V(xc)+E(xc)   XCENC  =      -189.68754612
  PAW double counting   =       462.65713654     -238.99141827
  entropy T*S    EENTRO =         0.00901128
  eigenvalues    EBANDS =      -186.07516445
  atomic energy  EATOM  =       374.76708025
  Solvation  Ediel_sol  =         0.00000000
  ---------------------------------------------------
  free energy    TOTEN  =       -19.04098726 eV

  energy without entropy =      -19.04999854  energy(sigma->0) =      -19.04399102


--------------------------------------------------------------------------------------------------------




--------------------------------------- Iteration      1(   4)  ---------------------------------------


     EDDAV:  cpu time    1.2260: real time    1.2324
       DOS:  cpu time    0.0006: real time    0.0006
    --------------------------------------------
      LOOP:  cpu time    1.2265: real time    1.2330

 eigenvalue-minimisations  :    82
 total energy-change (2. order) :-0.2394749E+00  (-0.2388417E+00)
 number of electron      21.0000000 magnetization       7.0000000
 augmentation part       21.0000000 magnetization       7.0000000

 Free energy of the ion-electron system (eV)
  ---------------------------------------------------
  alpha Z        PSCENC =        -0.01642208
  Ewald energy   TEWEN  =       502.49539384
  -Hartree energ DENC   =      -744.19905824
  -exchange      EXHF   =         0.00000000
  -V(xc)+E(xc)   XCENC  =      -189.68754612
  PAW double counting   =       462.65713654     -238.99141827
  entropy T*S    EENTRO =         0.01083185
  eigenvalues    EBANDS =      -186.31645992
  atomic energy  EATOM  =       374.76708025
  Solvation  Ediel_sol  =         0.00000000
  ---------------------------------------------------
  free energy    TOTEN  =       -19.28046216 eV

  energy without entropy =      -19.29129400  energy(sigma->0) =      -19.28407277


--------------------------------------------------------------------------------------------------------




--------------------------------------- Iteration      1(   5)  ---------------------------------------


     EDDAV:  cpu time    1.6216: real time    1.6234
       DOS:  cpu time    0.0008: real time    0.0008
    CHARGE:  cpu time    0.2862: real time    0.2865
    MIXING:  cpu time    0.0518: real time    0.0519
    --------------------------------------------
      LOOP:  cpu time    1.9605: real time    1.9626

 eigenvalue-minimisations  :   120
 total energy-change (2. order) :-0.1375223E-01  (-0.1375133E-01)
 number of electron      21.0000000 magnetization       6.2662291
 augmentation part       -0.3619521 magnetization       5.2747402

 Broyden mixing:
  rms(total) = 0.70683E+00    rms(broyden)= 0.70683E+00
  rms(prec ) = 0.84199E+00
  weight for this iteration     100.00

 Free energy of the ion-electron system (eV)
  ---------------------------------------------------
  alpha Z        PSCENC =        -0.01642208
  Ewald energy   TEWEN  =       502.49539384
  -Hartree energ DENC   =      -744.19905824
  -exchange      EXHF   =         0.00000000
  -V(xc)+E(xc)   XCENC  =      -189.68754612
  PAW double counting   =       462.65713654     -238.99141827
  entropy T*S    EENTRO =         0.01098999
  eigenvalues    EBANDS =      -186.33037029
  atomic energy  EATOM  =       374.76708025
  Solvation  Ediel_sol  =         0.00000000
  ---------------------------------------------------
  free energy    TOTEN  =       -19.29421439 eV

  energy without entropy =      -19.30520438  energy(sigma->0) =      -19.29787772


--------------------------------------------------------------------------------------------------------




--------------------------------------- Iteration      1(   6)  ---------------------------------------


    POTLOK:  cpu time    2.5962: real time    2.6142
    SETDIJ:  cpu time    0.0228: real time    0.0229
     EDDAV:  cpu time    1.1537: real time    1.1550
       DOS:  cpu time    0.0009: real time    0.0009
    CHARGE:  cpu time    0.2822: real time    0.2826
    MIXING:  cpu time    0.0559: real time    0.0559
    --------------------------------------------
      LOOP:  cpu time    4.1118: real time    4.1315

 eigenvalue-minimisations  :    74
 total energy-change (2. order) : 0.1067146E+02  (-0.2012686E+01)
 number of electron      21.0000000 magnetization       5.2751250
 augmentation part       -0.3738537 magnetization       4.2301659

 Broyden mixing:
  rms(total) = 0.37319E+00    rms(broyden)= 0.37319E+00
  rms(prec ) = 0.43623E+00
  weight for this iteration     100.00

 eigenvalues of (default mixing * dielectric matrix)
  average eigenvalue GAMMA=   1.2023
  1.2023

 Free energy of the ion-electron system (eV)
  ---------------------------------------------------
  alpha Z        PSCENC =        -0.01642208
  Ewald energy   TEWEN  =       502.49539384
  -Hartree energ DENC   =      -759.36757078
  -exchange      EXHF   =         0.00000000
  -V(xc)+E(xc)   XCENC  =      -182.80294562
  PAW double counting   =       594.05151220     -370.47578792
  entropy T*S    EENTRO =         0.01954405
  eigenvalues    EBANDS =      -167.29355756
  atomic energy  EATOM  =       374.76708025
  Solvation  Ediel_sol  =         0.00000000
  ---------------------------------------------------
  free energy    TOTEN  =        -8.62275362 eV

  energy without entropy =       -8.64229767  energy(sigma->0) =       -8.62926830


--------------------------------------------------------------------------------------------------------




--------------------------------------- Iteration      1(   7)  ---------------------------------------


    POTLOK:  cpu time    2.6010: real time    2.6118
    SETDIJ:  cpu time    0.0228: real time    0.0228
     EDDAV:  cpu time    1.1123: real time    1.1141
       DOS:  cpu time    0.0007: real time    0.0007
    CHARGE:  cpu time    0.2801: real time    0.2803
    MIXING:  cpu time    0.0616: real time    0.0617
    --------------------------------------------
      LOOP:  cpu time    4.0785: real time    4.0914

 eigenvalue-minimisations  :    72
 total energy-change (2. order) : 0.2602263E+01  (-0.5324822E+00)
 number of electron      21.0000000 magnetization       4.7464480
 augmentation part       -0.3667250 magnetization       3.7450845

 Broyden mixing:
  rms(total) = 0.19603E+00    rms(broyden)= 0.19603E+00
  rms(prec ) = 0.21147E+00
  weight for this iteration     100.00

 eigenvalues of (default mixing * dielectric matrix)
  average eigenvalue GAMMA=   1.2217
  0.7856  1.6578

 Free energy of the ion-electron system (eV)
  ---------------------------------------------------
  alpha Z        PSCENC =        -0.01642208
  Ewald energy   TEWEN  =       502.49539384
  -Hartree energ DENC   =      -774.05153405
  -exchange      EXHF   =         0.00000000
  -V(xc)+E(xc)   XCENC  =      -180.12267536
  PAW double counting   =       709.69122545     -486.21858799
  entropy T*S    EENTRO =         0.01810417
  eigenvalues    EBANDS =      -152.58307449
  atomic energy  EATOM  =       374.76708025
  Solvation  Ediel_sol  =         0.00000000
  ---------------------------------------------------
  free energy    TOTEN  =        -6.02049027 eV

  energy without entropy =       -6.03859444  energy(sigma->0) =       -6.02652499


--------------------------------------------------------------------------------------------------------




--------------------------------------- Iteration      1(   8)  ---------------------------------------


    POTLOK:  cpu time    2.5899: real time    2.5945
    SETDIJ:  cpu time    0.0227: real time    0.0227
     EDDAV:  cpu time    1.2982: real time    1.3036
       DOS:  cpu time    0.0009: real time    0.0009
    CHARGE:  cpu time    0.2787: real time    0.2789
    MIXING:  cpu time    0.0597: real time    0.0598
    --------------------------------------------
      LOOP:  cpu time    4.2500: real time    4.2603

 eigenvalue-minimisations  :    90
 total energy-change (2. order) :-0.2243207E+01  (-0.9773045E-01)
 number of electron      21.0000000 magnetization       3.9927118
 augmentation part       -0.3654938 magnetization       3.0945501

 Broyden mixing:
  rms(total) = 0.15380E+00    rms(broyden)= 0.15380E+00
  rms(prec ) = 0.16634E+00
  weight for this iteration     100.00

 eigenvalues of (default mixing * dielectric matrix)
  average eigenvalue GAMMA=   1.1784
  1.6100  1.2901  0.6352

 Free energy of the ion-electron system (eV)
  ---------------------------------------------------
  alpha Z        PSCENC =        -0.01642208
  Ewald energy   TEWEN  =       502.49539384
  -Hartree energ DENC   =      -776.69155403
  -exchange      EXHF   =         0.00000000
  -V(xc)+E(xc)   XCENC  =      -181.67992071
  PAW double counting   =       738.97836595     -515.51315334
  entropy T*S    EENTRO =         0.01606517
  eigenvalues    EBANDS =      -150.61955212
  atomic energy  EATOM  =       374.76708025
  Solvation  Ediel_sol  =         0.00000000
  ---------------------------------------------------
  free energy    TOTEN  =        -8.26369708 eV

  energy without entropy =       -8.27976225  energy(sigma->0) =       -8.26905213


--------------------------------------------------------------------------------------------------------




--------------------------------------- Iteration      1(   9)  ---------------------------------------


    POTLOK:  cpu time    2.5929: real time    2.5963
    SETDIJ:  cpu time    0.0229: real time    0.0229
     EDDAV:  cpu time    1.2142: real time    1.2154
       DOS:  cpu time    0.0010: real time    0.0010
    CHARGE:  cpu time    0.2750: real time    0.2752
    MIXING:  cpu time    0.0654: real time    0.0655
    --------------------------------------------
      LOOP:  cpu time    4.1713: real time    4.1763

 eigenvalue-minimisations  :    82
 total energy-change (2. order) :-0.3074965E+01  (-0.1223320E+00)
 number of electron      21.0000000 magnetization       3.3396812
 augmentation part       -0.3594309 magnetization       2.3512335

 Broyden mixing:
  rms(total) = 0.10081E+00    rms(broyden)= 0.10081E+00
  rms(prec ) = 0.10731E+00
  weight for this iteration     100.00

 eigenvalues of (default mixing * dielectric matrix)
  average eigenvalue GAMMA=   1.2652
  1.8271  1.8271  0.8223  0.5844

 Free energy of the ion-electron system (eV)
  ---------------------------------------------------
  alpha Z        PSCENC =        -0.01642208
  Ewald energy   TEWEN  =       502.49539384
  -Hartree energ DENC   =      -779.45872684
  -exchange      EXHF   =         0.00000000
  -V(xc)+E(xc)   XCENC  =      -183.85453086
  PAW double counting   =       767.44439917     -543.97754243
  entropy T*S    EENTRO =         0.00647061
  eigenvalues    EBANDS =      -148.74478391
  atomic energy  EATOM  =       374.76708025
  Solvation  Ediel_sol  =         0.00000000
  ---------------------------------------------------
  free energy    TOTEN  =       -11.33866225 eV

  energy without entropy =      -11.34513286  energy(sigma->0) =      -11.34081912


--------------------------------------------------------------------------------------------------------




--------------------------------------- Iteration      1(  10)  ---------------------------------------


    POTLOK:  cpu time    2.5915: real time    2.6075
    SETDIJ:  cpu time    0.0222: real time    0.0222
     EDDAV:  cpu time    1.1288: real time    1.1340
       DOS:  cpu time    0.0010: real time    0.0010
    CHARGE:  cpu time    0.2787: real time    0.2790
    MIXING:  cpu time    0.0686: real time    0.0686
    --------------------------------------------
      LOOP:  cpu time    4.0908: real time    4.1123

 eigenvalue-minimisations  :    74
 total energy-change (2. order) :-0.2465516E+01  (-0.1053408E+00)
 number of electron      21.0000000 magnetization       2.8965909
 augmentation part       -0.3553223 magnetization       1.9008211

 Broyden mixing:
  rms(total) = 0.71250E-01    rms(broyden)= 0.71250E-01
  rms(prec ) = 0.75328E-01
  weight for this iteration     100.00

 eigenvalues of (default mixing * dielectric matrix)
  average eigenvalue GAMMA=   1.3574
  2.1739  2.1739  1.0741  0.7594  0.6058

 Free energy of the ion-electron system (eV)
  ---------------------------------------------------
  alpha Z        PSCENC =        -0.01642208
  Ewald energy   TEWEN  =       502.49539384
  -Hartree energ DENC   =      -781.71447364
  -exchange      EXHF   =         0.00000000
  -V(xc)+E(xc)   XCENC  =      -185.59682786
  PAW double counting   =       793.13190459     -569.65455988
  entropy T*S    EENTRO =         0.00582526
  eigenvalues    EBANDS =      -147.22209876
  atomic energy  EATOM  =       374.76708025
  Solvation  Ediel_sol  =         0.00000000
  ---------------------------------------------------
  free energy    TOTEN  =       -13.80417828 eV

  energy without entropy =      -13.81000354  energy(sigma->0) =      -13.80612003


--------------------------------------------------------------------------------------------------------




--------------------------------------- Iteration      1(  11)  ---------------------------------------


    POTLOK:  cpu time    2.6045: real time    2.6149
    SETDIJ:  cpu time    0.0228: real time    0.0228
     EDDAV:  cpu time    1.1244: real time    1.1338
       DOS:  cpu time    0.0006: real time    0.0006
    CHARGE:  cpu time    0.2774: real time    0.2776
    MIXING:  cpu time    0.0713: real time    0.0713
    --------------------------------------------
      LOOP:  cpu time    4.1009: real time    4.1211

 eigenvalue-minimisations  :    74
 total energy-change (2. order) :-0.1399937E+01  (-0.4543098E-01)
 number of electron      21.0000000 magnetization       2.2333759
 augmentation part       -0.3540294 magnetization       1.2356058

 Broyden mixing:
  rms(total) = 0.54217E-01    rms(broyden)= 0.54217E-01
  rms(prec ) = 0.57829E-01
  weight for this iteration     100.00

 eigenvalues of (default mixing * dielectric matrix)
  average eigenvalue GAMMA=   1.5541
  2.7744  2.7744  1.5052  0.9159  0.7315  0.6233

 Free energy of the ion-electron system (eV)
  ---------------------------------------------------
  alpha Z        PSCENC =        -0.01642208
  Ewald energy   TEWEN  =       502.49539384
  -Hartree energ DENC   =      -782.18596702
  -exchange      EXHF   =         0.00000000
  -V(xc)+E(xc)   XCENC  =      -186.64941755
  PAW double counting   =       803.34453406     -579.84503162
  entropy T*S    EENTRO =         0.00580511
  eigenvalues    EBANDS =      -147.12009073
  atomic energy  EATOM  =       374.76708025
  Solvation  Ediel_sol  =         0.00000000
  ---------------------------------------------------
  free energy    TOTEN  =       -15.20411574 eV

  energy without entropy =      -15.20992085  energy(sigma->0) =      -15.20605078


--------------------------------------------------------------------------------------------------------




--------------------------------------- Iteration      1(  12)  ---------------------------------------


    POTLOK:  cpu time    2.5866: real time    2.5942
    SETDIJ:  cpu time    0.0260: real time    0.0261
     EDDAV:  cpu time    1.1442: real time    1.1454
       DOS:  cpu time    0.0009: real time    0.0009
    CHARGE:  cpu time    0.2788: real time    0.2791
    MIXING:  cpu time    0.0758: real time    0.0759
    --------------------------------------------
      LOOP:  cpu time    4.1123: real time    4.1215

 eigenvalue-minimisations  :    74
 total energy-change (2. order) :-0.1390169E+01  (-0.5613105E-01)
 number of electron      21.0000000 magnetization       1.8328804
 augmentation part       -0.3539487 magnetization       0.8335787

 Broyden mixing:
  rms(total) = 0.32477E-01    rms(broyden)= 0.32477E-01
  rms(prec ) = 0.33994E-01
  weight for this iteration     100.00

 eigenvalues of (default mixing * dielectric matrix)
  average eigenvalue GAMMA=   1.5915
  3.6288  2.5377  1.7582  1.0620  0.8731  0.6641  0.6167

 Free energy of the ion-electron system (eV)
  ---------------------------------------------------
  alpha Z        PSCENC =        -0.01642208
  Ewald energy   TEWEN  =       502.49539384
  -Hartree energ DENC   =      -781.65555673
  -exchange      EXHF   =         0.00000000
  -V(xc)+E(xc)   XCENC  =      -187.79364530
  PAW double counting   =       807.89778270     -584.36190047
  entropy T*S    EENTRO =         0.00580654
  eigenvalues    EBANDS =      -147.93282391
  atomic energy  EATOM  =       374.76708025
  Solvation  Ediel_sol  =         0.00000000
  ---------------------------------------------------
  free energy    TOTEN  =       -16.59428516 eV

  energy without entropy =      -16.60009170  energy(sigma->0) =      -16.59622067


--------------------------------------------------------------------------------------------------------




--------------------------------------- Iteration      1(  13)  ---------------------------------------


    POTLOK:  cpu time    2.5844: real time    2.5963
    SETDIJ:  cpu time    0.0232: real time    0.0232
     EDDAV:  cpu time    1.1355: real time    1.1366
       DOS:  cpu time    0.0008: real time    0.0008
    CHARGE:  cpu time    0.2894: real time    0.2899
    MIXING:  cpu time    0.0834: real time    0.0835
    --------------------------------------------
      LOOP:  cpu time    4.1166: real time    4.1303

 eigenvalue-minimisations  :    74
 total energy-change (2. order) :-0.3190648E+00  (-0.9323385E-02)
 number of electron      21.0000000 magnetization       1.5462612
 augmentation part       -0.3539108 magnetization       0.5463747

 Broyden mixing:
  rms(total) = 0.22842E-01    rms(broyden)= 0.22842E-01
  rms(prec ) = 0.24300E-01
  weight for this iteration     100.00

 eigenvalues of (default mixing * dielectric matrix)
  average eigenvalue GAMMA=   1.6049
  4.0948  2.2866  2.2866  1.0556  1.0556  0.8234  0.6240  0.6122

 Free energy of the ion-electron system (eV)
  ---------------------------------------------------
  alpha Z        PSCENC =        -0.01642208
  Ewald energy   TEWEN  =       502.49539384
  -Hartree energ DENC   =      -781.65640910
  -exchange      EXHF   =         0.00000000
  -V(xc)+E(xc)   XCENC  =      -188.04709350
  PAW double counting   =       809.85686421     -586.31504346
  entropy T*S    EENTRO =         0.00580971
  eigenvalues    EBANDS =      -148.00352982
  atomic energy  EATOM  =       374.76708025
  Solvation  Ediel_sol  =         0.00000000
  ---------------------------------------------------
  free energy    TOTEN  =       -16.91334994 eV

  energy without entropy =      -16.91915966  energy(sigma->0) =      -16.91528651


--------------------------------------------------------------------------------------------------------




--------------------------------------- Iteration      1(  14)  ---------------------------------------


    POTLOK:  cpu time    2.6583: real time    2.7825
    SETDIJ:  cpu time    0.0227: real time    0.0227
     EDDAV:  cpu time    1.1398: real time    1.1409
       DOS:  cpu time    0.0008: real time    0.0008
    CHARGE:  cpu time    0.2759: real time    0.2761
    MIXING:  cpu time    0.0858: real time    0.0859
    --------------------------------------------
      LOOP:  cpu time    4.1834: real time    4.3089

 eigenvalue-minimisations  :    74
 total energy-change (2. order) :-0.2908021E+00  (-0.2526919E-02)
 number of electron      21.0000000 magnetization       1.2688018
 augmentation part       -0.3541541 magnetization       0.2686925

 Broyden mixing:
  rms(total) = 0.14720E-01    rms(broyden)= 0.14719E-01
  rms(prec ) = 0.16007E-01
  weight for this iteration     100.00

 eigenvalues of (default mixing * dielectric matrix)
  average eigenvalue GAMMA=   1.7291
  5.1366  2.7083  2.2330  1.5808  0.9671  0.9671  0.7251  0.6217  0.6217

 Free energy of the ion-electron system (eV)
  ---------------------------------------------------
  alpha Z        PSCENC =        -0.01642208
  Ewald energy   TEWEN  =       502.49539384
  -Hartree energ DENC   =      -781.41093513
  -exchange      EXHF   =         0.00000000
  -V(xc)+E(xc)   XCENC  =      -188.33779982
  PAW double counting   =       805.11512978     -581.57701306
  entropy T*S    EENTRO =         0.00581485
  eigenvalues    EBANDS =      -148.24540068
  atomic energy  EATOM  =       374.76708025
  Solvation  Ediel_sol  =         0.00000000
  ---------------------------------------------------
  free energy    TOTEN  =       -17.20415205 eV

  energy without entropy =      -17.20996690  energy(sigma->0) =      -17.20609033


--------------------------------------------------------------------------------------------------------




--------------------------------------- Iteration      1(  15)  ---------------------------------------


    POTLOK:  cpu time    2.5878: real time    2.5989
    SETDIJ:  cpu time    0.0225: real time    0.0225
     EDDAV:  cpu time    1.2436: real time    1.2485
       DOS:  cpu time    0.0007: real time    0.0007
    CHARGE:  cpu time    0.2769: real time    0.2772
    MIXING:  cpu time    0.0918: real time    0.0919
    --------------------------------------------
      LOOP:  cpu time    4.2233: real time    4.2397

 eigenvalue-minimisations  :    84
 total energy-change (2. order) :-0.3839622E+00  (-0.2798138E-02)
 number of electron      21.0000000 magnetization       1.1497001
 augmentation part       -0.3545788 magnetization       0.1491700

 Broyden mixing:
  rms(total) = 0.76955E-02    rms(broyden)= 0.76955E-02
  rms(prec ) = 0.84165E-02
  weight for this iteration     100.00

 eigenvalues of (default mixing * dielectric matrix)
  average eigenvalue GAMMA=   1.8359
  6.3098  2.8618  2.1362  2.1362  1.0714  1.0714  0.8570  0.6721  0.6216  0.6216

 Free energy of the ion-electron system (eV)
  ---------------------------------------------------
  alpha Z        PSCENC =        -0.01642208
  Ewald energy   TEWEN  =       502.49539384
  -Hartree energ DENC   =      -780.80088512
  -exchange      EXHF   =         0.00000000
  -V(xc)+E(xc)   XCENC  =      -188.74613319
  PAW double counting   =       797.66956015     -574.13289541
  entropy T*S    EENTRO =         0.00582677
  eigenvalues    EBANDS =      -148.82963949
  atomic energy  EATOM  =       374.76708025
  Solvation  Ediel_sol  =         0.00000000
  ---------------------------------------------------
  free energy    TOTEN  =       -17.58811428 eV

  energy without entropy =      -17.59394105  energy(sigma->0) =      -17.59005654


--------------------------------------------------------------------------------------------------------




--------------------------------------- Iteration      1(  16)  ---------------------------------------


    POTLOK:  cpu time    2.6230: real time    2.6332
    SETDIJ:  cpu time    0.0184: real time    0.0184
     EDDAV:  cpu time    1.4204: real time    1.4218
       DOS:  cpu time    0.0016: real time    0.0016
    CHARGE:  cpu time    0.3116: real time    0.3122
    MIXING:  cpu time    0.0980: real time    0.0981
    --------------------------------------------
      LOOP:  cpu time    4.4730: real time    4.4853

 eigenvalue-minimisations  :    82
 total energy-change (2. order) :-0.1129416E+00  (-0.6921852E-03)
 number of electron      21.0000000 magnetization       1.0954616
 augmentation part       -0.3546038 magnetization       0.0947666

 Broyden mixing:
  rms(total) = 0.48607E-02    rms(broyden)= 0.48607E-02
  rms(prec ) = 0.57277E-02
  weight for this iteration     100.00

 eigenvalues of (default mixing * dielectric matrix)
  average eigenvalue GAMMA=   1.8112
  6.6800  2.7270  2.7270  1.9523  1.2390  0.9466  0.9466  0.8019  0.6117  0.6117
  0.6796

 Free energy of the ion-electron system (eV)
  ---------------------------------------------------
  alpha Z        PSCENC =        -0.01642208
  Ewald energy   TEWEN  =       502.49539384
  -Hartree energ DENC   =      -780.62179111
  -exchange      EXHF   =         0.00000000
  -V(xc)+E(xc)   XCENC  =      -188.86083222
  PAW double counting   =       796.17916344     -572.64406905
  entropy T*S    EENTRO =         0.00583326
  eigenvalues    EBANDS =      -149.00541219
  atomic energy  EATOM  =       374.76708025
  Solvation  Ediel_sol  =         0.00000000
  ---------------------------------------------------
  free energy    TOTEN  =       -17.70105586 eV

  energy without entropy =      -17.70688912  energy(sigma->0) =      -17.70300028


--------------------------------------------------------------------------------------------------------




--------------------------------------- Iteration      1(  17)  ---------------------------------------


    POTLOK:  cpu time    2.5980: real time    2.6076
    SETDIJ:  cpu time    0.0227: real time    0.0227
     EDDAV:  cpu time    1.1464: real time    1.1518
       DOS:  cpu time    0.0008: real time    0.0008
    CHARGE:  cpu time    0.2813: real time    0.2819
    MIXING:  cpu time    0.1036: real time    0.1037
    --------------------------------------------
      LOOP:  cpu time    4.1528: real time    4.1685

 eigenvalue-minimisations  :    74
 total energy-change (2. order) :-0.4884536E-01  (-0.2219385E-03)
 number of electron      21.0000000 magnetization       1.0410714
 augmentation part       -0.3545096 magnetization       0.0404261

 Broyden mixing:
  rms(total) = 0.27565E-02    rms(broyden)= 0.27565E-02
  rms(prec ) = 0.34500E-02
  weight for this iteration     100.00

 eigenvalues of (default mixing * dielectric matrix)
  average eigenvalue GAMMA=   1.8882
  7.2383  3.0192  3.0192  2.0492  1.7694  1.0106  1.0106  0.8280  0.8280  0.6579
  0.6140  0.6140

 Free energy of the ion-electron system (eV)
  ---------------------------------------------------
  alpha Z        PSCENC =        -0.01642208
  Ewald energy   TEWEN  =       502.49539384
  -Hartree energ DENC   =      -780.60104702
  -exchange      EXHF   =         0.00000000
  -V(xc)+E(xc)   XCENC  =      -188.90803421
  PAW double counting   =       796.90221427     -573.36926757
  entropy T*S    EENTRO =         0.00583542
  eigenvalues    EBANDS =      -149.02565411
  atomic energy  EATOM  =       374.76708025
  Solvation  Ediel_sol  =         0.00000000
  ---------------------------------------------------
  free energy    TOTEN  =       -17.74990121 eV

  energy without entropy =      -17.75573663  energy(sigma->0) =      -17.75184635


--------------------------------------------------------------------------------------------------------




--------------------------------------- Iteration      1(  18)  ---------------------------------------


    POTLOK:  cpu time    2.5690: real time    2.5798
    SETDIJ:  cpu time    0.0224: real time    0.0224
     EDDAV:  cpu time    1.2242: real time    1.2297
       DOS:  cpu time    0.0010: real time    0.0010
    CHARGE:  cpu time    0.2784: real time    0.2786
    MIXING:  cpu time    0.1148: real time    0.1149
    --------------------------------------------
      LOOP:  cpu time    4.2099: real time    4.2264

 eigenvalue-minimisations  :    82
 total energy-change (2. order) :-0.4203514E-01  (-0.1954129E-03)
 number of electron      21.0000000 magnetization       1.0249621
 augmentation part       -0.3545508 magnetization       0.0243197

 Broyden mixing:
  rms(total) = 0.15130E-02    rms(broyden)= 0.15130E-02
  rms(prec ) = 0.22144E-02
  weight for this iteration     100.00

 eigenvalues of (default mixing * dielectric matrix)
  average eigenvalue GAMMA=   1.8952
  7.5981  3.1714  3.1714  2.3741  1.7791  1.1754  0.9497  0.9497  0.7942  0.7942
  0.6434  0.6110  0.6268

 Free energy of the ion-electron system (eV)
  ---------------------------------------------------
  alpha Z        PSCENC =        -0.01642208
  Ewald energy   TEWEN  =       502.49539384
  -Hartree energ DENC   =      -780.44996238
  -exchange      EXHF   =         0.00000000
  -V(xc)+E(xc)   XCENC  =      -188.95613505
  PAW double counting   =       797.08756428     -573.55480077
  entropy T*S    EENTRO =         0.00583892
  eigenvalues    EBANDS =      -149.17049337
  atomic energy  EATOM  =       374.76708025
  Solvation  Ediel_sol  =         0.00000000
  ---------------------------------------------------
  free energy    TOTEN  =       -17.79193636 eV

  energy without entropy =      -17.79777528  energy(sigma->0) =      -17.79388266


--------------------------------------------------------------------------------------------------------




--------------------------------------- Iteration      1(  19)  ---------------------------------------


    POTLOK:  cpu time    2.5441: real time    2.5561
    SETDIJ:  cpu time    0.0231: real time    0.0231
     EDDAV:  cpu time    1.2278: real time    1.2292
       DOS:  cpu time    0.0010: real time    0.0010
    CHARGE:  cpu time    0.2733: real time    0.2776
    MIXING:  cpu time    0.1190: real time    0.1191
    --------------------------------------------
      LOOP:  cpu time    4.1882: real time    4.2060

 eigenvalue-minimisations  :    82
 total energy-change (2. order) :-0.7159614E-02  (-0.1798564E-04)
 number of electron      21.0000000 magnetization       1.0143981
 augmentation part       -0.3545765 magnetization       0.0137538

 Broyden mixing:
  rms(total) = 0.87509E-03    rms(broyden)= 0.87509E-03
  rms(prec ) = 0.13886E-02
  weight for this iteration     100.00

 eigenvalues of (default mixing * dielectric matrix)
  average eigenvalue GAMMA=   1.8870
  7.7578  3.7272  2.6923  2.6923  1.8749  1.3879  1.0126  0.9142  0.9142  0.8706
  0.7032  0.6108  0.6303  0.6303

 Free energy of the ion-electron system (eV)
  ---------------------------------------------------
  alpha Z        PSCENC =        -0.01642208
  Ewald energy   TEWEN  =       502.49539384
  -Hartree energ DENC   =      -780.33353274
  -exchange      EXHF   =         0.00000000
  -V(xc)+E(xc)   XCENC  =      -188.96708017
  PAW double counting   =       797.29989468     -573.76621528
  entropy T*S    EENTRO =         0.00584004
  eigenvalues    EBANDS =      -149.28405451
  atomic energy  EATOM  =       374.76708025
  Solvation  Ediel_sol  =         0.00000000
  ---------------------------------------------------
  free energy    TOTEN  =       -17.79909597 eV

  energy without entropy =      -17.80493601  energy(sigma->0) =      -17.80104265


--------------------------------------------------------------------------------------------------------




--------------------------------------- Iteration      1(  20)  ---------------------------------------


    POTLOK:  cpu time    2.5470: real time    2.5596
    SETDIJ:  cpu time    0.0228: real time    0.0228
     EDDAV:  cpu time    1.1482: real time    1.1499
       DOS:  cpu time    0.0005: real time    0.0030
    CHARGE:  cpu time    0.2812: real time    0.2815
    MIXING:  cpu time    0.1259: real time    0.1261
    --------------------------------------------
      LOOP:  cpu time    4.1256: real time    4.1430

 eigenvalue-minimisations  :    76
 total energy-change (2. order) :-0.1605752E-02  (-0.1339666E-04)
 number of electron      21.0000000 magnetization       1.0084556
 augmentation part       -0.3546122 magnetization       0.0077909

 Broyden mixing:
  rms(total) = 0.59294E-03    rms(broyden)= 0.59294E-03
  rms(prec ) = 0.89805E-03
  weight for this iteration     100.00

 eigenvalues of (default mixing * dielectric matrix)
  average eigenvalue GAMMA=   1.8842
  7.8640  4.1783  2.7380  2.3486  2.3486  1.3541  1.3541  0.9507  0.9507  0.8288
  0.8288  0.6802  0.6176  0.6176  0.6039

 Free energy of the ion-electron system (eV)
  ---------------------------------------------------
  alpha Z        PSCENC =        -0.01642208
  Ewald energy   TEWEN  =       502.49539384
  -Hartree energ DENC   =      -780.23588222
  -exchange      EXHF   =         0.00000000
  -V(xc)+E(xc)   XCENC  =      -188.97112383
  PAW double counting   =       797.58519721     -574.05090291
  entropy T*S    EENTRO =         0.00584032
  eigenvalues    EBANDS =      -149.37988230
  atomic energy  EATOM  =       374.76708025
  Solvation  Ediel_sol  =         0.00000000
  ---------------------------------------------------
  free energy    TOTEN  =       -17.80070172 eV

  energy without entropy =      -17.80654204  energy(sigma->0) =      -17.80264850


--------------------------------------------------------------------------------------------------------




--------------------------------------- Iteration      1(  21)  ---------------------------------------


    POTLOK:  cpu time    2.5672: real time    2.5704
    SETDIJ:  cpu time    0.0233: real time    0.0233
     EDDAV:  cpu time    0.9992: real time    1.0007
       DOS:  cpu time    0.0009: real time    0.0009
    CHARGE:  cpu time    0.2797: real time    0.2800
    MIXING:  cpu time    0.1355: real time    0.1356
    --------------------------------------------
      LOOP:  cpu time    4.0057: real time    4.0108

 eigenvalue-minimisations  :    60
 total energy-change (2. order) :-0.4189082E-03  (-0.4448407E-05)
 number of electron      21.0000000 magnetization       1.0041989
 augmentation part       -0.3546188 magnetization       0.0035365

 Broyden mixing:
  rms(total) = 0.38614E-03    rms(broyden)= 0.38614E-03
  rms(prec ) = 0.59028E-03
  weight for this iteration     100.00

 eigenvalues of (default mixing * dielectric matrix)
  average eigenvalue GAMMA=   1.9012
  7.8787  4.5187  2.6245  2.5640  2.5640  1.5816  1.5816  1.0546  0.9462  0.9462
  0.8213  0.8213  0.6701  0.6214  0.6214  0.6043

 Free energy of the ion-electron system (eV)
  ---------------------------------------------------
  alpha Z        PSCENC =        -0.01642208
  Ewald energy   TEWEN  =       502.49539384
  -Hartree energ DENC   =      -780.18752856
  -exchange      EXHF   =         0.00000000
  -V(xc)+E(xc)   XCENC  =      -188.97315725
  PAW double counting   =       797.68062822     -574.14642816
  entropy T*S    EENTRO =         0.00584048
  eigenvalues    EBANDS =      -149.42652736
  atomic energy  EATOM  =       374.76708025
  Solvation  Ediel_sol  =         0.00000000
  ---------------------------------------------------
  free energy    TOTEN  =       -17.80112063 eV

  energy without entropy =      -17.80696111  energy(sigma->0) =      -17.80306746


--------------------------------------------------------------------------------------------------------




--------------------------------------- Iteration      1(  22)  ---------------------------------------


    POTLOK:  cpu time    2.5576: real time    2.5659
    SETDIJ:  cpu time    0.0223: real time    0.0223
     EDDAV:  cpu time    0.9874: real time    0.9931
       DOS:  cpu time    0.0009: real time    0.0009
    CHARGE:  cpu time    0.2790: real time    0.2793
    MIXING:  cpu time    0.1437: real time    0.1438
    --------------------------------------------
      LOOP:  cpu time    3.9909: real time    4.0052

 eigenvalue-minimisations  :    60
 total energy-change (2. order) :-0.6854880E-03  (-0.4736674E-05)
 number of electron      21.0000000 magnetization       1.0023255
 augmentation part       -0.3546373 magnetization       0.0016652

 Broyden mixing:
  rms(total) = 0.24936E-03    rms(broyden)= 0.24936E-03
  rms(prec ) = 0.34694E-03
  weight for this iteration     100.00

 eigenvalues of (default mixing * dielectric matrix)
  average eigenvalue GAMMA=   1.9173
  7.8763  4.9730  3.1046  2.6000  2.6000  1.7975  1.6165  1.1864  0.9425  0.9425
  0.8433  0.8433  0.7634  0.6537  0.6246  0.6246  0.6024

 Free energy of the ion-electron system (eV)
  ---------------------------------------------------
  alpha Z        PSCENC =        -0.01642208
  Ewald energy   TEWEN  =       502.49539384
  -Hartree energ DENC   =      -780.12753381
  -exchange      EXHF   =         0.00000000
  -V(xc)+E(xc)   XCENC  =      -188.97603327
  PAW double counting   =       797.58820700     -574.05403753
  entropy T*S    EENTRO =         0.00584092
  eigenvalues    EBANDS =      -149.48430144
  atomic energy  EATOM  =       374.76708025
  Solvation  Ediel_sol  =         0.00000000
  ---------------------------------------------------
  free energy    TOTEN  =       -17.80180612 eV

  energy without entropy =      -17.80764704  energy(sigma->0) =      -17.80375309


--------------------------------------------------------------------------------------------------------




--------------------------------------- Iteration      1(  23)  ---------------------------------------


    POTLOK:  cpu time    2.5323: real time    2.5388
    SETDIJ:  cpu time    0.0230: real time    0.0230
     EDDAV:  cpu time    0.9047: real time    0.9064
       DOS:  cpu time    0.0009: real time    0.0009
    CHARGE:  cpu time    0.2773: real time    0.2775
    MIXING:  cpu time    0.1520: real time    0.1521
    --------------------------------------------
      LOOP:  cpu time    3.8901: real time    3.8987

 eigenvalue-minimisations  :    52
 total energy-change (2. order) :-0.4339690E-03  (-0.1547129E-05)
 number of electron      21.0000000 magnetization       1.0013416
 augmentation part       -0.3546437 magnetization       0.0006802

 Broyden mixing:
  rms(total) = 0.14695E-03    rms(broyden)= 0.14695E-03
  rms(prec ) = 0.20816E-03
  weight for this iteration     100.00

 eigenvalues of (default mixing * dielectric matrix)
  average eigenvalue GAMMA=   1.9603
  7.8759  5.6276  3.5570  2.6944  2.6944  2.0621  1.4996  1.4996  0.9426  0.9426
  0.9284  0.8750  0.8750  0.7132  0.6513  0.6221  0.6221  0.6017

 Free energy of the ion-electron system (eV)
  ---------------------------------------------------
  alpha Z        PSCENC =        -0.01642208
  Ewald energy   TEWEN  =       502.49539384
  -Hartree energ DENC   =      -780.10311405
  -exchange      EXHF   =         0.00000000
  -V(xc)+E(xc)   XCENC  =      -188.97713921
  PAW double counting   =       797.54704830     -574.01306249
  entropy T*S    EENTRO =         0.00584108
  eigenvalues    EBANDS =      -149.50786574
  atomic energy  EATOM  =       374.76708025
  Solvation  Ediel_sol  =         0.00000000
  ---------------------------------------------------
  free energy    TOTEN  =       -17.80224009 eV

  energy without entropy =      -17.80808117  energy(sigma->0) =      -17.80418712


--------------------------------------------------------------------------------------------------------




--------------------------------------- Iteration      1(  24)  ---------------------------------------


    POTLOK:  cpu time    2.5344: real time    2.5462
    SETDIJ:  cpu time    0.0224: real time    0.0224
     EDDAV:  cpu time    0.8026: real time    0.8040
       DOS:  cpu time    0.0012: real time    0.0012
    CHARGE:  cpu time    0.2827: real time    0.2829
    MIXING:  cpu time    0.1611: real time    0.1613
    --------------------------------------------
      LOOP:  cpu time    3.8043: real time    3.8180

 eigenvalue-minimisations  :    42
 total energy-change (2. order) :-0.2547550E-03  (-0.6089627E-06)
 number of electron      21.0000000 magnetization       1.0007758
 augmentation part       -0.3546446 magnetization       0.0001129

 Broyden mixing:
  rms(total) = 0.85962E-04    rms(broyden)= 0.85961E-04
  rms(prec ) = 0.13025E-03
  weight for this iteration     100.00

 eigenvalues of (default mixing * dielectric matrix)
  average eigenvalue GAMMA=   2.0074
  7.9260  6.5632  3.9273  2.7532  2.7532  2.3486  1.6677  1.3532  1.2086  0.9341
  0.9341  0.9813  0.8181  0.8181  0.6708  0.6405  0.6201  0.6201  0.6024

 Free energy of the ion-electron system (eV)
  ---------------------------------------------------
  alpha Z        PSCENC =        -0.01642208
  Ewald energy   TEWEN  =       502.49539384
  -Hartree energ DENC   =      -780.09148425
  -exchange      EXHF   =         0.00000000
  -V(xc)+E(xc)   XCENC  =      -188.97772347
  PAW double counting   =       797.52597744     -573.99209059
  entropy T*S    EENTRO =         0.00584119
  eigenvalues    EBANDS =      -149.51906717
  atomic energy  EATOM  =       374.76708025
  Solvation  Ediel_sol  =         0.00000000
  ---------------------------------------------------
  free energy    TOTEN  =       -17.80249484 eV

  energy without entropy =      -17.80833603  energy(sigma->0) =      -17.80444191


--------------------------------------------------------------------------------------------------------




--------------------------------------- Iteration      1(  25)  ---------------------------------------


    POTLOK:  cpu time    2.5348: real time    2.5440
    SETDIJ:  cpu time    0.0230: real time    0.0230
     EDDAV:  cpu time    0.8866: real time    0.8918
       DOS:  cpu time    0.0007: real time    0.0007
    --------------------------------------------
      LOOP:  cpu time    3.4452: real time    3.4595

 eigenvalue-minimisations  :    50
 total energy-change (2. order) :-0.6352375E-04  (-0.3027609E-06)
 number of electron      21.0000000 magnetization       1.0007758
 augmentation part       -0.3546446 magnetization       0.0001129

 Free energy of the ion-electron system (eV)
  ---------------------------------------------------
  alpha Z        PSCENC =        -0.01642208
  Ewald energy   TEWEN  =       502.49539384
  -Hartree energ DENC   =      -780.08510504
  -exchange      EXHF   =         0.00000000
  -V(xc)+E(xc)   XCENC  =      -188.97804669
  PAW double counting   =       797.52817821     -573.99430541
  entropy T*S    EENTRO =         0.00584123
  eigenvalues    EBANDS =      -149.52517269
  atomic energy  EATOM  =       374.76708025
  Solvation  Ediel_sol  =         0.00000000
  ---------------------------------------------------
  free energy    TOTEN  =       -17.80255837 eV

  energy without entropy =      -17.80839960  energy(sigma->0) =      -17.80450545


--------------------------------------------------------------------------------------------------------




 average (electrostatic) potential at core
  the test charge radii are     1.0406
  (the norm of the test charge is              1.0000)
       1 -84.3638       2 -84.6092       3 -84.5036       4 -84.5073       5 -84.3644
       6 -84.5044       7 -84.3630
 
 
 
 E-fermi :  -4.0185     XC(G=0):  -0.3487     alpha+bet : -0.1714


 spin component 1

 k-point     1 :       0.0000    0.0000    0.0000
  band No.  band energies     occupation 
      1     -12.3342      1.00000
      2      -9.6960      1.00000
      3      -8.8600      1.00000
      4      -8.8562      1.00000
      5      -6.6416      1.00000
      6      -5.9592      1.00000
      7      -5.9571      1.00000
      8      -5.0223      1.00000
      9      -4.9363      1.00000
     10      -4.9354      1.00000
     11      -4.1870      1.00005
     12      -3.3298     -0.00001
     13      -3.3267     -0.00001
     14      -2.9810     -0.00000
     15      -2.3254     -0.00000
     16      -2.3208     -0.00000
     17      -1.5940     -0.00000
     18      -0.8183     -0.00000

 spin component 2

 k-point     1 :       0.0000    0.0000    0.0000
  band No.  band energies     occupation 
      1     -12.2231      1.00000
      2      -9.4739      1.00000
      3      -8.8105      1.00000
      4      -8.8069      1.00000
      5      -6.2781      1.00000
      6      -5.8894      1.00000
      7      -5.8872      1.00000
      8      -4.9774      1.00000
      9      -4.8972      1.00000
     10      -4.8963      1.00000
     11      -3.3884     -0.00004
     12      -3.1994     -0.00000
     13      -3.1967     -0.00000
     14      -2.9231     -0.00000
     15      -2.2317     -0.00000
     16      -2.2279     -0.00000
     17      -1.5930     -0.00000
     18      -0.7729     -0.00000


--------------------------------------------------------------------------------------------------------


 soft charge-density along one line, spin component            1
         0         1         2         3         4         5         6         7         8         9
 total charge-density along one line
 
 soft charge-density along one line, spin component            2
         0         1         2         3         4         5         6         7         8         9
 total charge-density along one line
 
 pseudopotential strength for first ion, spin component:            1
  8.850  15.102   0.001   0.003  -0.002   0.003   0.010  -0.007
 15.102  25.771   0.002   0.006  -0.004   0.006   0.016  -0.013
  0.001   0.002   1.974   0.000  -0.000   5.772   0.000  -0.001
  0.003   0.006   0.000   1.974  -0.001   0.000   5.773  -0.002
 -0.002  -0.004  -0.000  -0.001   1.974  -0.001  -0.002   5.771
  0.003   0.006   5.772   0.000  -0.001  16.745   0.001  -0.002
  0.010   0.016   0.000   5.773  -0.002   0.001  16.748  -0.005
 -0.007  -0.013  -0.001  -0.002   5.771  -0.002  -0.005  16.744
 pseudopotential strength for first ion, spin component:            2
  8.849  15.100   0.001   0.003  -0.002   0.004   0.010  -0.007
 15.100  25.767   0.002   0.006  -0.004   0.006   0.018  -0.013
  0.001   0.002   1.974   0.000  -0.000   5.771   0.000  -0.001
  0.003   0.006   0.000   1.974  -0.001   0.000   5.772  -0.002
 -0.002  -0.004  -0.000  -0.001   1.973  -0.001  -0.002   5.770
  0.004   0.006   5.771   0.000  -0.001  16.742   0.001  -0.002
  0.010   0.018   0.000   5.772  -0.002   0.001  16.744  -0.006
 -0.007  -0.013  -0.001  -0.002   5.770  -0.002  -0.006  16.740
 total augmentation occupancy for first ion, spin component:            1
  3.009  -0.559  -0.117  -0.338   0.203   0.017   0.051  -0.031
 -0.559   0.173   0.066   0.194  -0.103  -0.006  -0.017   0.010
 -0.117   0.066   0.836  -0.021   0.043  -0.043   0.000  -0.002
 -0.338   0.194  -0.021   0.793   0.151   0.000  -0.043  -0.007
  0.203  -0.103   0.043   0.151   1.033  -0.002  -0.006  -0.060
  0.017  -0.006  -0.043   0.000  -0.002   0.002   0.000  -0.000
  0.051  -0.017   0.000  -0.043  -0.006   0.000   0.003   0.000
 -0.031   0.010  -0.002  -0.007  -0.060  -0.000   0.000   0.004
 total augmentation occupancy for first ion, spin component:            2
  0.051  -0.020  -0.006  -0.018  -0.004   0.000   0.001  -0.000
 -0.020   0.005   0.001   0.001  -0.005  -0.000  -0.000   0.000
 -0.006   0.001  -0.005   0.007   0.016  -0.000  -0.000  -0.001
 -0.018   0.001   0.007   0.021   0.058  -0.000  -0.002  -0.002
 -0.004  -0.005   0.016   0.058   0.090  -0.001  -0.002  -0.003
  0.000  -0.000  -0.000  -0.000  -0.001   0.000   0.000   0.000
  0.001  -0.000  -0.000  -0.002  -0.002   0.000   0.000   0.000
 -0.000   0.000  -0.001  -0.002  -0.003   0.000   0.000   0.000


------------------------ aborting loop because EDIFF is reached ----------------------------------------


    CHARGE:  cpu time    0.2790: real time    0.2794
    FORLOC:  cpu time    0.0719: real time    0.0720
    FORNL :  cpu time    0.2618: real time    0.2620
    FORCOR:  cpu time    2.4441: real time    2.4583
    FORHAR:  cpu time    0.3073: real time    0.3075
    MIXING:  cpu time    0.1560: real time    0.1561
    OFIELD:  cpu time    0.0000: real time    0.0000

 VOLUME and BASIS-vectors are now :
 -----------------------------------------------------------------------------
  energy-cutoff  :      400.00
  volume of cell :    10021.97
      direct lattice vectors                 reciprocal lattice vectors
    21.433949823  0.000000000  0.000000000     0.046654957  0.000000000  0.000000000
     0.000000000 21.408281684  0.000000000     0.000000000  0.046710895  0.000000000
     0.000000000  0.000000000 21.840834240     0.000000000  0.000000000  0.045785797

  length of vectors
    21.433949823 21.408281684 21.840834240     0.046654957  0.046710895  0.045785797


 FORCES acting on ions
    electron-ion (+dipol)            ewald-force                    non-local-force                 convergence-correction
 -----------------------------------------------------------------------------------------------
   0.276E+02 -.189E+02 -.555E+02   -.259E+02 0.181E+02 0.533E+02   -.176E+01 0.783E+00 0.222E+01   -.566E-04 0.169E-04 0.457E-04
   0.628E+02 0.256E+00 0.647E+01   -.605E+02 -.246E+00 -.623E+01   -.232E+01 -.110E-01 -.237E+00   0.193E-05 0.113E-04 -.174E-05
   -.424E+02 -.522E+02 -.153E+02   0.391E+02 0.497E+02 0.144E+02   0.327E+01 0.247E+01 0.845E+00   0.148E-03 0.428E-05 0.131E-04
   -.487E+02 0.164E+02 0.459E+02   0.452E+02 -.157E+02 -.439E+02   0.357E+01 -.759E+00 -.201E+01   0.149E-03 0.283E-05 0.158E-04
   0.173E+02 -.406E+02 0.474E+02   -.159E+02 0.390E+02 -.454E+02   -.134E+01 0.165E+01 -.200E+01   -.542E-04 0.352E-04 -.445E-04
   -.399E+02 0.352E+02 -.439E+02   0.367E+02 -.336E+02 0.417E+02   0.316E+01 -.167E+01 0.219E+01   0.150E-03 -.337E-05 0.178E-04
   0.202E+02 0.597E+02 0.145E+02   -.187E+02 -.573E+02 -.139E+02   -.145E+01 -.245E+01 -.649E+00   -.450E-04 -.501E-04 -.126E-04
 -----------------------------------------------------------------------------------------------
   -.313E+01 -.173E-01 -.351E+00   0.355E-14 -.142E-13 0.711E-14   0.313E+01 0.172E-01 0.350E+00   0.294E-03 0.170E-04 0.337E-04
 
 
 POSITION                                       TOTAL-FORCE (eV/Angst)
 -----------------------------------------------------------------------------------
      9.90470     11.58339     11.98603        -0.012289      0.013229      0.017457
      8.02780     11.05364     10.18915         0.003125     -0.001163      0.000109
     12.03165     12.60557     10.92087         0.010380      0.009605      0.005339
     12.22054     10.57833      9.11384         0.001887      0.000172      0.002988
     10.19103     12.18509      9.15349        -0.008133      0.011083     -0.019350
     11.95783     10.02569     11.76661         0.012746     -0.011041      0.000575
     10.11034      9.41643     10.05885        -0.007716     -0.021885     -0.007118
 -----------------------------------------------------------------------------------
    total drift:                                0.000521     -0.000048     -0.000122


--------------------------------------------------------------------------------------------------------



  FREE ENERGIE OF THE ION-ELECTRON SYSTEM (eV)
  ---------------------------------------------------
  free  energy   TOTEN  =       -17.80255837 eV

  energy  without entropy=      -17.80839960  energy(sigma->0) =      -17.80450545
 


--------------------------------------------------------------------------------------------------------


    POTLOK:  cpu time    2.5721: real time    2.5851


--------------------------------------------------------------------------------------------------------




--------------------------------------------------------------------------------------------------------


    WAVPRE:  cpu time    0.1582: real time    0.1696
    FEWALD:  cpu time    0.0078: real time    0.0078
    ORTHCH:  cpu time    0.0332: real time    0.0332
     LOOP+:  cpu time   98.4926: real time   98.9504


--------------------------------------- Iteration      2(   1)  ---------------------------------------


    POTLOK:  cpu time    2.6015: real time    2.6039
    SETDIJ:  cpu time    0.0226: real time    0.0226
     EDDAV:  cpu time    1.1514: real time    1.1531
       DOS:  cpu time    0.0009: real time    0.0009
    CHARGE:  cpu time    0.2768: real time    0.2770
    MIXING:  cpu time    0.0513: real time    0.0540
    --------------------------------------------
      LOOP:  cpu time    4.1046: real time    4.1115

 eigenvalue-minimisations  :    72
 total energy-change (2. order) :-0.1577635E-03  (-0.8294330E-04)
 number of electron      21.0000000 magnetization       1.0005912
 augmentation part       -0.3546866 magnetization      -0.0000623

 Broyden mixing:
  rms(total) = 0.78006E-03    rms(broyden)= 0.78002E-03
  rms(prec ) = 0.97459E-03
  weight for this iteration     100.00

 Free energy of the ion-electron system (eV)
  ---------------------------------------------------
  alpha Z        PSCENC =        -0.01642208
  Ewald energy   TEWEN  =       502.20554540
  -Hartree energ DENC   =      -779.83959656
  -exchange      EXHF   =         0.00000000
  -V(xc)+E(xc)   XCENC  =      -188.98399154
  PAW double counting   =       797.56039150     -574.02648641
  entropy T*S    EENTRO =         0.00584163
  eigenvalues    EBANDS =      -149.47501480
  atomic energy  EATOM  =       374.76708025
  Solvation  Ediel_sol  =         0.00000000
  ---------------------------------------------------
  free energy    TOTEN  =       -17.80265261 eV

  energy without entropy =      -17.80849424  energy(sigma->0) =      -17.80459982


--------------------------------------------------------------------------------------------------------




--------------------------------------- Iteration      2(   2)  ---------------------------------------


    POTLOK:  cpu time    2.5412: real time    2.5502
    SETDIJ:  cpu time    0.0222: real time    0.0222
     EDDAV:  cpu time    0.7633: real time    0.7645
       DOS:  cpu time    0.0009: real time    0.0009
    --------------------------------------------
      LOOP:  cpu time    3.3275: real time    3.3377

 eigenvalue-minimisations  :    38
 total energy-change (2. order) :-0.1895218E-04  (-0.4146077E-05)
 number of electron      21.0000000 magnetization       1.0005912
 augmentation part       -0.3546866 magnetization      -0.0000623

 Free energy of the ion-electron system (eV)
[...]
  8.849  15.100   0.001   0.004  -0.002   0.004   0.010  -0.007
 15.100  25.767   0.002   0.006  -0.004   0.006   0.018  -0.013
  0.001   0.002   1.974   0.000  -0.000   5.771   0.000  -0.001
  0.004   0.006   0.000   1.974  -0.001   0.000   5.772  -0.002
 -0.002  -0.004  -0.000  -0.001   1.973  -0.001  -0.002   5.770
  0.004   0.006   5.771   0.000  -0.001  16.742   0.001  -0.002
  0.010   0.018   0.000   5.772  -0.002   0.001  16.744  -0.006
 -0.007  -0.013  -0.001  -0.002   5.770  -0.002  -0.006  16.740
 total augmentation occupancy for first ion, spin component:            1
  3.006  -0.558  -0.120  -0.341   0.205   0.018   0.051  -0.032
 -0.558   0.173   0.068   0.195  -0.103  -0.006  -0.017   0.010
 -0.120   0.068   0.835  -0.021   0.044  -0.043   0.000  -0.002
 -0.341   0.195  -0.021   0.792   0.151   0.000  -0.043  -0.007
  0.205  -0.103   0.044   0.151   1.032  -0.002  -0.006  -0.060
  0.018  -0.006  -0.043   0.000  -0.002   0.002   0.000  -0.000
  0.051  -0.017   0.000  -0.043  -0.006   0.000   0.003   0.000
 -0.032   0.010  -0.002  -0.007  -0.060  -0.000   0.000   0.004
 total augmentation occupancy for first ion, spin component:            2
  0.052  -0.020  -0.006  -0.017  -0.004   0.000   0.001  -0.000
 -0.020   0.005   0.001   0.001  -0.005  -0.000  -0.000   0.000
 -0.006   0.001  -0.005   0.007   0.016  -0.000  -0.000  -0.001
 -0.017   0.001   0.007   0.021   0.058  -0.000  -0.002  -0.002
 -0.004  -0.005   0.016   0.058   0.090  -0.001  -0.002  -0.003
  0.000  -0.000  -0.000  -0.000  -0.001   0.000   0.000   0.000
  0.001  -0.000  -0.000  -0.002  -0.002   0.000   0.000   0.000
 -0.000   0.000  -0.001  -0.002  -0.003   0.000   0.000   0.000


------------------------ aborting loop because EDIFF is reached ----------------------------------------


    CHARGE:  cpu time    0.2845: real time    0.2848
    FORLOC:  cpu time    0.0755: real time    0.0757
    FORNL :  cpu time    0.2658: real time    0.2661
    FORCOR:  cpu time    2.6341: real time    2.6371
    FORHAR:  cpu time    0.3091: real time    0.3093
    MIXING:  cpu time    0.0400: real time    0.0441
    OFIELD:  cpu time    0.0000: real time    0.0000

 VOLUME and BASIS-vectors are now :
 -----------------------------------------------------------------------------
  energy-cutoff  :      400.00
  volume of cell :    10021.97
      direct lattice vectors                 reciprocal lattice vectors
    21.433949823  0.000000000  0.000000000     0.046654957  0.000000000  0.000000000
     0.000000000 21.408281684  0.000000000     0.000000000  0.046710895  0.000000000
     0.000000000  0.000000000 21.840834240     0.000000000  0.000000000  0.045785797

  length of vectors
    21.433949823 21.408281684 21.840834240     0.046654957  0.046710895  0.045785797


 FORCES acting on ions
    electron-ion (+dipol)            ewald-force                    non-local-force                 convergence-correction
 -----------------------------------------------------------------------------------------------
   0.276E+02 -.189E+02 -.554E+02   -.259E+02 0.181E+02 0.532E+02   -.174E+01 0.775E+00 0.220E+01   0.367E-02 -.178E-02 -.487E-02
   0.628E+02 0.259E+00 0.646E+01   -.605E+02 -.249E+00 -.622E+01   -.231E+01 -.113E-01 -.236E+00   0.504E-02 -.194E-03 0.216E-03
   -.423E+02 -.521E+02 -.152E+02   0.391E+02 0.497E+02 0.144E+02   0.326E+01 0.245E+01 0.840E+00   -.447E-02 -.368E-02 -.126E-02
   -.487E+02 0.164E+02 0.459E+02   0.451E+02 -.157E+02 -.439E+02   0.356E+01 -.756E+00 -.200E+01   -.425E-02 0.105E-02 0.282E-02
   0.172E+02 -.406E+02 0.473E+02   -.159E+02 0.389E+02 -.454E+02   -.133E+01 0.165E+01 -.199E+01   0.205E-02 -.282E-02 0.403E-02
   -.398E+02 0.352E+02 -.439E+02   0.367E+02 -.336E+02 0.417E+02   0.314E+01 -.166E+01 0.218E+01   -.449E-02 0.274E-02 -.322E-02
   0.201E+02 0.597E+02 0.145E+02   -.187E+02 -.573E+02 -.139E+02   -.144E+01 -.244E+01 -.645E+00   0.200E-02 0.437E-02 0.123E-02
 -----------------------------------------------------------------------------------------------
   -.313E+01 -.142E-01 -.342E+00   0.711E-14 0.000E+00 -.213E-13   0.313E+01 0.144E-01 0.342E+00   -.441E-03 -.314E-03 -.105E-02
 
 
 POSITION                                       TOTAL-FORCE (eV/Angst)
 -----------------------------------------------------------------------------------
      9.90410     11.58403     11.98687        -0.004464      0.009128      0.011961
      8.02795     11.05358     10.18915         0.002328     -0.001133      0.000261
     12.03215     12.60603     10.92113         0.003996      0.004861      0.003296
     12.22063     10.57834      9.11399        -0.001284      0.001527      0.003249
     10.19064     12.18562      9.15255        -0.002551      0.007375     -0.013313
     11.95845     10.02516     11.76663         0.005318     -0.006629     -0.001316
     10.10997      9.41537     10.05851        -0.003343     -0.015129     -0.004138
 -----------------------------------------------------------------------------------
    total drift:                                0.000847     -0.000112     -0.000347


--------------------------------------------------------------------------------------------------------



  FREE ENERGIE OF THE ION-ELECTRON SYSTEM (eV)
  ---------------------------------------------------
  free  energy   TOTEN  =       -17.80267156 eV

  energy  without entropy=      -17.80851332  energy(sigma->0) =      -17.80461881
 
 d Force = 0.8956604E-04[ 0.672E-04, 0.112E-03]  d Energy = 0.1131919E-03-0.236E-04
 d Force = 0.2898485E+00[ 0.290E+00, 0.290E+00]  d Ewald  = 0.2898484E+00 0.276E-07


--------------------------------------------------------------------------------------------------------


    POTLOK:  cpu time    2.5669: real time    2.5741


--------------------------------------------------------------------------------------------------------


 Steepest descent step on ions:
 trial-energy change:   -0.000113  1 .order   -0.000090   -0.000112   -0.000067
  (g-gl).g = 0.112E-03      g.g   = 0.112E-03  gl.gl    = 0.000E+00
 g(Force)  = 0.112E-03   g(Stress)= 0.000E+00 ortho     = 0.000E+00
 gamma     =   0.00000
 trial     =   1.00000
 opt step  =   2.50251  (harmonic =   2.50251) maximal distance =0.00210749
 next E    =   -17.802698   (d E  =  -0.00014)


--------------------------------------------------------------------------------------------------------


    WAVPRE:  cpu time    0.1599: real time    0.1688
    FEWALD:  cpu time    0.0074: real time    0.0074
    ORTHCH:  cpu time    0.0368: real time    0.0368
     LOOP+:  cpu time   13.8133: real time   13.8645


--------------------------------------- Iteration      3(   1)  ---------------------------------------


    POTLOK:  cpu time    2.5502: real time    2.5529
    SETDIJ:  cpu time    0.0230: real time    0.0231
     EDDAV:  cpu time    1.1260: real time    1.1314
       DOS:  cpu time    0.0008: real time    0.0008
    CHARGE:  cpu time    0.2775: real time    0.2778
    MIXING:  cpu time    0.0552: real time    0.0553
    --------------------------------------------
      LOOP:  cpu time    4.0326: real time    4.0412

 eigenvalue-minimisations  :    72
 total energy-change (2. order) :-0.7765075E-04  (-0.1755194E-03)
 number of electron      21.0000000 magnetization       1.0004518
 augmentation part       -0.3548095 magnetization      -0.0001955

 Broyden mixing:
  rms(total) = 0.11913E-02    rms(broyden)= 0.11912E-02
  rms(prec ) = 0.14609E-02
  weight for this iteration     100.00

 Free energy of the ion-electron system (eV)
  ---------------------------------------------------
  alpha Z        PSCENC =        -0.01642208
  Ewald energy   TEWEN  =       501.77044785
  -Hartree energ DENC   =      -779.44227652
  -exchange      EXHF   =         0.00000000
  -V(xc)+E(xc)   XCENC  =      -188.99378584
  PAW double counting   =       796.86094619     -573.32640749
  entropy T*S    EENTRO =         0.00584242
  eigenvalues    EBANDS =      -149.42815505
  atomic energy  EATOM  =       374.76708025
  Solvation  Ediel_sol  =         0.00000000
  ---------------------------------------------------
  free energy    TOTEN  =       -17.80273026 eV

  energy without entropy =      -17.80857268  energy(sigma->0) =      -17.80467773


--------------------------------------------------------------------------------------------------------




--------------------------------------- Iteration      3(   2)  ---------------------------------------


    POTLOK:  cpu time    2.5299: real time    2.5446
    SETDIJ:  cpu time    0.0238: real time    0.0239
     EDDAV:  cpu time    0.7626: real time    0.7635
       DOS:  cpu time    0.0008: real time    0.0009
    --------------------------------------------
      LOOP:  cpu time    3.3172: real time    3.3328

 eigenvalue-minimisations  :    38
 total energy-change (2. order) :-0.1188527E-05  (-0.8999625E-05)
 number of electron      21.0000000 magnetization       1.0004518
 augmentation part       -0.3548095 magnetization      -0.0001955

 Free energy of the ion-electron system (eV)
  ---------------------------------------------------
  alpha Z        PSCENC =        -0.01642208
  Ewald energy   TEWEN  =       501.77044785
  -Hartree energ DENC   =      -779.41531618
  -exchange      EXHF   =         0.00000000
  -V(xc)+E(xc)   XCENC  =      -188.99466491
  PAW double counting   =       796.18267646     -572.64751879
  entropy T*S    EENTRO =         0.00584268
  eigenvalues    EBANDS =      -149.45485673
  atomic energy  EATOM  =       374.76708025
  Solvation  Ediel_sol  =         0.00000000
  ---------------------------------------------------
  free energy    TOTEN  =       -17.80273145 eV

  energy without entropy =      -17.80857413  energy(sigma->0) =      -17.80467901


--------------------------------------------------------------------------------------------------------




 average (electrostatic) potential at core
  the test charge radii are     1.0406
  (the norm of the test charge is              1.0000)
       1 -84.3670       2 -84.6060       3 -84.5068       4 -84.5076       5 -84.3673
       6 -84.5072       7 -84.3667
 
 
 
 E-fermi :  -4.0136     XC(G=0):  -0.3404     alpha+bet : -0.1714


 spin component 1

 k-point     1 :       0.0000    0.0000    0.0000
  band No.  band energies     occupation 
      1     -12.3211      1.00000
      2      -9.6914      1.00000
      3      -8.8539      1.00000
      4      -8.8525      1.00000
      5      -6.6381      1.00000
      6      -5.9625      1.00000
      7      -5.9608      1.00000
      8      -5.0192      1.00000
      9      -4.9331      1.00000
     10      -4.9328      1.00000
     11      -4.1820      1.00005
     12      -3.3292     -0.00001
     13      -3.3263     -0.00001
     14      -2.9851     -0.00000
     15      -2.3279     -0.00000
     16      -2.3243     -0.00000
     17      -1.5965     -0.00000
     18      -0.8200     -0.00000

 spin component 2

 k-point     1 :       0.0000    0.0000    0.0000
  band No.  band energies     occupation 
      1     -12.2101      1.00000
      2      -9.4694      1.00000
      3      -8.8043      1.00000
      4      -8.8032      1.00000
      5      -6.2749      1.00000
      6      -5.8925      1.00000
      7      -5.8913      1.00000
      8      -4.9739      1.00000
      9      -4.8939      1.00000
     10      -4.8937      1.00000
     11      -3.3832     -0.00004
     12      -3.1985     -0.00000
     13      -3.1974     -0.00000
     14      -2.9276     -0.00000
     15      -2.2344     -0.00000
     16      -2.2315     -0.00000
     17      -1.5956     -0.00000
     18      -0.7746     -0.00000


--------------------------------------------------------------------------------------------------------


 soft charge-density along one line, spin component            1
         0         1         2         3         4         5         6         7         8         9
 total charge-density along one line
 
 soft charge-density along one line, spin component            2
         0         1         2         3         4         5         6         7         8         9
 total charge-density along one line
 
 pseudopotential strength for first ion, spin component:            1
  8.850  15.102   0.001   0.003  -0.002   0.003   0.010  -0.008
 15.102  25.771   0.002   0.006  -0.004   0.006   0.017  -0.013
  0.001   0.002   1.974   0.000  -0.000   5.772   0.000  -0.001
  0.003   0.006   0.000   1.974  -0.001   0.000   5.773  -0.002
 -0.002  -0.004  -0.000  -0.001   1.974  -0.001  -0.002   5.771
  0.003   0.006   5.772   0.000  -0.001  16.745   0.001  -0.002
  0.010   0.017   0.000   5.773  -0.002   0.001  16.748  -0.005
 -0.008  -0.013  -0.001  -0.002   5.771  -0.002  -0.005  16.744
 pseudopotential strength for first ion, spin component:            2
  8.849  15.100   0.001   0.004  -0.002   0.004   0.010  -0.007
 15.100  25.767   0.002   0.006  -0.004   0.006   0.018  -0.013
  0.001   0.002   1.974   0.000  -0.000   5.771   0.000  -0.001
  0.004   0.006   0.000   1.974  -0.001   0.000   5.771  -0.002
 -0.002  -0.004  -0.000  -0.001   1.973  -0.001  -0.002   5.770
  0.004   0.006   5.771   0.000  -0.001  16.741   0.001  -0.002
  0.010   0.018   0.000   5.771  -0.002   0.001  16.744  -0.006
 -0.007  -0.013  -0.001  -0.002   5.770  -0.002  -0.006  16.739
 total augmentation occupancy for first ion, spin component:            1
  2.998  -0.555  -0.121  -0.343   0.205   0.018   0.052  -0.032
 -0.555   0.172   0.068   0.196  -0.104  -0.006  -0.017   0.010
 -0.121   0.068   0.833  -0.021   0.044  -0.043   0.000  -0.002
 -0.343   0.196  -0.021   0.791   0.151   0.000  -0.043  -0.007
  0.205  -0.104   0.044   0.151   1.031  -0.002  -0.006  -0.060
  0.018  -0.006  -0.043   0.000  -0.002   0.002   0.000  -0.000
  0.052  -0.017   0.000  -0.043  -0.006   0.000   0.003   0.000
 -0.032   0.010  -0.002  -0.007  -0.060  -0.000   0.000   0.004
 total augmentation occupancy for first ion, spin component:            2
  0.052  -0.020  -0.006  -0.017  -0.004   0.000   0.001  -0.000
 -0.020   0.005   0.001   0.001  -0.005  -0.000  -0.000   0.000
 -0.006   0.001  -0.005   0.007   0.016  -0.000  -0.000  -0.001
 -0.017   0.001   0.007   0.021   0.058  -0.000  -0.002  -0.002
 -0.004  -0.005   0.016   0.058   0.090  -0.001  -0.002  -0.003
  0.000  -0.000  -0.000  -0.000  -0.001   0.000   0.000   0.000
  0.001  -0.000  -0.000  -0.002  -0.002   0.000   0.000   0.000
 -0.000   0.000  -0.001  -0.002  -0.003   0.000   0.000   0.000


------------------------ aborting loop because EDIFF is reached ----------------------------------------


    CHARGE:  cpu time    0.2797: real time    0.2801
    FORLOC:  cpu time    0.0728: real time    0.0728
    FORNL :  cpu time    0.2618: real time    0.2621
    FORCOR:  cpu time    2.4510: real time    2.4594
    FORHAR:  cpu time    0.3066: real time    0.3069
    MIXING:  cpu time    0.0437: real time    0.0437
    OFIELD:  cpu time    0.0000: real time    0.0000

 VOLUME and BASIS-vectors are now :
 -----------------------------------------------------------------------------
  energy-cutoff  :      400.00
  volume of cell :    10021.97
      direct lattice vectors                 reciprocal lattice vectors
    21.433949823  0.000000000  0.000000000     0.046654957  0.000000000  0.000000000
     0.000000000 21.408281684  0.000000000     0.000000000  0.046710895  0.000000000
     0.000000000  0.000000000 21.840834240     0.000000000  0.000000000  0.045785797

  length of vectors
    21.433949823 21.408281684 21.840834240     0.046654957  0.046710895  0.045785797


 FORCES acting on ions
    electron-ion (+dipol)            ewald-force                    non-local-force                 convergence-correction
 -----------------------------------------------------------------------------------------------
   0.275E+02 -.188E+02 -.553E+02   -.258E+02 0.181E+02 0.532E+02   -.172E+01 0.764E+00 0.218E+01   0.523E-02 -.249E-02 -.690E-02
   0.627E+02 0.263E+00 0.645E+01   -.604E+02 -.252E+00 -.622E+01   -.231E+01 -.118E-01 -.235E+00   0.738E-02 -.289E-03 0.284E-03
   -.423E+02 -.521E+02 -.152E+02   0.390E+02 0.496E+02 0.144E+02   0.324E+01 0.244E+01 0.834E+00   -.637E-02 -.497E-02 -.177E-02
   -.486E+02 0.164E+02 0.458E+02   0.451E+02 -.156E+02 -.438E+02   0.354E+01 -.752E+00 -.200E+01   -.599E-02 0.136E-02 0.380E-02
   0.172E+02 -.405E+02 0.473E+02   -.159E+02 0.389E+02 -.453E+02   -.131E+01 0.164E+01 -.198E+01   0.286E-02 -.387E-02 0.569E-02
   -.398E+02 0.352E+02 -.438E+02   0.367E+02 -.335E+02 0.416E+02   0.312E+01 -.165E+01 0.217E+01   -.639E-02 0.374E-02 -.443E-02
   0.201E+02 0.596E+02 0.145E+02   -.187E+02 -.572E+02 -.138E+02   -.144E+01 -.242E+01 -.640E+00   0.276E-02 0.597E-02 0.165E-02
 -----------------------------------------------------------------------------------------------
   -.312E+01 -.112E-01 -.334E+00   -.107E-13 0.142E-13 -.178E-14   0.312E+01 0.116E-01 0.335E+00   -.519E-03 -.546E-03 -.168E-02
 
 
 POSITION                                       TOTAL-FORCE (eV/Angst)
 -----------------------------------------------------------------------------------
      9.90321     11.58499     11.98814         0.007844      0.002964      0.003176
      8.02818     11.05350     10.18916         0.001662     -0.001128      0.000479
     12.03290     12.60673     10.92151        -0.006166     -0.002946      0.000205
     12.22076     10.57835      9.11420        -0.006693      0.003788      0.004497
     10.19005     12.18642      9.15115         0.006044      0.001590     -0.003990
     11.95937     10.02436     11.76667        -0.006284      0.000421     -0.004881
     10.10941      9.41379     10.05800         0.003593     -0.004688      0.000513
 -----------------------------------------------------------------------------------
    total drift:                                0.000977     -0.000150     -0.000578


--------------------------------------------------------------------------------------------------------



  FREE ENERGIE OF THE ION-ELECTRON SYSTEM (eV)
  ---------------------------------------------------
  free  energy   TOTEN  =       -17.80273145 eV

  energy  without entropy=      -17.80857413  energy(sigma->0) =      -17.80467901
 
 d Force = 0.4847097E-04[-0.403E-05, 0.101E-03]  d Energy = 0.5988709E-04-0.114E-04
 d Force = 0.4350976E+00[ 0.435E+00, 0.435E+00]  d Ewald  = 0.4350975E+00 0.936E-07


--------------------------------------------------------------------------------------------------------


    POTLOK:  cpu time    2.5688: real time    2.5747


--------------------------------------------------------------------------------------------------------




--------------------------------------------------------------------------------------------------------


  
 reached required accuracy - stopping structural energy minimisation
     LOOP+:  cpu time   13.3355: real time   13.3949
    4ORBIT:  cpu time    0.0000: real time    0.0000

 total amount of memory used by VASP MPI-rank0   189167. kBytes
=======================================================================

   base      :      30000. kBytes
   nonl-proj :       2003. kBytes
   fftplans  :      46139. kBytes
   grid      :     104464. kBytes
   one-center:          3. kBytes
   wavefun   :       6558. kBytes
 
  
  
 General timing and accounting informations for this job:
 ========================================================
  
                  Total CPU time used (sec):      129.409
                            User time (sec):      127.212
                          System time (sec):        2.197
                         Elapsed time (sec):      130.838
  
                   Maximum memory used (kb):      384524.
                   Average memory used (kb):           0.
  
                          Minor page faults:       865518
                          Major page faults:         3715
                 Voluntary context switches:         3963
