unknown system                          
            1
    21.433950    0.000000    0.000000
     0.000000   21.408282    0.000000
     0.000000    0.000000   21.840834
   Al
     7
Direct configuration=     1
   0.46210318  0.54107073  0.54879004
   0.37453682  0.51632540  0.46651821
   0.56133601  0.58881744  0.50002074
   0.57014855  0.49412327  0.41728455
   0.47546223  0.56917629  0.41909967
   0.55789210  0.46830914  0.53874339
   0.47169735  0.43984983  0.46055267
Direct configuration=     2
   0.46207552  0.54110054  0.54882860
   0.37454385  0.51632278  0.46651845
   0.56135938  0.58883909  0.50003253
   0.57015280  0.49412366  0.41729115
   0.47544393  0.56920127  0.41905693
   0.55792079  0.46828426  0.53874466
   0.47167998  0.43980052  0.46053695
Direct configuration=     3
   0.46203396  0.54114533  0.54888654
   0.37455442  0.51631884  0.46651881
   0.56139448  0.58887161  0.50005025
   0.57015918  0.49412424  0.41730106
   0.47541642  0.56923879  0.41899271
   0.55796389  0.46824688  0.53874657
   0.47165389  0.43972642  0.46051333
