  10  10   0   0
  0.1157981E+04  0.2283378E-08  0.2321153E-08  0.2184841E-08  0.5000000E-15
   1.0000000000000000E-004
  CAR 
 unknown system                          
      2.02631066    -11.89655434  301     -4.09758668      1.00000000
    -11.897  0.0000E+00  0.0000E+00  0.0000E+00  0.0000E+00
    -11.850  0.0000E+00  0.0000E+00  0.0000E+00  0.0000E+00
    -11.804  0.0000E+00  0.0000E+00  0.0000E+00  0.0000E+00
    -11.757  0.0000E+00  0.0000E+00  0.0000E+00  0.0000E+00
    -11.711  0.0000E+00  0.0000E+00  0.0000E+00  0.0000E+00
    -11.665  0.0000E+00  0.0000E+00  0.0000E+00  0.0000E+00
    -11.618  0.0000E+00  0.0000E+00  0.0000E+00  0.0000E+00
    -11.572  0.0000E+00  0.0000E+00  0.0000E+00  0.0000E+00
    -11.525 -0.7813E-27  0.0000E+00 -0.3626E-28  0.0000E+00
    -11.479 -0.3072E-25  0.0000E+00 -0.1462E-26  0.0000E+00
    -11.432 -0.1108E-23 -0.1898E-26 -0.5287E-25 -0.8806E-28
    -11.386 -0.3582E-22 -0.7265E-25 -0.1715E-23 -0.3460E-26
    -11.340 -0.1039E-20 -0.2553E-23 -0.4992E-22 -0.1219E-24
    -11.293 -0.2700E-19 -0.8045E-22 -0.1303E-20 -0.3855E-23
    -11.247 -0.6293E-18 -0.2273E-20 -0.3051E-19 -0.1093E-21
    -11.200 -0.1315E-16 -0.5758E-19 -0.6406E-18 -0.2782E-20
    -11.154 -0.2461E-15 -0.1308E-17 -0.1206E-16 -0.6347E-19
    -11.108 -0.4129E-14 -0.2662E-16 -0.2037E-15 -0.1299E-17
    -11.061 -0.5966E-13 -0.4855E-15 -0.2973E-14 -0.2383E-16
    -11.015 -0.8090E-12 -0.7935E-14 -0.4052E-13 -0.3921E-15
    -10.968 -0.9722E-11 -0.1126E-12 -0.4917E-12 -0.5617E-14
    -10.922 -0.1045E-09 -0.1474E-11 -0.5343E-11 -0.7404E-13
    -10.876 -0.1006E-08 -0.1726E-10 -0.5201E-10 -0.8749E-12
    -10.829 -0.8646E-08 -0.1807E-09 -0.4533E-09 -0.9263E-11
    -10.783 -0.6642E-07 -0.1693E-08 -0.3536E-08 -0.8782E-10
    -10.736 -0.4555E-06 -0.1417E-07 -0.2467E-07 -0.7455E-09
    -10.690 -0.2786E-05 -0.1060E-06 -0.1540E-06 -0.5664E-08
    -10.643 -0.1519E-04 -0.7074E-06 -0.8587E-06 -0.3850E-07
    -10.597 -0.7364E-04 -0.4211E-05 -0.4276E-05 -0.2339E-06
    -10.551 -0.3171E-03 -0.2233E-04 -0.1899E-04 -0.1270E-05
    -10.504 -0.1210E-02 -0.1053E-03 -0.7516E-04 -0.6156E-05
    -10.458 -0.4078E-02 -0.4407E-03 -0.2644E-03 -0.2661E-04
    -10.411 -0.1208E-01 -0.1633E-02 -0.8249E-03 -0.1024E-03
    -10.365 -0.3122E-01 -0.5340E-02 -0.2274E-02 -0.3502E-03
    -10.319 -0.6966E-01 -0.1532E-01 -0.5507E-02 -0.1061E-02
    -10.272 -0.1315E+00 -0.3830E-01 -0.1161E-01 -0.2839E-02
    -10.226 -0.2011E+00 -0.8232E-01 -0.2094E-01 -0.6659E-02
    -10.179 -0.2219E+00 -0.1486E+00 -0.3124E-01 -0.1355E-01
    -10.133 -0.8451E-01 -0.2137E+00 -0.3516E-01 -0.2347E-01
    -10.087  0.3450E+00 -0.2086E+00 -0.1915E-01 -0.3315E-01
    -10.040  0.1145E+01 -0.1360E-01  0.3397E-01 -0.3379E-01
     -9.994  0.2234E+01  0.5011E+00  0.1377E+00 -0.1053E-01
     -9.947  0.3337E+01  0.1384E+01  0.2925E+00  0.5371E-01
     -9.901  0.4070E+01  0.2509E+01  0.4814E+00  0.1701E+00
     -9.855  0.4139E+01  0.3559E+01  0.6735E+00  0.3353E+00
     -9.808  0.3516E+01  0.4153E+01  0.8367E+00  0.5280E+00
     -9.762  0.2453E+01  0.4048E+01  0.9505E+00  0.7159E+00
     -9.715  0.1334E+01  0.3290E+01  0.1012E+01  0.8686E+00
     -9.669  0.4676E+00  0.2179E+01  0.1034E+01  0.9697E+00
     -9.622 -0.2944E-01  0.1098E+01  0.1033E+01  0.1021E+01
     -9.576 -0.2121E+00  0.3160E+00  0.1023E+01  0.1035E+01
     -9.530 -0.2114E+00 -0.9682E-01  0.1013E+01  0.1031E+01
     -9.483 -0.1451E+00 -0.2235E+00  0.1006E+01  0.1020E+01
     -9.437 -0.7963E-01 -0.1982E+00  0.1003E+01  0.1011E+01
     -9.390 -0.3677E-01 -0.1280E+00  0.1001E+01  0.1005E+01
     -9.344 -0.1461E-01 -0.6726E-01  0.1000E+01  0.1002E+01
     -9.298 -0.5060E-02 -0.2992E-01  0.1000E+01  0.1001E+01
     -9.251 -0.1548E-02 -0.1150E-01  0.1000E+01  0.1000E+01
     -9.205 -0.4642E-03 -0.3857E-02  0.1000E+01  0.1000E+01
     -9.158 -0.3274E-03 -0.1138E-02  0.1000E+01  0.1000E+01
     -9.112 -0.9209E-03 -0.2964E-03  0.9999E+00  0.1000E+01
     -9.066 -0.3127E-02 -0.6857E-04  0.9998E+00  0.1000E+01
     -9.019 -0.9536E-02 -0.1499E-04  0.9994E+00  0.1000E+01
     -8.973 -0.2547E-01 -0.8146E-05  0.9982E+00  0.1000E+01
     -8.926 -0.5894E-01 -0.2947E-04  0.9954E+00  0.1000E+01
     -8.880 -0.1162E+00 -0.1344E-03  0.9900E+00  0.1000E+01
     -8.834 -0.1890E+00 -0.5514E-03  0.9813E+00  0.1000E+01
     -8.787 -0.2340E+00 -0.2002E-02  0.9704E+00  0.9999E+00
     -8.741 -0.1580E+00 -0.6410E-02  0.9631E+00  0.9996E+00
     -8.694  0.1647E+00 -0.1799E-01  0.9707E+00  0.9987E+00
     -8.648  0.8264E+00 -0.4392E-01  0.1009E+01  0.9967E+00
     -8.601  0.1793E+01 -0.9192E-01  0.1092E+01  0.9924E+00
     -8.555  0.2862E+01 -0.1607E+00  0.1225E+01  0.9850E+00
     -8.509  0.3738E+01 -0.2208E+00  0.1399E+01  0.9747E+00
     -8.462  0.4210E+01 -0.1950E+00  0.1594E+01  0.9657E+00
     -8.416  0.4295E+01  0.4066E-01  0.1793E+01  0.9676E+00
     -8.369  0.4214E+01  0.6060E+00  0.1989E+01  0.9957E+00
     -8.323  0.4216E+01  0.1519E+01  0.2185E+01  0.1066E+01
     -8.277  0.4397E+01  0.2612E+01  0.2389E+01  0.1187E+01
     -8.230  0.4677E+01  0.3545E+01  0.2606E+01  0.1352E+01
     -8.184  0.4908E+01  0.3969E+01  0.2833E+01  0.1536E+01
     -8.137  0.4994E+01  0.3753E+01  0.3065E+01  0.1710E+01
     -8.091  0.4928E+01  0.3109E+01  0.3294E+01  0.1855E+01
     -8.045  0.4787E+01  0.2489E+01  0.3516E+01  0.1970E+01
     -7.998  0.4717E+01  0.2301E+01  0.3735E+01  0.2077E+01
     -7.952  0.4912E+01  0.2645E+01  0.3963E+01  0.2200E+01
     -7.905  0.5507E+01  0.3254E+01  0.4219E+01  0.2351E+01
     -7.859  0.6459E+01  0.3706E+01  0.4518E+01  0.2523E+01
     -7.813  0.7520E+01  0.3743E+01  0.4867E+01  0.2696E+01
     -7.766  0.8371E+01  0.3447E+01  0.5256E+01  0.2856E+01
     -7.720  0.8836E+01  0.3143E+01  0.5666E+01  0.3002E+01
     -7.673  0.8984E+01  0.3116E+01  0.6083E+01  0.3147E+01
     -7.627  0.9033E+01  0.3390E+01  0.6502E+01  0.3304E+01
     -7.580  0.9148E+01  0.3760E+01  0.6927E+01  0.3479E+01
     -7.534  0.9296E+01  0.4022E+01  0.7358E+01  0.3665E+01
     -7.488  0.9342E+01  0.4181E+01  0.7791E+01  0.3859E+01
     -7.441  0.9296E+01  0.4432E+01  0.8223E+01  0.4065E+01
     -7.395  0.9486E+01  0.4942E+01  0.8663E+01  0.4294E+01
     -7.348  0.1042E+02  0.5654E+01  0.9147E+01  0.4557E+01
     -7.302  0.1236E+02  0.6277E+01  0.9720E+01  0.4848E+01
     -7.256  0.1500E+02  0.6495E+01  0.1042E+02  0.5150E+01
     -7.209  0.1747E+02  0.6212E+01  0.1123E+02  0.5438E+01
     -7.163  0.1875E+02  0.5647E+01  0.1210E+02  0.5700E+01
     -7.116  0.1822E+02  0.5218E+01  0.1294E+02  0.5942E+01
     -7.070  0.1594E+02  0.5282E+01  0.1368E+02  0.6187E+01
     -7.024  0.1261E+02  0.5910E+01  0.1427E+02  0.6461E+01
     -6.977  0.9285E+01  0.6860E+01  0.1470E+02  0.6780E+01
     -6.931  0.6955E+01  0.7761E+01  0.1502E+02  0.7140E+01
     -6.884  0.6171E+01  0.8366E+01  0.1531E+02  0.7528E+01
     -6.838  0.6882E+01  0.8688E+01  0.1563E+02  0.7932E+01
     -6.792  0.8552E+01  0.8936E+01  0.1602E+02  0.8346E+01
     -6.745  0.1048E+02  0.9333E+01  0.1651E+02  0.8779E+01
     -6.699  0.1214E+02  0.9968E+01  0.1707E+02  0.9242E+01
     -6.652  0.1328E+02  0.1078E+02  0.1769E+02  0.9742E+01
     -6.606  0.1386E+02  0.1167E+02  0.1833E+02  0.1028E+02
     -6.559  0.1385E+02  0.1259E+02  0.1898E+02  0.1087E+02
     -6.513  0.1324E+02  0.1354E+02  0.1959E+02  0.1150E+02
     -6.467  0.1203E+02  0.1457E+02  0.2015E+02  0.1217E+02
     -6.420  0.1038E+02  0.1562E+02  0.2063E+02  0.1290E+02
     -6.374  0.8586E+01  0.1657E+02  0.2103E+02  0.1367E+02
     -6.327  0.6989E+01  0.1721E+02  0.2135E+02  0.1447E+02
     -6.281  0.5883E+01  0.1731E+02  0.2163E+02  0.1527E+02
     -6.235  0.5440E+01  0.1674E+02  0.2188E+02  0.1605E+02
     -6.188  0.5667E+01  0.1552E+02  0.2214E+02  0.1677E+02
     -6.142  0.6411E+01  0.1397E+02  0.2244E+02  0.1741E+02
     -6.095  0.7443E+01  0.1254E+02  0.2279E+02  0.1800E+02
     -6.049  0.8618E+01  0.1157E+02  0.2319E+02  0.1853E+02
     -6.003  0.9965E+01  0.1105E+02  0.2365E+02  0.1905E+02
     -5.956  0.1159E+02  0.1060E+02  0.2419E+02  0.1954E+02
     -5.910  0.1344E+02  0.9732E+01  0.2481E+02  0.1999E+02
     -5.863  0.1524E+02  0.8291E+01  0.2552E+02  0.2037E+02
     -5.817  0.1662E+02  0.6583E+01  0.2629E+02  0.2068E+02
     -5.770  0.1751E+02  0.5263E+01  0.2710E+02  0.2092E+02
     -5.724  0.1823E+02  0.4968E+01  0.2795E+02  0.2116E+02
     -5.678  0.1929E+02  0.5966E+01  0.2884E+02  0.2143E+02
     -5.631  0.2101E+02  0.8023E+01  0.2982E+02  0.2180E+02
     -5.585  0.2324E+02  0.1054E+02  0.3090E+02  0.2229E+02
     -5.538  0.2541E+02  0.1283E+02  0.3208E+02  0.2289E+02
     -5.492  0.2686E+02  0.1446E+02  0.3332E+02  0.2356E+02
     -5.446  0.2726E+02  0.1534E+02  0.3459E+02  0.2427E+02
     -5.399  0.2674E+02  0.1569E+02  0.3583E+02  0.2500E+02
     -5.353  0.2580E+02  0.1582E+02  0.3703E+02  0.2573E+02
     -5.306  0.2499E+02  0.1590E+02  0.3819E+02  0.2647E+02
     -5.260  0.2460E+02  0.1591E+02  0.3933E+02  0.2721E+02
     -5.214  0.2458E+02  0.1569E+02  0.4047E+02  0.2794E+02
     -5.167  0.2468E+02  0.1521E+02  0.4161E+02  0.2864E+02
     -5.121  0.2467E+02  0.1467E+02  0.4276E+02  0.2933E+02
     -5.074  0.2448E+02  0.1447E+02  0.4389E+02  0.3000E+02
     -5.028  0.2423E+02  0.1486E+02  0.4502E+02  0.3069E+02
     -4.982  0.2404E+02  0.1576E+02  0.4613E+02  0.3142E+02
     -4.935  0.2388E+02  0.1667E+02  0.4724E+02  0.3219E+02
     -4.889  0.2349E+02  0.1704E+02  0.4833E+02  0.3298E+02
     -4.842  0.2250E+02  0.1667E+02  0.4938E+02  0.3376E+02
     -4.796  0.2065E+02  0.1588E+02  0.5034E+02  0.3449E+02
     -4.749  0.1794E+02  0.1527E+02  0.5117E+02  0.3520E+02
     -4.703  0.1459E+02  0.1522E+02  0.5185E+02  0.3591E+02
     -4.657  0.1097E+02  0.1563E+02  0.5235E+02  0.3663E+02
     -4.610  0.7478E+01  0.1613E+02  0.5270E+02  0.3738E+02
     -4.564  0.4494E+01  0.1642E+02  0.5291E+02  0.3814E+02
     -4.517  0.2361E+01  0.1656E+02  0.5302E+02  0.3891E+02
     -4.471  0.1303E+01  0.1678E+02  0.5308E+02  0.3969E+02
     -4.425  0.1319E+01  0.1715E+02  0.5314E+02  0.4049E+02
     -4.378  0.2107E+01  0.1740E+02  0.5324E+02  0.4130E+02
     -4.332  0.3126E+01  0.1720E+02  0.5338E+02  0.4209E+02
     -4.285  0.3806E+01  0.1649E+02  0.5356E+02  0.4286E+02
     -4.239  0.3796E+01  0.1567E+02  0.5374E+02  0.4359E+02
     -4.193  0.3108E+01  0.1547E+02  0.5388E+02  0.4430E+02
     -4.146  0.2049E+01  0.1644E+02  0.5398E+02  0.4507E+02
     -4.100  0.1013E+01  0.1863E+02  0.5402E+02  0.4593E+02
     -4.053  0.2687E+00  0.2145E+02  0.5404E+02  0.4693E+02
     -4.007 -0.1174E+00  0.2388E+02  0.5403E+02  0.4804E+02
     -3.961 -0.2323E+00  0.2499E+02  0.5402E+02  0.4920E+02
     -3.914 -0.2126E+00  0.2432E+02  0.5401E+02  0.5032E+02
     -3.868 -0.1683E+00  0.2202E+02  0.5400E+02  0.5135E+02
     -3.821 -0.1577E+00  0.1865E+02  0.5399E+02  0.5221E+02
     -3.775 -0.1909E+00  0.1485E+02  0.5399E+02  0.5290E+02
     -3.728 -0.2321E+00  0.1106E+02  0.5397E+02  0.5341E+02
     -3.682 -0.1933E+00  0.7537E+01  0.5397E+02  0.5376E+02
     -3.636  0.5760E-01  0.4485E+01  0.5397E+02  0.5397E+02
     -3.589  0.6458E+00  0.2086E+01  0.5400E+02  0.5407E+02
     -3.543  0.1593E+01  0.4469E+00  0.5407E+02  0.5409E+02
     -3.496  0.2732E+01 -0.4627E+00  0.5420E+02  0.5407E+02
     -3.450  0.3722E+01 -0.7919E+00  0.5437E+02  0.5403E+02
     -3.404  0.4189E+01 -0.7005E+00  0.5457E+02  0.5400E+02
     -3.357  0.3941E+01 -0.2667E+00  0.5475E+02  0.5399E+02
     -3.311  0.3078E+01  0.5057E+00  0.5489E+02  0.5401E+02
     -3.264  0.1927E+01  0.1582E+01  0.5498E+02  0.5408E+02
     -3.218  0.8533E+00  0.2781E+01  0.5502E+02  0.5421E+02
     -3.172  0.7929E-01  0.3767E+01  0.5502E+02  0.5439E+02
     -3.125 -0.3584E+00  0.4191E+01  0.5501E+02  0.5458E+02
     -3.079 -0.5238E+00  0.3888E+01  0.5498E+02  0.5476E+02
     -3.032 -0.4563E+00  0.2985E+01  0.5496E+02  0.5490E+02
     -2.986 -0.1036E+00  0.1822E+01  0.5496E+02  0.5499E+02
     -2.940  0.6463E+00  0.7592E+00  0.5499E+02  0.5502E+02
     -2.893  0.1856E+01  0.9456E-02  0.5507E+02  0.5502E+02
     -2.847  0.3426E+01 -0.3865E+00  0.5523E+02  0.5500E+02
     -2.800  0.5056E+01 -0.4716E+00  0.5547E+02  0.5498E+02
     -2.754  0.6329E+01 -0.2648E+00  0.5576E+02  0.5497E+02
     -2.707  0.6879E+01  0.2690E+00  0.5608E+02  0.5498E+02
     -2.661  0.6570E+01  0.1157E+01  0.5639E+02  0.5504E+02
     -2.615  0.5585E+01  0.2326E+01  0.5664E+02  0.5514E+02
     -2.568  0.4374E+01  0.3582E+01  0.5685E+02  0.5531E+02
     -2.522  0.3448E+01  0.4673E+01  0.5701E+02  0.5553E+02
     -2.475  0.3110E+01  0.5405E+01  0.5715E+02  0.5578E+02
     -2.429  0.3286E+01  0.5695E+01  0.5730E+02  0.5604E+02
     -2.383  0.3600E+01  0.5542E+01  0.5747E+02  0.5630E+02
     -2.336  0.3646E+01  0.4997E+01  0.5764E+02  0.5653E+02
     -2.290  0.3295E+01  0.4196E+01  0.5779E+02  0.5673E+02
     -2.243  0.2779E+01  0.3391E+01  0.5792E+02  0.5688E+02
     -2.197  0.2501E+01  0.2890E+01  0.5804E+02  0.5702E+02
     -2.151  0.2708E+01  0.2872E+01  0.5816E+02  0.5715E+02
     -2.104  0.3284E+01  0.3233E+01  0.5832E+02  0.5730E+02
     -2.058  0.3817E+01  0.3627E+01  0.5849E+02  0.5747E+02
     -2.011  0.3877E+01  0.3711E+01  0.5867E+02  0.5764E+02
     -1.965  0.3292E+01  0.3415E+01  0.5883E+02  0.5780E+02
     -1.919  0.2233E+01  0.2999E+01  0.5893E+02  0.5794E+02
     -1.872  0.1092E+01  0.2832E+01  0.5898E+02  0.5807E+02
     -1.826  0.2727E+00  0.3083E+01  0.5899E+02  0.5821E+02
     -1.779  0.3821E-01  0.3564E+01  0.5900E+02  0.5838E+02
     -1.733  0.4660E+00  0.3856E+01  0.5902E+02  0.5856E+02
     -1.686  0.1459E+01  0.3614E+01  0.5908E+02  0.5872E+02
     -1.640  0.2781E+01  0.2814E+01  0.5921E+02  0.5886E+02
     -1.594  0.4130E+01  0.1779E+01  0.5941E+02  0.5894E+02
     -1.547  0.5225E+01  0.9879E+00  0.5965E+02  0.5898E+02
     -1.501  0.5887E+01  0.8228E+00  0.5992E+02  0.5902E+02
     -1.454  0.6040E+01  0.1397E+01  0.6020E+02  0.5909E+02
     -1.408  0.5677E+01  0.2533E+01  0.6046E+02  0.5920E+02
     -1.362  0.4838E+01  0.3878E+01  0.6069E+02  0.5938E+02
     -1.315  0.3644E+01  0.5066E+01  0.6086E+02  0.5962E+02
     -1.269  0.2311E+01  0.5840E+01  0.6097E+02  0.5989E+02
     -1.222  0.1092E+01  0.6082E+01  0.6102E+02  0.6017E+02
     -1.176  0.1828E+00  0.5769E+01  0.6103E+02  0.6044E+02
     -1.130 -0.3337E+00  0.4944E+01  0.6101E+02  0.6067E+02
     -1.083 -0.4545E+00  0.3729E+01  0.6099E+02  0.6084E+02
     -1.037 -0.1908E+00  0.2347E+01  0.6098E+02  0.6095E+02
     -0.990  0.4501E+00  0.1072E+01  0.6100E+02  0.6100E+02
     -0.944  0.1409E+01  0.1557E+00  0.6107E+02  0.6101E+02
     -0.897  0.2511E+01 -0.2456E+00  0.6118E+02  0.6100E+02
     -0.851  0.3493E+01 -0.7500E-01  0.6134E+02  0.6099E+02
     -0.805  0.4150E+01  0.6293E+00  0.6154E+02  0.6102E+02
     -0.758  0.4483E+01  0.1728E+01  0.6175E+02  0.6110E+02
     -0.712  0.4711E+01  0.2983E+01  0.6196E+02  0.6124E+02
     -0.665  0.5100E+01  0.4120E+01  0.6220E+02  0.6143E+02
     -0.619  0.5756E+01  0.4942E+01  0.6247E+02  0.6166E+02
     -0.573  0.6552E+01  0.5409E+01  0.6277E+02  0.6191E+02
     -0.526  0.7230E+01  0.5619E+01  0.6311E+02  0.6217E+02
     -0.480  0.7598E+01  0.5710E+01  0.6346E+02  0.6244E+02
     -0.433  0.7628E+01  0.5775E+01  0.6381E+02  0.6271E+02
     -0.387  0.7432E+01  0.5842E+01  0.6416E+02  0.6298E+02
     -0.341  0.7154E+01  0.5912E+01  0.6449E+02  0.6325E+02
     -0.294  0.6866E+01  0.5983E+01  0.6481E+02  0.6353E+02
     -0.248  0.6525E+01  0.6065E+01  0.6511E+02  0.6381E+02
     -0.201  0.6006E+01  0.6173E+01  0.6539E+02  0.6410E+02
     -0.155  0.5186E+01  0.6307E+01  0.6563E+02  0.6439E+02
     -0.109  0.4052E+01  0.6427E+01  0.6582E+02  0.6469E+02
     -0.062  0.2744E+01  0.6439E+01  0.6595E+02  0.6499E+02
     -0.016  0.1503E+01  0.6204E+01  0.6602E+02  0.6528E+02
      0.031  0.5509E+00  0.5600E+01  0.6604E+02  0.6554E+02
      0.077 -0.1734E-01  0.4595E+01  0.6604E+02  0.6575E+02
      0.124 -0.2468E+00  0.3311E+01  0.6603E+02  0.6590E+02
      0.170 -0.2627E+00  0.1990E+01  0.6602E+02  0.6600E+02
      0.216 -0.1905E+00  0.8889E+00  0.6601E+02  0.6604E+02
      0.263 -0.1103E+00  0.1617E+00  0.6600E+02  0.6604E+02
      0.309 -0.5370E-01 -0.1897E+00  0.6600E+02  0.6604E+02
      0.356 -0.2247E-01 -0.2727E+00  0.6600E+02  0.6602E+02
      0.402 -0.8192E-02 -0.2222E+00  0.6600E+02  0.6601E+02
      0.448 -0.2621E-02 -0.1391E+00  0.6600E+02  0.6601E+02
      0.495 -0.7393E-03 -0.7208E-01  0.6600E+02  0.6600E+02
      0.541 -0.1846E-03 -0.3190E-01  0.6600E+02  0.6600E+02
      0.588 -0.4091E-04 -0.1225E-01  0.6600E+02  0.6600E+02
      0.634 -0.8061E-05 -0.4115E-02  0.6600E+02  0.6600E+02
      0.680 -0.1414E-05 -0.1217E-02  0.6600E+02  0.6600E+02
      0.727 -0.2212E-06 -0.3184E-03  0.6600E+02  0.6600E+02
      0.773 -0.3087E-07 -0.7383E-04  0.6600E+02  0.6600E+02
      0.820 -0.3849E-08 -0.1521E-04  0.6600E+02  0.6600E+02
      0.866 -0.4288E-09 -0.2790E-05  0.6600E+02  0.6600E+02
      0.912 -0.4271E-10 -0.4559E-06  0.6600E+02  0.6600E+02
      0.959 -0.3808E-11 -0.6645E-07  0.6600E+02  0.6600E+02
      1.005 -0.3014E-12 -0.8649E-08  0.6600E+02  0.6600E+02
      1.052 -0.2392E-13 -0.1006E-08  0.6600E+02  0.6600E+02
      1.098  0.0000E+00 -0.1046E-09  0.6600E+02  0.6600E+02
      1.145  0.0000E+00 -0.9722E-11  0.6600E+02  0.6600E+02
      1.191  0.0000E+00 -0.8086E-12  0.6600E+02  0.6600E+02
      1.237  0.0000E+00 -0.5741E-13  0.6600E+02  0.6600E+02
      1.284  0.0000E+00 -0.4784E-14  0.6600E+02  0.6600E+02
      1.330  0.0000E+00  0.0000E+00  0.6600E+02  0.6600E+02
      1.377  0.0000E+00  0.0000E+00  0.6600E+02  0.6600E+02
      1.423  0.0000E+00  0.0000E+00  0.6600E+02  0.6600E+02
      1.469  0.0000E+00  0.0000E+00  0.6600E+02  0.6600E+02
      1.516  0.0000E+00  0.0000E+00  0.6600E+02  0.6600E+02
      1.562  0.0000E+00  0.0000E+00  0.6600E+02  0.6600E+02
      1.609  0.0000E+00  0.0000E+00  0.6600E+02  0.6600E+02
      1.655  0.0000E+00  0.0000E+00  0.6600E+02  0.6600E+02
      1.701  0.0000E+00  0.0000E+00  0.6600E+02  0.6600E+02
      1.748  0.0000E+00  0.0000E+00  0.6600E+02  0.6600E+02
      1.794  0.0000E+00  0.0000E+00  0.6600E+02  0.6600E+02
      1.841  0.0000E+00  0.0000E+00  0.6600E+02  0.6600E+02
      1.887  0.0000E+00  0.0000E+00  0.6600E+02  0.6600E+02
      1.933  0.0000E+00  0.0000E+00  0.6600E+02  0.6600E+02
      1.980  0.0000E+00  0.0000E+00  0.6600E+02  0.6600E+02
      2.026  0.0000E+00  0.0000E+00  0.6600E+02  0.6600E+02
