   10   10    1    2
  0.1157981E+04  0.2283378E-08  0.2321153E-08  0.2184841E-08  0.5000000E-15
   1.0000000000000000E-004
  CAR 
 unknown system                          
    100      1     66
 
  0.1262379E-14  0.1262379E-14  0.1262379E-14  0.1000000E+01
    1       -9.896554     -9.814751   1.000000   1.000000
    2       -8.493633     -8.198058   1.000000   1.000000
    3       -8.251536     -7.867630   1.000000   1.000000
    4       -8.055421     -7.579830   1.000000   1.000000
    5       -7.843493     -7.345018   1.000000   1.000000
    6       -7.749891     -7.217040   1.000000   1.000000
    7       -7.632830     -6.999505   1.000000   1.000000
    8       -7.478038     -6.900766   1.000000   1.000000
    9       -7.474053     -6.776335   1.000000   1.000000
   10       -7.267181     -6.659143   1.000000   1.000000
   11       -7.241842     -6.605317   1.000000   1.000000
   12       -7.196204     -6.504694   1.000000   1.000000
   13       -7.150611     -6.425257   1.000000   1.000000
   14       -7.094414     -6.405568   1.000000   1.000000
   15       -7.036353     -6.313376   1.000000   1.000000
   16       -6.820872     -6.256050   1.000000   1.000000
   17       -6.748402     -6.222308   1.000000   1.000000
   18       -6.667764     -6.158795   1.000000   1.000000
   19       -6.585606     -6.025939   1.000000   1.000000
   20       -6.521393     -5.956365   1.000000   1.000000
   21       -6.454686     -5.875981   1.000000   1.000000
   22       -6.305458     -5.646690   1.000000   1.000000
   23       -6.111586     -5.553481   1.000000   1.000000
   24       -6.045552     -5.498544   1.000000   1.000000
   25       -5.890809     -5.453025   1.000000   1.000000
   26       -5.850384     -5.352444   1.000000   1.000000
   27       -5.844066     -5.311426   1.000000   1.000000
   28       -5.761915     -5.232429   1.000000   1.000000
   29       -5.689450     -5.185427   1.000000   1.000000
   30       -5.635230     -5.129126   1.000000   1.000000
   31       -5.591738     -5.027206   1.000000   1.000000
   32       -5.550774     -4.943450   1.000000   1.000000
   33       -5.520179     -4.918121   1.000000   1.000000
   34       -5.481696     -4.883255   1.000000   1.000000
   35       -5.448605     -4.820700   1.000000   1.000002
   36       -5.442884     -4.702572   1.000000   1.000081
   37       -5.384602     -4.646857   1.000000   1.000359
   38       -5.315755     -4.610845   1.000000   1.000857
   39       -5.292582     -4.575376   1.000000   1.001875
   40       -5.259521     -4.461866   1.000000   1.013623
   41       -5.207314     -4.407100   1.000000   1.025491
   42       -5.152431     -4.359513   1.000000   1.034471
   43       -5.149569     -4.339850   1.000000   1.035430
   44       -5.088782     -4.261221   1.000000   0.994552
   45       -5.055865     -4.166812   1.000000   0.774372
   46       -5.012674     -4.119442   1.000000   0.591867
   47       -4.948679     -4.034981   1.000000   0.248933
   48       -4.913912     -4.013357   1.000000   0.176228
   49       -4.885361     -3.989664   1.000000   0.108924
   50       -4.834453     -3.958671   1.000001   0.042033
   51       -4.800065     -3.930173   1.000004   0.001067
   52       -4.737100     -3.872029   1.000030  -0.033811
   53       -4.645261     -3.795768   1.000374  -0.027244
   54       -4.295229     -3.731939   1.023860  -0.013370
   55       -3.419320     -3.144580  -0.000009  -0.000000
   56       -2.785221     -2.530409  -0.000000  -0.000000
   57       -2.657780     -2.345386  -0.000000  -0.000000
   58       -2.371143     -2.048280  -0.000000  -0.000000
   59       -2.050864     -1.742705  -0.000000  -0.000000
   60       -1.575624     -1.337144  -0.000000  -0.000000
   61       -1.399921     -1.163972  -0.000000  -0.000000
   62       -0.825579     -0.657916  -0.000000  -0.000000
   63       -0.602486     -0.470194  -0.000000  -0.000000
   64       -0.481513     -0.299466  -0.000000  -0.000000
   65       -0.337653     -0.133700  -0.000000  -0.000000
   66       -0.177078      0.026311  -0.000000  -0.000000
