       N       E                     dE             d eps       ncg     rms          rms(c)
DAV:   1     0.695305715804E+03    0.69531E+03   -0.16448E+04   280   0.695E+02
DAV:   2     0.240519697761E+03   -0.45479E+03   -0.42306E+03   472   0.127E+02
DAV:   3     0.166695436936E+02   -0.22385E+03   -0.20896E+03   384   0.122E+02
DAV:   4    -0.381394446369E+02   -0.54809E+02   -0.47564E+02   400   0.547E+01
DAV:   5    -0.438300632577E+02   -0.56906E+01   -0.51702E+01   326   0.224E+01    0.254E+01
DAV:   6    -0.543016558372E+02   -0.10472E+02   -0.78368E+01   284   0.138E+02    0.503E+01
DAV:   7    -0.378426171401E+02    0.16459E+02   -0.57461E+01   322   0.781E+01    0.209E+01
DAV:   8    -0.421880669768E+02   -0.43454E+01   -0.24870E+01   380   0.834E+01    0.445E+01
DAV:   9    -0.420999501124E+02    0.88117E-01   -0.38648E+01   356   0.672E+01    0.442E+01
DAV:  10    -0.363639179889E+02    0.57360E+01   -0.19436E+01   326   0.467E+01    0.304E+01
DAV:  11    -0.346409474965E+02    0.17230E+01   -0.95745E+00   350   0.359E+01    0.162E+01
DAV:  12    -0.351103661307E+02   -0.46942E+00   -0.50102E+00   334   0.425E+01    0.249E+01
DAV:  13    -0.348780081136E+02    0.23236E+00   -0.42213E+00   330   0.297E+01    0.147E+01
DAV:  14    -0.353649070100E+02   -0.48690E+00   -0.19294E+00   334   0.167E+01    0.151E+01
DAV:  15    -0.352860139257E+02    0.78893E-01   -0.12424E+00   318   0.139E+01    0.952E+00
DAV:  16    -0.355616082504E+02   -0.27559E+00   -0.80335E-01   384   0.107E+01    0.567E+00
DAV:  17    -0.358958409169E+02   -0.33423E+00   -0.20438E-01   352   0.373E+00    0.715E+00
DAV:  18    -0.361239262940E+02   -0.22809E+00   -0.42035E-02   336   0.229E+00    0.705E+00
DAV:  19    -0.366637040787E+02   -0.53978E+00   -0.37686E-01   372   0.832E+00    0.389E+00
DAV:  20    -0.368426427463E+02   -0.17894E+00   -0.18655E-01   382   0.501E+00    0.511E+00
DAV:  21    -0.369334506230E+02   -0.90808E-01   -0.56116E-02   356   0.238E+00    0.441E+00
DAV:  22    -0.370452690541E+02   -0.11182E+00   -0.50670E-02   346   0.343E+00    0.191E+00
DAV:  23    -0.372790838005E+02   -0.23381E+00   -0.44741E-02   372   0.226E+00    0.801E-01
DAV:  24    -0.374296483656E+02   -0.15056E+00   -0.13334E-02   286   0.923E-01    0.768E-01
DAV:  25    -0.375560285420E+02   -0.12638E+00   -0.38658E-03   354   0.699E-01    0.481E-01
DAV:  26    -0.376817843410E+02   -0.12576E+00   -0.41885E-03   354   0.656E-01    0.227E-01
DAV:  27    -0.377570911456E+02   -0.75307E-01   -0.23062E-03   314   0.431E-01    0.196E-01
DAV:  28    -0.377896596311E+02   -0.32568E-01   -0.80811E-04   280   0.249E-01    0.107E-01
DAV:  29    -0.378215294598E+02   -0.31870E-01   -0.42863E-04   204   0.153E-01    0.737E-02
DAV:  30    -0.378522232030E+02   -0.30694E-01   -0.50225E-04   228   0.151E-01    0.650E-02
DAV:  31    -0.378708105765E+02   -0.18587E-01   -0.29639E-04   230   0.108E-01    0.559E-02
DAV:  32    -0.378894385653E+02   -0.18628E-01   -0.39586E-04   228   0.944E-02    0.544E-02
DAV:  33    -0.378998803133E+02   -0.10442E-01   -0.18965E-04   214   0.662E-02    0.345E-02
DAV:  34    -0.379090893473E+02   -0.92090E-02   -0.31264E-04   236   0.655E-02    0.325E-02
DAV:  35    -0.379126545071E+02   -0.35652E-02   -0.88478E-05   192   0.536E-02    0.232E-02
DAV:  36    -0.379145667444E+02   -0.19122E-02   -0.69342E-05   184   0.296E-02    0.208E-02
DAV:  37    -0.379159738577E+02   -0.14071E-02   -0.50596E-05   200   0.371E-02    0.106E-02
DAV:  38    -0.379166795107E+02   -0.70565E-03   -0.34746E-05   184   0.258E-02    0.663E-03
DAV:  39    -0.379171272007E+02   -0.44769E-03   -0.23207E-05   190   0.176E-02    0.527E-03
DAV:  40    -0.379174844110E+02   -0.35721E-03   -0.18135E-05   172   0.130E-02    0.479E-03
DAV:  41    -0.379177781752E+02   -0.29376E-03   -0.15310E-05   170   0.125E-02    0.360E-03
DAV:  42    -0.379179757973E+02   -0.19762E-03   -0.10344E-05   184   0.107E-02    0.260E-03
DAV:  43    -0.379181574479E+02   -0.18165E-03   -0.99743E-06   168   0.115E-02    0.447E-03
DAV:  44    -0.379182541712E+02   -0.96723E-04   -0.53011E-06   184   0.109E-02
   1 F= -.37918254E+02 E0= -.37918163E+02  d E =-.274249E-03  mag=     8.0511
