 vasp.6.1.2 22Jul20 (build Aug  2 2021 21:04:21) gamma-only                      
 executed on             LinuxPGI date 2022.01.20  00:15:41
 running on   16 total cores
 distrk:  each k-point on   16 cores,    1 groups
 distr:  one band on NCORE=   8 cores,    2 groups


--------------------------------------------------------------------------------------------------------


 INCAR:
 POTCAR:    PAW_PBE Ni 02Aug2007                  
 POTCAR:    PAW_PBE Pd 04Jan2005                  
 -----------------------------------------------------------------------------
|                                                                             |
|           W    W    AA    RRRRR   N    N  II  N    N   GGGG   !!!           |
|           W    W   A  A   R    R  NN   N  II  NN   N  G    G  !!!           |
|           W    W  A    A  R    R  N N  N  II  N N  N  G       !!!           |
|           W WW W  AAAAAA  RRRRR   N  N N  II  N  N N  G  GGG   !            |
|           WW  WW  A    A  R   R   N   NN  II  N   NN  G    G                |
|           W    W  A    A  R    R  N    N  II  N    N   GGGG   !!!           |
|                                                                             |
|     You use a magnetic or noncollinear calculation, but did not specify     |
|     the initial magnetic moment with the MAGMOM tag. Note that a            |
|     default of 1 will be used for all atoms. This ferromagnetic setup       |
|     may break the symmetry of the crystal, in particular it may rule        |
|     out finding an antiferromagnetic solution. Thence, we recommend         |
|     setting the initial magnetic moment manually or verifying carefully     |
|     that this magnetic setup is desired.                                    |
|                                                                             |
 -----------------------------------------------------------------------------

 POTCAR:    PAW_PBE Ni 02Aug2007                  
   SHA256 =  0534bc51ca8003dfef23f56753fef9fdd3e22eac8d719fccacb59f3e6b7a69c7 Ni/POTCAR             
   COPYR  = (c) Copyright 02Aug2007 Georg Kresse                                                    
   COPYR  = This file is part of the software VASP. Any use, copying, and all other rights are regul
   COPYR  = If you do not have a valid VASP license, you may not use, copy or distribute this file. 
   VRHFIN =Ni:                                                                                      
   LEXCH  = PE                                                                                      
   EATOM  =  1077.6739 eV,   79.2068 Ry                                                             
                                                                                                    
   TITEL  = PAW_PBE Ni 02Aug2007                                                                    
   LULTRA =        F    use ultrasoft PP ?                                                          
   IUNSCR =        1    unscreen: 0-lin 1-nonlin 2-no                                               
   RPACOR =    2.000    partial core radius                                                         
   POMASS =   58.690; ZVAL   =   10.000    mass and valenz                                          
   RCORE  =    2.300    outmost cutoff radius                                                       
   RWIGS  =    2.430; RWIGS  =    1.286    wigner-seitz radius (au A)                               
   ENMAX  =  269.532; ENMIN  =  202.149 eV                                                          
   RCLOC  =    1.201    cutoff for local pot                                                        
   LCOR   =        T    correct aug charges                                                         
   LPAW   =        T    paw PP                                                                      
   EAUG   =  544.565                                                                                
   DEXC   =    0.000                                                                                
   RMAX   =    2.357    core radius for proj-oper                                                   
   RAUG   =    1.300    factor for augmentation sphere                                              
   RDEP   =    2.390    radius for radial grids                                                     
   RDEPT  =    1.838    core radius for aug-charge                                                  
                                                                                                    
   Atomic configuration                                                                             
    9 entries                                                                                       
     n  l   j            E        occ.                                                              
     1  0  0.50     -8206.4253   2.0000                                                             
     2  0  0.50      -976.1748   2.0000                                                             
     2  1  1.50      -839.0571   6.0000                                                             
     3  0  0.50      -105.9991   2.0000                                                             
     3  1  1.50       -66.4603   6.0000                                                             
     3  2  2.50        -4.6458   9.0000                                                             
     4  0  0.50        -4.4926   1.0000                                                             
     4  1  1.50        -4.0817   0.0000                                                             
     4  3  2.50        -1.3606   0.0000                                                             
   Description                                                                                      
     l       E           TYP  RCUT    TYP  RCUT                                                     
     2     -4.6457903     23  2.300                                                                 
     2     -6.0063729     23  2.300                                                                 
     0     -4.4925590     23  2.300                                                                 
     0      5.0102601     23  2.300                                                                 
     1     -2.7211652     23  2.300                                                                 
     1     16.5183231     23  2.300                                                                 
  local pseudopotential read in
  partial core-charges read in
  partial kinetic energy density read in
  atomic valenz-charges read in
  non local Contribution for L=            2  read in
    real space projection operators read in
  non local Contribution for L=            2  read in
    real space projection operators read in
  non local Contribution for L=            0  read in
    real space projection operators read in
  non local Contribution for L=            0  read in
    real space projection operators read in
  non local Contribution for L=            1  read in
    real space projection operators read in
  non local Contribution for L=            1  read in
    real space projection operators read in
    PAW grid and wavefunctions read in
 
   number of l-projection  operators is LMAX  =            6
   number of lm-projection operators is LMMAX =           18
 
 POTCAR:    PAW_PBE Pd 04Jan2005                  
   SHA256 =  dd6f6f02930356371984e2b707ff5e456046761dc76b07c1eba30abd15eb3c39 Pd/POTCAR             
   COPYR  = (c) Copyright 04Jan2005 Georg Kresse                                                    
   COPYR  = This file is part of the software VASP. Any use, copying, and all other rights are regul
   COPYR  = If you do not have a valid VASP license, you may not use, copy or distribute this file. 
   VRHFIN =Pd : s1 d9                                                                               
   LEXCH  = PE                                                                                      
   EATOM  =   809.7530 eV,   59.5152 Ry                                                             
                                                                                                    
   TITEL  = PAW_PBE Pd 04Jan2005                                                                    
   LULTRA =        F    use ultrasoft PP ?                                                          
   IUNSCR =        1    unscreen: 0-lin 1-nonlin 2-no                                               
   RPACOR =    2.000    partial core radius                                                         
   POMASS =  106.420; ZVAL   =   10.000    mass and valenz                                          
   RCORE  =    2.600    outmost cutoff radius                                                       
   RWIGS  =    2.710; RWIGS  =    1.434    wigner-seitz radius (au A)                               
   ENMAX  =  250.925; ENMIN  =  188.194 eV                                                          
   ICORE  =        3    local potential                                                             
   LCOR   =        T    correct aug charges                                                         
   LPAW   =        T    paw PP                                                                      
   EAUG   =  416.230                                                                                
   DEXC   =    0.000                                                                                
   RMAX   =    2.653    core radius for proj-oper                                                   
   RAUG   =    1.300    factor for augmentation sphere                                              
   RDEP   =    2.734    radius for radial grids                                                     
   RDEPT  =    2.103    core radius for aug-charge                                                  
                                                                                                    
   Atomic configuration                                                                             
   12 entries                                                                                       
     n  l   j            E        occ.                                                              
     1  0  0.50    -24164.6631   2.0000                                                             
     2  0  0.50     -3530.9218   2.0000                                                             
     2  1  1.50     -3165.6822   6.0000                                                             
     3  0  0.50      -639.4577   2.0000                                                             
     3  1  1.50      -519.4532   6.0000                                                             
     3  2  2.50      -328.9757  10.0000                                                             
     4  0  0.50       -88.7014   2.0000                                                             
     4  1  1.50       -54.4540   6.0000                                                             
     4  2  2.50        -6.6878   9.0000                                                             
     5  0  0.50        -4.3543   1.0000                                                             
     5  1  0.50        -1.3606   0.0000                                                             
     4  3  2.50        -1.3606   0.0000                                                             
   Description                                                                                      
     l       E           TYP  RCUT    TYP  RCUT                                                     
     2     -6.6878251     23  2.400                                                                 
     2     -8.0484077     23  2.400                                                                 
     0     -4.3542939     23  2.400                                                                 
     0      4.3406793     23  2.400                                                                 
     1     -4.0817478     23  2.600                                                                 
     1     15.8380318     23  2.600                                                                 
     3     -4.0817478     23  2.400                                                                 
  local pseudopotential read in
  partial core-charges read in
  partial kinetic energy density read in
  atomic valenz-charges read in
  non local Contribution for L=            2  read in
    real space projection operators read in
  non local Contribution for L=            2  read in
    real space projection operators read in
  non local Contribution for L=            0  read in
    real space projection operators read in
  non local Contribution for L=            0  read in
    real space projection operators read in
  non local Contribution for L=            1  read in
    real space projection operators read in
  non local Contribution for L=            1  read in
    real space projection operators read in
    PAW grid and wavefunctions read in
 
   number of l-projection  operators is LMAX  =            6
   number of lm-projection operators is LMMAX =           18
 
  PAW_PBE Ni 02Aug2007                  :
 energy of atom  1       EATOM=-1077.6739
 kinetic energy error for atom=    0.0101 (will be added to EATOM!!)
  PAW_PBE Pd 04Jan2005                  :
 energy of atom  2       EATOM= -809.7530
 kinetic energy error for atom=    0.0091 (will be added to EATOM!!)
 
 
 POSCAR: Ni Pd
  positions in cartesian coordinates
  No initial velocities read in
 exchange correlation table for  LEXCH =        8
   RHO(1)=    0.500       N(1)  =     2000
   RHO(2)=  100.500       N(2)  =     4000
 


--------------------------------------------------------------------------------------------------------


 ion  position               nearest neighbor table
   1  0.384  0.499  0.525-   2 2.32   6 2.35   3 2.39   7 2.44   9 2.47
   2  0.423  0.514  0.429-   1 2.32   4 2.33   5 2.39   6 2.42   7 2.46   9 2.57   3 2.68
   3  0.484  0.469  0.522-   4 2.31   1 2.39  10 2.49   6 2.50   9 2.52   8 2.55   5 2.60   2 2.68

   4  0.498  0.447  0.420-   3 2.31   5 2.32   2 2.33   9 2.47   8 2.47
   5  0.523  0.542  0.442-   4 2.32   6 2.37   2 2.39   8 2.51  10 2.52   3 2.60
   6  0.454  0.572  0.516-   1 2.35   5 2.37   7 2.41  10 2.41   2 2.42   3 2.50
   7  0.358  0.588  0.472-   6 2.41   1 2.44   2 2.46
   8  0.588  0.462  0.481-   4 2.47   5 2.51   3 2.55  10 2.68
   9  0.407  0.411  0.466-   4 2.47   1 2.47   3 2.52   2 2.57
  10  0.550  0.548  0.553-   6 2.41   3 2.49   5 2.52   8 2.68
 

IMPORTANT INFORMATION: All symmetrisations will be switched off!
NOSYMM: (Re-)initialisation of all symmetry stuff for point group C_1.


----------------------------------------------------------------------------------------

                                     Primitive cell                                     

  volume of cell :   11579.8092

  direct lattice vectors                    reciprocal lattice vectors
    22.833779986  0.000000000  0.000000000     0.043794764  0.000000000  0.000000000
     0.000000000 23.211533943  0.000000000     0.000000000  0.043082030  0.000000000
     0.000000000  0.000000000 21.848405639     0.000000000  0.000000000  0.045769930

  length of vectors
    22.833779986 23.211533943 21.848405639     0.043794764  0.043082030  0.045769930

  position of ions in fractional coordinates (direct lattice)
     0.383661369  0.498736951  0.525180431
     0.423359729  0.514449429  0.428652239
     0.483800691  0.468533759  0.521627621
     0.498270699  0.446762813  0.419630933
     0.523369614  0.541588067  0.441518775
     0.454118224  0.571855563  0.515514793
     0.358444372  0.588079404  0.472384722
     0.588021647  0.462457831  0.480665552
     0.407083735  0.410696354  0.466362662
     0.550430229  0.547949971  0.553284198

  ion indices of the primitive-cell ions
   primitive index   ion index
                 1           1
                 2           2
                 3           3
                 4           4
                 5           5
                 6           6
                 7           7
                 8           8
                 9           9
                10          10

----------------------------------------------------------------------------------------

 
 
 KPOINTS: KPOINTS created by Atomic Simulation Env

Automatic generation of k-mesh.
Space group operators:
 irot       det(A)        alpha          n_x          n_y          n_z        tau_x        tau_y        tau_z
    1     1.000000     0.000000     1.000000     0.000000     0.000000     0.000000     0.000000     0.000000
 
 Subroutine IBZKPT returns following result:
 ===========================================
 
 Found      1 irreducible k-points:
 
 Following reciprocal coordinates:
            Coordinates               Weight
  0.000000  0.000000  0.000000      1.000000
 
 Following cartesian coordinates:
            Coordinates               Weight
  0.000000  0.000000  0.000000      1.000000
 


--------------------------------------------------------------------------------------------------------




 Dimension of arrays:
   k-points           NKPTS =      1   k-points in BZ     NKDIM =      1   number of bands    NBANDS=     66
   number of dos      NEDOS =    301   number of ions     NIONS =     10
   non local maximal  LDIM  =      6   non local SUM 2l+1 LMDIM =     18
   total plane-waves  NPLWV = ******
   max r-space proj   IRMAX =      1   max aug-charges    IRDMAX=   6279
   dimension x,y,z NGX =   112 NGY =  120 NGZ =  108
   dimension x,y,z NGXF=   224 NGYF=  240 NGZF=  216
   support grid    NGXF=   224 NGYF=  240 NGZF=  216
   ions per type =               6   4
   NGX,Y,Z   is equivalent  to a cutoff of   8.15,  8.59,  8.22 a.u.
   NGXF,Y,Z  is equivalent  to a cutoff of  16.31, 17.19, 16.44 a.u.

 SYSTEM =  unknown system                          
 POSCAR =  Ni Pd                                   

 Startparameter for this run:
   NWRITE =      2    write-flag & timer
   PREC   = normal    normal or accurate (medium, high low for compatibility)
   ISTART =      0    job   : 0-new  1-cont  2-samecut
   ICHARG =      2    charge: 1-file 2-atom 10-const
   ISPIN  =      2    spin polarized calculation?
   LNONCOLLINEAR =      F non collinear calculations
   LSORBIT =      F    spin-orbit coupling
   INIWAV =      1    electr: 0-lowe 1-rand  2-diag
   LASPH  =      F    aspherical Exc in radial PAW
   METAGGA=      F    non-selfconsistent MetaGGA calc.

 Electronic Relaxation 1
   ENCUT  =  400.0 eV  29.40 Ry    5.42 a.u.  37.24 37.85 35.63*2*pi/ulx,y,z
   ENINI  =  400.0     initial cutoff
   ENAUG  =  544.6 eV  augmentation charge cutoff
   NELM   =     60;   NELMIN=  2; NELMDL=  0     # of ELM steps 
   EDIFF  = 0.1E-03   stopping-criterion for ELM
   LREAL  =      F    real-space projection
   NLSPLINE    = F    spline interpolate recip. space projectors
   LCOMPAT=      F    compatible to vasp.4.4
   GGA_COMPAT  = T    GGA compatible to vasp.4.4-vasp.4.6
   LMAXPAW     = -100 max onsite density
   LMAXMIX     =    2 max onsite mixed and CHGCAR
   VOSKOWN=      0    Vosko Wilk Nusair interpolation
   ROPT   =    0.00000   0.00000
 Ionic relaxation
   EDIFFG = 0.1E-02   stopping-criterion for IOM
   NSW    =      0    number of steps for IOM
   NBLOCK =      1;   KBLOCK =      1    inner block; outer block 
   IBRION =     -1    ionic relax: 0-MD 1-quasi-New 2-CG
   NFREE  =      0    steps in history (QN), initial steepest desc. (CG)
   ISIF   =      0    stress and relaxation
   IWAVPR =     10    prediction:  0-non 1-charg 2-wave 3-comb
   ISYM   =      0    0-nonsym 1-usesym 2-fastsym
   LCORR  =      T    Harris-Foulkes like correction to forces

   POTIM  = 0.5000    time-step for ionic-motion
   TEIN   =    0.0    initial temperature
   TEBEG  =    0.0;   TEEND  =   0.0 temperature during run
   SMASS  =  -3.00    Nose mass-parameter (am)
   estimated Nose-frequenzy (Omega)   =  0.10E-29 period in steps = 0.13E+47 mass=  -0.119E-25a.u.
   SCALEE = 1.0000    scale energy and forces
   NPACO  =    256;   APACO  = 16.0  distance and # of slots for P.C.
   PSTRESS=    0.0 pullay stress

  Mass of Ions in am
   POMASS =  58.69106.42
  Ionic Valenz
   ZVAL   =  10.00 10.00
  Atomic Wigner-Seitz radii
   RWIGS  =  -1.00 -1.00
  virtual crystal weights 
   VCA    =   1.00  1.00
   NELECT =     100.0000    total number of electrons
   NUPDOWN=      -1.0000    fix difference up-down

 DOS related values:
   EMIN   =  10.00;   EMAX   =-10.00  energy-range for DOS
   EFERMI =   0.00
   ISMEAR =     1;   SIGMA  =   0.20  broadening in eV -4-tet -1-fermi 0-gaus

 Electronic relaxation 2 (details)
   IALGO  =     38    algorithm
   LDIAG  =      T    sub-space diagonalisation (order eigenvalues)
   LSUBROT=      F    optimize rotation matrix (better conditioning)
   TURBO    =      0    0=normal 1=particle mesh
   IRESTART =      0    0=no restart 2=restart with 2 vectors
   NREBOOT  =      0    no. of reboots
   NMIN     =      0    reboot dimension
   EREF     =   0.00    reference energy to select bands
   IMIX   =      4    mixing-type and parameters
     AMIX     =   0.40;   BMIX     =  1.00
     AMIX_MAG =   1.60;   BMIX_MAG =  1.00
     AMIN     =   0.10
     WC   =   100.;   INIMIX=   1;  MIXPRE=   1;  MAXMIX= -45

 Intra band minimization:
   WEIMIN = 0.0000     energy-eigenvalue tresh-hold
   EBREAK =  0.38E-06  absolut break condition
   DEPER  =   0.30     relativ break condition  

   TIME   =   0.40     timestep for ELM

  volume/ion in A,a.u.               =    1157.98      7814.44
  Fermi-wavevector in a.u.,A,eV,Ry     =   0.335872  0.634707  1.534877  0.112810
  Thomas-Fermi vector in A             =   1.235780
 
 Write flags
   LWAVE        =      F    write WAVECAR
   LDOWNSAMPLE  =      F    k-point downsampling of WAVECAR
   LCHARG       =      F    write CHGCAR
   LVTOT        =      F    write LOCPOT, total local potential
   LVHAR        =      F    write LOCPOT, Hartree potential only
   LELF         =      F    write electronic localiz. function (ELF)
   LORBIT       =      0    0 simple, 1 ext, 2 COOP (PROOUT), +10 PAW based schemes


 Dipole corrections
   LMONO  =      F    monopole corrections only (constant potential shift)
   LDIPOL =      F    correct potential (dipole corrections)
   IDIPOL =      0    1-x, 2-y, 3-z, 4-all directions 
   EPSILON=  1.0000000 bulk dielectric constant

 Exchange correlation treatment:
   GGA     =    PE    GGA type
   LEXCH   =     8    internal setting for exchange type
   VOSKOWN=      0    Vosko Wilk Nusair interpolation
   LHFCALC =     F    Hartree Fock is set to
   LHFONE  =     F    Hartree Fock one center treatment
   AEXX    =    0.0000 exact exchange contribution

 Linear response parameters
   LEPSILON=     F    determine dielectric tensor
   LRPA    =     F    only Hartree local field effects (RPA)
   LNABLA  =     F    use nabla operator in PAW spheres
   LVEL    =     F    velocity operator in full k-point grid
   LINTERFAST=   F  fast interpolation
   KINTER  =     0    interpolate to denser k-point grid
   CSHIFT  =0.1000    complex shift for real part using Kramers Kronig
   OMEGAMAX=  -1.0    maximum frequency
   DEG_THRESHOLD= 0.2000000E-02 threshold for treating states as degnerate
   RTIME   =   -0.100 relaxation time in fs
  (WPLASMAI=    0.000 imaginary part of plasma frequency in eV, 0.658/RTIME)
   DFIELD  = 0.0000000 0.0000000 0.0000000 field for delta impulse in time
 
 Orbital magnetization related:
   ORBITALMAG=     F  switch on orbital magnetization
   LCHIMAG   =     F  perturbation theory with respect to B field
   DQ        =  0.001000  dq finite difference perturbation B field
   LLRAUG    =     F  two centre corrections for induced B field



--------------------------------------------------------------------------------------------------------


 Static calculation
 charge density and potential will be updated during run
 spin polarized calculation
 Variant of blocked Davidson
 Davidson routine will perform the subspace rotation
 perform sub-space diagonalisation
    after iterative eigenvector-optimisation
 modified Broyden-mixing scheme, WC =      100.0
 initial mixing is a Kerker type mixing with AMIX =  0.4000 and BMIX =      1.0000
 Hartree-type preconditioning will be used
 using additional bands            16
 reciprocal scheme for non local part
 use partial core corrections
 calculate Harris-corrections to forces 
   (improved forces if not selfconsistent)
 use gradient corrections 
 use of overlap-Matrix (Vanderbilt PP)
 Methfessel and Paxton  Order N= 1 SIGMA  =   0.20


--------------------------------------------------------------------------------------------------------


  energy-cutoff  :      400.00
  volume of cell :    11579.81
      direct lattice vectors                 reciprocal lattice vectors
    22.833779986  0.000000000  0.000000000     0.043794764  0.000000000  0.000000000
     0.000000000 23.211533943  0.000000000     0.000000000  0.043082030  0.000000000
     0.000000000  0.000000000 21.848405639     0.000000000  0.000000000  0.045769930

  length of vectors
    22.833779986 23.211533943 21.848405639     0.043794764  0.043082030  0.045769930


 
 k-points in units of 2pi/SCALE and weight: KPOINTS created by Atomic Simulation Env
   0.00000000  0.00000000  0.00000000       1.000
 
 k-points in reciprocal lattice and weights: KPOINTS created by Atomic Simulation Env
   0.00000000  0.00000000  0.00000000       1.000
 
 position of ions in fractional coordinates (direct lattice) 
   0.38366137  0.49873695  0.52518043
   0.42335973  0.51444943  0.42865224
   0.48380069  0.46853376  0.52162762
   0.49827070  0.44676281  0.41963093
   0.52336961  0.54158807  0.44151878
   0.45411822  0.57185556  0.51551479
   0.35844437  0.58807940  0.47238472
   0.58802165  0.46245783  0.48066555
   0.40708374  0.41069635  0.46636266
   0.55043023  0.54794997  0.55328420
 
 position of ions in cartesian coordinates  (Angst):
   8.76043929 11.57644967 11.47435509
   9.66690290 11.94116037  9.36536799
  11.04699854 10.87538726 11.39673186
  11.37740351 10.37005020  9.16826684
  11.95050661 12.57108981  9.64648130
  10.36923561 13.27364482 11.26317630
   8.18463993 13.65022505 10.32085302
  13.42675692 10.73435564 10.50177595
   9.29526045  9.53289236 10.18928061
  12.56840275 12.71875935 12.08837759
 


--------------------------------------------------------------------------------------------------------


 use parallel FFT for orbitals z direction half grid
 k-point   1 :   0.0000 0.0000 0.0000  plane waves:  105198

 maximum and minimum number of plane-waves per node :     13160    13143

 maximum number of plane-waves:    105198
 maximum index in each direction: 
   IXMAX=   37   IYMAX=   37   IZMAX=   35
   IXMIN=  -37   IYMIN=  -37   IZMIN=    0


 parallel 3D FFT for wavefunctions:
    minimum data exchange during FFTs selected (reduces bandwidth)
 parallel 3D FFT for charge:
    minimum data exchange during FFTs selected (reduces bandwidth)


 total amount of memory used by VASP MPI-rank0   151310. kBytes
=======================================================================

   base      :      30000. kBytes
   nonl-proj :       5889. kBytes
   fftplans  :      28430. kBytes
   grid      :      73059. kBytes
   one-center:         31. kBytes
   wavefun   :      13901. kBytes
 
     INWAV:  cpu time    0.0000: real time    0.0000
 Broyden mixing: mesh for mixing (old mesh)
   NGX = 75   NGY = 75   NGZ = 71
  (NGX  =224   NGY  =240   NGZ  =216)
  gives a total of 399375 points

 initial charge density was supplied:
 charge density of overlapping atoms calculated
 number of electron     100.0000000 magnetization      10.0000000
 keeping initial charge density in first step


--------------------------------------------------------------------------------------------------------


 Maximum index for augmentation-charges           401 (set IRDMAX)


--------------------------------------------------------------------------------------------------------


 First call to EWALD:  gamma=   0.078
 Maximum number of real-space cells 3x 3x 3
 Maximum number of reciprocal cells 3x 3x 3

    FEWALD:  cpu time    0.0039: real time    0.0039


--------------------------------------- Iteration      1(   1)  ---------------------------------------


    POTLOK:  cpu time    2.2834: real time    2.2938
    SETDIJ:  cpu time    0.0211: real time    0.0211
     EDDAV:  cpu time    5.4011: real time    5.4138
       DOS:  cpu time    0.0066: real time    0.0066
    --------------------------------------------
      LOOP:  cpu time    7.7123: real time    7.7353

 eigenvalue-minimisations  :   280
 total energy-change (2. order) : 0.6953057E+03  (-0.1644847E+04)
 number of electron     100.0000000 magnetization      10.0000000
 augmentation part      100.0000000 magnetization      10.0000000

 Free energy of the ion-electron system (eV)
  ---------------------------------------------------
  alpha Z        PSCENC =         4.89383974
  Ewald energy   TEWEN  =     12823.60751310
  -Hartree energ DENC   =    -21795.14446232
  -exchange      EXHF   =         0.00000000
  -V(xc)+E(xc)   XCENC  =        63.17552795
  PAW double counting   =      9003.59075477    -9155.75339974
  entropy T*S    EENTRO =         0.01316477
  eigenvalues    EBANDS =        45.96418443
  atomic energy  EATOM  =      9704.95859309
  Solvation  Ediel_sol  =         0.00000000
  ---------------------------------------------------
  free energy    TOTEN  =       695.30571580 eV

  energy without entropy =      695.29255103  energy(sigma->0) =      695.30132755


--------------------------------------------------------------------------------------------------------




--------------------------------------- Iteration      1(   2)  ---------------------------------------


     EDDAV:  cpu time    7.9854: real time    7.9970
       DOS:  cpu time    0.0065: real time    0.0065
    --------------------------------------------
      LOOP:  cpu time    7.9920: real time    8.0035

 eigenvalue-minimisations  :   472
 total energy-change (2. order) :-0.4547860E+03  (-0.4230572E+03)
 number of electron     100.0000000 magnetization      10.0000000
 augmentation part      100.0000000 magnetization      10.0000000

 Free energy of the ion-electron system (eV)
  ---------------------------------------------------
  alpha Z        PSCENC =         4.89383974
  Ewald energy   TEWEN  =     12823.60751310
  -Hartree energ DENC   =    -21795.14446232
  -exchange      EXHF   =         0.00000000
  -V(xc)+E(xc)   XCENC  =        63.17552795
  PAW double counting   =      9003.59075477    -9155.75339974
  entropy T*S    EENTRO =         0.05179305
  eigenvalues    EBANDS =      -408.86046189
  atomic energy  EATOM  =      9704.95859309
  Solvation  Ediel_sol  =         0.00000000
  ---------------------------------------------------
  free energy    TOTEN  =       240.51969776 eV

  energy without entropy =      240.46790471  energy(sigma->0) =      240.50243341


--------------------------------------------------------------------------------------------------------




--------------------------------------- Iteration      1(   3)  ---------------------------------------


     EDDAV:  cpu time    6.7485: real time    6.7589
       DOS:  cpu time    0.0064: real time    0.0064
    --------------------------------------------
      LOOP:  cpu time    6.7550: real time    6.7654

 eigenvalue-minimisations  :   384
 total energy-change (2. order) :-0.2238502E+03  (-0.2089566E+03)
 number of electron     100.0000000 magnetization      10.0000000
 augmentation part      100.0000000 magnetization      10.0000000

 Free energy of the ion-electron system (eV)
  ---------------------------------------------------
  alpha Z        PSCENC =         4.89383974
  Ewald energy   TEWEN  =     12823.60751310
  -Hartree energ DENC   =    -21795.14446232
  -exchange      EXHF   =         0.00000000
  -V(xc)+E(xc)   XCENC  =        63.17552795
  PAW double counting   =      9003.59075477    -9155.75339974
  entropy T*S    EENTRO =         0.03427836
  eigenvalues    EBANDS =      -632.69310127
  atomic energy  EATOM  =      9704.95859309
  Solvation  Ediel_sol  =         0.00000000
  ---------------------------------------------------
  free energy    TOTEN  =        16.66954369 eV

  energy without entropy =       16.63526533  energy(sigma->0) =       16.65811757


--------------------------------------------------------------------------------------------------------




--------------------------------------- Iteration      1(   4)  ---------------------------------------


     EDDAV:  cpu time    6.9842: real time    6.9908
       DOS:  cpu time    0.0066: real time    0.0066
    --------------------------------------------
      LOOP:  cpu time    6.9907: real time    6.9973

 eigenvalue-minimisations  :   400
 total energy-change (2. order) :-0.5480899E+02  (-0.4756435E+02)
 number of electron     100.0000000 magnetization      10.0000000
 augmentation part      100.0000000 magnetization      10.0000000

 Free energy of the ion-electron system (eV)
  ---------------------------------------------------
  alpha Z        PSCENC =         4.89383974
  Ewald energy   TEWEN  =     12823.60751310
  -Hartree energ DENC   =    -21795.14446232
  -exchange      EXHF   =         0.00000000
  -V(xc)+E(xc)   XCENC  =        63.17552795
  PAW double counting   =      9003.59075477    -9155.75339974
  entropy T*S    EENTRO =        -0.04964312
  eigenvalues    EBANDS =      -687.41816812
  atomic energy  EATOM  =      9704.95859309
  Solvation  Ediel_sol  =         0.00000000
  ---------------------------------------------------
  free energy    TOTEN  =       -38.13944464 eV

  energy without entropy =      -38.08980152  energy(sigma->0) =      -38.12289693


--------------------------------------------------------------------------------------------------------




--------------------------------------- Iteration      1(   5)  ---------------------------------------


     EDDAV:  cpu time    5.9600: real time    5.9658
       DOS:  cpu time    0.0065: real time    0.0065
    CHARGE:  cpu time    0.5765: real time    0.5770
    MIXING:  cpu time    0.0353: real time    0.0380
    --------------------------------------------
      LOOP:  cpu time    6.5783: real time    6.5874

 eigenvalue-minimisations  :   326
 total energy-change (2. order) :-0.5690619E+01  (-0.5170203E+01)
 number of electron     100.0000163 magnetization       9.7772206
 augmentation part       52.1084411 magnetization       7.8047859

 Broyden mixing:
  rms(total) = 0.25445E+01    rms(broyden)= 0.25434E+01
  rms(prec ) = 0.26496E+01
  weight for this iteration     100.00

 Free energy of the ion-electron system (eV)
  ---------------------------------------------------
  alpha Z        PSCENC =         4.89383974
  Ewald energy   TEWEN  =     12823.60751310
  -Hartree energ DENC   =    -21795.14446232
  -exchange      EXHF   =         0.00000000
  -V(xc)+E(xc)   XCENC  =        63.17552795
  PAW double counting   =      9003.59075477    -9155.75339974
  entropy T*S    EENTRO =        -0.01275972
  eigenvalues    EBANDS =      -693.14567013
  atomic energy  EATOM  =      9704.95859309
  Solvation  Ediel_sol  =         0.00000000
  ---------------------------------------------------
  free energy    TOTEN  =       -43.83006326 eV

  energy without entropy =      -43.81730353  energy(sigma->0) =      -43.82581002


--------------------------------------------------------------------------------------------------------




--------------------------------------- Iteration      1(   6)  ---------------------------------------


    POTLOK:  cpu time    2.2594: real time    2.2648
    SETDIJ:  cpu time    0.0213: real time    0.0213
     EDDAV:  cpu time    5.3455: real time    5.3583
       DOS:  cpu time    0.0104: real time    0.0104
    CHARGE:  cpu time    0.5732: real time    0.5774
    MIXING:  cpu time    0.0382: real time    0.0383
    --------------------------------------------
      LOOP:  cpu time    8.2480: real time    8.2705

 eigenvalue-minimisations  :   284
 total energy-change (2. order) :-0.1047159E+02  (-0.7836774E+01)
 number of electron     100.0000248 magnetization       9.5390906
 augmentation part       57.2516540 magnetization       8.8648847

 Broyden mixing:
  rms(total) = 0.50263E+01    rms(broyden)= 0.50259E+01
  rms(prec ) = 0.53895E+01
  weight for this iteration     100.00

 eigenvalues of (default mixing * dielectric matrix)
  average eigenvalue GAMMA=   0.2877
  0.2877

 Free energy of the ion-electron system (eV)
  ---------------------------------------------------
  alpha Z        PSCENC =         4.89383974
  Ewald energy   TEWEN  =     12823.60751310
  -Hartree energ DENC   =    -21709.80546282
  -exchange      EXHF   =         0.00000000
  -V(xc)+E(xc)   XCENC  =        59.48044273
  PAW double counting   =      9478.50473592    -9606.04439439
  entropy T*S    EENTRO =         0.00977203
  eigenvalues    EBANDS =      -809.90669524
  atomic energy  EATOM  =      9704.95859309
  Solvation  Ediel_sol  =         0.00000000
  ---------------------------------------------------
  free energy    TOTEN  =       -54.30165584 eV

  energy without entropy =      -54.31142786  energy(sigma->0) =      -54.30491318


--------------------------------------------------------------------------------------------------------




--------------------------------------- Iteration      1(   7)  ---------------------------------------


    POTLOK:  cpu time    2.2407: real time    2.2463
    SETDIJ:  cpu time    0.0213: real time    0.0213
     EDDAV:  cpu time    5.8845: real time    5.8941
       DOS:  cpu time    0.0110: real time    0.0111
    CHARGE:  cpu time    0.5704: real time    0.5708
    MIXING:  cpu time    0.0401: real time    0.0401
    --------------------------------------------
      LOOP:  cpu time    8.7679: real time    8.7836

 eigenvalue-minimisations  :   322
 total energy-change (2. order) : 0.1645904E+02  (-0.5746053E+01)
 number of electron     100.0000210 magnetization       9.4444443
 augmentation part       54.9355372 magnetization       7.1780984

 Broyden mixing:
  rms(total) = 0.20913E+01    rms(broyden)= 0.20903E+01
  rms(prec ) = 0.22451E+01
  weight for this iteration     100.00

 eigenvalues of (default mixing * dielectric matrix)
  average eigenvalue GAMMA=   0.2865
  0.2898  0.2831

 Free energy of the ion-electron system (eV)
  ---------------------------------------------------
  alpha Z        PSCENC =         4.89383974
  Ewald energy   TEWEN  =     12823.60751310
  -Hartree energ DENC   =    -21779.93854091
  -exchange      EXHF   =         0.00000000
  -V(xc)+E(xc)   XCENC  =        61.22268081
  PAW double counting   =      9635.57744139    -9787.27864565
  entropy T*S    EENTRO =        -0.03322379
  eigenvalues    EBANDS =      -700.85227493
  atomic energy  EATOM  =      9704.95859309
  Solvation  Ediel_sol  =         0.00000000
  ---------------------------------------------------
  free energy    TOTEN  =       -37.84261714 eV

  energy without entropy =      -37.80939335  energy(sigma->0) =      -37.83154254


--------------------------------------------------------------------------------------------------------




--------------------------------------- Iteration      1(   8)  ---------------------------------------


    POTLOK:  cpu time    2.2576: real time    2.2594
    SETDIJ:  cpu time    0.0215: real time    0.0216
     EDDAV:  cpu time    6.5920: real time    6.6170
       DOS:  cpu time    0.0113: real time    0.0114
    CHARGE:  cpu time    0.5741: real time    0.5746
    MIXING:  cpu time    0.0445: real time    0.0446
    --------------------------------------------
      LOOP:  cpu time    9.5012: real time    9.5285

 eigenvalue-minimisations  :   380
 total energy-change (2. order) :-0.4345450E+01  (-0.2487027E+01)
 number of electron     100.0000158 magnetization       9.2750205
 augmentation part       54.1685272 magnetization       7.4827674

 Broyden mixing:
  rms(total) = 0.44480E+01    rms(broyden)= 0.44474E+01
  rms(prec ) = 0.47905E+01
  weight for this iteration     100.00

 eigenvalues of (default mixing * dielectric matrix)
  average eigenvalue GAMMA=   0.3496
  0.6580  0.2591  0.1318

 Free energy of the ion-electron system (eV)
  ---------------------------------------------------
  alpha Z        PSCENC =         4.89383974
  Ewald energy   TEWEN  =     12823.60751310
  -Hartree energ DENC   =    -21795.24245000
  -exchange      EXHF   =         0.00000000
  -V(xc)+E(xc)   XCENC  =        62.02952703
  PAW double counting   =      9743.44674100    -9897.69956455
  entropy T*S    EENTRO =         0.01036946
  eigenvalues    EBANDS =      -688.19263586
  atomic energy  EATOM  =      9704.95859309
  Solvation  Ediel_sol  =         0.00000000
  ---------------------------------------------------
  free energy    TOTEN  =       -42.18806698 eV

  energy without entropy =      -42.19843644  energy(sigma->0) =      -42.19152346


--------------------------------------------------------------------------------------------------------




--------------------------------------- Iteration      1(   9)  ---------------------------------------


    POTLOK:  cpu time    2.2594: real time    2.2664
    SETDIJ:  cpu time    0.0227: real time    0.0227
     EDDAV:  cpu time    6.3030: real time    6.3201
       DOS:  cpu time    0.0107: real time    0.0107
    CHARGE:  cpu time    0.5722: real time    0.5727
    MIXING:  cpu time    0.0451: real time    0.0451
    --------------------------------------------
      LOOP:  cpu time    9.2131: real time    9.2378

 eigenvalue-minimisations  :   356
 total energy-change (2. order) : 0.8811686E-01  (-0.3864767E+01)
 number of electron     100.0000215 magnetization       9.1446071
 augmentation part       53.9856753 magnetization       7.4891630

 Broyden mixing:
  rms(total) = 0.44179E+01    rms(broyden)= 0.44171E+01
  rms(prec ) = 0.48119E+01
  weight for this iteration     100.00

 eigenvalues of (default mixing * dielectric matrix)
  average eigenvalue GAMMA=   0.3531
  0.8936  0.2656  0.1677  0.0857

 Free energy of the ion-electron system (eV)
  ---------------------------------------------------
  alpha Z        PSCENC =         4.89383974
  Ewald energy   TEWEN  =     12823.60751310
  -Hartree energ DENC   =    -21811.93219107
  -exchange      EXHF   =         0.00000000
  -V(xc)+E(xc)   XCENC  =        62.92973481
  PAW double counting   =      9878.23663672   -10036.11797838
  entropy T*S    EENTRO =        -0.04206575
  eigenvalues    EBANDS =      -668.63403238
  atomic energy  EATOM  =      9704.95859309
  Solvation  Ediel_sol  =         0.00000000
  ---------------------------------------------------
  free energy    TOTEN  =       -42.09995011 eV

  energy without entropy =      -42.05788436  energy(sigma->0) =      -42.08592820


--------------------------------------------------------------------------------------------------------




--------------------------------------- Iteration      1(  10)  ---------------------------------------


    POTLOK:  cpu time    2.2632: real time    2.2654
    SETDIJ:  cpu time    0.0228: real time    0.0228
     EDDAV:  cpu time    5.8629: real time    5.8835
       DOS:  cpu time    0.0105: real time    0.0105
    CHARGE:  cpu time    0.5681: real time    0.5686
    MIXING:  cpu time    0.0467: real time    0.0468
    --------------------------------------------
      LOOP:  cpu time    8.7743: real time    8.7976

 eigenvalue-minimisations  :   326
 total energy-change (2. order) : 0.5736032E+01  (-0.1943638E+01)
 number of electron     100.0000213 magnetization       9.1091046
 augmentation part       54.3959775 magnetization       6.4176276

 Broyden mixing:
  rms(total) = 0.30436E+01    rms(broyden)= 0.30428E+01
  rms(prec ) = 0.32477E+01
  weight for this iteration     100.00

 eigenvalues of (default mixing * dielectric matrix)
  average eigenvalue GAMMA=   0.3032
  0.9094  0.2840  0.1733  0.0779  0.0714

 Free energy of the ion-electron system (eV)
  ---------------------------------------------------
  alpha Z        PSCENC =         4.89383974
  Ewald energy   TEWEN  =     12823.60751310
  -Hartree energ DENC   =    -21818.74225578
  -exchange      EXHF   =         0.00000000
  -V(xc)+E(xc)   XCENC  =        63.32983193
  PAW double counting   =      9954.43943955   -10114.01735382
  entropy T*S    EENTRO =        -0.01948165
  eigenvalues    EBANDS =      -654.81404417
  atomic energy  EATOM  =      9704.95859309
  Solvation  Ediel_sol  =         0.00000000
  ---------------------------------------------------
  free energy    TOTEN  =       -36.36391799 eV

  energy without entropy =      -36.34443634  energy(sigma->0) =      -36.35742410


--------------------------------------------------------------------------------------------------------




--------------------------------------- Iteration      1(  11)  ---------------------------------------


    POTLOK:  cpu time    2.2631: real time    2.2651
    SETDIJ:  cpu time    0.0221: real time    0.0221
     EDDAV:  cpu time    6.1982: real time    6.2118
       DOS:  cpu time    0.0115: real time    0.0115
    CHARGE:  cpu time    0.5671: real time    0.5675
    MIXING:  cpu time    0.0511: real time    0.0511
    --------------------------------------------
      LOOP:  cpu time    9.1130: real time    9.1292

 eigenvalue-minimisations  :   350
 total energy-change (2. order) : 0.1722970E+01  (-0.9574457E+00)
 number of electron     100.0000200 magnetization       9.0022748
 augmentation part       54.8243212 magnetization       6.4552139

 Broyden mixing:
  rms(total) = 0.16172E+01    rms(broyden)= 0.16163E+01
  rms(prec ) = 0.17207E+01
  weight for this iteration     100.00

 eigenvalues of (default mixing * dielectric matrix)
  average eigenvalue GAMMA=   0.3305
  1.0363  0.4216  0.2195  0.1120  0.0969  0.0969

 Free energy of the ion-electron system (eV)
  ---------------------------------------------------
  alpha Z        PSCENC =         4.89383974
  Ewald energy   TEWEN  =     12823.60751310
  -Hartree energ DENC   =    -21818.94969267
  -exchange      EXHF   =         0.00000000
  -V(xc)+E(xc)   XCENC  =        63.14240467
  PAW double counting   =      9982.84846075   -10142.66945013
  entropy T*S    EENTRO =        -0.02270027
  eigenvalues    EBANDS =      -652.44991579
  atomic energy  EATOM  =      9704.95859309
  Solvation  Ediel_sol  =         0.00000000
  ---------------------------------------------------
  free energy    TOTEN  =       -34.64094750 eV

  energy without entropy =      -34.61824723  energy(sigma->0) =      -34.63338074


--------------------------------------------------------------------------------------------------------




--------------------------------------- Iteration      1(  12)  ---------------------------------------


    POTLOK:  cpu time    2.2456: real time    2.2519
    SETDIJ:  cpu time    0.0219: real time    0.0219
     EDDAV:  cpu time    6.0160: real time    6.0215
       DOS:  cpu time    0.0105: real time    0.0105
    CHARGE:  cpu time    0.5568: real time    0.5572
    MIXING:  cpu time    0.0559: real time    0.0559
    --------------------------------------------
      LOOP:  cpu time    8.9067: real time    8.9190

 eigenvalue-minimisations  :   334
 total energy-change (2. order) :-0.4694186E+00  (-0.5010181E+00)
 number of electron     100.0000197 magnetization       8.9508493
 augmentation part       54.3845341 magnetization       6.3394337

 Broyden mixing:
  rms(total) = 0.24880E+01    rms(broyden)= 0.24874E+01
  rms(prec ) = 0.26230E+01
  weight for this iteration     100.00

 eigenvalues of (default mixing * dielectric matrix)
  average eigenvalue GAMMA=   0.3269
  1.1339  0.4811  0.2158  0.1802  0.1037  0.1037  0.0703

 Free energy of the ion-electron system (eV)
  ---------------------------------------------------
  alpha Z        PSCENC =         4.89383974
  Ewald energy   TEWEN  =     12823.60751310
  -Hartree energ DENC   =    -21829.85129588
  -exchange      EXHF   =         0.00000000
  -V(xc)+E(xc)   XCENC  =        63.11329624
  PAW double counting   =     10056.34379675   -10218.46079074
  entropy T*S    EENTRO =        -0.00506824
  eigenvalues    EBANDS =      -639.71025019
  atomic energy  EATOM  =      9704.95859309
  Solvation  Ediel_sol  =         0.00000000
  ---------------------------------------------------
  free energy    TOTEN  =       -35.11036613 eV

  energy without entropy =      -35.10529789  energy(sigma->0) =      -35.10867672


--------------------------------------------------------------------------------------------------------




--------------------------------------- Iteration      1(  13)  ---------------------------------------


    POTLOK:  cpu time    2.2636: real time    2.2803
    SETDIJ:  cpu time    0.0220: real time    0.0220
     EDDAV:  cpu time    5.9685: real time    5.9854
       DOS:  cpu time    0.0104: real time    0.0104
    CHARGE:  cpu time    0.5529: real time    0.5533
    MIXING:  cpu time    0.0620: real time    0.0620
    --------------------------------------------
      LOOP:  cpu time    8.8794: real time    8.9135

 eigenvalue-minimisations  :   330
 total energy-change (2. order) : 0.2323580E+00  (-0.4221305E+00)
 number of electron     100.0000192 magnetization       8.9276286
 augmentation part       54.4117045 magnetization       6.4288431

 Broyden mixing:
  rms(total) = 0.14683E+01    rms(broyden)= 0.14677E+01
  rms(prec ) = 0.15493E+01
  weight for this iteration     100.00

 eigenvalues of (default mixing * dielectric matrix)
  average eigenvalue GAMMA=   0.3270
  1.1649  0.4129  0.4129  0.2373  0.1003  0.1003  0.0994  0.0876

 Free energy of the ion-electron system (eV)
  ---------------------------------------------------
  alpha Z        PSCENC =         4.89383974
  Ewald energy   TEWEN  =     12823.60751310
  -Hartree energ DENC   =    -21835.01858776
  -exchange      EXHF   =         0.00000000
  -V(xc)+E(xc)   XCENC  =        62.95274226
  PAW double counting   =     10092.36308371   -10255.55119095
  entropy T*S    EENTRO =        -0.00781645
  eigenvalues    EBANDS =      -633.07618487
  atomic energy  EATOM  =      9704.95859309
  Solvation  Ediel_sol  =         0.00000000
  ---------------------------------------------------
  free energy    TOTEN  =       -34.87800811 eV

  energy without entropy =      -34.87019167  energy(sigma->0) =      -34.87540263


--------------------------------------------------------------------------------------------------------




--------------------------------------- Iteration      1(  14)  ---------------------------------------


    POTLOK:  cpu time    2.2503: real time    2.2573
    SETDIJ:  cpu time    0.0214: real time    0.0214
     EDDAV:  cpu time    6.0203: real time    6.0263
       DOS:  cpu time    0.0105: real time    0.0105
    CHARGE:  cpu time    0.5554: real time    0.5559
    MIXING:  cpu time    0.0672: real time    0.0672
    --------------------------------------------
      LOOP:  cpu time    8.9251: real time    8.9386

 eigenvalue-minimisations  :   334
 total energy-change (2. order) :-0.4868989E+00  (-0.1929374E+00)
 number of electron     100.0000181 magnetization       8.9132397
 augmentation part       54.1415151 magnetization       6.5744787

 Broyden mixing:
  rms(total) = 0.15072E+01    rms(broyden)= 0.15068E+01
  rms(prec ) = 0.15986E+01
  weight for this iteration     100.00

 eigenvalues of (default mixing * dielectric matrix)
  average eigenvalue GAMMA=   0.3161
  1.2019  0.4608  0.4608  0.2259  0.1218  0.1218  0.0924  0.0924  0.0669

 Free energy of the ion-electron system (eV)
  ---------------------------------------------------
  alpha Z        PSCENC =         4.89383974
  Ewald energy   TEWEN  =     12823.60751310
  -Hartree energ DENC   =    -21840.31532877
  -exchange      EXHF   =         0.00000000
  -V(xc)+E(xc)   XCENC  =        62.73584561
  PAW double counting   =     10106.89830221   -10271.02151415
  entropy T*S    EENTRO =        -0.05208852
  eigenvalues    EBANDS =      -627.07006933
  atomic energy  EATOM  =      9704.95859309
  Solvation  Ediel_sol  =         0.00000000
  ---------------------------------------------------
  free energy    TOTEN  =       -35.36490701 eV

  energy without entropy =      -35.31281849  energy(sigma->0) =      -35.34754417


--------------------------------------------------------------------------------------------------------




--------------------------------------- Iteration      1(  15)  ---------------------------------------


    POTLOK:  cpu time    2.2356: real time    2.2448
    SETDIJ:  cpu time    0.0217: real time    0.0217
     EDDAV:  cpu time    5.7998: real time    5.8128
       DOS:  cpu time    0.0102: real time    0.0102
    CHARGE:  cpu time    0.5548: real time    0.5590
    MIXING:  cpu time    0.0705: real time    0.0744
    --------------------------------------------
      LOOP:  cpu time    8.6926: real time    8.7229

 eigenvalue-minimisations  :   318
 total energy-change (2. order) : 0.7889308E-01  (-0.1242410E+00)
 number of electron     100.0000179 magnetization       8.8347395
 augmentation part       54.1436000 magnetization       6.5257190

 Broyden mixing:
  rms(total) = 0.95215E+00    rms(broyden)= 0.95168E+00
  rms(prec ) = 0.10035E+01
  weight for this iteration     100.00

 eigenvalues of (default mixing * dielectric matrix)
  average eigenvalue GAMMA=   0.3835
  1.4158  0.6773  0.6773  0.3330  0.2611  0.1296  0.0972  0.0972  0.0795  0.0670

 Free energy of the ion-electron system (eV)
  ---------------------------------------------------
  alpha Z        PSCENC =         4.89383974
  Ewald energy   TEWEN  =     12823.60751310
  -Hartree energ DENC   =    -21841.92943195
  -exchange      EXHF   =         0.00000000
  -V(xc)+E(xc)   XCENC  =        62.68613073
  PAW double counting   =     10113.96031848   -10278.37062326
  entropy T*S    EENTRO =        -0.02234214
  eigenvalues    EBANDS =      -625.07001172
  atomic energy  EATOM  =      9704.95859309
  Solvation  Ediel_sol  =         0.00000000
  ---------------------------------------------------
  free energy    TOTEN  =       -35.28601393 eV

  energy without entropy =      -35.26367178  energy(sigma->0) =      -35.27856655


--------------------------------------------------------------------------------------------------------




--------------------------------------- Iteration      1(  16)  ---------------------------------------


    POTLOK:  cpu time    2.2623: real time    2.2640
    SETDIJ:  cpu time    0.0220: real time    0.0220
     EDDAV:  cpu time    6.7422: real time    6.7523
       DOS:  cpu time    0.0012: real time    0.0012
    CHARGE:  cpu time    0.5780: real time    0.5785
    MIXING:  cpu time    0.0825: real time    0.0826
    --------------------------------------------
      LOOP:  cpu time    9.6882: real time    9.7007

 eigenvalue-minimisations  :   384
 total energy-change (2. order) :-0.2755943E+00  (-0.8033506E-01)
 number of electron     100.0000181 magnetization       8.7930262
 augmentation part       54.2810694 magnetization       6.5002514

 Broyden mixing:
  rms(total) = 0.56698E+00    rms(broyden)= 0.56636E+00
  rms(prec ) = 0.60035E+00
  weight for this iteration     100.00

 eigenvalues of (default mixing * dielectric matrix)
  average eigenvalue GAMMA=   0.3954
  1.4701  0.7140  0.7140  0.3712  0.3712  0.2323  0.1356  0.0967  0.0967  0.0791
  0.0681

 Free energy of the ion-electron system (eV)
  ---------------------------------------------------
  alpha Z        PSCENC =         4.89383974
  Ewald energy   TEWEN  =     12823.60751310
  -Hartree energ DENC   =    -21842.95258929
  -exchange      EXHF   =         0.00000000
  -V(xc)+E(xc)   XCENC  =        62.28657152
  PAW double counting   =     10143.19340524   -10307.34101079
  entropy T*S    EENTRO =        -0.00454649
  eigenvalues    EBANDS =      -624.20338439
  atomic energy  EATOM  =      9704.95859309
  Solvation  Ediel_sol  =         0.00000000
  ---------------------------------------------------
  free energy    TOTEN  =       -35.56160825 eV

  energy without entropy =      -35.55706176  energy(sigma->0) =      -35.56009275


--------------------------------------------------------------------------------------------------------




--------------------------------------- Iteration      1(  17)  ---------------------------------------


    POTLOK:  cpu time    2.2617: real time    2.2710
    SETDIJ:  cpu time    0.0218: real time    0.0218
     EDDAV:  cpu time    6.2777: real time    6.2838
       DOS:  cpu time    0.0011: real time    0.0011
    CHARGE:  cpu time    0.5684: real time    0.5689
    MIXING:  cpu time    0.0947: real time    0.0948
    --------------------------------------------
      LOOP:  cpu time    9.2254: real time    9.2415

 eigenvalue-minimisations  :   352
 total energy-change (2. order) :-0.3342327E+00  (-0.2043841E-01)
 number of electron     100.0000186 magnetization       8.7678783
 augmentation part       54.3488307 magnetization       6.5021089

 Broyden mixing:
  rms(total) = 0.71463E+00    rms(broyden)= 0.71447E+00
  rms(prec ) = 0.76520E+00
  weight for this iteration     100.00

 eigenvalues of (default mixing * dielectric matrix)
  average eigenvalue GAMMA=   0.4024
  1.4581  0.7086  0.7086  0.4427  0.4427  0.3439  0.2507  0.1327  0.0970  0.0970
  0.0794  0.0678

 Free energy of the ion-electron system (eV)
  ---------------------------------------------------
  alpha Z        PSCENC =         4.89383974
  Ewald energy   TEWEN  =     12823.60751310
  -Hartree energ DENC   =    -21843.95458207
  -exchange      EXHF   =         0.00000000
  -V(xc)+E(xc)   XCENC  =        62.03495982
  PAW double counting   =     10152.67068895   -10316.78642367
  entropy T*S    EENTRO =         0.00172127
  eigenvalues    EBANDS =      -623.32215116
  atomic energy  EATOM  =      9704.95859309
  Solvation  Ediel_sol  =         0.00000000
  ---------------------------------------------------
  free energy    TOTEN  =       -35.89584092 eV

  energy without entropy =      -35.89756219  energy(sigma->0) =      -35.89641467


--------------------------------------------------------------------------------------------------------




--------------------------------------- Iteration      1(  18)  ---------------------------------------


    POTLOK:  cpu time    2.2535: real time    2.2591
    SETDIJ:  cpu time    0.0215: real time    0.0215
     EDDAV:  cpu time    6.0521: real time    6.0656
       DOS:  cpu time    0.0012: real time    0.0012
    CHARGE:  cpu time    0.5559: real time    0.5565
    MIXING:  cpu time    0.0904: real time    0.0905
    --------------------------------------------
      LOOP:  cpu time    8.9746: real time    8.9942

 eigenvalue-minimisations  :   336
 total energy-change (2. order) :-0.2280854E+00  (-0.4203480E-02)
 number of electron     100.0000186 magnetization       8.6819021
 augmentation part       54.3353110 magnetization       6.4514372

 Broyden mixing:
  rms(total) = 0.70482E+00    rms(broyden)= 0.70479E+00
  rms(prec ) = 0.75945E+00
  weight for this iteration     100.00

 eigenvalues of (default mixing * dielectric matrix)
  average eigenvalue GAMMA=   0.5059
  1.3627  1.1205  1.1205  0.6909  0.6909  0.4368  0.4368  0.2437  0.1333  0.0969
  0.0969  0.0793  0.0678

 Free energy of the ion-electron system (eV)
  ---------------------------------------------------
  alpha Z        PSCENC =         4.89383974
  Ewald energy   TEWEN  =     12823.60751310
  -Hartree energ DENC   =    -21845.64748001
  -exchange      EXHF   =         0.00000000
  -V(xc)+E(xc)   XCENC  =        61.88574663
  PAW double counting   =     10155.27832778   -10319.60307686
  entropy T*S    EENTRO =         0.00689574
  eigenvalues    EBANDS =      -621.50428552
  atomic energy  EATOM  =      9704.95859309
  Solvation  Ediel_sol  =         0.00000000
  ---------------------------------------------------
  free energy    TOTEN  =       -36.12392629 eV

  energy without entropy =      -36.13082204  energy(sigma->0) =      -36.12622488


--------------------------------------------------------------------------------------------------------




--------------------------------------- Iteration      1(  19)  ---------------------------------------


    POTLOK:  cpu time    2.2342: real time    2.2424
    SETDIJ:  cpu time    0.0212: real time    0.0213
     EDDAV:  cpu time    6.5495: real time    6.5605
       DOS:  cpu time    0.0011: real time    0.0011
    CHARGE:  cpu time    0.5533: real time    0.5538
    MIXING:  cpu time    0.0970: real time    0.0971
    --------------------------------------------
      LOOP:  cpu time    9.4564: real time    9.4761

 eigenvalue-minimisations  :   372
 total energy-change (2. order) :-0.5397778E+00  (-0.3768558E-01)
 number of electron     100.0000180 magnetization       8.6299549
 augmentation part       54.3201858 magnetization       6.4891455

 Broyden mixing:
  rms(total) = 0.38881E+00    rms(broyden)= 0.38845E+00
  rms(prec ) = 0.41052E+00
  weight for this iteration     100.00

 eigenvalues of (default mixing * dielectric matrix)
  average eigenvalue GAMMA=   0.5091
  1.8186  0.9435  0.9435  0.6507  0.6507  0.5097  0.5097  0.3818  0.2441  0.1333
  0.0969  0.0969  0.0793  0.0678

 Free energy of the ion-electron system (eV)
  ---------------------------------------------------
  alpha Z        PSCENC =         4.89383974
  Ewald energy   TEWEN  =     12823.60751310
  -Hartree energ DENC   =    -21849.66589774
  -exchange      EXHF   =         0.00000000
  -V(xc)+E(xc)   XCENC  =        61.42632397
  PAW double counting   =     10158.62235753   -10323.22640490
  entropy T*S    EENTRO =         0.00232173
  eigenvalues    EBANDS =      -617.28235061
  atomic energy  EATOM  =      9704.95859309
  Solvation  Ediel_sol  =         0.00000000
  ---------------------------------------------------
  free energy    TOTEN  =       -36.66370408 eV

  energy without entropy =      -36.66602581  energy(sigma->0) =      -36.66447799


--------------------------------------------------------------------------------------------------------




--------------------------------------- Iteration      1(  20)  ---------------------------------------


    POTLOK:  cpu time    2.2483: real time    2.2572
    SETDIJ:  cpu time    0.0168: real time    0.0168
     EDDAV:  cpu time    6.6844: real time    6.6913
       DOS:  cpu time    0.0012: real time    0.0012
    CHARGE:  cpu time    0.5663: real time    0.5668
    MIXING:  cpu time    0.1055: real time    0.1056
    --------------------------------------------
      LOOP:  cpu time    9.6225: real time    9.6388

 eigenvalue-minimisations  :   382
 total energy-change (2. order) :-0.1789387E+00  (-0.1865497E-01)
 number of electron     100.0000178 magnetization       8.6000215
 augmentation part       54.4083192 magnetization       6.4632093

 Broyden mixing:
  rms(total) = 0.51055E+00    rms(broyden)= 0.51022E+00
  rms(prec ) = 0.52891E+00
  weight for this iteration     100.00

 eigenvalues of (default mixing * dielectric matrix)
  average eigenvalue GAMMA=   0.5047
  1.9450  0.7794  0.7794  0.6387  0.6387  0.5925  0.5925  0.4717  0.4146  0.2441
  0.1333  0.0969  0.0969  0.0793  0.0678

 Free energy of the ion-electron system (eV)
  ---------------------------------------------------
  alpha Z        PSCENC =         4.89383974
  Ewald energy   TEWEN  =     12823.60751310
  -Hartree energ DENC   =    -21850.43367980
  -exchange      EXHF   =         0.00000000
  -V(xc)+E(xc)   XCENC  =        61.22521736
  PAW double counting   =     10167.44271678   -10331.86233690
  entropy T*S    EENTRO =        -0.01155461
  eigenvalues    EBANDS =      -616.66295152
  atomic energy  EATOM  =      9704.95859309
  Solvation  Ediel_sol  =         0.00000000
  ---------------------------------------------------
  free energy    TOTEN  =       -36.84264275 eV

  energy without entropy =      -36.83108813  energy(sigma->0) =      -36.83879121


--------------------------------------------------------------------------------------------------------




--------------------------------------- Iteration      1(  21)  ---------------------------------------


    POTLOK:  cpu time    2.2466: real time    2.2499
    SETDIJ:  cpu time    0.0215: real time    0.0216
     EDDAV:  cpu time    6.2913: real time    6.3085
       DOS:  cpu time    0.0085: real time    0.0085
    CHARGE:  cpu time    0.5712: real time    0.5717
    MIXING:  cpu time    0.1113: real time    0.1114
    --------------------------------------------
      LOOP:  cpu time    9.2504: real time    9.2716

 eigenvalue-minimisations  :   356
 total energy-change (2. order) :-0.9080788E-01  (-0.5611553E-02)
 number of electron     100.0000178 magnetization       8.5625327
 augmentation part       54.4209196 magnetization       6.4310093

 Broyden mixing:
  rms(total) = 0.44139E+00    rms(broyden)= 0.44130E+00
  rms(prec ) = 0.45999E+00
  weight for this iteration     100.00

 eigenvalues of (default mixing * dielectric matrix)
  average eigenvalue GAMMA=   0.5528
  1.9394  0.7735  0.7735  1.0172  0.6852  0.6852  0.7566  0.5520  0.5520  0.3918
  0.2441  0.1333  0.0969  0.0969  0.0793  0.0678

 Free energy of the ion-electron system (eV)
  ---------------------------------------------------
  alpha Z        PSCENC =         4.89383974
  Ewald energy   TEWEN  =     12823.60751310
  -Hartree energ DENC   =    -21851.72752980
  -exchange      EXHF   =         0.00000000
  -V(xc)+E(xc)   XCENC  =        61.15833534
  PAW double counting   =     10170.18723413   -10334.65938708
  entropy T*S    EENTRO =        -0.01255293
  eigenvalues    EBANDS =      -615.33949622
  atomic energy  EATOM  =      9704.95859309
  Solvation  Ediel_sol  =         0.00000000
  ---------------------------------------------------
  free energy    TOTEN  =       -36.93345062 eV

  energy without entropy =      -36.92089769  energy(sigma->0) =      -36.92926631


--------------------------------------------------------------------------------------------------------




--------------------------------------- Iteration      1(  22)  ---------------------------------------


    POTLOK:  cpu time    2.2454: real time    2.2508
    SETDIJ:  cpu time    0.0218: real time    0.0218
     EDDAV:  cpu time    6.1644: real time    6.1742
       DOS:  cpu time    0.0064: real time    0.0064
    CHARGE:  cpu time    0.5701: real time    0.5706
    MIXING:  cpu time    0.1226: real time    0.1227
    --------------------------------------------
      LOOP:  cpu time    9.1307: real time    9.1467

 eigenvalue-minimisations  :   346
 total energy-change (2. order) :-0.1118184E+00  (-0.5067011E-02)
 number of electron     100.0000178 magnetization       8.4844535
 augmentation part       54.4157686 magnetization       6.3520045

 Broyden mixing:
  rms(total) = 0.19130E+00    rms(broyden)= 0.19121E+00
  rms(prec ) = 0.19979E+00
  weight for this iteration     100.00

 eigenvalues of (default mixing * dielectric matrix)
  average eigenvalue GAMMA=   0.5965
  2.0810  1.3455  0.8722  0.8722  0.6918  0.6918  0.7062  0.7062  0.5305  0.5305
  0.3944  0.2441  0.1333  0.0969  0.0969  0.0793  0.0678

 Free energy of the ion-electron system (eV)
  ---------------------------------------------------
  alpha Z        PSCENC =         4.89383974
  Ewald energy   TEWEN  =     12823.60751310
  -Hartree energ DENC   =    -21853.12762631
  -exchange      EXHF   =         0.00000000
  -V(xc)+E(xc)   XCENC  =        61.04164521
  PAW double counting   =     10167.75027819   -10332.29320721
  entropy T*S    EENTRO =        -0.00875207
  eigenvalues    EBANDS =      -613.86755280
  atomic energy  EATOM  =      9704.95859309
  Solvation  Ediel_sol  =         0.00000000
  ---------------------------------------------------
  free energy    TOTEN  =       -37.04526905 eV

  energy without entropy =      -37.03651699  energy(sigma->0) =      -37.04235170


--------------------------------------------------------------------------------------------------------




--------------------------------------- Iteration      1(  23)  ---------------------------------------


    POTLOK:  cpu time    2.2436: real time    2.2546
    SETDIJ:  cpu time    0.0222: real time    0.0222
     EDDAV:  cpu time    6.5142: real time    6.5243
       DOS:  cpu time    0.0069: real time    0.0069
    CHARGE:  cpu time    0.5642: real time    0.5646
    MIXING:  cpu time    0.1351: real time    0.1352
    --------------------------------------------
      LOOP:  cpu time    9.4862: real time    9.5079

 eigenvalue-minimisations  :   372
 total energy-change (2. order) :-0.2338147E+00  (-0.4474143E-02)
 number of electron     100.0000177 magnetization       8.4381529
 augmentation part       54.4109222 magnetization       6.3064374

 Broyden mixing:
  rms(total) = 0.80090E-01    rms(broyden)= 0.79862E-01
  rms(prec ) = 0.83852E-01
  weight for this iteration     100.00

 eigenvalues of (default mixing * dielectric matrix)
  average eigenvalue GAMMA=   0.6322
  2.2879  1.6627  0.8664  0.8664  0.7981  0.7981  0.6890  0.6890  0.5346  0.5346
  0.5420  0.3934  0.2441  0.1333  0.0969  0.0969  0.0793  0.0678

 Free energy of the ion-electron system (eV)
  ---------------------------------------------------
  alpha Z        PSCENC =         4.89383974
  Ewald energy   TEWEN  =     12823.60751310
  -Hartree energ DENC   =    -21856.54425891
  -exchange      EXHF   =         0.00000000
  -V(xc)+E(xc)   XCENC  =        60.86059321
  PAW double counting   =     10166.11493161   -10330.85728589
  entropy T*S    EENTRO =        -0.00530897
  eigenvalues    EBANDS =      -610.30770080
  atomic energy  EATOM  =      9704.95859309
  Solvation  Ediel_sol  =         0.00000000
  ---------------------------------------------------
  free energy    TOTEN  =       -37.27908380 eV

  energy without entropy =      -37.27377483  energy(sigma->0) =      -37.27731414


--------------------------------------------------------------------------------------------------------




--------------------------------------- Iteration      1(  24)  ---------------------------------------


    POTLOK:  cpu time    2.2344: real time    2.2450
    SETDIJ:  cpu time    0.0222: real time    0.0222
     EDDAV:  cpu time    5.3614: real time    5.3740
       DOS:  cpu time    0.0069: real time    0.0069
    CHARGE:  cpu time    0.5762: real time    0.5767
    MIXING:  cpu time    0.1421: real time    0.1423
    --------------------------------------------
      LOOP:  cpu time    8.3432: real time    8.3670

 eigenvalue-minimisations  :   286
 total energy-change (2. order) :-0.1505646E+00  (-0.1333438E-02)
 number of electron     100.0000176 magnetization       8.3966547
 augmentation part       54.3981640 magnetization       6.2728938

 Broyden mixing:
  rms(total) = 0.76766E-01    rms(broyden)= 0.76686E-01
  rms(prec ) = 0.81342E-01
  weight for this iteration     100.00

 eigenvalues of (default mixing * dielectric matrix)
  average eigenvalue GAMMA=   0.6510
  2.3191  1.7862  0.8657  0.8657  0.8755  0.8755  0.6989  0.6989  0.5862  0.5862
  0.5486  0.5486  0.3949  0.2441  0.1333  0.0969  0.0969  0.0793  0.0678

 Free energy of the ion-electron system (eV)
  ---------------------------------------------------
  alpha Z        PSCENC =         4.89383974
  Ewald energy   TEWEN  =     12823.60751310
  -Hartree energ DENC   =    -21858.71073530
  -exchange      EXHF   =         0.00000000
  -V(xc)+E(xc)   XCENC  =        60.74763718
  PAW double counting   =     10163.03828146   -10327.84469356
  entropy T*S    EENTRO =        -0.00191088
  eigenvalues    EBANDS =      -608.11817320
  atomic energy  EATOM  =      9704.95859309
  Solvation  Ediel_sol  =         0.00000000
  ---------------------------------------------------
  free energy    TOTEN  =       -37.42964837 eV

  energy without entropy =      -37.42773748  energy(sigma->0) =      -37.42901140


--------------------------------------------------------------------------------------------------------




--------------------------------------- Iteration      1(  25)  ---------------------------------------


    POTLOK:  cpu time    2.2491: real time    2.2624
    SETDIJ:  cpu time    0.0215: real time    0.0215
     EDDAV:  cpu time    6.2573: real time    6.2668
       DOS:  cpu time    0.0069: real time    0.0069
    CHARGE:  cpu time    0.5807: real time    0.5812
    MIXING:  cpu time    0.1457: real time    0.1458
    --------------------------------------------
      LOOP:  cpu time    9.2611: real time    9.2846

 eigenvalue-minimisations  :   354
 total energy-change (2. order) :-0.1263802E+00  (-0.3865765E-03)
 number of electron     100.0000176 magnetization       8.3434218
 augmentation part       54.3967696 magnetization       6.2194374

 Broyden mixing:
  rms(total) = 0.48108E-01    rms(broyden)= 0.48075E-01
  rms(prec ) = 0.51799E-01
  weight for this iteration     100.00

 eigenvalues of (default mixing * dielectric matrix)
  average eigenvalue GAMMA=   0.6808
  2.3391  1.9177  1.2037  0.8653  0.8653  0.8682  0.8682  0.7009  0.7009  0.5745
  0.5745  0.5516  0.4725  0.3943  0.2441  0.1333  0.0969  0.0969  0.0793  0.0678

 Free energy of the ion-electron system (eV)
  ---------------------------------------------------
  alpha Z        PSCENC =         4.89383974
  Ewald energy   TEWEN  =     12823.60751310
  -Hartree energ DENC   =    -21860.22724913
  -exchange      EXHF   =         0.00000000
  -V(xc)+E(xc)   XCENC  =        60.63262231
  PAW double counting   =     10159.44391142   -10324.23188614
  entropy T*S    EENTRO =        -0.00236254
  eigenvalues    EBANDS =      -606.63101040
  atomic energy  EATOM  =      9704.95859309
  Solvation  Ediel_sol  =         0.00000000
  ---------------------------------------------------
  free energy    TOTEN  =       -37.55602854 eV

  energy without entropy =      -37.55366600  energy(sigma->0) =      -37.55524103


--------------------------------------------------------------------------------------------------------




--------------------------------------- Iteration      1(  26)  ---------------------------------------


    POTLOK:  cpu time    2.2598: real time    2.2682
    SETDIJ:  cpu time    0.0213: real time    0.0213
     EDDAV:  cpu time    6.2851: real time    6.2986
       DOS:  cpu time    0.0067: real time    0.0067
    CHARGE:  cpu time    0.5667: real time    0.5671
    MIXING:  cpu time    0.1654: real time    0.1678
    --------------------------------------------
      LOOP:  cpu time    9.3050: real time    9.3298

 eigenvalue-minimisations  :   354
 total energy-change (2. order) :-0.1257558E+00  (-0.4188456E-03)
 number of electron     100.0000177 magnetization       8.2954372
 augmentation part       54.4013963 magnetization       6.1684688

 Broyden mixing:
  rms(total) = 0.22684E-01    rms(broyden)= 0.22630E-01
  rms(prec ) = 0.24719E-01
  weight for this iteration     100.00

 eigenvalues of (default mixing * dielectric matrix)
  average eigenvalue GAMMA=   0.7078
  2.7451  1.6870  1.3532  0.8665  0.8665  0.8763  0.8763  0.7019  0.7019  0.9139
  0.5697  0.5697  0.5714  0.3942  0.4526  0.2441  0.1333  0.0969  0.0969  0.0793
  0.0678

 Free energy of the ion-electron system (eV)
  ---------------------------------------------------
  alpha Z        PSCENC =         4.89383974
  Ewald energy   TEWEN  =     12823.60751310
  -Hartree energ DENC   =    -21861.97995112
  -exchange      EXHF   =         0.00000000
  -V(xc)+E(xc)   XCENC  =        60.51462882
  PAW double counting   =     10156.21989273   -10320.98091088
  entropy T*S    EENTRO =        -0.00189148
  eigenvalues    EBANDS =      -604.91349835
  atomic energy  EATOM  =      9704.95859309
  Solvation  Ediel_sol  =         0.00000000
  ---------------------------------------------------
  free energy    TOTEN  =       -37.68178434 eV

  energy without entropy =      -37.67989286  energy(sigma->0) =      -37.68115385


--------------------------------------------------------------------------------------------------------




--------------------------------------- Iteration      1(  27)  ---------------------------------------


    POTLOK:  cpu time    2.2421: real time    2.2456
    SETDIJ:  cpu time    0.0214: real time    0.0215
     EDDAV:  cpu time    5.7370: real time    5.7464
       DOS:  cpu time    0.0059: real time    0.0059
    CHARGE:  cpu time    0.5521: real time    0.5526
    MIXING:  cpu time    0.1668: real time    0.1669
    --------------------------------------------
      LOOP:  cpu time    8.7254: real time    8.7389

 eigenvalue-minimisations  :   314
 total energy-change (2. order) :-0.7530680E-01  (-0.2306216E-03)
 number of electron     100.0000177 magnetization       8.2689083
 augmentation part       54.4099425 magnetization       6.1407544

 Broyden mixing:
  rms(total) = 0.19591E-01    rms(broyden)= 0.19557E-01
  rms(prec ) = 0.21404E-01
  weight for this iteration     100.00

 eigenvalues of (default mixing * dielectric matrix)
  average eigenvalue GAMMA=   0.7279
  2.9709  1.8501  0.8669  0.8669  1.2019  1.2019  0.7021  0.7021  0.8299  0.8299
  0.7053  0.5719  0.5719  0.5778  0.3943  0.4523  0.2441  0.1333  0.0969  0.0969
  0.0793  0.0678

 Free energy of the ion-electron system (eV)
  ---------------------------------------------------
  alpha Z        PSCENC =         4.89383974
  Ewald energy   TEWEN  =     12823.60751310
  -Hartree energ DENC   =    -21863.44359601
  -exchange      EXHF   =         0.00000000
  -V(xc)+E(xc)   XCENC  =        60.44656903
  PAW double counting   =     10154.61621255   -10319.38018382
  entropy T*S    EENTRO =        -0.00099825
  eigenvalues    EBANDS =      -603.45504059
  atomic energy  EATOM  =      9704.95859309
  Solvation  Ediel_sol  =         0.00000000
  ---------------------------------------------------
  free energy    TOTEN  =       -37.75709115 eV

  energy without entropy =      -37.75609289  energy(sigma->0) =      -37.75675840


--------------------------------------------------------------------------------------------------------




--------------------------------------- Iteration      1(  28)  ---------------------------------------


    POTLOK:  cpu time    2.2423: real time    2.2515
    SETDIJ:  cpu time    0.0251: real time    0.0251
     EDDAV:  cpu time    5.2763: real time    5.2887
       DOS:  cpu time    0.0069: real time    0.0069
    CHARGE:  cpu time    0.5736: real time    0.5778
    MIXING:  cpu time    0.1821: real time    0.1822
    --------------------------------------------
      LOOP:  cpu time    8.3064: real time    8.3323

 eigenvalue-minimisations  :   280
 total energy-change (2. order) :-0.3256849E-01  (-0.8081130E-04)
 number of electron     100.0000177 magnetization       8.2369099
 augmentation part       54.4036478 magnetization       6.1132058

 Broyden mixing:
  rms(total) = 0.10712E-01    rms(broyden)= 0.10702E-01
  rms(prec ) = 0.12286E-01
  weight for this iteration     100.00

 eigenvalues of (default mixing * dielectric matrix)
  average eigenvalue GAMMA=   0.7488
[...]


    POTLOK:  cpu time    2.2513: real time    2.2538
    SETDIJ:  cpu time    0.0214: real time    0.0214
     EDDAV:  cpu time    3.9459: real time    3.9611
       DOS:  cpu time    0.0038: real time    0.0038
    --------------------------------------------
      LOOP:  cpu time    6.2224: real time    6.2401

 eigenvalue-minimisations  :   184
 total energy-change (2. order) :-0.9672335E-04  (-0.5301103E-06)
 number of electron     100.0000176 magnetization       8.0517884
 augmentation part       54.4019570 magnetization       5.9454504

 Free energy of the ion-electron system (eV)
  ---------------------------------------------------
  alpha Z        PSCENC =         4.89383974
  Ewald energy   TEWEN  =     12823.60751310
  -Hartree energ DENC   =    -21869.42053037
  -exchange      EXHF   =         0.00000000
  -V(xc)+E(xc)   XCENC  =        60.31956388
  PAW double counting   =     10149.43317369   -10314.20126423
  entropy T*S    EENTRO =        -0.00027425
  eigenvalues    EBANDS =      -597.50886884
  atomic energy  EATOM  =      9704.95859309
  Solvation  Ediel_sol  =         0.00000000
  ---------------------------------------------------
  free energy    TOTEN  =       -37.91825417 eV

  energy without entropy =      -37.91797992  energy(sigma->0) =      -37.91816275


--------------------------------------------------------------------------------------------------------




 average (electrostatic) potential at core
  the test charge radii are     0.9791  1.1199
  (the norm of the test charge is              1.0000)
       1 -95.3266       2 -95.3569       3 -95.3385       4 -95.3270       5 -95.2316
       6 -95.3663       7 -83.5996       8 -83.5305       9 -83.8072      10 -83.7021
 
 
 
 E-fermi :  -4.0976     XC(G=0):  -0.3564     alpha+bet : -0.1779


 spin component 1

 k-point     1 :       0.0000    0.0000    0.0000
  band No.  band energies     occupation 
      1      -9.8966      1.00000
      2      -8.4936      1.00000
      3      -8.2515      1.00000
      4      -8.0554      1.00000
      5      -7.8435      1.00000
      6      -7.7499      1.00000
      7      -7.6328      1.00000
      8      -7.4780      1.00000
      9      -7.4741      1.00000
     10      -7.2672      1.00000
     11      -7.2418      1.00000
     12      -7.1962      1.00000
     13      -7.1506      1.00000
     14      -7.0944      1.00000
     15      -7.0364      1.00000
     16      -6.8209      1.00000
     17      -6.7484      1.00000
     18      -6.6678      1.00000
     19      -6.5856      1.00000
     20      -6.5214      1.00000
     21      -6.4547      1.00000
     22      -6.3055      1.00000
     23      -6.1116      1.00000
     24      -6.0456      1.00000
     25      -5.8908      1.00000
     26      -5.8504      1.00000
     27      -5.8441      1.00000
     28      -5.7619      1.00000
     29      -5.6894      1.00000
     30      -5.6352      1.00000
     31      -5.5917      1.00000
     32      -5.5508      1.00000
     33      -5.5202      1.00000
     34      -5.4817      1.00000
     35      -5.4486      1.00000
     36      -5.4429      1.00000
     37      -5.3846      1.00000
     38      -5.3158      1.00000
     39      -5.2926      1.00000
     40      -5.2595      1.00000
     41      -5.2073      1.00000
     42      -5.1524      1.00000
     43      -5.1496      1.00000
     44      -5.0888      1.00000
     45      -5.0559      1.00000
     46      -5.0127      1.00000
     47      -4.9487      1.00000
     48      -4.9139      1.00000
     49      -4.8854      1.00000
     50      -4.8345      1.00000
     51      -4.8001      1.00000
     52      -4.7371      1.00003
     53      -4.6453      1.00037
     54      -4.2952      1.02386
     55      -3.4193     -0.00001
     56      -2.7852     -0.00000
     57      -2.6578     -0.00000
     58      -2.3711     -0.00000
     59      -2.0509     -0.00000
     60      -1.5756     -0.00000
     61      -1.3999     -0.00000
     62      -0.8256     -0.00000
     63      -0.6025     -0.00000
     64      -0.4815     -0.00000
     65      -0.3377     -0.00000
     66      -0.1771     -0.00000

 spin component 2

 k-point     1 :       0.0000    0.0000    0.0000
  band No.  band energies     occupation 
      1      -9.8148      1.00000
      2      -8.1981      1.00000
      3      -7.8676      1.00000
      4      -7.5798      1.00000
      5      -7.3450      1.00000
      6      -7.2170      1.00000
      7      -6.9995      1.00000
      8      -6.9008      1.00000
      9      -6.7763      1.00000
     10      -6.6591      1.00000
     11      -6.6053      1.00000
     12      -6.5047      1.00000
     13      -6.4253      1.00000
     14      -6.4056      1.00000
     15      -6.3134      1.00000
     16      -6.2560      1.00000
     17      -6.2223      1.00000
     18      -6.1588      1.00000
     19      -6.0259      1.00000
     20      -5.9564      1.00000
     21      -5.8760      1.00000
     22      -5.6467      1.00000
     23      -5.5535      1.00000
     24      -5.4985      1.00000
     25      -5.4530      1.00000
     26      -5.3524      1.00000
     27      -5.3114      1.00000
     28      -5.2324      1.00000
     29      -5.1854      1.00000
     30      -5.1291      1.00000
     31      -5.0272      1.00000
     32      -4.9434      1.00000
     33      -4.9181      1.00000
     34      -4.8833      1.00000
     35      -4.8207      1.00000
     36      -4.7026      1.00008
     37      -4.6469      1.00036
     38      -4.6108      1.00086
     39      -4.5754      1.00187
     40      -4.4619      1.01362
     41      -4.4071      1.02549
     42      -4.3595      1.03447
     43      -4.3399      1.03543
     44      -4.2612      0.99455
     45      -4.1668      0.77437
     46      -4.1194      0.59187
     47      -4.0350      0.24893
     48      -4.0134      0.17623
     49      -3.9897      0.10892
     50      -3.9587      0.04203
     51      -3.9302      0.00107
     52      -3.8720     -0.03381
     53      -3.7958     -0.02724
     54      -3.7319     -0.01337
     55      -3.1446     -0.00000
     56      -2.5304     -0.00000
     57      -2.3454     -0.00000
     58      -2.0483     -0.00000
     59      -1.7427     -0.00000
     60      -1.3371     -0.00000
     61      -1.1640     -0.00000
     62      -0.6579     -0.00000
     63      -0.4702     -0.00000
     64      -0.2995     -0.00000
     65      -0.1337     -0.00000
     66       0.0263     -0.00000


--------------------------------------------------------------------------------------------------------


 soft charge-density along one line, spin component            1
         0         1         2         3         4         5         6         7         8         9
 total charge-density along one line
 
 soft charge-density along one line, spin component            2
         0         1         2         3         4         5         6         7         8         9
 total charge-density along one line
 
 pseudopotential strength for first ion, spin component:            1
-10.342  -0.087   0.017   0.093  -0.095 -10.611  -0.083   0.016
 -0.087 -10.180   0.008   0.015  -0.011  -0.083 -10.455   0.008
  0.017   0.008 -10.236   0.144  -0.030   0.016   0.008 -10.509
  0.093   0.015   0.144 -10.131   0.038   0.089   0.014   0.138
 -0.095  -0.011  -0.030   0.038 -10.272  -0.091  -0.011  -0.029
-10.611  -0.083   0.016   0.089  -0.091 -10.824  -0.079   0.016
 -0.083 -10.455   0.008   0.014  -0.011  -0.079 -10.676   0.007
  0.016   0.008 -10.509   0.138  -0.029   0.016   0.007 -10.728
  0.089   0.014   0.138 -10.408   0.036   0.085   0.013   0.132
 -0.091  -0.011  -0.029   0.036 -10.543  -0.087  -0.011  -0.027
 -0.003  -0.011  -0.018   0.001  -0.010  -0.003  -0.011  -0.017
 -0.006  -0.020  -0.031   0.002  -0.018  -0.006  -0.019  -0.030
 -0.007   0.012  -0.003   0.001  -0.002  -0.007   0.011  -0.003
  0.001   0.003   0.011  -0.003   0.001   0.001   0.003   0.011
  0.007   0.001   0.004   0.014  -0.002   0.007   0.001   0.004
 -0.005   0.010  -0.005   0.001  -0.004  -0.005   0.009  -0.005
  0.001   0.006   0.008   0.001   0.002   0.001   0.006   0.008
  0.011   0.001   0.002   0.013   0.002   0.010   0.001   0.002
 pseudopotential strength for first ion, spin component:            2
 -9.357   0.065   0.002   0.004   0.054  -9.671   0.063   0.002
  0.065  -9.367   0.027  -0.017  -0.040   0.063  -9.680   0.026
  0.002   0.027  -9.289  -0.057  -0.004   0.002   0.026  -9.606
  0.004  -0.017  -0.057  -9.345   0.003   0.004  -0.016  -0.056
  0.054  -0.040  -0.004   0.003  -9.400   0.052  -0.038  -0.004
 -9.671   0.063   0.002   0.004   0.052  -9.928   0.061   0.002
  0.063  -9.680   0.026  -0.016  -0.038   0.061  -9.938   0.025
  0.002   0.026  -9.606  -0.056  -0.004   0.002   0.025  -9.866
  0.004  -0.016  -0.056  -9.660   0.003   0.003  -0.016  -0.054
  0.052  -0.038  -0.004   0.003  -9.713   0.051  -0.037  -0.003
  0.001  -0.006  -0.007  -0.004  -0.003   0.001  -0.005  -0.006
  0.002  -0.009  -0.011  -0.006  -0.006   0.002  -0.009  -0.011
 -0.011   0.020   0.001  -0.000   0.001  -0.010   0.018   0.001
 -0.000  -0.002   0.023  -0.013  -0.000  -0.000  -0.001   0.022
 -0.003  -0.000   0.006   0.019  -0.012  -0.003  -0.000   0.006
 -0.011   0.021   0.002  -0.000   0.000  -0.010   0.020   0.001
 -0.000  -0.001   0.025  -0.013  -0.000  -0.000  -0.001   0.023
 -0.004  -0.000   0.006   0.020  -0.012  -0.004  -0.000   0.005
 total augmentation occupancy for first ion, spin component:            1
  2.717  -0.548   0.019   0.173  -0.159  -1.075   0.358  -0.007  -0.038   0.018   0.047   0.026  -0.193  -0.007  -0.020  -0.002
 -0.548   3.276  -0.020  -0.049   0.184   0.363  -1.374   0.024   0.070  -0.133   0.145  -0.028   0.302  -0.043  -0.021   0.003
  0.019  -0.020   2.675   0.356  -0.003  -0.003   0.023  -0.973  -0.069  -0.024   0.190   0.005   0.026   0.115   0.086   0.002
  0.173  -0.049   0.356   2.997  -0.025  -0.036   0.076  -0.066  -1.023   0.094   0.320  -0.080  -0.028  -0.105   0.156  -0.001
 -0.159   0.184  -0.003  -0.025   2.939   0.015  -0.133  -0.029   0.094  -1.175   0.213   0.011   0.063  -0.037  -0.100   0.001
 -1.075   0.363  -0.003  -0.036   0.015   1.120  -0.282   0.000  -0.034   0.025  -0.068  -0.011   0.220   0.018   0.067  -0.020
  0.358  -1.374   0.023   0.076  -0.133  -0.282   1.280  -0.038  -0.074   0.103  -0.138   0.025  -0.352   0.062   0.031   0.027
 -0.007   0.024  -0.973  -0.066  -0.029   0.000  -0.038   0.987  -0.079   0.036  -0.210   0.010  -0.045  -0.193  -0.117   0.004
 -0.038   0.070  -0.069  -1.023   0.094  -0.034  -0.074  -0.079   0.888  -0.135  -0.264   0.068   0.032   0.167  -0.183  -0.001
  0.018  -0.133  -0.024   0.094  -1.175   0.025   0.103   0.036  -0.135   1.164  -0.205   0.006  -0.076   0.057   0.179   0.007
  0.047   0.145   0.190   0.320   0.213  -0.068  -0.138  -0.210  -0.264  -0.205   1.921  -0.181   0.080  -0.258   0.244  -0.013
  0.026  -0.028   0.005  -0.080   0.011  -0.011   0.025   0.010   0.068   0.006  -0.181   0.026  -0.013   0.038  -0.036   0.002
 -0.193   0.302   0.026  -0.028   0.063   0.220  -0.352  -0.045   0.032  -0.076   0.080  -0.013   0.216  -0.009  -0.017  -0.018
 -0.007  -0.043   0.115  -0.105  -0.037   0.018   0.062  -0.193   0.167   0.057  -0.258   0.038  -0.009   0.135  -0.013   0.001
 -0.020  -0.021   0.086   0.156  -0.100   0.067   0.031  -0.117  -0.183   0.179   0.244  -0.036  -0.017  -0.013   0.149  -0.000
 -0.002   0.003   0.002  -0.001   0.001  -0.020   0.027   0.004  -0.001   0.007  -0.013   0.002  -0.018   0.001  -0.000   0.002
 -0.000  -0.001   0.014  -0.004   0.002  -0.001  -0.007   0.015  -0.018  -0.005   0.043  -0.005   0.001  -0.016   0.005  -0.000
 -0.006  -0.002   0.003   0.005  -0.012  -0.004   0.000   0.011   0.019  -0.014  -0.040   0.005   0.000   0.004  -0.017   0.000
 total augmentation occupancy for first ion, spin component:            2
  1.392   0.425  -0.000  -0.234   0.344  -0.658  -0.202  -0.010   0.107  -0.146   0.057   0.020   0.006  -0.006  -0.062  -0.007
  0.425   0.894   0.024  -0.073  -0.077  -0.208  -0.420  -0.007   0.035   0.034  -0.015  -0.006   0.032  -0.019  -0.013   0.009
 -0.000   0.024   1.196  -0.499   0.106  -0.015  -0.005  -0.546   0.220  -0.064   0.034   0.018   0.016   0.056  -0.006   0.003
 -0.234  -0.073  -0.499   0.802  -0.051   0.106   0.028   0.219  -0.375   0.010  -0.085  -0.023   0.004  -0.051   0.006  -0.000
  0.344  -0.077   0.106  -0.051   1.065  -0.142   0.034  -0.058   0.010  -0.495   0.012   0.010   0.003  -0.013  -0.041   0.001
 -0.658  -0.208  -0.015   0.106  -0.142   0.217   0.090   0.012  -0.042   0.050  -0.030  -0.010  -0.008  -0.001   0.019   0.005
 -0.202  -0.420  -0.005   0.028   0.034   0.090   0.120   0.002  -0.012  -0.012   0.010   0.000  -0.006   0.008   0.004  -0.006
 -0.010  -0.007  -0.546   0.219  -0.058   0.012   0.002   0.163  -0.084   0.035  -0.012  -0.011  -0.002  -0.015   0.009  -0.001
  0.107   0.035   0.220  -0.375   0.010  -0.042  -0.012  -0.084   0.100   0.005   0.046   0.007  -0.005   0.016   0.004   0.000
 -0.146   0.034  -0.064   0.010  -0.495   0.050  -0.012   0.035   0.005   0.140  -0.009  -0.008   0.000   0.004   0.005  -0.001
  0.057  -0.015   0.034  -0.085   0.012  -0.030   0.010  -0.012   0.046  -0.009  -0.097   0.053  -0.027   0.038  -0.023   0.001
  0.020  -0.006   0.018  -0.023   0.010  -0.010   0.000  -0.011   0.007  -0.008   0.053  -0.006   0.000  -0.004   0.004  -0.000
  0.006   0.032   0.016   0.004   0.003  -0.008  -0.006  -0.002  -0.005   0.000  -0.027   0.000  -0.001  -0.004   0.000   0.002
 -0.006  -0.019   0.056  -0.051  -0.013  -0.001   0.008  -0.015   0.016   0.004   0.038  -0.004  -0.004   0.003   0.003  -0.000
 -0.062  -0.013  -0.006   0.006  -0.041   0.019   0.004   0.009   0.004   0.005  -0.023   0.004   0.000   0.003  -0.004  -0.000
 -0.007   0.009   0.003  -0.000   0.001   0.005  -0.006  -0.001   0.000  -0.001   0.001  -0.000   0.002  -0.000  -0.000  -0.000
  0.001  -0.003   0.014  -0.010   0.001  -0.000   0.001  -0.007   0.005  -0.000  -0.003   0.001  -0.000   0.002  -0.000   0.000
 -0.008  -0.000   0.002   0.007  -0.009   0.003   0.001  -0.001  -0.004   0.005   0.002  -0.001  -0.000  -0.000   0.002   0.000


------------------------ aborting loop because EDIFF is reached ----------------------------------------


    CHARGE:  cpu time    0.5685: real time    0.5689
    FORLOC:  cpu time    0.0823: real time    0.0862
    FORNL :  cpu time    2.6417: real time    2.6432
    FORCOR:  cpu time    2.2030: real time    2.2061
    FORHAR:  cpu time    0.3031: real time    0.3033
    MIXING:  cpu time    0.3951: real time    0.3992
    OFIELD:  cpu time    0.0001: real time    0.0001

 VOLUME and BASIS-vectors are now :
 -----------------------------------------------------------------------------
  energy-cutoff  :      400.00
  volume of cell :    11579.81
      direct lattice vectors                 reciprocal lattice vectors
    22.833779986  0.000000000  0.000000000     0.043794764  0.000000000  0.000000000
     0.000000000 23.211533943  0.000000000     0.000000000  0.043082030  0.000000000
     0.000000000  0.000000000 21.848405639     0.000000000  0.000000000  0.045769930

  length of vectors
    22.833779986 23.211533943 21.848405639     0.043794764  0.043082030  0.045769930


 FORCES acting on ions
    electron-ion (+dipol)            ewald-force                    non-local-force                 convergence-correction
 -----------------------------------------------------------------------------------------------
   0.813E+03 0.174E+03 -.621E+03   -.809E+03 -.173E+03 0.617E+03   -.381E+01 -.129E+01 0.430E+01   0.194E-02 -.453E-03 0.233E-02
   0.468E+03 -.143E+03 0.835E+03   -.468E+03 0.144E+03 -.832E+03   -.797E+00 -.568E+00 -.264E+01   -.113E-02 -.114E-02 0.460E-02
   -.159E+03 0.548E+03 -.702E+03   0.159E+03 -.547E+03 0.700E+03   -.313E-01 -.123E+01 0.150E+01   -.127E-02 -.875E-03 0.262E-02
   -.289E+03 0.658E+03 0.769E+03   0.287E+03 -.655E+03 -.765E+03   0.154E+01 -.348E+01 -.373E+01   0.306E-03 -.297E-02 0.344E-02
   -.585E+03 -.603E+03 0.604E+03   0.583E+03 0.599E+03 -.601E+03   0.183E+01 0.383E+01 -.347E+01   -.536E-03 -.168E-02 0.388E-02
   0.535E+02 -.854E+03 -.440E+03   -.540E+02 0.851E+03 0.439E+03   0.543E+00 0.286E+01 0.178E+01   -.149E-02 -.161E-02 0.367E-02
   0.720E+03 -.641E+03 0.131E+03   -.714E+03 0.636E+03 -.129E+03   -.634E+01 0.577E+01 -.199E+01   0.479E-03 -.406E-03 0.254E-02
   -.907E+03 0.382E+03 -.108E+02   0.900E+03 -.378E+03 0.105E+02   0.712E+01 -.393E+01 0.269E+00   -.191E-02 -.128E-02 0.193E-02
   0.509E+03 0.880E+03 0.105E+03   -.505E+03 -.873E+03 -.104E+03   -.417E+01 -.706E+01 -.102E+01   0.119E-02 0.617E-03 0.291E-02
   -.624E+03 -.399E+03 -.670E+03   0.620E+03 0.396E+03 0.665E+03   0.462E+01 0.317E+01 0.581E+01   -.266E-02 -.216E-02 0.860E-03
 -----------------------------------------------------------------------------------------------
   -.493E+00 0.193E+01 -.831E+00   0.000E+00 0.000E+00 -.114E-12   0.497E+00 -.192E+01 0.801E+00   -.508E-02 -.120E-01 0.288E-01
 
 
 POSITION                                       TOTAL-FORCE (eV/Angst)
 -----------------------------------------------------------------------------------
      8.76044     11.57645     11.47436         0.004009     -0.007503      0.018844
      9.66690     11.94116      9.36537         0.024126      0.005108     -0.017185
     11.04700     10.87539     11.39673        -0.038606      0.012428     -0.024038
     11.37740     10.37005      9.16827        -0.012225     -0.015893      0.004169
     11.95051     12.57109      9.64648         0.024654      0.005553      0.014942
     10.36924     13.27364     11.26318         0.007534     -0.002415      0.013726
      8.18464     13.65023     10.32085        -0.021191      0.018025     -0.001677
     13.42676     10.73436     10.50178         0.004092     -0.001517     -0.021759
      9.29526      9.53289     10.18928         0.011681     -0.021601      0.008237
     12.56840     12.71876     12.08838        -0.004074      0.007815      0.004741
 -----------------------------------------------------------------------------------
    total drift:                               -0.000105     -0.003791     -0.001286


--------------------------------------------------------------------------------------------------------



  FREE ENERGIE OF THE ION-ELECTRON SYSTEM (eV)
  ---------------------------------------------------
  free  energy   TOTEN  =       -37.91825417 eV

  energy  without entropy=      -37.91797992  energy(sigma->0) =      -37.91816275
 


--------------------------------------------------------------------------------------------------------


    POTLOK:  cpu time    2.2431: real time    2.2569


--------------------------------------------------------------------------------------------------------


     LOOP+:  cpu time  367.8526: real time  368.8373
    4ORBIT:  cpu time    0.0000: real time    0.0000

 total amount of memory used by VASP MPI-rank0   151310. kBytes
=======================================================================

   base      :      30000. kBytes
   nonl-proj :       5889. kBytes
   fftplans  :      28430. kBytes
   grid      :      73059. kBytes
   one-center:         31. kBytes
   wavefun   :      13901. kBytes
 
  
  
 General timing and accounting informations for this job:
 ========================================================
  
                  Total CPU time used (sec):      374.277
                            User time (sec):      370.776
                          System time (sec):        3.501
                         Elapsed time (sec):      381.347
  
                   Maximum memory used (kb):      312560.
                   Average memory used (kb):           0.
  
                          Minor page faults:       967184
                          Major page faults:        14753
                 Voluntary context switches:         6347
