<?xml version="1.0" encoding="ISO-8859-1"?>
<modeling>
 <generator>
  <i name="program" type="string">vasp </i>
  <i name="version" type="string">6.1.2  </i>
  <i name="subversion" type="string">22Jul20 (build Aug  2 2021 21:04:21) gamma-only                       parallel </i>
  <i name="platform" type="string">LinuxPGI </i>
  <i name="date" type="string">2022 01 20 </i>
  <i name="time" type="string">00:15:41 </i>
 </generator>
 <incar>
  <i type="int" name="ISPIN">     2</i>
  <i type="int" name="IBRION">    -1</i>
  <i type="int" name="NSW">     0</i>
  <i type="int" name="ISIF">     0</i>
  <i type="int" name="ISYM">     0</i>
  <i name="ENCUT">    400.00000000</i>
  <i type="logical" name="LREAL"> F  </i>
  <i type="int" name="ISMEAR">     1</i>
  <i name="SIGMA">      0.20000000</i>
  <i type="logical" name="LWAVE"> F  </i>
  <i type="logical" name="LCHARG"> F  </i>
  <i type="int" name="KPAR">     1</i>
  <i type="int" name="NCORE">     8</i>
  <i type="string" name="GGA"> PE</i>
  <i type="int" name="ISPIN">     2</i>
 </incar>
 <structure name="primitive_cell" >
  <crystal>
   <varray name="basis" >
    <v>      22.83377999       0.00000000       0.00000000 </v>
    <v>       0.00000000      23.21153394       0.00000000 </v>
    <v>       0.00000000       0.00000000      21.84840564 </v>
   </varray>
   <i name="volume">  11579.80922064 </i>
   <varray name="rec_basis" >
    <v>       0.04379476       0.00000000       0.00000000 </v>
    <v>       0.00000000       0.04308203       0.00000000 </v>
    <v>       0.00000000       0.00000000       0.04576993 </v>
   </varray>
  </crystal>
  <varray name="positions" >
   <v>       0.38366137       0.49873695       0.52518043 </v>
   <v>       0.42335973       0.51444943       0.42865224 </v>
   <v>       0.48380069       0.46853376       0.52162762 </v>
   <v>       0.49827070       0.44676281       0.41963093 </v>
   <v>       0.52336961       0.54158807       0.44151878 </v>
   <v>       0.45411822       0.57185556       0.51551479 </v>
   <v>       0.35844437       0.58807940       0.47238472 </v>
   <v>       0.58802165       0.46245783       0.48066555 </v>
   <v>       0.40708374       0.41069635       0.46636266 </v>
   <v>       0.55043023       0.54794997       0.55328420 </v>
  </varray>
 </structure>
 <varray name="primitive_index" >
  <v type="int" >        1 </v>
  <v type="int" >        2 </v>
  <v type="int" >        3 </v>
  <v type="int" >        4 </v>
  <v type="int" >        5 </v>
  <v type="int" >        6 </v>
  <v type="int" >        7 </v>
  <v type="int" >        8 </v>
  <v type="int" >        9 </v>
  <v type="int" >       10 </v>
 </varray>
 <kpoints>
  <generation param="Gamma">
   <v type="int" name="divisions">       1        1        1 </v>
   <v name="usershift">      0.00000000       0.00000000       0.00000000 </v>
   <v name="genvec1">      1.00000000       0.00000000       0.00000000 </v>
   <v name="genvec2">      0.00000000       1.00000000       0.00000000 </v>
   <v name="genvec3">      0.00000000       0.00000000       1.00000000 </v>
   <v name="shift">      0.00000000       0.00000000       0.00000000 </v>
  </generation>
  <varray name="kpointlist" >
   <v>       0.00000000       0.00000000       0.00000000 </v>
  </varray>
  <varray name="weights" >
   <v>       1.00000000 </v>
  </varray>
 </kpoints>
 <parameters>
  <separator name="general" >
   <i type="string" name="SYSTEM">unknown system</i>
   <i type="logical" name="LCOMPAT"> F  </i>
  </separator>
  <separator name="electronic" >
   <i type="string" name="PREC">normal</i>
   <i name="ENMAX">    400.00000000</i>
   <i name="ENAUG">    544.56500000</i>
   <i name="EDIFF">      0.00010000</i>
   <i type="int" name="IALGO">    38</i>
   <i type="int" name="IWAVPR">    10</i>
   <i type="int" name="NBANDS">    66</i>
   <i type="int" name="NBANDSLOW">    -1</i>
   <i type="int" name="NBANDSHIGH">    -1</i>
   <i name="NELECT">    100.00000000</i>
   <i type="int" name="TURBO">     0</i>
   <i type="int" name="IRESTART">     0</i>
   <i type="int" name="NREBOOT">     0</i>
   <i type="int" name="NMIN">     0</i>
   <i name="EREF">      0.00000000</i>
   <separator name="electronic smearing" >
    <i type="int" name="ISMEAR">     1</i>
    <i name="SIGMA">      0.20000000</i>
    <i name="KSPACING">      0.50000000</i>
    <i type="logical" name="KGAMMA"> T  </i>
    <i type="logical" name="KBLOWUP"> T  </i>
   </separator>
   <separator name="electronic projectors" >
    <i type="logical" name="LREAL"> F  </i>
    <v name="ROPT">      0.00000000      0.00000000</v>
    <i type="int" name="LMAXPAW">  -100</i>
    <i type="int" name="LMAXMIX">     2</i>
    <i type="logical" name="NLSPLINE"> F  </i>
   </separator>
   <separator name="electronic startup" >
    <i type="int" name="ISTART">     0</i>
    <i type="int" name="ICHARG">     2</i>
    <i type="int" name="INIWAV">     1</i>
   </separator>
   <separator name="electronic spin" >
    <i type="int" name="ISPIN">     2</i>
    <i type="logical" name="LNONCOLLINEAR"> F  </i>
    <v name="MAGMOM">      1.00000000      1.00000000      1.00000000      1.00000000      1.00000000      1.00000000      1.00000000      1.00000000      1.00000000      1.00000000</v>
    <i name="NUPDOWN">     -1.00000000</i>
    <i type="logical" name="LSORBIT"> F  </i>
    <v name="SAXIS">      0.00000000      0.00000000      1.00000000</v>
    <i type="logical" name="LSPIRAL"> F  </i>
    <v name="QSPIRAL">      0.00000000      0.00000000      0.00000000</v>
    <i type="logical" name="LZEROZ"> F  </i>
   </separator>
   <separator name="electronic exchange-correlation" >
    <i type="logical" name="LASPH"> F  </i>
    <i type="logical" name="LMETAGGA"> F  </i>
   </separator>
   <separator name="electronic convergence" >
    <i type="int" name="NELM">    60</i>
    <i type="int" name="NELMDL">     0</i>
    <i type="int" name="NELMIN">     2</i>
    <i name="ENINI">    400.00000000</i>
    <separator name="electronic convergence detail" >
     <i type="logical" name="LDIAG"> T  </i>
     <i type="logical" name="LSUBROT"> F  </i>
     <i name="WEIMIN">      0.00000000</i>
     <i name="EBREAK">      0.00000038</i>
     <i name="DEPER">      0.30000000</i>
     <i type="int" name="NRMM">     4</i>
     <i name="TIME">      0.40000000</i>
    </separator>
   </separator>
   <separator name="electronic mixer" >
    <i name="AMIX">      0.40000000</i>
    <i name="BMIX">      1.00000000</i>
    <i name="AMIN">      0.10000000</i>
    <i name="AMIX_MAG">      1.60000000</i>
    <i name="BMIX_MAG">      1.00000000</i>
    <separator name="electronic mixer details" >
     <i type="int" name="IMIX">     4</i>
     <i type="logical" name="MIXFIRST"> F  </i>
     <i type="int" name="MAXMIX">   -45</i>
     <i name="WC">    100.00000000</i>
     <i type="int" name="INIMIX">     1</i>
     <i type="int" name="MIXPRE">     1</i>
     <i type="int" name="MREMOVE">     5</i>
    </separator>
   </separator>
   <separator name="electronic dipolcorrection" >
    <i type="logical" name="LDIPOL"> F  </i>
    <i type="logical" name="LMONO"> F  </i>
    <i type="int" name="IDIPOL">     0</i>
    <i name="EPSILON">      1.00000000</i>
    <v name="DIPOL">   -100.00000000   -100.00000000   -100.00000000</v>
    <i name="EFIELD">      0.00000000</i>
   </separator>
  </separator>
  <separator name="grids" >
   <i type="int" name="NGX">   112</i>
   <i type="int" name="NGY">   120</i>
   <i type="int" name="NGZ">   108</i>
   <i type="int" name="NGXF">   224</i>
   <i type="int" name="NGYF">   240</i>
   <i type="int" name="NGZF">   216</i>
   <i type="logical" name="ADDGRID"> F  </i>
  </separator>
  <separator name="ionic" >
   <i type="int" name="NSW">     0</i>
   <i type="int" name="IBRION">    -1</i>
   <i type="int" name="MDALGO">     0</i>
   <i type="int" name="ISIF">     0</i>
   <i name="PSTRESS">      0.00000000</i>
   <i name="EDIFFG">      0.00100000</i>
   <i type="int" name="NFREE">     0</i>
   <i name="POTIM">      0.50000000</i>
   <i name="SMASS">     -3.00000000</i>
   <i name="SCALEE">      1.00000000</i>
  </separator>
  <separator name="ionic md" >
   <i name="TEBEG">      0.00010000</i>
   <i name="TEEND">      0.00010000</i>
   <i type="int" name="NBLOCK">     1</i>
   <i type="int" name="KBLOCK">     1</i>
   <i type="int" name="NPACO">   256</i>
   <i name="APACO">     16.00000000</i>
  </separator>
  <separator name="symmetry" >
   <i type="int" name="ISYM">     0</i>
   <i name="SYMPREC">      0.00001000</i>
  </separator>
  <separator name="dos" >
   <i type="int" name="LORBIT">     0</i>
   <v name="RWIGS">     -1.00000000     -1.00000000</v>
   <i type="int" name="NEDOS">   301</i>
   <i name="EMIN">     10.00000000</i>
   <i name="EMAX">    -10.00000000</i>
   <i name="EFERMI">      0.00000000</i>
  </separator>
  <separator name="writing" >
   <i type="int" name="NWRITE">     2</i>
   <i type="logical" name="LWAVE"> F  </i>
   <i type="logical" name="LDOWNSAMPLE"> F  </i>
   <i type="logical" name="LCHARG"> F  </i>
   <i type="logical" name="LPARD"> F  </i>
   <i type="logical" name="LVTOT"> F  </i>
   <i type="logical" name="LVHAR"> F  </i>
   <i type="logical" name="LELF"> F  </i>
   <i type="logical" name="LOPTICS"> F  </i>
   <v name="STM">      0.00000000      0.00000000      0.00000000      0.00000000      0.00000000      0.00000000      0.00000000</v>
  </separator>
  <separator name="performance" >
   <i type="int" name="NPAR">     2</i>
   <i type="int" name="NSIM">     4</i>
   <i type="int" name="NBLK">    -1</i>
   <i type="logical" name="LPLANE"> T  </i>
   <i type="logical" name="LSCALAPACK"> T  </i>
   <i type="logical" name="LSCAAWARE"> F  </i>
   <i type="logical" name="LSCALU"> F  </i>
   <i type="logical" name="LASYNC"> F  </i>
   <i type="logical" name="LORBITALREAL"> F  </i>
  </separator>
  <separator name="miscellaneous" >
   <i type="int" name="IDIOT">     3</i>
   <i type="int" name="PHON_NSTRUCT">    -1</i>
   <i type="logical" name="LMUSIC"> F  </i>
   <v name="POMASS">     58.69000000    106.42000000</v>
   <v name="DARWINR">      0.00000000      0.00000000</v>
   <v name="DARWINV">      1.00000000      1.00000000</v>
   <i type="logical" name="LCORR"> T  </i>
  </separator>
  <i type="logical" name="GGA_COMPAT"> T  </i>
  <i type="logical" name="LBERRY"> F  </i>
  <i type="int" name="ICORELEVEL">     0</i>
  <i type="logical" name="LDAU"> F  </i>
  <i type="int" name="I_CONSTRAINED_M">     0</i>
  <separator name="electronic exchange-correlation" >
   <i type="string" name="GGA">PE</i>
   <i type="int" name="VOSKOWN">     0</i>
   <i type="logical" name="LHFCALC"> F  </i>
   <i type="string" name="PRECFOCK"></i>
   <i type="logical" name="LSYMGRAD"> F  </i>
   <i type="logical" name="LHFONE"> F  </i>
   <i type="logical" name="LRHFCALC"> F  </i>
   <i type="logical" name="LTHOMAS"> F  </i>
   <i type="logical" name="LMODELHF"> F  </i>
   <i type="logical" name="LFOCKACE"> F  </i>
   <i name="ENCUT4O">     -1.00000000</i>
   <i type="int" name="EXXOEP">     0</i>
   <i type="int" name="FOURORBIT">     0</i>
   <i name="AEXX">      0.00000000</i>
   <i name="HFALPHA">      0.00000000</i>
   <i name="MCALPHA">      0.00000000</i>
   <i name="ALDAX">      1.00000000</i>
   <i name="AGGAX">      1.00000000</i>
   <i name="ALDAC">      1.00000000</i>
   <i name="AGGAC">      1.00000000</i>
   <i type="int" name="NKREDX">     1</i>
   <i type="int" name="NKREDY">     1</i>
   <i type="int" name="NKREDZ">     1</i>
   <i type="logical" name="SHIFTRED"> F  </i>
   <i type="logical" name="ODDONLY"> F  </i>
   <i type="logical" name="EVENONLY"> F  </i>
   <i type="int" name="LMAXFOCK">     0</i>
   <i type="int" name="NMAXFOCKAE">     0</i>
   <i type="logical" name="LFOCKAEDFT"> F  </i>
   <i name="HFSCREEN">      0.00000000</i>
   <i name="HFSCREENC">      0.00000000</i>
   <i type="int" name="NBANDSGWLOW">     0</i>
  </separator>
  <separator name="vdW DFT" >
   <i type="logical" name="LUSE_VDW"> F  </i>
   <i name="Zab_VDW">     -0.84910000</i>
   <i name="PARAM1">      0.12340000</i>
   <i name="PARAM2">      1.00000000</i>
   <i name="PARAM3">      0.00000000</i>
  </separator>
  <separator name="model GW" >
   <i type="int" name="MODEL_GW">     0</i>
   <i name="MODEL_EPS0">    694.78855324</i>
   <i name="MODEL_ALPHA">      1.00000000</i>
  </separator>
  <separator name="linear response parameters" >
   <i type="logical" name="LEPSILON"> F  </i>
   <i type="logical" name="LRPA"> F  </i>
   <i type="logical" name="LNABLA"> F  </i>
   <i type="logical" name="LVEL"> F  </i>
   <i type="int" name="KINTER">     0</i>
   <i name="CSHIFT">      0.10000000</i>
   <i name="OMEGAMAX">     -1.00000000</i>
   <i name="DEG_THRESHOLD">      0.00200000</i>
   <i name="RTIME">     -0.10000000</i>
   <i name="WPLASMAI">      0.00000000</i>
   <v name="DFIELD">      0.00000000      0.00000000      0.00000000</v>
   <v name="WPLASMA">      0.00000000      0.00000000      0.00000000      0.00000000      0.00000000      0.00000000      0.00000000      0.00000000      0.00000000</v>
  </separator>
  <separator name="orbital magnetization" >
   <i type="logical" name="NUCIND"> F  </i>
   <v name="MAGPOS">      0.00000000      0.00000000      0.00000000</v>
   <i type="logical" name="LNICSALL"> T  </i>
   <i type="logical" name="ORBITALMAG"> F  </i>
   <i type="logical" name="LMAGBLOCH"> F  </i>
   <i type="logical" name="LCHIMAG"> F  </i>
   <i type="logical" name="LGAUGE"> T  </i>
   <i type="int" name="MAGATOM">     0</i>
   <v name="MAGDIPOL">      0.00000000      0.00000000      0.00000000</v>
   <v name="AVECCONST">      0.00000000      0.00000000      0.00000000</v>
  </separator>
  <separator name="response functions" >
   <i type="logical" name="LFINITE_TEMPERATURE"> F  </i>
   <i type="logical" name="LADDER"> F  </i>
   <i type="logical" name="LRPAFORCE"> F  </i>
   <i type="logical" name="LFXC"> F  </i>
   <i type="logical" name="LHARTREE"> T  </i>
   <i type="int" name="IBSE">     0</i>
   <v type="int" name="KPOINT">    -1     0     0     0</v>
   <i type="logical" name="LTCTC"> F  </i>
   <i type="logical" name="LTCTE"> F  </i>
   <i type="logical" name="LTETE"> F  </i>
   <i type="logical" name="LTRIPLET"> F  </i>
   <i type="logical" name="LFXCEPS"> F  </i>
   <i type="logical" name="LFXHEG"> F  </i>
   <i type="int" name="NATURALO">     2</i>
   <i type="logical" name="LHOLEGF"> F  </i>
   <i type="logical" name="L2ORDER"> F  </i>
   <i type="logical" name="LDMP1"> F  </i>
   <i type="logical" name="LMP2LT"> F  </i>
   <i type="logical" name="LSMP2LT"> F  </i>
   <i type="logical" name="LGWLF"> F  </i>
   <i name="ENCUTGW">     -2.00000000</i>
   <i name="ENCUTGWSOFT">     -2.00000000</i>
   <i name="ENCUTLF">     -1.00000000</i>
   <i type="logical" name="LESF_SPLINES"> F  </i>
   <i type="int" name="LMAXMP2">    -1</i>
   <i name="SCISSOR">      0.00000000</i>
   <i type="int" name="NOMEGA">     0</i>
   <i type="int" name="NOMEGAR">     0</i>
   <i type="int" name="NBANDSGW">    -1</i>
   <i type="int" name="NBANDSO">    -1</i>
   <i type="int" name="NBANDSV">    -1</i>
   <i type="int" name="NELM">     1</i>
   <i type="int" name="NELMHF">     1</i>
   <i type="int" name="DIM">     3</i>
   <i type="int" name="IESPILON">     4</i>
   <i type="int" name="ANTIRES">     0</i>
   <i name="OMEGAMAX">    -30.00000000</i>
   <i name="OMEGAMIN">    -30.00000000</i>
   <i name="OMEGATL">   -200.00000000</i>
   <i type="int" name="OMEGAGRID">     0</i>
   <i name="CSHIFT">     -0.10000000</i>
   <i type="logical" name="LSELFENERGY"> F  </i>
   <i type="logical" name="LSPECTRAL"> F  </i>
   <i type="logical" name="LSPECTRALGW"> F  </i>
   <i type="logical" name="LSINGLES"> F  </i>
   <i type="logical" name="LFERMIGW"> F  </i>
   <i type="logical" name="ODDONLYGW"> F  </i>
   <i type="logical" name="EVENONLYGW"> F  </i>
   <i type="int" name="NKREDLFX">     1</i>
   <i type="int" name="NKREDLFY">     1</i>
   <i type="int" name="NKREDLFZ">     1</i>
   <i type="int" name="MAXMEM">  2800</i>
   <i type="int" name="TELESCOPE">     0</i>
   <i type="int" name="NTAUPAR">    -1</i>
   <i type="int" name="NOMEGAPAR">    -1</i>
   <i name="LAMBDA">      1.00000000</i>
  </separator>
  <separator name="External order field" >
   <i name="OFIELD_KAPPA">      0.00000000</i>
   <v name="OFIELD_K">      0.00000000      0.00000000      0.00000000</v>
   <i name="OFIELD_Q6_NEAR">      0.00000000</i>
   <i name="OFIELD_Q6_FAR">      0.00000000</i>
   <i name="OFIELD_A">      0.00000000</i>
  </separator>
 </parameters>
 <atominfo>
  <atoms>      10 </atoms>
  <types>       2 </types>
  <array name="atoms" >
   <dimension dim="1">ion</dimension>
   <field type="string">element</field>
   <field type="int">atomtype</field>
   <set>
    <rc><c>Ni</c><c>   1</c></rc>
    <rc><c>Ni</c><c>   1</c></rc>
    <rc><c>Ni</c><c>   1</c></rc>
    <rc><c>Ni</c><c>   1</c></rc>
    <rc><c>Ni</c><c>   1</c></rc>
    <rc><c>Ni</c><c>   1</c></rc>
    <rc><c>Pd</c><c>   2</c></rc>
    <rc><c>Pd</c><c>   2</c></rc>
    <rc><c>Pd</c><c>   2</c></rc>
    <rc><c>Pd</c><c>   2</c></rc>
   </set>
  </array>
  <array name="atomtypes" >
   <dimension dim="1">type</dimension>
   <field type="int">atomspertype</field>
   <field type="string">element</field>
   <field>mass</field>
   <field>valence</field>
   <field type="string">pseudopotential</field>
   <set>
    <rc><c>   6</c><c>Ni</c><c>     58.69000000</c><c>     10.00000000</c><c>  PAW_PBE Ni 02Aug2007                  </c></rc>
    <rc><c>   4</c><c>Pd</c><c>    106.42000000</c><c>     10.00000000</c><c>  PAW_PBE Pd 04Jan2005                  </c></rc>
   </set>
  </array>
 </atominfo>
 <structure name="initialpos" >
  <crystal>
   <varray name="basis" >
    <v>      22.83377999       0.00000000       0.00000000 </v>
    <v>       0.00000000      23.21153394       0.00000000 </v>
    <v>       0.00000000       0.00000000      21.84840564 </v>
   </varray>
   <i name="volume">  11579.80922064 </i>
   <varray name="rec_basis" >
    <v>       0.04379476       0.00000000       0.00000000 </v>
    <v>       0.00000000       0.04308203       0.00000000 </v>
    <v>       0.00000000       0.00000000       0.04576993 </v>
   </varray>
  </crystal>
  <varray name="positions" >
   <v>       0.38366137       0.49873695       0.52518043 </v>
   <v>       0.42335973       0.51444943       0.42865224 </v>
   <v>       0.48380069       0.46853376       0.52162762 </v>
   <v>       0.49827070       0.44676281       0.41963093 </v>
   <v>       0.52336961       0.54158807       0.44151878 </v>
   <v>       0.45411822       0.57185556       0.51551479 </v>
   <v>       0.35844437       0.58807940       0.47238472 </v>
   <v>       0.58802165       0.46245783       0.48066555 </v>
   <v>       0.40708374       0.41069635       0.46636266 </v>
   <v>       0.55043023       0.54794997       0.55328420 </v>
  </varray>
 </structure>
 <calculation>
  <scstep>
   <time name="dav">    5.40    5.41</time>
   <time name="total">    7.71    7.74</time>
   <energy>
    <i name="alphaZ">      4.89383974 </i>
    <i name="ewald">  12823.60751310 </i>
    <i name="hartreedc"> -21795.14446232 </i>
    <i name="XCdc">     63.17552795 </i>
    <i name="pawpsdc">   9003.59075477 </i>
    <i name="pawaedc">  -9155.75339974 </i>
    <i name="eentropy">      0.01316477 </i>
    <i name="bandstr">     45.96418443 </i>
    <i name="atom">   9704.95859309 </i>
    <i name="e_fr_energy">    695.30571580 </i>
    <i name="e_wo_entrp">    695.29255103 </i>
    <i name="e_0_energy">    695.30132755 </i>
   </energy>
  </scstep>
  <scstep>
   <time name="dav">    7.99    8.00</time>
   <time name="total">    7.99    8.00</time>
   <energy>
    <i name="e_fr_energy">    240.51969776 </i>
    <i name="e_wo_entrp">    240.46790471 </i>
    <i name="e_0_energy">    240.50243341 </i>
   </energy>
  </scstep>
  <scstep>
   <time name="dav">    6.75    6.76</time>
   <time name="total">    6.75    6.77</time>
   <energy>
    <i name="e_fr_energy">     16.66954369 </i>
    <i name="e_wo_entrp">     16.63526533 </i>
    <i name="e_0_energy">     16.65811757 </i>
   </energy>
  </scstep>
  <scstep>
   <time name="dav">    6.98    6.99</time>
   <time name="total">    6.99    7.00</time>
   <energy>
    <i name="e_fr_energy">    -38.13944464 </i>
    <i name="e_wo_entrp">    -38.08980152 </i>
    <i name="e_0_energy">    -38.12289693 </i>
   </energy>
  </scstep>
  <scstep>
   <time name="dav">    5.96    5.97</time>
   <time name="total">    6.58    6.59</time>
   <energy>
    <i name="e_fr_energy">    -43.83006326 </i>
    <i name="e_wo_entrp">    -43.81730353 </i>
    <i name="e_0_energy">    -43.82581002 </i>
   </energy>
  </scstep>
  <scstep>
   <time name="dav">    5.35    5.36</time>
   <time name="total">    8.25    8.27</time>
   <energy>
    <i name="e_fr_energy">    -54.30165584 </i>
    <i name="e_wo_entrp">    -54.31142786 </i>
    <i name="e_0_energy">    -54.30491318 </i>
   </energy>
  </scstep>
  <scstep>
   <time name="dav">    5.88    5.89</time>
   <time name="total">    8.77    8.78</time>
   <energy>
    <i name="e_fr_energy">    -37.84261714 </i>
    <i name="e_wo_entrp">    -37.80939335 </i>
    <i name="e_0_energy">    -37.83154254 </i>
   </energy>
  </scstep>
  <scstep>
   <time name="dav">    6.59    6.62</time>
   <time name="total">    9.50    9.53</time>
   <energy>
    <i name="e_fr_energy">    -42.18806698 </i>
    <i name="e_wo_entrp">    -42.19843644 </i>
    <i name="e_0_energy">    -42.19152346 </i>
   </energy>
  </scstep>
  <scstep>
   <time name="dav">    6.30    6.32</time>
   <time name="total">    9.21    9.24</time>
   <energy>
    <i name="e_fr_energy">    -42.09995011 </i>
    <i name="e_wo_entrp">    -42.05788436 </i>
    <i name="e_0_energy">    -42.08592820 </i>
   </energy>
  </scstep>
  <scstep>
   <time name="dav">    5.86    5.88</time>
   <time name="total">    8.77    8.80</time>
   <energy>
    <i name="e_fr_energy">    -36.36391799 </i>
    <i name="e_wo_entrp">    -36.34443634 </i>
    <i name="e_0_energy">    -36.35742410 </i>
   </energy>
  </scstep>
  <scstep>
   <time name="dav">    6.20    6.21</time>
   <time name="total">    9.11    9.13</time>
   <energy>
    <i name="e_fr_energy">    -34.64094750 </i>
    <i name="e_wo_entrp">    -34.61824723 </i>
    <i name="e_0_energy">    -34.63338074 </i>
   </energy>
  </scstep>
  <scstep>
   <time name="dav">    6.02    6.02</time>
   <time name="total">    8.91    8.92</time>
   <energy>
    <i name="e_fr_energy">    -35.11036613 </i>
    <i name="e_wo_entrp">    -35.10529789 </i>
    <i name="e_0_energy">    -35.10867672 </i>
   </energy>
  </scstep>
  <scstep>
   <time name="dav">    5.97    5.99</time>
   <time name="total">    8.88    8.91</time>
   <energy>
    <i name="e_fr_energy">    -34.87800811 </i>
    <i name="e_wo_entrp">    -34.87019167 </i>
    <i name="e_0_energy">    -34.87540263 </i>
   </energy>
  </scstep>
  <scstep>
   <time name="dav">    6.02    6.03</time>
   <time name="total">    8.93    8.94</time>
   <energy>
    <i name="e_fr_energy">    -35.36490701 </i>
    <i name="e_wo_entrp">    -35.31281849 </i>
    <i name="e_0_energy">    -35.34754417 </i>
   </energy>
  </scstep>
  <scstep>
   <time name="dav">    5.80    5.81</time>
   <time name="total">    8.69    8.72</time>
   <energy>
    <i name="e_fr_energy">    -35.28601393 </i>
    <i name="e_wo_entrp">    -35.26367178 </i>
    <i name="e_0_energy">    -35.27856655 </i>
   </energy>
  </scstep>
  <scstep>
   <time name="dav">    6.74    6.75</time>
   <time name="total">    9.69    9.70</time>
   <energy>
    <i name="e_fr_energy">    -35.56160825 </i>
    <i name="e_wo_entrp">    -35.55706176 </i>
    <i name="e_0_energy">    -35.56009275 </i>
   </energy>
  </scstep>
  <scstep>
   <time name="dav">    6.28    6.28</time>
   <time name="total">    9.23    9.24</time>
   <energy>
    <i name="e_fr_energy">    -35.89584092 </i>
    <i name="e_wo_entrp">    -35.89756219 </i>
    <i name="e_0_energy">    -35.89641467 </i>
   </energy>
  </scstep>
  <scstep>
   <time name="dav">    6.05    6.07</time>
   <time name="total">    8.97    8.99</time>
   <energy>
    <i name="e_fr_energy">    -36.12392629 </i>
    <i name="e_wo_entrp">    -36.13082204 </i>
    <i name="e_0_energy">    -36.12622488 </i>
   </energy>
  </scstep>
  <scstep>
   <time name="dav">    6.55    6.56</time>
   <time name="total">    9.46    9.48</time>
   <energy>
    <i name="e_fr_energy">    -36.66370408 </i>
    <i name="e_wo_entrp">    -36.66602581 </i>
    <i name="e_0_energy">    -36.66447799 </i>
   </energy>
  </scstep>
  <scstep>
   <time name="dav">    6.68    6.69</time>
   <time name="total">    9.62    9.64</time>
   <energy>
    <i name="e_fr_energy">    -36.84264275 </i>
    <i name="e_wo_entrp">    -36.83108813 </i>
    <i name="e_0_energy">    -36.83879121 </i>
   </energy>
  </scstep>
  <scstep>
   <time name="dav">    6.29    6.31</time>
   <time name="total">    9.25    9.27</time>
   <energy>
    <i name="e_fr_energy">    -36.93345062 </i>
    <i name="e_wo_entrp">    -36.92089769 </i>
    <i name="e_0_energy">    -36.92926631 </i>
   </energy>
  </scstep>
  <scstep>
   <time name="dav">    6.16    6.17</time>
   <time name="total">    9.13    9.15</time>
   <energy>
    <i name="e_fr_energy">    -37.04526905 </i>
    <i name="e_wo_entrp">    -37.03651699 </i>
    <i name="e_0_energy">    -37.04235170 </i>
   </energy>
  </scstep>
  <scstep>
   <time name="dav">    6.51    6.52</time>
   <time name="total">    9.49    9.51</time>
   <energy>
    <i name="e_fr_energy">    -37.27908380 </i>
    <i name="e_wo_entrp">    -37.27377483 </i>
    <i name="e_0_energy">    -37.27731414 </i>
   </energy>
  </scstep>
  <scstep>
   <time name="dav">    5.36    5.37</time>
   <time name="total">    8.34    8.37</time>
   <energy>
    <i name="e_fr_energy">    -37.42964837 </i>
    <i name="e_wo_entrp">    -37.42773748 </i>
    <i name="e_0_energy">    -37.42901140 </i>
   </energy>
  </scstep>
  <scstep>
   <time name="dav">    6.26    6.27</time>
   <time name="total">    9.26    9.28</time>
   <energy>
    <i name="e_fr_energy">    -37.55602854 </i>
    <i name="e_wo_entrp">    -37.55366600 </i>
    <i name="e_0_energy">    -37.55524103 </i>
   </energy>
  </scstep>
  <scstep>
   <time name="dav">    6.29    6.30</time>
   <time name="total">    9.30    9.33</time>
   <energy>
    <i name="e_fr_energy">    -37.68178434 </i>
    <i name="e_wo_entrp">    -37.67989286 </i>
    <i name="e_0_energy">    -37.68115385 </i>
   </energy>
  </scstep>
  <scstep>
   <time name="dav">    5.74    5.75</time>
   <time name="total">    8.73    8.74</time>
   <energy>
    <i name="e_fr_energy">    -37.75709115 </i>
    <i name="e_wo_entrp">    -37.75609289 </i>
    <i name="e_0_energy">    -37.75675840 </i>
   </energy>
  </scstep>
  <scstep>
   <time name="dav">    5.28    5.29</time>
   <time name="total">    8.31    8.33</time>
   <energy>
    <i name="e_fr_energy">    -37.78965963 </i>
    <i name="e_wo_entrp">    -37.78943962 </i>
    <i name="e_0_energy">    -37.78958629 </i>
   </energy>
  </scstep>
  <scstep>
   <time name="dav">    4.23    4.24</time>
   <time name="total">    7.27    7.28</time>
   <energy>
    <i name="e_fr_energy">    -37.82152946 </i>
    <i name="e_wo_entrp">    -37.82120750 </i>
    <i name="e_0_energy">    -37.82142214 </i>
   </energy>
  </scstep>
  <scstep>
   <time name="dav">    4.57    4.57</time>
   <time name="total">    7.62    7.63</time>
   <energy>
    <i name="e_fr_energy">    -37.85222320 </i>
    <i name="e_wo_entrp">    -37.85199410 </i>
    <i name="e_0_energy">    -37.85214684 </i>
   </energy>
  </scstep>
  <scstep>
   <time name="dav">    4.61    4.62</time>
   <time name="total">    7.67    7.68</time>
   <energy>
    <i name="e_fr_energy">    -37.87081058 </i>
    <i name="e_wo_entrp">    -37.87061390 </i>
    <i name="e_0_energy">    -37.87074502 </i>
   </energy>
  </scstep>
  <scstep>
   <time name="dav">    4.56    4.57</time>
   <time name="total">    7.64    7.66</time>
   <energy>
    <i name="e_fr_energy">    -37.88943857 </i>
    <i name="e_wo_entrp">    -37.88947043 </i>
    <i name="e_0_energy">    -37.88944919 </i>
   </energy>
  </scstep>
  <scstep>
   <time name="dav">    4.39    4.40</time>
   <time name="total">    7.46    7.48</time>
   <energy>
    <i name="e_fr_energy">    -37.89988031 </i>
    <i name="e_wo_entrp">    -37.89985151 </i>
    <i name="e_0_energy">    -37.89987071 </i>
   </energy>
  </scstep>
  <scstep>
   <time name="dav">    4.72    4.73</time>
   <time name="total">    7.81    7.82</time>
   <energy>
    <i name="e_fr_energy">    -37.90908935 </i>
    <i name="e_wo_entrp">    -37.90901743 </i>
    <i name="e_0_energy">    -37.90906538 </i>
   </energy>
  </scstep>
  <scstep>
   <time name="dav">    4.11    4.11</time>
   <time name="total">    7.23    7.24</time>
   <energy>
    <i name="e_fr_energy">    -37.91265451 </i>
    <i name="e_wo_entrp">    -37.91247660 </i>
    <i name="e_0_energy">    -37.91259520 </i>
   </energy>
  </scstep>
  <scstep>
   <time name="dav">    3.94    3.95</time>
   <time name="total">    7.02    7.05</time>
   <energy>
    <i name="e_fr_energy">    -37.91456674 </i>
    <i name="e_wo_entrp">    -37.91436484 </i>
    <i name="e_0_energy">    -37.91449944 </i>
   </energy>
  </scstep>
  <scstep>
   <time name="dav">    4.19    4.20</time>
   <time name="total">    7.31    7.33</time>
   <energy>
    <i name="e_fr_energy">    -37.91597386 </i>
    <i name="e_wo_entrp">    -37.91574972 </i>
    <i name="e_0_energy">    -37.91589914 </i>
   </energy>
  </scstep>
  <scstep>
   <time name="dav">    3.97    3.99</time>
   <time name="total">    7.10    7.12</time>
   <energy>
    <i name="e_fr_energy">    -37.91667951 </i>
    <i name="e_wo_entrp">    -37.91645142 </i>
    <i name="e_0_energy">    -37.91660348 </i>
   </energy>
  </scstep>
  <scstep>
   <time name="dav">    4.04    4.05</time>
   <time name="total">    7.22    7.23</time>
   <energy>
    <i name="e_fr_energy">    -37.91712720 </i>
    <i name="e_wo_entrp">    -37.91687304 </i>
    <i name="e_0_energy">    -37.91704248 </i>
   </energy>
  </scstep>
  <scstep>
   <time name="dav">    3.82    3.83</time>
   <time name="total">    6.97    6.99</time>
   <energy>
    <i name="e_fr_energy">    -37.91748441 </i>
    <i name="e_wo_entrp">    -37.91723770 </i>
    <i name="e_0_energy">    -37.91740217 </i>
   </energy>
  </scstep>
  <scstep>
   <time name="dav">    3.77    3.78</time>
   <time name="total">    6.97    6.98</time>
   <energy>
    <i name="e_fr_energy">    -37.91777818 </i>
    <i name="e_wo_entrp">    -37.91752362 </i>
    <i name="e_0_energy">    -37.91769332 </i>
   </energy>
  </scstep>
  <scstep>
   <time name="dav">    3.95    3.96</time>
   <time name="total">    7.14    7.15</time>
   <energy>
    <i name="e_fr_energy">    -37.91797580 </i>
    <i name="e_wo_entrp">    -37.91771729 </i>
    <i name="e_0_energy">    -37.91788963 </i>
   </energy>
  </scstep>
  <scstep>
   <time name="dav">    3.73    3.73</time>
   <time name="total">    6.95    6.97</time>
   <energy>
    <i name="e_fr_energy">    -37.91815745 </i>
    <i name="e_wo_entrp">    -37.91788994 </i>
    <i name="e_0_energy">    -37.91806828 </i>
   </energy>
  </scstep>
  <scstep>
   <time name="dav">    3.95    3.96</time>
   <time name="total">    6.22    6.24</time>
   <energy>
    <i name="alphaZ">      4.89383974 </i>
    <i name="ewald">  12823.60751310 </i>
    <i name="hartreedc"> -21869.42053037 </i>
    <i name="XCdc">     60.31956388 </i>
    <i name="pawpsdc">  10149.43317369 </i>
    <i name="pawaedc"> -10314.20126423 </i>
    <i name="eentropy">     -0.00027425 </i>
    <i name="bandstr">   -597.50886884 </i>
    <i name="atom">   9704.95859309 </i>
    <i name="e_fr_energy">    -37.91825417 </i>
    <i name="e_wo_entrp">    -37.91797992 </i>
    <i name="e_0_energy">    -37.91816275 </i>
   </energy>
  </scstep>
  <structure>
   <crystal>
    <varray name="basis" >
     <v>      22.83377999       0.00000000       0.00000000 </v>
     <v>       0.00000000      23.21153394       0.00000000 </v>
     <v>       0.00000000       0.00000000      21.84840564 </v>
    </varray>
    <i name="volume">  11579.80922064 </i>
    <varray name="rec_basis" >
     <v>       0.04379476       0.00000000       0.00000000 </v>
     <v>       0.00000000       0.04308203       0.00000000 </v>
     <v>       0.00000000       0.00000000       0.04576993 </v>
    </varray>
   </crystal>
   <varray name="positions" >
    <v>       0.38366137       0.49873695       0.52518043 </v>
    <v>       0.42335973       0.51444943       0.42865224 </v>
    <v>       0.48380069       0.46853376       0.52162762 </v>
    <v>       0.49827070       0.44676281       0.41963093 </v>
    <v>       0.52336961       0.54158807       0.44151878 </v>
    <v>       0.45411822       0.57185556       0.51551479 </v>
    <v>       0.35844437       0.58807940       0.47238472 </v>
    <v>       0.58802165       0.46245783       0.48066555 </v>
    <v>       0.40708374       0.41069635       0.46636266 </v>
    <v>       0.55043023       0.54794997       0.55328420 </v>
   </varray>
  </structure>
  <varray name="forces" >
   <v>       0.00400865      -0.00750330       0.01884407 </v>
   <v>       0.02412637       0.00510777      -0.01718495 </v>
   <v>      -0.03860573       0.01242765      -0.02403825 </v>
   <v>      -0.01222486      -0.01589259       0.00416923 </v>
   <v>       0.02465417       0.00555309       0.01494225 </v>
   <v>       0.00753413      -0.00241491       0.01372577 </v>
   <v>      -0.02119080       0.01802484      -0.00167663 </v>
   <v>       0.00409176      -0.00151686      -0.02175950 </v>
   <v>       0.01168071      -0.02160077       0.00823709 </v>
   <v>      -0.00407441       0.00781508       0.00474091 </v>
  </varray>
  <energy>
   <i name="e_fr_energy">    -37.91825417 </i>
   <i name="e_wo_entrp">    -37.91797992 </i>
   <i name="e_0_energy">    -37.91816275 </i>
  </energy>
  <time name="totalsc">  367.85  368.84</time>
  <eigenvalues>
   <array>
    <dimension dim="1">band</dimension>
    <dimension dim="2">kpoint</dimension>
    <dimension dim="3">spin</dimension>
    <field>eigene</field>
    <field>occ</field>
    <set>
     <set comment="spin 1">
      <set comment="kpoint 1">
       <r>   -9.8966    1.0000 </r>
       <r>   -8.4936    1.0000 </r>
       <r>   -8.2515    1.0000 </r>
       <r>   -8.0554    1.0000 </r>
       <r>   -7.8435    1.0000 </r>
       <r>   -7.7499    1.0000 </r>
       <r>   -7.6328    1.0000 </r>
       <r>   -7.4780    1.0000 </r>
       <r>   -7.4741    1.0000 </r>
       <r>   -7.2672    1.0000 </r>
       <r>   -7.2418    1.0000 </r>
       <r>   -7.1962    1.0000 </r>
       <r>   -7.1506    1.0000 </r>
       <r>   -7.0944    1.0000 </r>
       <r>   -7.0364    1.0000 </r>
       <r>   -6.8209    1.0000 </r>
       <r>   -6.7484    1.0000 </r>
       <r>   -6.6678    1.0000 </r>
       <r>   -6.5856    1.0000 </r>
       <r>   -6.5214    1.0000 </r>
       <r>   -6.4547    1.0000 </r>
       <r>   -6.3055    1.0000 </r>
       <r>   -6.1116    1.0000 </r>
       <r>   -6.0456    1.0000 </r>
       <r>   -5.8908    1.0000 </r>
       <r>   -5.8504    1.0000 </r>
       <r>   -5.8441    1.0000 </r>
       <r>   -5.7619    1.0000 </r>
       <r>   -5.6894    1.0000 </r>
       <r>   -5.6352    1.0000 </r>
       <r>   -5.5917    1.0000 </r>
       <r>   -5.5508    1.0000 </r>
       <r>   -5.5202    1.0000 </r>
       <r>   -5.4817    1.0000 </r>
       <r>   -5.4486    1.0000 </r>
       <r>   -5.4429    1.0000 </r>
       <r>   -5.3846    1.0000 </r>
       <r>   -5.3158    1.0000 </r>
       <r>   -5.2926    1.0000 </r>
       <r>   -5.2595    1.0000 </r>
       <r>   -5.2073    1.0000 </r>
       <r>   -5.1524    1.0000 </r>
       <r>   -5.1496    1.0000 </r>
       <r>   -5.0888    1.0000 </r>
       <r>   -5.0559    1.0000 </r>
       <r>   -5.0127    1.0000 </r>
       <r>   -4.9487    1.0000 </r>
       <r>   -4.9139    1.0000 </r>
       <r>   -4.8854    1.0000 </r>
       <r>   -4.8345    1.0000 </r>
       <r>   -4.8001    1.0000 </r>
       <r>   -4.7371    1.0000 </r>
       <r>   -4.6453    1.0004 </r>
       <r>   -4.2952    1.0239 </r>
       <r>   -3.4193   -0.0000 </r>
       <r>   -2.7852   -0.0000 </r>
       <r>   -2.6578   -0.0000 </r>
       <r>   -2.3711   -0.0000 </r>
       <r>   -2.0509   -0.0000 </r>
       <r>   -1.5756   -0.0000 </r>
       <r>   -1.3999   -0.0000 </r>
       <r>   -0.8256   -0.0000 </r>
       <r>   -0.6025   -0.0000 </r>
       <r>   -0.4815   -0.0000 </r>
       <r>   -0.3377   -0.0000 </r>
       <r>   -0.1771   -0.0000 </r>
      </set>
     </set>
     <set comment="spin 2">
      <set comment="kpoint 1">
       <r>   -9.8148    1.0000 </r>
       <r>   -8.1981    1.0000 </r>
       <r>   -7.8676    1.0000 </r>
       <r>   -7.5798    1.0000 </r>
       <r>   -7.3450    1.0000 </r>
       <r>   -7.2170    1.0000 </r>
       <r>   -6.9995    1.0000 </r>
       <r>   -6.9008    1.0000 </r>
       <r>   -6.7763    1.0000 </r>
       <r>   -6.6591    1.0000 </r>
       <r>   -6.6053    1.0000 </r>
       <r>   -6.5047    1.0000 </r>
       <r>   -6.4253    1.0000 </r>
       <r>   -6.4056    1.0000 </r>
       <r>   -6.3134    1.0000 </r>
       <r>   -6.2560    1.0000 </r>
       <r>   -6.2223    1.0000 </r>
       <r>   -6.1588    1.0000 </r>
       <r>   -6.0259    1.0000 </r>
       <r>   -5.9564    1.0000 </r>
       <r>   -5.8760    1.0000 </r>
       <r>   -5.6467    1.0000 </r>
       <r>   -5.5535    1.0000 </r>
       <r>   -5.4985    1.0000 </r>
       <r>   -5.4530    1.0000 </r>
       <r>   -5.3524    1.0000 </r>
       <r>   -5.3114    1.0000 </r>
       <r>   -5.2324    1.0000 </r>
       <r>   -5.1854    1.0000 </r>
       <r>   -5.1291    1.0000 </r>
       <r>   -5.0272    1.0000 </r>
       <r>   -4.9434    1.0000 </r>
       <r>   -4.9181    1.0000 </r>
       <r>   -4.8833    1.0000 </r>
       <r>   -4.8207    1.0000 </r>
       <r>   -4.7026    1.0001 </r>
       <r>   -4.6469    1.0004 </r>
       <r>   -4.6108    1.0009 </r>
       <r>   -4.5754    1.0019 </r>
       <r>   -4.4619    1.0136 </r>
       <r>   -4.4071    1.0255 </r>
       <r>   -4.3595    1.0345 </r>
       <r>   -4.3399    1.0354 </r>
       <r>   -4.2612    0.9946 </r>
       <r>   -4.1668    0.7744 </r>
       <r>   -4.1194    0.5919 </r>
       <r>   -4.0350    0.2489 </r>
       <r>   -4.0134    0.1762 </r>
       <r>   -3.9897    0.1089 </r>
       <r>   -3.9587    0.0420 </r>
       <r>   -3.9302    0.0011 </r>
       <r>   -3.8720   -0.0338 </r>
       <r>   -3.7958   -0.0272 </r>
       <r>   -3.7319   -0.0134 </r>
       <r>   -3.1446   -0.0000 </r>
       <r>   -2.5304   -0.0000 </r>
       <r>   -2.3454   -0.0000 </r>
       <r>   -2.0483   -0.0000 </r>
       <r>   -1.7427   -0.0000 </r>
       <r>   -1.3371   -0.0000 </r>
       <r>   -1.1640   -0.0000 </r>
       <r>   -0.6579   -0.0000 </r>
       <r>   -0.4702   -0.0000 </r>
       <r>   -0.2995   -0.0000 </r>
       <r>   -0.1337   -0.0000 </r>
       <r>    0.0263   -0.0000 </r>
      </set>
     </set>
    </set>
   </array>
  </eigenvalues>
  <separator name="orbital magnetization" >
   <v name="MAGDIPOLOUT">      0.00000000      0.00000000      0.00000000</v>
  </separator>
  <dos>
   <i name="efermi">     -4.09758668 </i>
   <total>
    <array>
     <dimension dim="1">gridpoints</dimension>
     <dimension dim="2">spin</dimension>
     <field>energy</field>
     <field>total</field>
     <field>integrated</field>
     <set>
      <set comment="spin 1">
       <r>   -11.8966     0.0000     0.0000 </r>
       <r>   -11.8501     0.0000     0.0000 </r>
       <r>   -11.8037     0.0000     0.0000 </r>
       <r>   -11.7573     0.0000     0.0000 </r>
       <r>   -11.7109     0.0000     0.0000 </r>
       <r>   -11.6645     0.0000     0.0000 </r>
       <r>   -11.6181     0.0000     0.0000 </r>
       <r>   -11.5717     0.0000     0.0000 </r>
       <r>   -11.5253    -0.0000    -0.0000 </r>
       <r>   -11.4789    -0.0000    -0.0000 </r>
       <r>   -11.4325    -0.0000    -0.0000 </r>
       <r>   -11.3860    -0.0000    -0.0000 </r>
       <r>   -11.3396    -0.0000    -0.0000 </r>
       <r>   -11.2932    -0.0000    -0.0000 </r>
       <r>   -11.2468    -0.0000    -0.0000 </r>
       <r>   -11.2004    -0.0000    -0.0000 </r>
       <r>   -11.1540    -0.0000    -0.0000 </r>
       <r>   -11.1076    -0.0000    -0.0000 </r>
       <r>   -11.0612    -0.0000    -0.0000 </r>
       <r>   -11.0148    -0.0000    -0.0000 </r>
       <r>   -10.9684    -0.0000    -0.0000 </r>
       <r>   -10.9220    -0.0000    -0.0000 </r>
       <r>   -10.8755    -0.0000    -0.0000 </r>
       <r>   -10.8291    -0.0000    -0.0000 </r>
       <r>   -10.7827    -0.0000    -0.0000 </r>
       <r>   -10.7363    -0.0000    -0.0000 </r>
       <r>   -10.6899    -0.0000    -0.0000 </r>
       <r>   -10.6435    -0.0000    -0.0000 </r>
       <r>   -10.5971    -0.0001    -0.0000 </r>
       <r>   -10.5507    -0.0003    -0.0000 </r>
       <r>   -10.5043    -0.0012    -0.0001 </r>
       <r>   -10.4579    -0.0041    -0.0003 </r>
       <r>   -10.4114    -0.0121    -0.0008 </r>
       <r>   -10.3650    -0.0312    -0.0023 </r>
       <r>   -10.3186    -0.0697    -0.0055 </r>
       <r>   -10.2722    -0.1315    -0.0116 </r>
       <r>   -10.2258    -0.2011    -0.0209 </r>
       <r>   -10.1794    -0.2219    -0.0312 </r>
       <r>   -10.1330    -0.0845    -0.0352 </r>
       <r>   -10.0866     0.3450    -0.0191 </r>
       <r>   -10.0402     1.1446     0.0340 </r>
       <r>    -9.9938     2.2343     0.1377 </r>
       <r>    -9.9474     3.3373     0.2925 </r>
       <r>    -9.9009     4.0699     0.4814 </r>
       <r>    -9.8545     4.1391     0.6735 </r>
       <r>    -9.8081     3.5158     0.8367 </r>
       <r>    -9.7617     2.4532     0.9505 </r>
       <r>    -9.7153     1.3343     1.0125 </r>
       <r>    -9.6689     0.4676     1.0342 </r>
       <r>    -9.6225    -0.0294     1.0328 </r>
       <r>    -9.5761    -0.2121     1.0230 </r>
       <r>    -9.5297    -0.2114     1.0131 </r>
       <r>    -9.4833    -0.1451     1.0064 </r>
       <r>    -9.4368    -0.0796     1.0027 </r>
       <r>    -9.3904    -0.0368     1.0010 </r>
       <r>    -9.3440    -0.0146     1.0003 </r>
       <r>    -9.2976    -0.0051     1.0001 </r>
       <r>    -9.2512    -0.0015     1.0000 </r>
       <r>    -9.2048    -0.0005     1.0000 </r>
       <r>    -9.1584    -0.0003     1.0000 </r>
       <r>    -9.1120    -0.0009     0.9999 </r>
       <r>    -9.0656    -0.0031     0.9998 </r>
       <r>    -9.0192    -0.0095     0.9994 </r>
       <r>    -8.9728    -0.0255     0.9982 </r>
       <r>    -8.9263    -0.0589     0.9954 </r>
       <r>    -8.8799    -0.1162     0.9900 </r>
       <r>    -8.8335    -0.1890     0.9813 </r>
       <r>    -8.7871    -0.2340     0.9704 </r>
       <r>    -8.7407    -0.1580     0.9631 </r>
       <r>    -8.6943     0.1647     0.9707 </r>
       <r>    -8.6479     0.8264     1.0091 </r>
       <r>    -8.6015     1.7931     1.0923 </r>
       <r>    -8.5551     2.8619     1.2251 </r>
       <r>    -8.5087     3.7378     1.3986 </r>
       <r>    -8.4622     4.2099     1.5940 </r>
       <r>    -8.4158     4.2946     1.7933 </r>
       <r>    -8.3694     4.2140     1.9889 </r>
       <r>    -8.3230     4.2159     2.1845 </r>
       <r>    -8.2766     4.3975     2.3886 </r>
       <r>    -8.2302     4.6774     2.6057 </r>
       <r>    -8.1838     4.9082     2.8335 </r>
       <r>    -8.1374     4.9937     3.0652 </r>
       <r>    -8.0910     4.9283     3.2939 </r>
       <r>    -8.0446     4.7867     3.5161 </r>
       <r>    -7.9982     4.7171     3.7350 </r>
       <r>    -7.9517     4.9116     3.9629 </r>
       <r>    -7.9053     5.5069     4.2185 </r>
       <r>    -7.8589     6.4594     4.5183 </r>
       <r>    -7.8125     7.5196     4.8673 </r>
       <r>    -7.7661     8.3706     5.2557 </r>
       <r>    -7.7197     8.8360     5.6658 </r>
       <r>    -7.6733     8.9835     6.0827 </r>
       <r>    -7.6269     9.0333     6.5020 </r>
       <r>    -7.5805     9.1475     6.9265 </r>
       <r>    -7.5341     9.2959     7.3579 </r>
       <r>    -7.4876     9.3420     7.7915 </r>
       <r>    -7.4412     9.2960     8.2229 </r>
       <r>    -7.3948     9.4862     8.6632 </r>
       <r>    -7.3484    10.4180     9.1467 </r>
       <r>    -7.3020    12.3619     9.7204 </r>
       <r>    -7.2556    15.0027    10.4166 </r>
       <r>    -7.2092    17.4683    11.2273 </r>
       <r>    -7.1628    18.7497    12.0975 </r>
       <r>    -7.1164    18.2205    12.9431 </r>
       <r>    -7.0700    15.9386    13.6828 </r>
       <r>    -7.0236    12.6090    14.2680 </r>
       <r>    -6.9771     9.2853    14.6989 </r>
       <r>    -6.9307     6.9551    15.0217 </r>
       <r>    -6.8843     6.1709    15.3081 </r>
       <r>    -6.8379     6.8821    15.6275 </r>
       <r>    -6.7915     8.5516    16.0243 </r>
       <r>    -6.7451    10.4828    16.5108 </r>
       <r>    -6.6987    12.1422    17.0744 </r>
       <r>    -6.6523    13.2839    17.6909 </r>
       <r>    -6.6059    13.8581    18.3340 </r>
       <r>    -6.5595    13.8536    18.9769 </r>
       <r>    -6.5130    13.2390    19.5914 </r>
       <r>    -6.4666    12.0308    20.1497 </r>
       <r>    -6.4202    10.3823    20.6315 </r>
       <r>    -6.3738     8.5864    21.0300 </r>
       <r>    -6.3274     6.9888    21.3544 </r>
       <r>    -6.2810     5.8831    21.6274 </r>
       <r>    -6.2346     5.4401    21.8799 </r>
       <r>    -6.1882     5.6672    22.1429 </r>
       <r>    -6.1418     6.4110    22.4404 </r>
       <r>    -6.0954     7.4433    22.7859 </r>
       <r>    -6.0490     8.6184    23.1858 </r>
       <r>    -6.0025     9.9655    23.6483 </r>
       <r>    -5.9561    11.5889    24.1862 </r>
       <r>    -5.9097    13.4441    24.8101 </r>
       <r>    -5.8633    15.2399    25.5174 </r>
       <r>    -5.8169    16.6249    26.2889 </r>
       <r>    -5.7705    17.5136    27.1017 </r>
       <r>    -5.7241    18.2282    27.9477 </r>
       <r>    -5.6777    19.2890    28.8429 </r>
       <r>    -5.6313    21.0131    29.8181 </r>
       <r>    -5.5849    23.2432    30.8968 </r>
       <r>    -5.5384    25.4083    32.0760 </r>
       <r>    -5.4920    26.8608    33.3226 </r>
       <r>    -5.4456    27.2571    34.5876 </r>
       <r>    -5.3992    26.7365    35.8284 </r>
       <r>    -5.3528    25.8001    37.0258 </r>
       <r>    -5.3064    24.9912    38.1856 </r>
       <r>    -5.2600    24.6018    39.3274 </r>
       <r>    -5.2136    24.5837    40.4683 </r>
       <r>    -5.1672    24.6828    41.6138 </r>
       <r>    -5.1208    24.6662    42.7586 </r>
       <r>    -5.0744    24.4774    43.8945 </r>
       <r>    -5.0279    24.2273    45.0189 </r>
       <r>    -4.9815    24.0410    46.1346 </r>
       <r>    -4.9351    23.8803    47.2429 </r>
       <r>    -4.8887    23.4862    48.3329 </r>
       <r>    -4.8423    22.4961    49.3769 </r>
       <r>    -4.7959    20.6509    50.3353 </r>
       <r>    -4.7495    17.9389    51.1679 </r>
       <r>    -4.7031    14.5907    51.8450 </r>
       <r>    -4.6567    10.9712    52.3542 </r>
       <r>    -4.6103     7.4780    52.7012 </r>
       <r>    -4.5638     4.4943    52.9098 </r>
       <r>    -4.5174     2.3607    53.0194 </r>
       <r>    -4.4710     1.3029    53.0798 </r>
       <r>    -4.4246     1.3189    53.1410 </r>
       <r>    -4.3782     2.1069    53.2388 </r>
       <r>    -4.3318     3.1265    53.3839 </r>
       <r>    -4.2854     3.8060    53.5606 </r>
       <r>    -4.2390     3.7959    53.7367 </r>
       <r>    -4.1926     3.1076    53.8809 </r>
       <r>    -4.1462     2.0490    53.9760 </r>
       <r>    -4.0997     1.0128    54.0230 </r>
       <r>    -4.0533     0.2687    54.0355 </r>
       <r>    -4.0069    -0.1174    54.0301 </r>
       <r>    -3.9605    -0.2323    54.0193 </r>
       <r>    -3.9141    -0.2126    54.0094 </r>
       <r>    -3.8677    -0.1683    54.0016 </r>
       <r>    -3.8213    -0.1577    53.9943 </r>
       <r>    -3.7749    -0.1909    53.9854 </r>
       <r>    -3.7285    -0.2321    53.9747 </r>
       <r>    -3.6821    -0.1933    53.9657 </r>
       <r>    -3.6357     0.0576    53.9684 </r>
       <r>    -3.5892     0.6458    53.9983 </r>
       <r>    -3.5428     1.5929    54.0723 </r>
       <r>    -3.4964     2.7324    54.1991 </r>
       <r>    -3.4500     3.7216    54.3718 </r>
       <r>    -3.4036     4.1893    54.5662 </r>
       <r>    -3.3572     3.9415    54.7491 </r>
       <r>    -3.3108     3.0777    54.8920 </r>
       <r>    -3.2644     1.9270    54.9814 </r>
       <r>    -3.2180     0.8533    55.0210 </r>
       <r>    -3.1716     0.0793    55.0247 </r>
       <r>    -3.1251    -0.3584    55.0080 </r>
       <r>    -3.0787    -0.5238    54.9837 </r>
       <r>    -3.0323    -0.4563    54.9626 </r>
       <r>    -2.9859    -0.1036    54.9577 </r>
       <r>    -2.9395     0.6463    54.9877 </r>
       <r>    -2.8931     1.8561    55.0739 </r>
       <r>    -2.8467     3.4256    55.2329 </r>
       <r>    -2.8003     5.0557    55.4675 </r>
       <r>    -2.7539     6.3289    55.7612 </r>
       <r>    -2.7075     6.8794    56.0805 </r>
       <r>    -2.6611     6.5698    56.3854 </r>
       <r>    -2.6146     5.5845    56.6446 </r>
       <r>    -2.5682     4.3740    56.8476 </r>
       <r>    -2.5218     3.4485    57.0076 </r>
       <r>    -2.4754     3.1100    57.1519 </r>
       <r>    -2.4290     3.2864    57.3045 </r>
       <r>    -2.3826     3.5996    57.4715 </r>
       <r>    -2.3362     3.6459    57.6407 </r>
       <r>    -2.2898     3.2949    57.7936 </r>
       <r>    -2.2434     2.7792    57.9226 </r>
       <r>    -2.1970     2.5013    58.0387 </r>
       <r>    -2.1505     2.7079    58.1644 </r>
       <r>    -2.1041     3.2838    58.3168 </r>
       <r>    -2.0577     3.8170    58.4939 </r>
       <r>    -2.0113     3.8773    58.6739 </r>
       <r>    -1.9649     3.2918    58.8266 </r>
       <r>    -1.9185     2.2330    58.9303 </r>
       <r>    -1.8721     1.0923    58.9810 </r>
       <r>    -1.8257     0.2727    58.9936 </r>
       <r>    -1.7793     0.0382    58.9954 </r>
       <r>    -1.7329     0.4660    59.0170 </r>
       <r>    -1.6865     1.4586    59.0847 </r>
       <r>    -1.6400     2.7812    59.2138 </r>
       <r>    -1.5936     4.1296    59.4054 </r>
       <r>    -1.5472     5.2249    59.6479 </r>
       <r>    -1.5008     5.8869    59.9211 </r>
       <r>    -1.4544     6.0404    60.2015 </r>
       <r>    -1.4080     5.6766    60.4649 </r>
       <r>    -1.3616     4.8375    60.6894 </r>
       <r>    -1.3152     3.6442    60.8585 </r>
       <r>    -1.2688     2.3114    60.9658 </r>
       <r>    -1.2224     1.0924    61.0165 </r>
       <r>    -1.1759     0.1828    61.0250 </r>
       <r>    -1.1295    -0.3337    61.0095 </r>
       <r>    -1.0831    -0.4545    60.9884 </r>
       <r>    -1.0367    -0.1908    60.9796 </r>
       <r>    -0.9903     0.4501    61.0005 </r>
       <r>    -0.9439     1.4091    61.0659 </r>
       <r>    -0.8975     2.5108    61.1824 </r>
       <r>    -0.8511     3.4930    61.3445 </r>
       <r>    -0.8047     4.1501    61.5371 </r>
       <r>    -0.7583     4.4835    61.7452 </r>
       <r>    -0.7119     4.7109    61.9638 </r>
       <r>    -0.6654     5.0997    62.2005 </r>
       <r>    -0.6190     5.7564    62.4676 </r>
       <r>    -0.5726     6.5516    62.7717 </r>
       <r>    -0.5262     7.2303    63.1072 </r>
       <r>    -0.4798     7.5981    63.4599 </r>
       <r>    -0.4334     7.6279    63.8139 </r>
       <r>    -0.3870     7.4322    64.1588 </r>
       <r>    -0.3406     7.1543    64.4908 </r>
       <r>    -0.2942     6.8660    64.8095 </r>
       <r>    -0.2478     6.5252    65.1123 </r>
       <r>    -0.2013     6.0059    65.3910 </r>
       <r>    -0.1549     5.1865    65.6317 </r>
       <r>    -0.1085     4.0524    65.8198 </r>
       <r>    -0.0621     2.7441    65.9472 </r>
       <r>    -0.0157     1.5034    66.0169 </r>
       <r>     0.0307     0.5509    66.0425 </r>
       <r>     0.0771    -0.0173    66.0417 </r>
       <r>     0.1235    -0.2468    66.0302 </r>
       <r>     0.1699    -0.2627    66.0180 </r>
       <r>     0.2163    -0.1905    66.0092 </r>
       <r>     0.2627    -0.1103    66.0041 </r>
       <r>     0.3092    -0.0537    66.0016 </r>
       <r>     0.3556    -0.0225    66.0005 </r>
       <r>     0.4020    -0.0082    66.0002 </r>
       <r>     0.4484    -0.0026    66.0000 </r>
       <r>     0.4948    -0.0007    66.0000 </r>
       <r>     0.5412    -0.0002    66.0000 </r>
       <r>     0.5876    -0.0000    66.0000 </r>
       <r>     0.6340    -0.0000    66.0000 </r>
       <r>     0.6804    -0.0000    66.0000 </r>
       <r>     0.7268    -0.0000    66.0000 </r>
       <r>     0.7733    -0.0000    66.0000 </r>
       <r>     0.8197    -0.0000    66.0000 </r>
       <r>     0.8661    -0.0000    66.0000 </r>
       <r>     0.9125    -0.0000    66.0000 </r>
       <r>     0.9589    -0.0000    66.0000 </r>
       <r>     1.0053    -0.0000    66.0000 </r>
       <r>     1.0517    -0.0000    66.0000 </r>
       <r>     1.0981     0.0000    66.0000 </r>
       <r>     1.1445     0.0000    66.0000 </r>
       <r>     1.1909     0.0000    66.0000 </r>
       <r>     1.2373     0.0000    66.0000 </r>
       <r>     1.2838     0.0000    66.0000 </r>
       <r>     1.3302     0.0000    66.0000 </r>
       <r>     1.3766     0.0000    66.0000 </r>
       <r>     1.4230     0.0000    66.0000 </r>
       <r>     1.4694     0.0000    66.0000 </r>
       <r>     1.5158     0.0000    66.0000 </r>
       <r>     1.5622     0.0000    66.0000 </r>
       <r>     1.6086     0.0000    66.0000 </r>
       <r>     1.6550     0.0000    66.0000 </r>
       <r>     1.7014     0.0000    66.0000 </r>
       <r>     1.7479     0.0000    66.0000 </r>
       <r>     1.7943     0.0000    66.0000 </r>
       <r>     1.8407     0.0000    66.0000 </r>
       <r>     1.8871     0.0000    66.0000 </r>
       <r>     1.9335     0.0000    66.0000 </r>
       <r>     1.9799     0.0000    66.0000 </r>
       <r>     2.0263     0.0000    66.0000 </r>
      </set>
      <set comment="spin 2">
       <r>   -11.8966     0.0000     0.0000 </r>
       <r>   -11.8501     0.0000     0.0000 </r>
       <r>   -11.8037     0.0000     0.0000 </r>
       <r>   -11.7573     0.0000     0.0000 </r>
       <r>   -11.7109     0.0000     0.0000 </r>
       <r>   -11.6645     0.0000     0.0000 </r>
       <r>   -11.6181     0.0000     0.0000 </r>
       <r>   -11.5717     0.0000     0.0000 </r>
       <r>   -11.5253     0.0000     0.0000 </r>
       <r>   -11.4789     0.0000     0.0000 </r>
       <r>   -11.4325    -0.0000    -0.0000 </r>
       <r>   -11.3860    -0.0000    -0.0000 </r>
       <r>   -11.3396    -0.0000    -0.0000 </r>
       <r>   -11.2932    -0.0000    -0.0000 </r>
       <r>   -11.2468    -0.0000    -0.0000 </r>
       <r>   -11.2004    -0.0000    -0.0000 </r>
       <r>   -11.1540    -0.0000    -0.0000 </r>
       <r>   -11.1076    -0.0000    -0.0000 </r>
       <r>   -11.0612    -0.0000    -0.0000 </r>
       <r>   -11.0148    -0.0000    -0.0000 </r>
       <r>   -10.9684    -0.0000    -0.0000 </r>
       <r>   -10.9220    -0.0000    -0.0000 </r>
       <r>   -10.8755    -0.0000    -0.0000 </r>
       <r>   -10.8291    -0.0000    -0.0000 </r>
       <r>   -10.7827    -0.0000    -0.0000 </r>
       <r>   -10.7363    -0.0000    -0.0000 </r>
       <r>   -10.6899    -0.0000    -0.0000 </r>
       <r>   -10.6435    -0.0000    -0.0000 </r>
       <r>   -10.5971    -0.0000    -0.0000 </r>
       <r>   -10.5507    -0.0000    -0.0000 </r>
       <r>   -10.5043    -0.0001    -0.0000 </r>
       <r>   -10.4579    -0.0004    -0.0000 </r>
       <r>   -10.4114    -0.0016    -0.0001 </r>
       <r>   -10.3650    -0.0053    -0.0004 </r>
       <r>   -10.3186    -0.0153    -0.0011 </r>
       <r>   -10.2722    -0.0383    -0.0028 </r>
       <r>   -10.2258    -0.0823    -0.0067 </r>
       <r>   -10.1794    -0.1486    -0.0136 </r>
       <r>   -10.1330    -0.2137    -0.0235 </r>
       <r>   -10.0866    -0.2086    -0.0332 </r>
       <r>   -10.0402    -0.0136    -0.0338 </r>
       <r>    -9.9938     0.5011    -0.0105 </r>
       <r>    -9.9474     1.3842     0.0537 </r>
       <r>    -9.9009     2.5088     0.1701 </r>
       <r>    -9.8545     3.5588     0.3353 </r>
       <r>    -9.8081     4.1526     0.5280 </r>
       <r>    -9.7617     4.0483     0.7159 </r>
       <r>    -9.7153     3.2896     0.8686 </r>
       <r>    -9.6689     2.1786     0.9697 </r>
       <r>    -9.6225     1.0979     1.0206 </r>
       <r>    -9.5761     0.3160     1.0353 </r>
       <r>    -9.5297    -0.0968     1.0308 </r>
       <r>    -9.4833    -0.2235     1.0204 </r>
       <r>    -9.4368    -0.1982     1.0112 </r>
       <r>    -9.3904    -0.1280     1.0053 </r>
       <r>    -9.3440    -0.0673     1.0022 </r>
       <r>    -9.2976    -0.0299     1.0008 </r>
       <r>    -9.2512    -0.0115     1.0002 </r>
       <r>    -9.2048    -0.0039     1.0001 </r>
       <r>    -9.1584    -0.0011     1.0000 </r>
       <r>    -9.1120    -0.0003     1.0000 </r>
       <r>    -9.0656    -0.0001     1.0000 </r>
       <r>    -9.0192    -0.0000     1.0000 </r>
       <r>    -8.9728    -0.0000     1.0000 </r>
       <r>    -8.9263    -0.0000     1.0000 </r>
       <r>    -8.8799    -0.0001     1.0000 </r>
       <r>    -8.8335    -0.0006     1.0000 </r>
       <r>    -8.7871    -0.0020     0.9999 </r>
       <r>    -8.7407    -0.0064     0.9996 </r>
       <r>    -8.6943    -0.0180     0.9987 </r>
       <r>    -8.6479    -0.0439     0.9967 </r>
       <r>    -8.6015    -0.0919     0.9924 </r>
       <r>    -8.5551    -0.1607     0.9850 </r>
       <r>    -8.5087    -0.2208     0.9747 </r>
       <r>    -8.4622    -0.1950     0.9657 </r>
       <r>    -8.4158     0.0407     0.9676 </r>
       <r>    -8.3694     0.6060     0.9957 </r>
       <r>    -8.3230     1.5194     1.0662 </r>
       <r>    -8.2766     2.6122     1.1874 </r>
       <r>    -8.2302     3.5450     1.3520 </r>
       <r>    -8.1838     3.9691     1.5362 </r>
       <r>    -8.1374     3.7534     1.7104 </r>
       <r>    -8.0910     3.1091     1.8547 </r>
       <r>    -8.0446     2.4886     1.9701 </r>
       <r>    -7.9982     2.3014     2.0770 </r>
       <r>    -7.9517     2.6453     2.1997 </r>
       <r>    -7.9053     3.2539     2.3507 </r>
       <r>    -7.8589     3.7062     2.5227 </r>
       <r>    -7.8125     3.7434     2.6965 </r>
       <r>    -7.7661     3.4473     2.8564 </r>
       <r>    -7.7197     3.1430     3.0023 </r>
       <r>    -7.6733     3.1156     3.1469 </r>
       <r>    -7.6269     3.3899     3.3042 </r>
       <r>    -7.5805     3.7598     3.4787 </r>
       <r>    -7.5341     4.0220     3.6654 </r>
       <r>    -7.4876     4.1811     3.8594 </r>
       <r>    -7.4412     4.4316     4.0651 </r>
       <r>    -7.3948     4.9422     4.2945 </r>
       <r>    -7.3484     5.6536     4.5568 </r>
       <r>    -7.3020     6.2766     4.8481 </r>
       <r>    -7.2556     6.4955     5.1496 </r>
       <r>    -7.2092     6.2122     5.4379 </r>
       <r>    -7.1628     5.6466     5.6999 </r>
       <r>    -7.1164     5.2176     5.9421 </r>
       <r>    -7.0700     5.2818     6.1872 </r>
       <r>    -7.0236     5.9099     6.4615 </r>
       <r>    -6.9771     6.8600     6.7799 </r>
       <r>    -6.9307     7.7609     7.1400 </r>
       <r>    -6.8843     8.3662     7.5283 </r>
       <r>    -6.8379     8.6882     7.9315 </r>
       <r>    -6.7915     8.9361     8.3463 </r>
       <r>    -6.7451     9.3332     8.7794 </r>
       <r>    -6.6987     9.9685     9.2420 </r>
       <r>    -6.6523    10.7834     9.7425 </r>
       <r>    -6.6059    11.6721    10.2842 </r>
       <r>    -6.5595    12.5851    10.8683 </r>
       <r>    -6.5130    13.5435    11.4968 </r>
       <r>    -6.4666    14.5716    12.1731 </r>
       <r>    -6.4202    15.6248    12.8982 </r>
       <r>    -6.3738    16.5694    13.6672 </r>
       <r>    -6.3274    17.2059    14.4657 </r>
       <r>    -6.2810    17.3142    15.2692 </r>
       <r>    -6.2346    16.7406    16.0462 </r>
       <r>    -6.1882    15.5242    16.7666 </r>
       <r>    -6.1418    13.9684    17.4149 </r>
       <r>    -6.0954    12.5354    17.9967 </r>
       <r>    -6.0490    11.5706    18.5337 </r>
       <r>    -6.0025    11.0531    19.0466 </r>
       <r>    -5.9561    10.5955    19.5384 </r>
       <r>    -5.9097     9.7316    19.9900 </r>
       <r>    -5.8633     8.2907    20.3748 </r>
       <r>    -5.8169     6.5831    20.6803 </r>
       <r>    -5.7705     5.2634    20.9246 </r>
       <r>    -5.7241     4.9684    21.1551 </r>
       <r>    -5.6777     5.9663    21.4320 </r>
       <r>    -5.6313     8.0231    21.8044 </r>
       <r>    -5.5849    10.5362    22.2934 </r>
       <r>    -5.5384    12.8323    22.8889 </r>
       <r>    -5.4920    14.4609    23.5600 </r>
       <r>    -5.4456    15.3384    24.2719 </r>
       <r>    -5.3992    15.6860    24.9999 </r>
       <r>    -5.3528    15.8154    25.7338 </r>
       <r>    -5.3064    15.9043    26.4720 </r>
       <r>    -5.2600    15.9130    27.2105 </r>
       <r>    -5.2136    15.6945    27.9388 </r>
       <r>    -5.1672    15.2108    28.6448 </r>
       <r>    -5.1208    14.6735    29.3258 </r>
       <r>    -5.0744    14.4653    29.9971 </r>
       <r>    -5.0279    14.8618    30.6868 </r>
       <r>    -4.9815    15.7603    31.4182 </r>
       <r>    -4.9351    16.6708    32.1919 </r>
       <r>    -4.8887    17.0380    32.9827 </r>
       <r>    -4.8423    16.6655    33.7561 </r>
       <r>    -4.7959    15.8798    34.4931 </r>
       <r>    -4.7495    15.2699    35.2017 </r>
       <r>    -4.7031    15.2171    35.9079 </r>
       <r>    -4.6567    15.6337    36.6335 </r>
       <r>    -4.6103    16.1307    37.3821 </r>
       <r>    -4.5638    16.4235    38.1443 </r>
       <r>    -4.5174    16.5638    38.9131 </r>
       <r>    -4.4710    16.7832    39.6919 </r>
       <r>    -4.4246    17.1469    40.4877 </r>
       <r>    -4.3782    17.4036    41.2954 </r>
       <r>    -4.3318    17.2045    42.0939 </r>
       <r>    -4.2854    16.4891    42.8591 </r>
       <r>    -4.2390    15.6742    43.5866 </r>
       <r>    -4.1926    15.4688    44.3045 </r>
       <r>    -4.1462    16.4418    45.0675 </r>
       <r>    -4.0997    18.6336    45.9323 </r>
       <r>    -4.0533    21.4460    46.9276 </r>
       <r>    -4.0069    23.8791    48.0358 </r>
       <r>    -3.9605    24.9900    49.1956 </r>
       <r>    -3.9141    24.3167    50.3241 </r>
       <r>    -3.8677    22.0155    51.3458 </r>
       <r>    -3.8213    18.6538    52.2116 </r>
       <r>    -3.7749    14.8537    52.9009 </r>
       <r>    -3.7285    11.0596    53.4142 </r>
       <r>    -3.6821     7.5369    53.7640 </r>
       <r>    -3.6357     4.4849    53.9721 </r>
       <r>    -3.5892     2.0855    54.0689 </r>
       <r>    -3.5428     0.4469    54.0896 </r>
       <r>    -3.4964    -0.4627    54.0682 </r>
       <r>    -3.4500    -0.7919    54.0314 </r>
       <r>    -3.4036    -0.7005    53.9989 </r>
       <r>    -3.3572    -0.2667    53.9865 </r>
       <r>    -3.3108     0.5057    54.0100 </r>
       <r>    -3.2644     1.5819    54.0834 </r>
       <r>    -3.2180     2.7807    54.2125 </r>
       <r>    -3.1716     3.7669    54.3873 </r>
       <r>    -3.1251     4.1907    54.5818 </r>
       <r>    -3.0787     3.8881    54.7622 </r>
       <r>    -3.0323     2.9852    54.9008 </r>
       <r>    -2.9859     1.8225    54.9853 </r>
       <r>    -2.9395     0.7592    55.0206 </r>
       <r>    -2.8931     0.0095    55.0210 </r>
       <r>    -2.8467    -0.3865    55.0031 </r>
       <r>    -2.8003    -0.4716    54.9812 </r>
       <r>    -2.7539    -0.2648    54.9689 </r>
       <r>    -2.7075     0.2690    54.9814 </r>
       <r>    -2.6611     1.1565    55.0351 </r>
       <r>    -2.6146     2.3263    55.1430 </r>
       <r>    -2.5682     3.5816    55.3092 </r>
       <r>    -2.5218     4.6726    55.5261 </r>
       <r>    -2.4754     5.4054    55.7770 </r>
       <r>    -2.4290     5.6955    56.0413 </r>
       <r>    -2.3826     5.5418    56.2985 </r>
       <r>    -2.3362     4.9971    56.5304 </r>
       <r>    -2.2898     4.1957    56.7251 </r>
       <r>    -2.2434     3.3908    56.8825 </r>
       <r>    -2.1970     2.8896    57.0166 </r>
       <r>    -2.1505     2.8718    57.1499 </r>
       <r>    -2.1041     3.2332    57.2999 </r>
       <r>    -2.0577     3.6267    57.4682 </r>
       <r>    -2.0113     3.7107    57.6404 </r>
       <r>    -1.9649     3.4155    57.7989 </r>
       <r>    -1.9185     2.9991    57.9381 </r>
       <r>    -1.8721     2.8318    58.0696 </r>
       <r>    -1.8257     3.0828    58.2126 </r>
       <r>    -1.7793     3.5640    58.3780 </r>
       <r>    -1.7329     3.8564    58.5570 </r>
       <r>    -1.6865     3.6144    58.7247 </r>
       <r>    -1.6400     2.8144    58.8554 </r>
       <r>    -1.5936     1.7791    58.9379 </r>
       <r>    -1.5472     0.9879    58.9838 </r>
       <r>    -1.5008     0.8228    59.0220 </r>
       <r>    -1.4544     1.3966    59.0868 </r>
       <r>    -1.4080     2.5329    59.2043 </r>
       <r>    -1.3616     3.8780    59.3843 </r>
       <r>    -1.3152     5.0655    59.6194 </r>
       <r>    -1.2688     5.8399    59.8904 </r>
       <r>    -1.2224     6.0822    60.1727 </r>
       <r>    -1.1759     5.7694    60.4404 </r>
       <r>    -1.1295     4.9438    60.6699 </r>
       <r>    -1.0831     3.7293    60.8430 </r>
       <r>    -1.0367     2.3466    60.9519 </r>
       <r>    -0.9903     1.0725    61.0016 </r>
       <r>    -0.9439     0.1557    61.0089 </r>
       <r>    -0.8975    -0.2456    60.9975 </r>
       <r>    -0.8511    -0.0750    60.9940 </r>
       <r>    -0.8047     0.6293    61.0232 </r>
       <r>    -0.7583     1.7279    61.1034 </r>
       <r>    -0.7119     2.9830    61.2418 </r>
       <r>    -0.6654     4.1201    61.4330 </r>
       <r>    -0.6190     4.9419    61.6624 </r>
       <r>    -0.5726     5.4088    61.9134 </r>
       <r>    -0.5262     5.6190    62.1742 </r>
       <r>    -0.4798     5.7102    62.4392 </r>
       <r>    -0.4334     5.7746    62.7072 </r>
       <r>    -0.3870     5.8423    62.9783 </r>
       <r>    -0.3406     5.9119    63.2527 </r>
       <r>    -0.2942     5.9828    63.5303 </r>
       <r>    -0.2478     6.0651    63.8118 </r>
       <r>    -0.2013     6.1731    64.0983 </r>
       <r>    -0.1549     6.3068    64.3910 </r>
       <r>    -0.1085     6.4269    64.6893 </r>
       <r>    -0.0621     6.4387    64.9881 </r>
       <r>    -0.0157     6.2044    65.2760 </r>
       <r>     0.0307     5.5996    65.5359 </r>
       <r>     0.0771     4.5948    65.7492 </r>
       <r>     0.1235     3.3105    65.9028 </r>
       <r>     0.1699     1.9896    65.9951 </r>
       <r>     0.2163     0.8889    66.0364 </r>
       <r>     0.2627     0.1617    66.0439 </r>
       <r>     0.3092    -0.1897    66.0351 </r>
       <r>     0.3556    -0.2727    66.0224 </r>
       <r>     0.4020    -0.2222    66.0121 </r>
       <r>     0.4484    -0.1391    66.0057 </r>
       <r>     0.4948    -0.0721    66.0023 </r>
       <r>     0.5412    -0.0319    66.0008 </r>
       <r>     0.5876    -0.0122    66.0003 </r>
       <r>     0.6340    -0.0041    66.0001 </r>
       <r>     0.6804    -0.0012    66.0000 </r>
       <r>     0.7268    -0.0003    66.0000 </r>
       <r>     0.7733    -0.0001    66.0000 </r>
       <r>     0.8197    -0.0000    66.0000 </r>
       <r>     0.8661    -0.0000    66.0000 </r>
       <r>     0.9125    -0.0000    66.0000 </r>
       <r>     0.9589    -0.0000    66.0000 </r>
       <r>     1.0053    -0.0000    66.0000 </r>
       <r>     1.0517    -0.0000    66.0000 </r>
       <r>     1.0981    -0.0000    66.0000 </r>
       <r>     1.1445    -0.0000    66.0000 </r>
       <r>     1.1909    -0.0000    66.0000 </r>
       <r>     1.2373    -0.0000    66.0000 </r>
       <r>     1.2838    -0.0000    66.0000 </r>
       <r>     1.3302     0.0000    66.0000 </r>
       <r>     1.3766     0.0000    66.0000 </r>
       <r>     1.4230     0.0000    66.0000 </r>
       <r>     1.4694     0.0000    66.0000 </r>
       <r>     1.5158     0.0000    66.0000 </r>
       <r>     1.5622     0.0000    66.0000 </r>
       <r>     1.6086     0.0000    66.0000 </r>
       <r>     1.6550     0.0000    66.0000 </r>
       <r>     1.7014     0.0000    66.0000 </r>
       <r>     1.7479     0.0000    66.0000 </r>
       <r>     1.7943     0.0000    66.0000 </r>
       <r>     1.8407     0.0000    66.0000 </r>
       <r>     1.8871     0.0000    66.0000 </r>
       <r>     1.9335     0.0000    66.0000 </r>
       <r>     1.9799     0.0000    66.0000 </r>
       <r>     2.0263     0.0000    66.0000 </r>
      </set>
     </set>
    </array>
   </total>
  </dos>
 </calculation>
 <structure name="finalpos" >
  <crystal>
   <varray name="basis" >
    <v>      22.83377999       0.00000000       0.00000000 </v>
    <v>       0.00000000      23.21153394       0.00000000 </v>
    <v>       0.00000000       0.00000000      21.84840564 </v>
   </varray>
   <i name="volume">  11579.80922064 </i>
   <varray name="rec_basis" >
    <v>       0.04379476       0.00000000       0.00000000 </v>
    <v>       0.00000000       0.04308203       0.00000000 </v>
    <v>       0.00000000       0.00000000       0.04576993 </v>
   </varray>
  </crystal>
  <varray name="positions" >
   <v>       0.38366137       0.49873695       0.52518043 </v>
   <v>       0.42335973       0.51444943       0.42865224 </v>
   <v>       0.48380069       0.46853376       0.52162762 </v>
   <v>       0.49827070       0.44676281       0.41963093 </v>
   <v>       0.52336961       0.54158807       0.44151878 </v>
   <v>       0.45411822       0.57185556       0.51551479 </v>
   <v>       0.35844437       0.58807940       0.47238472 </v>
   <v>       0.58802165       0.46245783       0.48066555 </v>
   <v>       0.40708374       0.41069635       0.46636266 </v>
   <v>       0.55043023       0.54794997       0.55328420 </v>
  </varray>
 </structure>
</modeling>
