unknown system                          
            1
    22.833780    0.000000    0.000000
     0.000000   23.211534    0.000000
     0.000000    0.000000   21.848406
   Ni   Pd
     6     4
Direct configuration=     1
   0.38366137  0.49873695  0.52518043
   0.42335973  0.51444943  0.42865224
   0.48380069  0.46853376  0.52162762
   0.49827070  0.44676281  0.41963093
   0.52336961  0.54158807  0.44151878
   0.45411822  0.57185556  0.51551479
   0.35844437  0.58807940  0.47238472
   0.58802165  0.46245783  0.48066555
   0.40708374  0.41069635  0.46636266
   0.55043023  0.54794997  0.55328420
