   8   8   0   0
  0.1396304E+04  0.2071554E-08  0.2278878E-08  0.2366207E-08  0.5000000E-15
   1.0000000000000000E-004
  CAR 
 unknown system                          
      2.05366731    -12.58064571  301     -5.19255255      1.00000000
    -12.581  0.0000E+00  0.0000E+00  0.0000E+00  0.0000E+00
    -12.532  0.0000E+00  0.0000E+00  0.0000E+00  0.0000E+00
    -12.483  0.0000E+00  0.0000E+00  0.0000E+00  0.0000E+00
    -12.434  0.0000E+00  0.0000E+00  0.0000E+00  0.0000E+00
    -12.386  0.0000E+00  0.0000E+00  0.0000E+00  0.0000E+00
    -12.337  0.0000E+00  0.0000E+00  0.0000E+00  0.0000E+00
    -12.288  0.0000E+00  0.0000E+00  0.0000E+00  0.0000E+00
    -12.239  0.0000E+00  0.0000E+00  0.0000E+00  0.0000E+00
    -12.190 -0.3413E-29 -0.3413E-29 -0.1665E-30 -0.1665E-30
    -12.142 -0.1548E-27 -0.1548E-27 -0.7716E-29 -0.7716E-29
    -12.093 -0.6343E-26 -0.6343E-26 -0.3171E-27 -0.3171E-27
    -12.044 -0.2305E-24 -0.2305E-24 -0.1156E-25 -0.1156E-25
    -11.995 -0.7425E-23 -0.7425E-23 -0.3737E-24 -0.3737E-24
    -11.946 -0.2120E-21 -0.2120E-21 -0.1071E-22 -0.1071E-22
    -11.898 -0.5363E-20 -0.5363E-20 -0.2723E-21 -0.2723E-21
    -11.849 -0.1202E-18 -0.1202E-18 -0.6138E-20 -0.6138E-20
    -11.800 -0.2388E-17 -0.2388E-17 -0.1226E-18 -0.1226E-18
    -11.751 -0.4087E-16 -0.4087E-16 -0.2116E-17 -0.2116E-17
    -11.703 -0.6338E-15 -0.6338E-15 -0.3303E-16 -0.3303E-16
    -11.654 -0.8710E-14 -0.8710E-14 -0.4579E-15 -0.4579E-15
    -11.605 -0.1059E-12 -0.1059E-12 -0.5624E-14 -0.5624E-14
    -11.556 -0.1138E-11 -0.1138E-11 -0.6115E-13 -0.6115E-13
    -11.507 -0.1081E-10 -0.1081E-10 -0.5885E-12 -0.5885E-12
    -11.459 -0.9064E-10 -0.9064E-10 -0.5010E-11 -0.5010E-11
    -11.410 -0.6705E-09 -0.6705E-09 -0.3772E-10 -0.3772E-10
    -11.361 -0.4370E-08 -0.4370E-08 -0.2509E-09 -0.2509E-09
    -11.312 -0.2507E-07 -0.2507E-07 -0.1474E-08 -0.1474E-08
    -11.264 -0.1263E-06 -0.1263E-06 -0.7635E-08 -0.7635E-08
    -11.215 -0.5578E-06 -0.5578E-06 -0.3485E-07 -0.3485E-07
    -11.166 -0.2152E-05 -0.2152E-05 -0.1398E-06 -0.1398E-06
    -11.117 -0.7225E-05 -0.7225E-05 -0.4923E-06 -0.4923E-06
    -11.068 -0.2096E-04 -0.2096E-04 -0.1515E-05 -0.1515E-05
    -11.020 -0.5198E-04 -0.5198E-04 -0.4050E-05 -0.4050E-05
    -10.971 -0.1083E-03 -0.1083E-03 -0.9332E-05 -0.9332E-05
    -10.922 -0.1825E-03 -0.1825E-03 -0.1823E-04 -0.1823E-04
    -10.873 -0.2259E-03 -0.2259E-03 -0.2925E-04 -0.2925E-04
    -10.825 -0.1271E-03 -0.1271E-03 -0.3545E-04 -0.3545E-04
    -10.776  0.2677E-03  0.2677E-03 -0.2240E-04 -0.2240E-04
    -10.727  0.1065E-02  0.1065E-02  0.2958E-04  0.2958E-04
    -10.678  0.2197E-02  0.2197E-02  0.1367E-03  0.1367E-03
    -10.629  0.3354E-02  0.3354E-02  0.3003E-03  0.3003E-03
    -10.581  0.4095E-02  0.4095E-02  0.5001E-03  0.5001E-03
    -10.532  0.4095E-02  0.4095E-02  0.6998E-03  0.6998E-03
    -10.483  0.3352E-02  0.3352E-02  0.8634E-03  0.8634E-03
    -10.434  0.2195E-02  0.2195E-02  0.9704E-03  0.9704E-03
    -10.385  0.1061E-02  0.1061E-02  0.1022E-02  0.1022E-02
    -10.337  0.2567E-03  0.2567E-03  0.1035E-02  0.1035E-02
    -10.288 -0.1565E-03 -0.1565E-03  0.1027E-02  0.1027E-02
    -10.239 -0.2960E-03 -0.2960E-03  0.1013E-02  0.1013E-02
    -10.190 -0.3248E-03 -0.3248E-03  0.9968E-03  0.9968E-03
    -10.142 -0.3460E-03 -0.3460E-03  0.9799E-03  0.9799E-03
    -10.093 -0.3574E-03 -0.3574E-03  0.9625E-03  0.9625E-03
    -10.044 -0.2539E-03 -0.2539E-03  0.9501E-03  0.9501E-03
     -9.995  0.1293E-03  0.1293E-03  0.9564E-03  0.9564E-03
     -9.946  0.9417E-03  0.9417E-03  0.1002E-02  0.1002E-02
     -9.898  0.2238E-02  0.2238E-02  0.1112E-02  0.1112E-02
     -9.849  0.3944E-02  0.3944E-02  0.1304E-02  0.1304E-02
     -9.800  0.5862E-02  0.5862E-02  0.1590E-02  0.1590E-02
     -9.751  0.7688E-02  0.7688E-02  0.1965E-02  0.1965E-02
     -9.703  0.9012E-02  0.9012E-02  0.2405E-02  0.2405E-02
     -9.654  0.9424E-02  0.9424E-02  0.2864E-02  0.2864E-02
     -9.605  0.8761E-02  0.8761E-02  0.3292E-02  0.3292E-02
     -9.556  0.7364E-02  0.7364E-02  0.3651E-02  0.3651E-02
     -9.507  0.6012E-02  0.6012E-02  0.3944E-02  0.3944E-02
     -9.459  0.5468E-02  0.5468E-02  0.4211E-02  0.4211E-02
     -9.410  0.5920E-02  0.5920E-02  0.4500E-02  0.4500E-02
     -9.361  0.6814E-02  0.6814E-02  0.4832E-02  0.4832E-02
     -9.312  0.7272E-02  0.7272E-02  0.5187E-02  0.5187E-02
     -9.264  0.6747E-02  0.6747E-02  0.5516E-02  0.5516E-02
     -9.215  0.5416E-02  0.5416E-02  0.5780E-02  0.5780E-02
     -9.166  0.3998E-02  0.3998E-02  0.5975E-02  0.5975E-02
     -9.117  0.3211E-02  0.3211E-02  0.6132E-02  0.6132E-02
     -9.068  0.3310E-02  0.3310E-02  0.6293E-02  0.6293E-02
     -9.020  0.4024E-02  0.4024E-02  0.6489E-02  0.6489E-02
     -8.971  0.4844E-02  0.4844E-02  0.6726E-02  0.6726E-02
     -8.922  0.5379E-02  0.5379E-02  0.6988E-02  0.6988E-02
     -8.873  0.5530E-02  0.5530E-02  0.7258E-02  0.7258E-02
     -8.825  0.5473E-02  0.5473E-02  0.7525E-02  0.7525E-02
     -8.776  0.5519E-02  0.5519E-02  0.7794E-02  0.7794E-02
     -8.727  0.5906E-02  0.5906E-02  0.8082E-02  0.8082E-02
     -8.678  0.6616E-02  0.6616E-02  0.8405E-02  0.8405E-02
     -8.629  0.7332E-02  0.7332E-02  0.8763E-02  0.8763E-02
     -8.581  0.7666E-02  0.7666E-02  0.9137E-02  0.9137E-02
     -8.532  0.7520E-02  0.7520E-02  0.9503E-02  0.9503E-02
     -8.483  0.7210E-02  0.7210E-02  0.9855E-02  0.9855E-02
     -8.434  0.7194E-02  0.7194E-02  0.1021E-01  0.1021E-01
     -8.385  0.7634E-02  0.7634E-02  0.1058E-01  0.1058E-01
     -8.337  0.8240E-02  0.8240E-02  0.1098E-01  0.1098E-01
     -8.288  0.8579E-02  0.8579E-02  0.1140E-01  0.1140E-01
     -8.239  0.8515E-02  0.8515E-02  0.1181E-01  0.1181E-01
     -8.190  0.8331E-02  0.8331E-02  0.1222E-01  0.1222E-01
     -8.142  0.8429E-02  0.8429E-02  0.1263E-01  0.1263E-01
     -8.093  0.8910E-02  0.8910E-02  0.1307E-01  0.1307E-01
     -8.044  0.9448E-02  0.9448E-02  0.1353E-01  0.1353E-01
     -7.995  0.9575E-02  0.9575E-02  0.1399E-01  0.1399E-01
     -7.946  0.9118E-02  0.9118E-02  0.1444E-01  0.1444E-01
     -7.898  0.8392E-02  0.8392E-02  0.1485E-01  0.1485E-01
     -7.849  0.7950E-02  0.7950E-02  0.1524E-01  0.1524E-01
     -7.800  0.8113E-02  0.8113E-02  0.1563E-01  0.1563E-01
     -7.751  0.8678E-02  0.8678E-02  0.1606E-01  0.1606E-01
     -7.703  0.9079E-02  0.9079E-02  0.1650E-01  0.1650E-01
     -7.654  0.8822E-02  0.8822E-02  0.1693E-01  0.1693E-01
     -7.605  0.7879E-02  0.7879E-02  0.1731E-01  0.1731E-01
     -7.556  0.6733E-02  0.6733E-02  0.1764E-01  0.1764E-01
     -7.507  0.6082E-02  0.6082E-02  0.1794E-01  0.1794E-01
     -7.459  0.6387E-02  0.6387E-02  0.1825E-01  0.1825E-01
     -7.410  0.7598E-02  0.7598E-02  0.1862E-01  0.1862E-01
     -7.361  0.9256E-02  0.9256E-02  0.1907E-01  0.1907E-01
     -7.312  0.1088E-01  0.1088E-01  0.1960E-01  0.1960E-01
     -7.264  0.1228E-01  0.1228E-01  0.2020E-01  0.2020E-01
     -7.215  0.1358E-01  0.1358E-01  0.2086E-01  0.2086E-01
     -7.166  0.1493E-01  0.1493E-01  0.2159E-01  0.2159E-01
     -7.117  0.1634E-01  0.1634E-01  0.2239E-01  0.2239E-01
     -7.068  0.1775E-01  0.1775E-01  0.2326E-01  0.2326E-01
     -7.020  0.1906E-01  0.1906E-01  0.2419E-01  0.2419E-01
     -6.971  0.2018E-01  0.2018E-01  0.2517E-01  0.2517E-01
     -6.922  0.2097E-01  0.2097E-01  0.2619E-01  0.2619E-01
     -6.873  0.2116E-01  0.2116E-01  0.2723E-01  0.2723E-01
     -6.824  0.2047E-01  0.2047E-01  0.2822E-01  0.2822E-01
     -6.776  0.1884E-01  0.1884E-01  0.2914E-01  0.2914E-01
     -6.727  0.1655E-01  0.1655E-01  0.2995E-01  0.2995E-01
     -6.678  0.1428E-01  0.1428E-01  0.3065E-01  0.3065E-01
     -6.629  0.1280E-01  0.1280E-01  0.3127E-01  0.3127E-01
     -6.581  0.1264E-01  0.1264E-01  0.3189E-01  0.3189E-01
     -6.532  0.1373E-01  0.1373E-01  0.3256E-01  0.3256E-01
     -6.483  0.1537E-01  0.1537E-01  0.3331E-01  0.3331E-01
     -6.434  0.1662E-01  0.1662E-01  0.3412E-01  0.3412E-01
     -6.385  0.1690E-01  0.1690E-01  0.3494E-01  0.3494E-01
     -6.337  0.1630E-01  0.1630E-01  0.3574E-01  0.3574E-01
     -6.288  0.1537E-01  0.1537E-01  0.3649E-01  0.3649E-01
     -6.239  0.1462E-01  0.1462E-01  0.3720E-01  0.3720E-01
     -6.190  0.1417E-01  0.1417E-01  0.3789E-01  0.3789E-01
     -6.142  0.1383E-01  0.1383E-01  0.3857E-01  0.3857E-01
     -6.093  0.1345E-01  0.1345E-01  0.3922E-01  0.3922E-01
     -6.044  0.1296E-01  0.1296E-01  0.3986E-01  0.3986E-01
     -5.995  0.1230E-01  0.1230E-01  0.4046E-01  0.4046E-01
     -5.946  0.1130E-01  0.1130E-01  0.4101E-01  0.4101E-01
     -5.898  0.9910E-02  0.9910E-02  0.4149E-01  0.4149E-01
     -5.849  0.8277E-02  0.8277E-02  0.4189E-01  0.4189E-01
     -5.800  0.6699E-02  0.6699E-02  0.4222E-01  0.4222E-01
     -5.751  0.5356E-02  0.5356E-02  0.4248E-01  0.4248E-01
     -5.703  0.4191E-02  0.4191E-02  0.4269E-01  0.4269E-01
     -5.654  0.3072E-02  0.3072E-02  0.4284E-01  0.4284E-01
     -5.605  0.2043E-02  0.2043E-02  0.4294E-01  0.4294E-01
     -5.556  0.1381E-02  0.1381E-02  0.4300E-01  0.4300E-01
     -5.507  0.1382E-02  0.1382E-02  0.4307E-01  0.4307E-01
     -5.459  0.2070E-02  0.2070E-02  0.4317E-01  0.4317E-01
     -5.410  0.3089E-02  0.3089E-02  0.4332E-01  0.4332E-01
     -5.361  0.3866E-02  0.3866E-02  0.4351E-01  0.4351E-01
     -5.312  0.3956E-02  0.3956E-02  0.4370E-01  0.4370E-01
     -5.263  0.3291E-02  0.3291E-02  0.4386E-01  0.4386E-01
     -5.215  0.2178E-02  0.2178E-02  0.4397E-01  0.4397E-01
     -5.166  0.1065E-02  0.1065E-02  0.4402E-01  0.4402E-01
     -5.117  0.2705E-03  0.2705E-03  0.4404E-01  0.4404E-01
     -5.068 -0.1257E-03 -0.1257E-03  0.4403E-01  0.4403E-01
     -5.020 -0.2261E-03 -0.2261E-03  0.4402E-01  0.4402E-01
     -4.971 -0.1833E-03 -0.1833E-03  0.4401E-01  0.4401E-01
     -4.922 -0.1090E-03 -0.1090E-03  0.4400E-01  0.4400E-01
     -4.873 -0.5246E-04 -0.5246E-04  0.4400E-01  0.4400E-01
     -4.824 -0.2123E-04 -0.2123E-04  0.4400E-01  0.4400E-01
     -4.776 -0.7557E-05 -0.7557E-05  0.4400E-01  0.4400E-01
     -4.727 -0.3192E-05 -0.3192E-05  0.4400E-01  0.4400E-01
     -4.678 -0.4238E-05 -0.4238E-05  0.4400E-01  0.4400E-01
     -4.629 -0.1172E-04 -0.1172E-04  0.4400E-01  0.4400E-01
     -4.581 -0.3153E-04 -0.3153E-04  0.4400E-01  0.4400E-01
     -4.532 -0.7275E-04 -0.7275E-04  0.4399E-01  0.4399E-01
     -4.483 -0.1393E-03 -0.1393E-03  0.4399E-01  0.4399E-01
     -4.434 -0.2098E-03 -0.2098E-03  0.4398E-01  0.4398E-01
     -4.385 -0.2100E-03 -0.2100E-03  0.4397E-01  0.4397E-01
     -4.337 -0.4445E-05 -0.4445E-05  0.4397E-01  0.4397E-01
     -4.288  0.5543E-03  0.5543E-03  0.4399E-01  0.4399E-01
     -4.239  0.1510E-02  0.1510E-02  0.4407E-01  0.4407E-01
     -4.190  0.2683E-02  0.2683E-02  0.4420E-01  0.4420E-01
     -4.142  0.3677E-02  0.3677E-02  0.4438E-01  0.4438E-01
     -4.093  0.4057E-02  0.4057E-02  0.4458E-01  0.4458E-01
     -4.044  0.3633E-02  0.3633E-02  0.4475E-01  0.4475E-01
     -3.995  0.2618E-02  0.2618E-02  0.4488E-01  0.4488E-01
     -3.946  0.1542E-02  0.1542E-02  0.4496E-01  0.4496E-01
     -3.898  0.9700E-03  0.9700E-03  0.4500E-01  0.4500E-01
     -3.849  0.1217E-02  0.1217E-02  0.4506E-01  0.4506E-01
     -3.800  0.2222E-02  0.2222E-02  0.4517E-01  0.4517E-01
     -3.751  0.3618E-02  0.3618E-02  0.4535E-01  0.4535E-01
     -3.702  0.4935E-02  0.4935E-02  0.4559E-01  0.4559E-01
     -3.654  0.5798E-02  0.5798E-02  0.4587E-01  0.4587E-01
     -3.605  0.6027E-02  0.6027E-02  0.4616E-01  0.4616E-01
     -3.556  0.5649E-02  0.5649E-02  0.4644E-01  0.4644E-01
     -3.507  0.4883E-02  0.4883E-02  0.4668E-01  0.4668E-01
     -3.459  0.4086E-02  0.4086E-02  0.4688E-01  0.4688E-01
     -3.410  0.3618E-02  0.3618E-02  0.4705E-01  0.4705E-01
     -3.361  0.3620E-02  0.3620E-02  0.4723E-01  0.4723E-01
     -3.312  0.3890E-02  0.3890E-02  0.4742E-01  0.4742E-01
     -3.263  0.3999E-02  0.3999E-02  0.4762E-01  0.4762E-01
     -3.215  0.3608E-02  0.3608E-02  0.4779E-01  0.4779E-01
     -3.166  0.2708E-02  0.2708E-02  0.4792E-01  0.4792E-01
     -3.117  0.1596E-02  0.1596E-02  0.4800E-01  0.4800E-01
     -3.068  0.6371E-03  0.6371E-03  0.4803E-01  0.4803E-01
     -3.020  0.4028E-04  0.4028E-04  0.4803E-01  0.4803E-01
     -2.971 -0.2017E-03 -0.2017E-03  0.4803E-01  0.4803E-01
     -2.922 -0.2202E-03 -0.2202E-03  0.4801E-01  0.4801E-01
     -2.873 -0.1529E-03 -0.1529E-03  0.4801E-01  0.4801E-01
     -2.824 -0.8256E-04 -0.8256E-04  0.4800E-01  0.4800E-01
     -2.776 -0.3680E-04 -0.3680E-04  0.4800E-01  0.4800E-01
     -2.727 -0.1390E-04 -0.1390E-04  0.4800E-01  0.4800E-01
     -2.678 -0.4513E-05 -0.4513E-05  0.4800E-01  0.4800E-01
     -2.629 -0.1270E-05 -0.1270E-05  0.4800E-01  0.4800E-01
     -2.581 -0.3118E-06 -0.3118E-06  0.4800E-01  0.4800E-01
     -2.532 -0.6883E-07 -0.6883E-07  0.4800E-01  0.4800E-01
     -2.483 -0.2469E-07 -0.2469E-07  0.4800E-01  0.4800E-01
     -2.434 -0.6817E-07 -0.6817E-07  0.4800E-01  0.4800E-01
     -2.385 -0.3178E-06 -0.3179E-06  0.4800E-01  0.4800E-01
     -2.337 -0.1340E-05 -0.1340E-05  0.4800E-01  0.4800E-01
     -2.288 -0.4949E-05 -0.4949E-05  0.4800E-01  0.4800E-01
     -2.239 -0.1593E-04 -0.1593E-04  0.4800E-01  0.4800E-01
     -2.190 -0.4442E-04 -0.4443E-04  0.4800E-01  0.4800E-01
     -2.142 -0.1061E-03 -0.1061E-03  0.4799E-01  0.4799E-01
     -2.093 -0.2131E-03 -0.2131E-03  0.4798E-01  0.4798E-01
     -2.044 -0.3457E-03 -0.3457E-03  0.4796E-01  0.4796E-01
     -1.995 -0.4066E-03 -0.4066E-03  0.4794E-01  0.4794E-01
     -1.946 -0.1880E-03 -0.1880E-03  0.4794E-01  0.4794E-01
     -1.898  0.5857E-03  0.5857E-03  0.4796E-01  0.4796E-01
     -1.849  0.2098E-02  0.2098E-02  0.4807E-01  0.4807E-01
     -1.800  0.4220E-02  0.4220E-02  0.4827E-01  0.4827E-01
     -1.751  0.6402E-02  0.6402E-02  0.4858E-01  0.4858E-01
     -1.702  0.7856E-02  0.7856E-02  0.4897E-01  0.4897E-01
     -1.654  0.7972E-02  0.7972E-02  0.4936E-01  0.4936E-01
     -1.605  0.6691E-02  0.6691E-02  0.4968E-01  0.4968E-01
     -1.556  0.4544E-02  0.4544E-02  0.4990E-01  0.4990E-01
     -1.507  0.2313E-02  0.2313E-02  0.5002E-01  0.5002E-01
     -1.459  0.6075E-03  0.6075E-03  0.5005E-01  0.5005E-01
     -1.410 -0.3402E-03 -0.3402E-03  0.5003E-01  0.5003E-01
     -1.361 -0.5846E-03 -0.5846E-03  0.5000E-01  0.5000E-01
     -1.312 -0.2659E-03 -0.2659E-03  0.4999E-01  0.4999E-01
     -1.263  0.4909E-03  0.4909E-03  0.5001E-01  0.5001E-01
     -1.215  0.1524E-02  0.1524E-02  0.5009E-01  0.5009E-01
     -1.166  0.2571E-02  0.2571E-02  0.5021E-01  0.5021E-01
     -1.117  0.3368E-02  0.3368E-02  0.5038E-01  0.5038E-01
     -1.068  0.3895E-02  0.3895E-02  0.5057E-01  0.5057E-01
     -1.020  0.4521E-02  0.4521E-02  0.5079E-01  0.5079E-01
     -0.971  0.5777E-02  0.5777E-02  0.5107E-01  0.5107E-01
     -0.922  0.7849E-02  0.7849E-02  0.5145E-01  0.5145E-01
     -0.873  0.1021E-01  0.1021E-01  0.5195E-01  0.5195E-01
     -0.824  0.1182E-01  0.1182E-01  0.5253E-01  0.5253E-01
     -0.776  0.1189E-01  0.1189E-01  0.5311E-01  0.5311E-01
     -0.727  0.1043E-01  0.1043E-01  0.5362E-01  0.5362E-01
     -0.678  0.8236E-02  0.8236E-02  0.5402E-01  0.5402E-01
     -0.629  0.6222E-02  0.6222E-02  0.5432E-01  0.5432E-01
     -0.581  0.4809E-02  0.4809E-02  0.5456E-01  0.5456E-01
     -0.532  0.3831E-02  0.3831E-02  0.5474E-01  0.5474E-01
     -0.483  0.2921E-02  0.2921E-02  0.5489E-01  0.5489E-01
     -0.434  0.1913E-02  0.1913E-02  0.5498E-01  0.5498E-01
     -0.385  0.9206E-03  0.9206E-03  0.5502E-01  0.5502E-01
     -0.337  0.1425E-03  0.1425E-03  0.5503E-01  0.5503E-01
     -0.288 -0.3179E-03 -0.3179E-03  0.5501E-01  0.5501E-01
     -0.239 -0.4701E-03 -0.4701E-03  0.5499E-01  0.5499E-01
     -0.190 -0.3319E-03 -0.3319E-03  0.5498E-01  0.5498E-01
     -0.141  0.1413E-03  0.1413E-03  0.5498E-01  0.5498E-01
     -0.093  0.1002E-02  0.1002E-02  0.5503E-01  0.5503E-01
     -0.044  0.2170E-02  0.2170E-02  0.5514E-01  0.5514E-01
      0.005  0.3343E-02  0.3343E-02  0.5530E-01  0.5530E-01
      0.054  0.4092E-02  0.4092E-02  0.5550E-01  0.5550E-01
      0.102  0.4094E-02  0.4094E-02  0.5570E-01  0.5570E-01
      0.151  0.3353E-02  0.3353E-02  0.5586E-01  0.5586E-01
      0.200  0.2197E-02  0.2197E-02  0.5597E-01  0.5597E-01
      0.249  0.1065E-02  0.1065E-02  0.5602E-01  0.5602E-01
      0.298  0.2677E-03  0.2677E-03  0.5604E-01  0.5604E-01
      0.346 -0.1271E-03 -0.1271E-03  0.5603E-01  0.5603E-01
      0.395 -0.2259E-03 -0.2259E-03  0.5602E-01  0.5602E-01
      0.444 -0.1825E-03 -0.1825E-03  0.5601E-01  0.5601E-01
      0.493 -0.1083E-03 -0.1083E-03  0.5600E-01  0.5600E-01
      0.541 -0.5198E-04 -0.5198E-04  0.5600E-01  0.5600E-01
      0.590 -0.2096E-04 -0.2096E-04  0.5600E-01  0.5600E-01
      0.639 -0.7225E-05 -0.7225E-05  0.5600E-01  0.5600E-01
      0.688 -0.2152E-05 -0.2152E-05  0.5600E-01  0.5600E-01
      0.737 -0.5578E-06 -0.5578E-06  0.5600E-01  0.5600E-01
      0.785 -0.1263E-06 -0.1263E-06  0.5600E-01  0.5600E-01
      0.834 -0.2507E-07 -0.2507E-07  0.5600E-01  0.5600E-01
      0.883 -0.4370E-08 -0.4370E-08  0.5600E-01  0.5600E-01
      0.932 -0.6705E-09 -0.6704E-09  0.5600E-01  0.5600E-01
      0.980 -0.9064E-10 -0.9064E-10  0.5600E-01  0.5600E-01
      1.029 -0.1081E-10 -0.1081E-10  0.5600E-01  0.5600E-01
      1.078 -0.1138E-11 -0.1138E-11  0.5600E-01  0.5600E-01
      1.127 -0.1059E-12 -0.1059E-12  0.5600E-01  0.5600E-01
      1.176 -0.8708E-14 -0.8708E-14  0.5600E-01  0.5600E-01
      1.224 -0.6327E-15 -0.6327E-15  0.5600E-01  0.5600E-01
      1.273 -0.4097E-16 -0.4097E-16  0.5600E-01  0.5600E-01
      1.322 -0.4552E-17 -0.4552E-17  0.5600E-01  0.5600E-01
      1.371  0.0000E+00  0.0000E+00  0.5600E-01  0.5600E-01
      1.420  0.0000E+00  0.0000E+00  0.5600E-01  0.5600E-01
      1.468  0.0000E+00  0.0000E+00  0.5600E-01  0.5600E-01
      1.517  0.0000E+00  0.0000E+00  0.5600E-01  0.5600E-01
      1.566  0.0000E+00  0.0000E+00  0.5600E-01  0.5600E-01
      1.615  0.0000E+00  0.0000E+00  0.5600E-01  0.5600E-01
      1.663  0.0000E+00  0.0000E+00  0.5600E-01  0.5600E-01
      1.712  0.0000E+00  0.0000E+00  0.5600E-01  0.5600E-01
      1.761  0.0000E+00  0.0000E+00  0.5600E-01  0.5600E-01
      1.810  0.0000E+00  0.0000E+00  0.5600E-01  0.5600E-01
      1.859  0.0000E+00  0.0000E+00  0.5600E-01  0.5600E-01
      1.907  0.0000E+00  0.0000E+00  0.5600E-01  0.5600E-01
      1.956  0.0000E+00  0.0000E+00  0.5600E-01  0.5600E-01
      2.005  0.0000E+00  0.0000E+00  0.5600E-01  0.5600E-01
      2.054  0.0000E+00  0.0000E+00  0.5600E-01  0.5600E-01
