    8    8 1000    2
  0.1396304E+04  0.2071554E-08  0.2278878E-08  0.2366207E-08  0.5000000E-15
   1.0000000000000000E-004
  CAR 
 unknown system                          
     88      1     56
 
  0.1262379E-14  0.1262379E-14  0.1262379E-14  0.1000000E+01
    1      -10.580646    -10.580646   1.000000   1.000000
    2       -9.815425     -9.815425   1.000000   1.000000
    3       -9.649335     -9.649335   1.000000   1.000000
    4       -9.638921     -9.638921   1.000000   1.000000
    5       -9.367762     -9.367762   1.000000   1.000000
    6       -9.300372     -9.300372   1.000000   1.000000
    7       -9.011730     -9.011730   1.000000   1.000000
    8       -8.838880     -8.838880   1.000000   1.000000
    9       -8.637110     -8.637110   1.000000   1.000000
   10       -8.566641     -8.566641   1.000000   1.000000
   11       -8.353734     -8.353734   1.000000   1.000000
   12       -8.313398     -8.313398   1.000000   1.000000
   13       -8.149079     -8.149079   1.000000   1.000000
   14       -8.013520     -8.013520   1.000000   1.000000
   15       -7.987120     -7.987120   1.000000   1.000000
   16       -7.786988     -7.786988   1.000000   1.000000
   17       -7.709078     -7.709078   1.000000   1.000000
   18       -7.602330     -7.602330   1.000000   1.000000
   19       -7.376370     -7.376370   1.000000   1.000000
   20       -7.360567     -7.360567   1.000000   1.000000
   21       -7.235845     -7.235846   1.000000   1.000000
   22       -7.142785     -7.142785   1.000000   1.000000
   23       -7.137035     -7.137035   1.000000   1.000000
   24       -7.056651     -7.056651   1.000000   1.000000
   25       -6.980718     -6.980718   1.000000   1.000000
   26       -6.963428     -6.963428   1.000000   1.000000
   27       -6.918036     -6.918036   1.000000   1.000000
   28       -6.823970     -6.823970   1.000000   1.000000
   29       -6.815349     -6.815349   1.000000   1.000000
   30       -6.802356     -6.802356   1.000000   1.000000
   31       -6.688135     -6.688135   1.000000   1.000000
   32       -6.619178     -6.619178   1.000000   1.000000
   33       -6.502266     -6.502266   1.000000   1.000000
   34       -6.432810     -6.432810   1.000000   1.000000
   35       -6.419294     -6.419294   1.000000   1.000000
   36       -6.417142     -6.417142   1.000000   1.000000
   37       -6.238270     -6.238270   1.000000   1.000000
   38       -6.234285     -6.234285   1.000000   1.000000
   39       -6.161518     -6.161518   1.000000   1.000000
   40       -6.066278     -6.066278   1.000000   1.000000
   41       -5.965262     -5.965262   1.000000   1.000000
   42       -5.932674     -5.932674   1.000001   1.000001
   43       -5.730660     -5.730660   1.000474   1.000474
   44       -5.360498     -5.360498   0.999524   0.999524
   45       -4.113584     -4.113584  -0.000000  -0.000000
   46       -3.717784     -3.717784  -0.000000  -0.000000
   47       -3.551637     -3.551637  -0.000000  -0.000000
   48       -3.283100     -3.283100  -0.000000  -0.000000
   49       -1.727443     -1.727443  -0.000000  -0.000000
   50       -1.669591     -1.669591  -0.000000  -0.000000
   51       -1.108613     -1.108613  -0.000000  -0.000000
   52       -0.859608     -0.859609  -0.000000  -0.000000
   53       -0.814506     -0.814506  -0.000000  -0.000000
   54       -0.806933     -0.806933  -0.000000  -0.000000
   55       -0.569683     -0.569683  -0.000000  -0.000000
   56        0.053667      0.053666  -0.000000  -0.000000
