       N       E                     dE             d eps       ncg     rms          rms(c)
DAV:   1     0.729552216449E+03    0.72955E+03   -0.13797E+04   240   0.714E+02
DAV:   2     0.445387551035E+03   -0.28416E+03   -0.26708E+03   432   0.764E+01
DAV:   3     0.128935354911E+03   -0.31645E+03   -0.29612E+03   416   0.666E+01
DAV:   4     0.356993647462E+01   -0.12537E+03   -0.11984E+03   320   0.514E+01
DAV:   5    -0.142476666436E+02   -0.17818E+02   -0.16254E+02   280   0.201E+01    0.218E+01
DAV:   6    -0.627252034540E+01    0.79751E+01   -0.38605E+01   232   0.167E+01    0.144E+01
DAV:   7    -0.411942287685E+01    0.21531E+01   -0.24887E+00   256   0.547E+00    0.642E+00
DAV:   8    -0.777591481578E+01   -0.36565E+01   -0.13412E+00   256   0.332E+00    0.197E+00
DAV:   9    -0.972515810561E+01   -0.19492E+01   -0.43873E-01   224   0.199E+00    0.111E+00
DAV:  10    -0.116768133647E+02   -0.19517E+01   -0.51698E-01   224   0.189E+00    0.774E-01
DAV:  11    -0.129306314495E+02   -0.12538E+01   -0.26803E-01   232   0.126E+00    0.641E-01
DAV:  12    -0.131944844658E+02   -0.26385E+00   -0.26382E-02   280   0.516E-01    0.545E-01
DAV:  13    -0.140979613310E+02   -0.90348E+00   -0.18640E-01   232   0.112E+00    0.507E-01
DAV:  14    -0.143567405927E+02   -0.25878E+00   -0.42107E-02   256   0.630E-01    0.287E-01
DAV:  15    -0.145904866002E+02   -0.23375E+00   -0.27449E-02   240   0.458E-01    0.199E-01
DAV:  16    -0.147819774024E+02   -0.19149E+00   -0.13708E-02   240   0.329E-01    0.137E-01
DAV:  17    -0.149286989449E+02   -0.14672E+00   -0.73500E-03   248   0.246E-01    0.660E-02
DAV:  18    -0.149802051163E+02   -0.51506E-01   -0.12064E-03   216   0.899E-02    0.418E-02
DAV:  19    -0.150049024733E+02   -0.24697E-01   -0.60931E-04   208   0.695E-02    0.249E-02
DAV:  20    -0.150150346882E+02   -0.10132E-01   -0.22124E-04   168   0.348E-02    0.140E-02
DAV:  21    -0.150211608185E+02   -0.61261E-02   -0.89109E-05   168   0.191E-02    0.969E-03
DAV:  22    -0.150258535340E+02   -0.46927E-02   -0.49737E-05   160   0.151E-02    0.675E-03
DAV:  23    -0.150292631117E+02   -0.34096E-02   -0.35176E-05   168   0.111E-02    0.447E-03
DAV:  24    -0.150311132088E+02   -0.18501E-02   -0.28228E-05   160   0.900E-03    0.232E-03
DAV:  25    -0.150318845050E+02   -0.77130E-03   -0.97476E-06   168   0.598E-03    0.162E-03
DAV:  26    -0.150322232313E+02   -0.33873E-03   -0.28585E-06   160   0.385E-03    0.982E-04
DAV:  27    -0.150324113236E+02   -0.18809E-03   -0.17516E-06   160   0.267E-03    0.623E-04
DAV:  28    -0.150324999400E+02   -0.88616E-04   -0.71822E-07   160   0.186E-03
   1 F= -.15032500E+02 E0= -.15021567E+02  d E =-.150325E+02  mag=     1.1977
       N       E                     dE             d eps       ncg     rms          rms(c)
DAV:   1    -0.153115253384E+02   -0.27911E+00   -0.44537E+02   224   0.743E+01    0.484E+00
DAV:   2    -0.157203606620E+02   -0.40884E+00   -0.44825E+00   240   0.101E+01    0.329E+00
DAV:   3    -0.156955069357E+02    0.24854E-01   -0.30986E-01   248   0.246E+00    0.179E+00
DAV:   4    -0.156922843729E+02    0.32226E-02   -0.52344E-02   264   0.152E+00    0.465E-01
DAV:   5    -0.156899988482E+02    0.22855E-02   -0.12813E-02   240   0.709E-01    0.214E-01
DAV:   6    -0.156914837032E+02   -0.14849E-02   -0.74819E-03   240   0.279E-01    0.740E-02
DAV:   7    -0.156924477285E+02   -0.96403E-03   -0.27880E-04   184   0.898E-02    0.315E-02
DAV:   8    -0.156935739187E+02   -0.11262E-02   -0.52854E-05   144   0.285E-02    0.214E-02
DAV:   9    -0.156950157267E+02   -0.14418E-02   -0.34064E-05   152   0.204E-02    0.139E-02
DAV:  10    -0.156960005914E+02   -0.98486E-03   -0.18775E-05   152   0.138E-02    0.118E-02
DAV:  11    -0.156979268046E+02   -0.19262E-02   -0.46640E-05   152   0.177E-02    0.100E-02
DAV:  12    -0.156996801949E+02   -0.17534E-02   -0.50111E-05   152   0.175E-02    0.786E-03
DAV:  13    -0.157011761559E+02   -0.14960E-02   -0.52075E-05   152   0.169E-02    0.589E-03
DAV:  14    -0.157022479666E+02   -0.10718E-02   -0.45289E-05   152   0.165E-02    0.423E-03
DAV:  15    -0.157028335090E+02   -0.58554E-03   -0.19633E-05   160   0.116E-02    0.324E-03
DAV:  16    -0.157034806502E+02   -0.64714E-03   -0.24994E-05   152   0.120E-02    0.228E-03
DAV:  17    -0.157038219029E+02   -0.34125E-03   -0.21845E-05   160   0.111E-02    0.139E-03
DAV:  18    -0.157038917436E+02   -0.69841E-04   -0.10622E-05   168   0.787E-03
   2 F= -.15703892E+02 E0= -.15686957E+02  d E =-.671392E+00  mag=     0.9851
       N       E                     dE             d eps       ncg     rms          rms(c)
DAV:   1    -0.157013649646E+02    0.24569E-02   -0.12449E+01   256   0.121E+01    0.668E-01
DAV:   2    -0.157138293774E+02   -0.12464E-01   -0.13951E-01   248   0.177E+00    0.408E-01
DAV:   3    -0.157129005321E+02    0.92885E-03   -0.82871E-03   248   0.416E-01    0.254E-01
DAV:   4    -0.157124724091E+02    0.42812E-03   -0.16629E-03   248   0.246E-01    0.800E-02
DAV:   5    -0.157123710808E+02    0.10133E-03   -0.26206E-04   168   0.117E-01    0.326E-02
DAV:   6    -0.157124464609E+02   -0.75380E-04   -0.22292E-04   176   0.496E-02
   3 F= -.15712446E+02 E0= -.15695085E+02  d E =-.679947E+00  mag=     0.9736
       N       E                     dE             d eps       ncg     rms          rms(c)
DAV:   1    -0.157351413808E+02   -0.22770E-01   -0.22305E+01   224   0.162E+01    0.761E-01
DAV:   2    -0.157514585995E+02   -0.16317E-01   -0.26806E-01   248   0.238E+00    0.447E-01
DAV:   3    -0.157467745935E+02    0.46840E-02   -0.12311E-02   240   0.616E-01    0.315E-01
DAV:   4    -0.157403927115E+02    0.63819E-02   -0.25879E-03   248   0.280E-01    0.126E-01
DAV:   5    -0.157372878121E+02    0.31049E-02   -0.25963E-04   192   0.838E-02    0.441E-02
DAV:   6    -0.157382463408E+02   -0.95853E-03   -0.11955E-04   152   0.465E-02    0.325E-02
DAV:   7    -0.157392993815E+02   -0.10530E-02   -0.78059E-05   160   0.382E-02    0.250E-02
DAV:   8    -0.157403896893E+02   -0.10903E-02   -0.31856E-05   152   0.205E-02    0.231E-02
DAV:   9    -0.157423019661E+02   -0.19123E-02   -0.64242E-05   160   0.220E-02    0.211E-02
DAV:  10    -0.157463158775E+02   -0.40139E-02   -0.27432E-04   152   0.490E-02    0.165E-02
DAV:  11    -0.157502786307E+02   -0.39628E-02   -0.36354E-04   160   0.533E-02    0.120E-02
DAV:  12    -0.157528532563E+02   -0.25746E-02   -0.29301E-04   160   0.457E-02    0.921E-03
DAV:  13    -0.157545168836E+02   -0.16636E-02   -0.12134E-04   152   0.306E-02    0.727E-03
DAV:  14    -0.157559268469E+02   -0.14100E-02   -0.84002E-05   144   0.267E-02    0.486E-03
DAV:  15    -0.157572977330E+02   -0.13709E-02   -0.95352E-05   160   0.295E-02    0.307E-03
DAV:  16    -0.157576606602E+02   -0.36293E-03   -0.35592E-05   168   0.166E-02    0.235E-03
DAV:  17    -0.157577511219E+02   -0.90462E-04   -0.26688E-05   176   0.143E-02
   4 F= -.15757751E+02 E0= -.15737781E+02  d E =-.453047E-01  mag=     0.5037
       N       E                     dE             d eps       ncg     rms          rms(c)
DAV:   1    -0.157578652143E+02   -0.20455E-03   -0.11013E+01   248   0.114E+01    0.492E-01
DAV:   2    -0.157681378433E+02   -0.10273E-01   -0.13293E-01   248   0.168E+00    0.284E-01
DAV:   3    -0.157667946597E+02    0.13432E-02   -0.64810E-03   248   0.474E-01    0.208E-01
DAV:   4    -0.157651027126E+02    0.16919E-02   -0.13011E-03   232   0.213E-01    0.874E-02
DAV:   5    -0.157638491597E+02    0.12536E-02   -0.20885E-04   160   0.792E-02    0.263E-02
DAV:   6    -0.157638504510E+02   -0.12912E-05   -0.55115E-05   152   0.318E-02
   5 F= -.15763850E+02 E0= -.15746465E+02  d E =-.514040E-01  mag=     0.4714
       N       E                     dE             d eps       ncg     rms          rms(c)
DAV:   1    -0.157763010444E+02   -0.12452E-01   -0.10942E+01   232   0.114E+01    0.305E-01
DAV:   2    -0.157852743599E+02   -0.89733E-02   -0.13220E-01   240   0.176E+00    0.281E-01
DAV:   3    -0.157841781499E+02    0.10962E-02   -0.52738E-03   256   0.438E-01    0.156E-01
DAV:   4    -0.157826987871E+02    0.14794E-02   -0.70474E-04   256   0.119E-01    0.107E-01
DAV:   5    -0.157808827736E+02    0.18160E-02   -0.10242E-03   248   0.113E-01    0.370E-02
DAV:   6    -0.157810315414E+02   -0.14877E-03   -0.56154E-05   160   0.399E-02    0.266E-02
DAV:   7    -0.157813061537E+02   -0.27461E-03   -0.37871E-05   152   0.234E-02    0.197E-02
DAV:   8    -0.157816180054E+02   -0.31185E-03   -0.17719E-05   144   0.178E-02    0.172E-02
DAV:   9    -0.157822893267E+02   -0.67132E-03   -0.27982E-05   160   0.154E-02    0.164E-02
DAV:  10    -0.157844797436E+02   -0.21904E-02   -0.20288E-04   144   0.410E-02    0.139E-02
DAV:  11    -0.157867531339E+02   -0.22734E-02   -0.46294E-04   184   0.583E-02    0.106E-02
DAV:  12    -0.157878967429E+02   -0.11436E-02   -0.13461E-04   160   0.322E-02    0.948E-03
DAV:  13    -0.157885351908E+02   -0.63845E-03   -0.46982E-05   152   0.182E-02    0.806E-03
DAV:  14    -0.157902279795E+02   -0.16928E-02   -0.22811E-04   144   0.440E-02    0.587E-03
DAV:  15    -0.157906826765E+02   -0.45470E-03   -0.39826E-05   168   0.165E-02    0.448E-03
DAV:  16    -0.157915950656E+02   -0.91239E-03   -0.86754E-05   160   0.269E-02    0.405E-03
DAV:  17    -0.157919189669E+02   -0.32390E-03   -0.35103E-05   176   0.152E-02    0.317E-03
DAV:  18    -0.157920829954E+02   -0.16403E-03   -0.27105E-05   168   0.139E-02    0.240E-03
DAV:  19    -0.157921030510E+02   -0.20056E-04   -0.19979E-05   176   0.112E-02
   6 F= -.15792103E+02 E0= -.15775068E+02  d E =-.282526E-01  mag=     0.0075
       N       E                     dE             d eps       ncg     rms          rms(c)
DAV:   1    -0.157533127344E+02    0.38770E-01   -0.99116E+01   224   0.345E+01    0.928E-01
DAV:   2    -0.158570689816E+02   -0.10376E+00   -0.11662E+00   240   0.522E+00    0.801E-01
DAV:   3    -0.158529220249E+02    0.41470E-02   -0.42355E-02   240   0.117E+00    0.452E-01
DAV:   4    -0.158499021537E+02    0.30199E-02   -0.65417E-03   256   0.390E-01    0.306E-01
DAV:   5    -0.158495300217E+02    0.37213E-03   -0.75862E-03   232   0.342E-01    0.848E-02
DAV:   6    -0.158493970126E+02    0.13301E-03   -0.63071E-04   248   0.993E-02    0.394E-02
DAV:   7    -0.158494331870E+02   -0.36174E-04   -0.80723E-05   144   0.428E-02
   7 F= -.15849433E+02 E0= -.15839497E+02  d E =-.855827E-01  mag=     0.0057
       N       E                     dE             d eps       ncg     rms          rms(c)
DAV:   1    -0.154990733420E+02    0.35032E+00   -0.40452E+02   224   0.706E+01    0.212E+00
DAV:   2    -0.159187587760E+02   -0.41969E+00   -0.45439E+00   248   0.102E+01    0.147E+00
DAV:   3    -0.159060445373E+02    0.12714E-01   -0.14307E-01   240   0.187E+00    0.848E-01
DAV:   4    -0.158952716636E+02    0.10773E-01   -0.31537E-02   256   0.800E-01    0.483E-01
DAV:   5    -0.158953254436E+02   -0.53780E-04   -0.11409E-02   232   0.495E-01    0.138E-01
DAV:   6    -0.158949089433E+02    0.41650E-03   -0.18086E-03   240   0.168E-01    0.802E-02
DAV:   7    -0.158950929404E+02   -0.18400E-03   -0.22535E-04   144   0.618E-02    0.211E-02
DAV:   8    -0.158952143320E+02   -0.12139E-03   -0.45567E-05   176   0.335E-02    0.836E-03
DAV:   9    -0.158953465145E+02   -0.13218E-03   -0.18100E-05   144   0.159E-02    0.511E-03
DAV:  10    -0.158955008528E+02   -0.15434E-03   -0.13258E-05   176   0.101E-02    0.303E-03
DAV:  11    -0.158956599312E+02   -0.15908E-03   -0.17402E-05   144   0.792E-03    0.245E-03
DAV:  12    -0.158957280225E+02   -0.68091E-04   -0.53144E-06   176   0.563E-03
   8 F= -.15895728E+02 E0= -.15900862E+02  d E =-.131878E+00  mag=     0.0008
       N       E                     dE             d eps       ncg     rms          rms(c)
DAV:   1    -0.159033210574E+02   -0.76611E-02   -0.48039E+00   224   0.753E+00    0.148E-01
DAV:   2    -0.159084971857E+02   -0.51761E-02   -0.53420E-02   240   0.110E+00    0.135E-01
DAV:   3    -0.159083500179E+02    0.14717E-03   -0.14649E-03   256   0.181E-01    0.954E-02
DAV:   4    -0.159081920722E+02    0.15795E-03   -0.27436E-04   192   0.684E-02    0.591E-02
DAV:   5    -0.159081929530E+02   -0.88084E-06   -0.40374E-04   256   0.758E-02
   9 F= -.15908193E+02 E0= -.15914713E+02  d E =-.124649E-01  mag=     0.0005
       N       E                     dE             d eps       ncg     rms          rms(c)
DAV:   1    -0.158977971027E+02    0.10395E-01   -0.43345E+01   224   0.227E+01    0.446E-01
DAV:   2    -0.159443760680E+02   -0.46579E-01   -0.47871E-01   240   0.329E+00    0.395E-01
DAV:   3    -0.159431345025E+02    0.12416E-02   -0.12914E-02   224   0.526E-01    0.283E-01
DAV:   4    -0.159415758805E+02    0.15586E-02   -0.28778E-03   240   0.211E-01    0.161E-01
DAV:   5    -0.159414794186E+02    0.96462E-04   -0.25780E-03   240   0.187E-01    0.593E-02
DAV:   6    -0.159414503457E+02    0.29073E-04   -0.10669E-04   160   0.465E-02
  10 F= -.15941450E+02 E0= -.15951735E+02  d E =-.457223E-01  mag=     0.0002
       N       E                     dE             d eps       ncg     rms          rms(c)
DAV:   1    -0.158132110269E+02    0.12827E+00   -0.17524E+02   224   0.458E+01    0.902E-01
DAV:   2    -0.159991079825E+02   -0.18590E+00   -0.18903E+00   256   0.653E+00    0.784E-01
DAV:   3    -0.159940203552E+02    0.50876E-02   -0.50077E-02   224   0.101E+00    0.570E-01
DAV:   4    -0.159872860314E+02    0.67343E-02   -0.14408E-02   240   0.453E-01    0.287E-01
DAV:   5    -0.159870935471E+02    0.19248E-03   -0.74944E-03   224   0.313E-01    0.119E-01
DAV:   6    -0.159869629142E+02    0.13063E-03   -0.53232E-04   240   0.918E-02    0.692E-02
DAV:   7    -0.159870079148E+02   -0.45001E-04   -0.21340E-04   160   0.552E-02
  11 F= -.15987008E+02 E0= -.16002469E+02  d E =-.912799E-01  mag=     0.0001
       N       E                     dE             d eps       ncg     rms          rms(c)
DAV:   1    -0.152690845794E+02    0.71788E+00   -0.72958E+02   224   0.954E+01    0.220E+00
DAV:   2    -0.160051412487E+02   -0.73606E+00   -0.74559E+00   256   0.128E+01    0.164E+00
DAV:   3    -0.159846995400E+02    0.20442E-01   -0.19735E-01   224   0.199E+00    0.112E+00
DAV:   4    -0.159599019742E+02    0.24798E-01   -0.72307E-02   240   0.987E-01    0.523E-01
DAV:   5    -0.159598999027E+02    0.20715E-05   -0.11301E-02   240   0.410E-01    0.235E-01
DAV:   6    -0.159597291773E+02    0.17073E-03   -0.20785E-03   240   0.166E-01    0.143E-01
DAV:   7    -0.159599641165E+02   -0.23494E-03   -0.13380E-04   144   0.730E-02    0.402E-02
DAV:   8    -0.159601201683E+02   -0.15605E-03   -0.52229E-05   160   0.295E-02    0.128E-02
DAV:   9    -0.159602725986E+02   -0.15243E-03   -0.15768E-05   144   0.154E-02    0.599E-03
DAV:  10    -0.159604497197E+02   -0.17712E-03   -0.17565E-05   160   0.110E-02    0.383E-03
DAV:  11    -0.159606281705E+02   -0.17845E-03   -0.17495E-05   144   0.838E-03    0.222E-03
DAV:  12    -0.159607061093E+02   -0.77939E-04   -0.88421E-06   176   0.629E-03
  12 F= -.15960706E+02 E0= -.15967019E+02  d E =-.649781E-01  mag=     0.0000
       N       E                     dE             d eps       ncg     rms          rms(c)
DAV:   1    -0.156635530834E+02    0.29708E+00   -0.34719E+02   224   0.644E+01    0.153E+00
DAV:   2    -0.160210526309E+02   -0.35750E+00   -0.36724E+00   256   0.903E+00    0.104E+00
DAV:   3    -0.160087261303E+02    0.12327E-01   -0.10330E-01   224   0.143E+00    0.719E-01
DAV:   4    -0.159972748317E+02    0.11451E-01   -0.35145E-02   240   0.680E-01    0.241E-01
DAV:   5    -0.159974428131E+02   -0.16798E-03   -0.40605E-03   240   0.233E-01    0.115E-01
DAV:   6    -0.159974612764E+02   -0.18463E-04   -0.51766E-04   240   0.926E-02
  13 F= -.15997461E+02 E0= -.16014182E+02  d E =-.101733E+00  mag=     0.0000
       N       E                     dE             d eps       ncg     rms          rms(c)
DAV:   1    -0.160161931665E+02   -0.18750E-01   -0.34421E+01   224   0.202E+01    0.623E-01
DAV:   2    -0.160525274561E+02   -0.36334E-01   -0.37734E-01   256   0.292E+00    0.448E-01
DAV:   3    -0.160510083259E+02    0.15191E-02   -0.12172E-02   256   0.481E-01    0.297E-01
DAV:   4    -0.160503286342E+02    0.67969E-03   -0.56048E-03   224   0.285E-01    0.811E-02
DAV:   5    -0.160503846051E+02   -0.55971E-04   -0.17529E-04   192   0.655E-02
  14 F= -.16050385E+02 E0= -.16063647E+02  d E =-.529233E-01  mag=     0.0000
       N       E                     dE             d eps       ncg     rms          rms(c)
DAV:   1    -0.158994765891E+02    0.15085E+00   -0.18512E+02   224   0.473E+01    0.124E+00
DAV:   2    -0.160896012162E+02   -0.19012E+00   -0.19949E+00   224   0.672E+00    0.967E-01
DAV:   3    -0.160827031191E+02    0.68981E-02   -0.58923E-02   256   0.108E+00    0.667E-01
DAV:   4    -0.160766583681E+02    0.60448E-02   -0.24395E-02   224   0.568E-01    0.225E-01
DAV:   5    -0.160769772709E+02   -0.31890E-03   -0.21611E-03   272   0.180E-01    0.108E-01
DAV:   6    -0.160767718114E+02    0.20546E-03   -0.86795E-04   240   0.105E-01    0.403E-02
DAV:   7    -0.160768244896E+02   -0.52678E-04   -0.17167E-04   176   0.497E-02
  15 F= -.16076824E+02 E0= -.16082828E+02  d E =-.793632E-01  mag=     0.0000
       N       E                     dE             d eps       ncg     rms          rms(c)
DAV:   1    -0.160685675318E+02    0.82043E-02   -0.12431E+01   224   0.122E+01    0.336E-01
DAV:   2    -0.160818774376E+02   -0.13310E-01   -0.13956E-01   240   0.177E+00    0.229E-01
DAV:   3    -0.160814237487E+02    0.45369E-03   -0.43501E-03   240   0.290E-01    0.153E-01
DAV:   4    -0.160812039225E+02    0.21983E-03   -0.14994E-03   256   0.141E-01    0.487E-02
DAV:   5    -0.160812675614E+02   -0.63639E-04   -0.85233E-05   176   0.379E-02
  16 F= -.16081268E+02 E0= -.16088208E+02  d E =-.838063E-01  mag=     0.0000
       N       E                     dE             d eps       ncg     rms          rms(c)
DAV:   1    -0.160784897865E+02    0.27141E-02   -0.53968E+01   224   0.253E+01    0.643E-01
DAV:   2    -0.161346026133E+02   -0.56113E-01   -0.59156E-01   256   0.368E+00    0.525E-01
DAV:   3    -0.161327622475E+02    0.18404E-02   -0.16992E-02   256   0.599E-01    0.355E-01
DAV:   4    -0.161309007590E+02    0.18615E-02   -0.60421E-03   224   0.280E-01    0.144E-01
DAV:   5    -0.161310112664E+02   -0.11051E-03   -0.11460E-03   256   0.128E-01    0.620E-02
DAV:   6    -0.161309408200E+02    0.70446E-04   -0.30203E-04   208   0.635E-02
  17 F= -.16130941E+02 E0= -.16136470E+02  d E =-.496733E-01  mag=     0.0000
       N       E                     dE             d eps       ncg     rms          rms(c)
DAV:   1    -0.160954350445E+02    0.35576E-01   -0.65144E+01   224   0.279E+01    0.668E-01
DAV:   2    -0.161631703857E+02   -0.67735E-01   -0.71685E-01   256   0.406E+00    0.543E-01
DAV:   3    -0.161611251821E+02    0.20452E-02   -0.20343E-02   256   0.654E-01    0.370E-01
DAV:   4    -0.161589113740E+02    0.22138E-02   -0.64128E-03   256   0.290E-01    0.158E-01
DAV:   5    -0.161590215751E+02   -0.11020E-03   -0.16220E-03   256   0.147E-01    0.669E-02
DAV:   6    -0.161589615202E+02    0.60055E-04   -0.32866E-04   208   0.664E-02
  18 F= -.16158962E+02 E0= -.16163670E+02  d E =-.776940E-01  mag=     0.0000
       N       E                     dE             d eps       ncg     rms          rms(c)
DAV:   1    -0.158933357610E+02    0.26569E+00   -0.26425E+02   224   0.566E+01    0.126E+00
DAV:   2    -0.161606073857E+02   -0.26727E+00   -0.28302E+00   256   0.804E+00    0.101E+00
DAV:   3    -0.161537204753E+02    0.68869E-02   -0.78451E-02   256   0.128E+00    0.695E-01
DAV:   4    -0.161451625187E+02    0.85580E-02   -0.22341E-02   256   0.547E-01    0.315E-01
DAV:   5    -0.161452323895E+02   -0.69871E-04   -0.61096E-03   256   0.281E-01    0.130E-01
DAV:   6    -0.161450964902E+02    0.13590E-03   -0.10693E-03   256   0.115E-01    0.561E-02
DAV:   7    -0.161451955917E+02   -0.99102E-04   -0.71558E-05   176   0.437E-02
  19 F= -.16145196E+02 E0= -.16149268E+02  d E =-.639280E-01  mag=     0.0000
       N       E                     dE             d eps       ncg     rms          rms(c)
DAV:   1    -0.160514670111E+02    0.93629E-01   -0.11476E+02   224   0.370E+01    0.869E-01
DAV:   2    -0.161704442495E+02   -0.11898E+00   -0.12713E+00   256   0.537E+00    0.631E-01
DAV:   3    -0.161673497177E+02    0.30945E-02   -0.36401E-02   256   0.869E-01    0.423E-01
DAV:   4    -0.161641470682E+02    0.32026E-02   -0.88997E-03   256   0.343E-01    0.176E-01
DAV:   5    -0.161642401716E+02   -0.93103E-04   -0.23650E-03   256   0.177E-01    0.713E-02
DAV:   6    -0.161641563118E+02    0.83860E-04   -0.36483E-04   224   0.737E-02
  20 F= -.16164156E+02 E0= -.16168547E+02  d E =-.828888E-01  mag=     0.0000
       N       E                     dE             d eps       ncg     rms          rms(c)
DAV:   1    -0.161408311549E+02    0.23409E-01   -0.93969E+01   224   0.334E+01    0.720E-01
DAV:   2    -0.162399580120E+02   -0.99127E-01   -0.10200E+00   256   0.483E+00    0.524E-01
DAV:   3    -0.162367453942E+02    0.32126E-02   -0.27676E-02   256   0.769E-01    0.382E-01
DAV:   4    -0.162334949260E+02    0.32505E-02   -0.80234E-03   256   0.314E-01    0.146E-01
DAV:   5    -0.162334626622E+02    0.32264E-04   -0.19988E-03   256   0.153E-01    0.595E-02
DAV:   6    -0.162334509472E+02    0.11715E-04   -0.21260E-04   176   0.533E-02
  21 F= -.16233451E+02 E0= -.16237428E+02  d E =-.692946E-01  mag=     0.0000
       N       E                     dE             d eps       ncg     rms          rms(c)
DAV:   1    -0.154993906308E+02    0.73407E+00   -0.88353E+02   224   0.106E+02    0.318E+00
DAV:   2    -0.163637523407E+02   -0.86436E+00   -0.89603E+00   256   0.143E+01    0.162E+00
DAV:   3    -0.163365069241E+02    0.27245E-01   -0.25404E-01   256   0.229E+00    0.108E+00
DAV:   4    -0.163157044115E+02    0.20803E-01   -0.76641E-02   256   0.988E-01    0.356E-01
DAV:   5    -0.163160319095E+02   -0.32750E-03   -0.38265E-03   320   0.272E-01    0.160E-01
DAV:   6    -0.163161611562E+02   -0.12925E-03   -0.70878E-04   256   0.100E-01    0.567E-02
DAV:   7    -0.163163259840E+02   -0.16483E-03   -0.75650E-05   176   0.446E-02    0.222E-02
DAV:   8    -0.163164793379E+02   -0.15335E-03   -0.32283E-05   176   0.227E-02    0.910E-03
DAV:   9    -0.163166240182E+02   -0.14468E-03   -0.12362E-05   176   0.113E-02    0.368E-03
DAV:  10    -0.163167797182E+02   -0.15570E-03   -0.15334E-05   176   0.923E-03    0.307E-03
DAV:  11    -0.163169172845E+02   -0.13757E-03   -0.12849E-05   176   0.767E-03    0.223E-03
DAV:  12    -0.163169914465E+02   -0.74162E-04   -0.84357E-06   176   0.570E-03
  22 F= -.16316991E+02 E0= -.16321184E+02  d E =-.152835E+00  mag=     0.0000
       N       E                     dE             d eps       ncg     rms          rms(c)
DAV:   1    -0.162643825218E+02    0.52535E-01   -0.57466E+01   224   0.262E+01    0.597E-01
DAV:   2    -0.163244771570E+02   -0.60095E-01   -0.62574E-01   256   0.380E+00    0.487E-01
DAV:   3    -0.163227370982E+02    0.17401E-02   -0.17343E-02   256   0.619E-01    0.348E-01
DAV:   4    -0.163207530431E+02    0.19841E-02   -0.52779E-03   256   0.258E-01    0.146E-01
DAV:   5    -0.163208113903E+02   -0.58347E-04   -0.15638E-03   256   0.139E-01    0.629E-02
DAV:   6    -0.163207555985E+02    0.55792E-04   -0.21073E-04   176   0.529E-02
  23 F= -.16320756E+02 E0= -.16324694E+02  d E =-.156599E+00  mag=     0.0000
       N       E                     dE             d eps       ncg     rms          rms(c)
DAV:   1    -0.162952639065E+02    0.25547E-01   -0.10240E+02   224   0.349E+01    0.851E-01
DAV:   2    -0.164002030598E+02   -0.10494E+00   -0.11161E+00   256   0.505E+00    0.714E-01
DAV:   3    -0.163964700490E+02    0.37330E-02   -0.31378E-02   256   0.819E-01    0.490E-01
DAV:   4    -0.163921498778E+02    0.43202E-02   -0.11797E-02   256   0.381E-01    0.205E-01
DAV:   5    -0.163922331333E+02   -0.83256E-04   -0.24382E-03   256   0.169E-01    0.947E-02
DAV:   6    -0.163921386686E+02    0.94465E-04   -0.71682E-04   256   0.879E-02
  24 F= -.16392139E+02 E0= -.16396428E+02  d E =-.713831E-01  mag=     0.0000
       N       E                     dE             d eps       ncg     rms          rms(c)
DAV:   1    -0.163784148868E+02    0.13818E-01   -0.28147E+01   224   0.182E+01    0.447E-01
DAV:   2    -0.164075756825E+02   -0.29161E-01   -0.31253E-01   256   0.268E+00    0.385E-01
DAV:   3    -0.164064990313E+02    0.10767E-02   -0.89153E-03   256   0.444E-01    0.261E-01
DAV:   4    -0.164052871423E+02    0.12119E-02   -0.31337E-03   256   0.198E-01    0.117E-01
DAV:   5    -0.164053319507E+02   -0.44808E-04   -0.85974E-04   256   0.101E-01
  25 F= -.16405332E+02 E0= -.16410128E+02  d E =-.845764E-01  mag=     0.0000
       N       E                     dE             d eps       ncg     rms          rms(c)
DAV:   1    -0.163876125393E+02    0.17675E-01   -0.46124E+01   224   0.231E+01    0.761E-01
DAV:   2    -0.164348586873E+02   -0.47246E-01   -0.50431E-01   240   0.337E+00    0.589E-01
DAV:   3    -0.164326070518E+02    0.22516E-02   -0.15839E-02   256   0.564E-01    0.375E-01
DAV:   4    -0.164312506389E+02    0.13564E-02   -0.70779E-03   256   0.308E-01    0.123E-01
DAV:   5    -0.164313779322E+02   -0.12729E-03   -0.35584E-04   240   0.803E-02    0.559E-02
DAV:   6    -0.164313251146E+02    0.52818E-04   -0.31222E-04   240   0.608E-02
  26 F= -.16431325E+02 E0= -.16435805E+02  d E =-.259932E-01  mag=     0.0000
       N       E                     dE             d eps       ncg     rms          rms(c)
DAV:   1    -0.164313512336E+02    0.26699E-04   -0.76236E-03   256   0.300E-01    0.103E-02
DAV:   2    -0.164313770651E+02   -0.25831E-04   -0.68297E-05   160   0.421E-02
  27 F= -.16431377E+02 E0= -.16435860E+02  d E =-.260451E-01  mag=     0.0000
       N       E                     dE             d eps       ncg     rms          rms(c)
DAV:   1    -0.164153169159E+02    0.16034E-01   -0.40226E+01   224   0.219E+01    0.467E-01
DAV:   2    -0.164578023517E+02   -0.42485E-01   -0.44112E-01   240   0.319E+00    0.430E-01
DAV:   3    -0.164564293564E+02    0.13730E-02   -0.11733E-02   256   0.506E-01    0.307E-01
DAV:   4    -0.164546018592E+02    0.18275E-02   -0.39101E-03   240   0.227E-01    0.156E-01
DAV:   5    -0.164545877509E+02    0.14108E-04   -0.18546E-03   240   0.148E-01    0.659E-02
DAV:   6    -0.164545665237E+02    0.21227E-04   -0.19689E-04   176   0.512E-02
  28 F= -.16454567E+02 E0= -.16458911E+02  d E =-.231895E-01  mag=     0.0000
       N       E                     dE             d eps       ncg     rms          rms(c)
DAV:   1    -0.164209052502E+02    0.33683E-01   -0.43540E+01   224   0.227E+01    0.496E-01
DAV:   2    -0.164668485149E+02   -0.45943E-01   -0.47743E-01   240   0.331E+00    0.454E-01
DAV:   3    -0.164653456586E+02    0.15029E-02   -0.12711E-02   256   0.526E-01    0.322E-01
DAV:   4    -0.164633879815E+02    0.19577E-02   -0.43796E-03   224   0.239E-01    0.161E-01
DAV:   5    -0.164634020960E+02   -0.14114E-04   -0.18880E-03   240   0.149E-01    0.686E-02
DAV:   6    -0.164633785293E+02    0.23567E-04   -0.23443E-04   192   0.547E-02
  29 F= -.16463379E+02 E0= -.16467604E+02  d E =-.320015E-01  mag=     0.0000
       N       E                     dE             d eps       ncg     rms          rms(c)
DAV:   1    -0.164404603223E+02    0.22942E-01   -0.41323E+01   224   0.219E+01    0.588E-01
DAV:   2    -0.164843373975E+02   -0.43877E-01   -0.46180E-01   240   0.322E+00    0.452E-01
DAV:   3    -0.164826421942E+02    0.16952E-02   -0.13276E-02   256   0.532E-01    0.302E-01
DAV:   4    -0.164812626576E+02    0.13795E-02   -0.48162E-03   240   0.243E-01    0.120E-01
DAV:   5    -0.164813935364E+02   -0.13088E-03   -0.74583E-04   240   0.102E-01    0.518E-02
DAV:   6    -0.164813569268E+02    0.36610E-04   -0.25163E-04   192   0.542E-02
  30 F= -.16481357E+02 E0= -.16485517E+02  d E =-.179784E-01  mag=     0.0000
       N       E                     dE             d eps       ncg     rms          rms(c)
DAV:   1    -0.164783631951E+02    0.30303E-02   -0.57018E+00   224   0.812E+00    0.217E-01
DAV:   2    -0.164844319469E+02   -0.60688E-02   -0.63723E-02   240   0.120E+00    0.173E-01
DAV:   3    -0.164841930335E+02    0.23891E-03   -0.18228E-03   256   0.197E-01    0.117E-01
DAV:   4    -0.164840193343E+02    0.17370E-03   -0.70567E-04   256   0.927E-02    0.464E-02
DAV:   5    -0.164840570598E+02   -0.37726E-04   -0.93015E-05   160   0.395E-02
  31 F= -.16484057E+02 E0= -.16488196E+02  d E =-.206785E-01  mag=     0.0000
       N       E                     dE             d eps       ncg     rms          rms(c)
DAV:   1    -0.164852620619E+02   -0.12427E-02   -0.87842E+00   224   0.101E+01    0.213E-01
DAV:   2    -0.164946999559E+02   -0.94379E-02   -0.96953E-02   240   0.147E+00    0.169E-01
DAV:   3    -0.164944061436E+02    0.29381E-03   -0.26242E-03   256   0.230E-01    0.124E-01
DAV:   4    -0.164941237244E+02    0.28242E-03   -0.84680E-04   240   0.100E-01    0.453E-02
DAV:   5    -0.164941579262E+02   -0.34202E-04   -0.21827E-04   192   0.514E-02
  32 F= -.16494158E+02 E0= -.16498263E+02  d E =-.101009E-01  mag=     0.0000
       N       E                     dE             d eps       ncg     rms          rms(c)
DAV:   1    -0.164325169839E+02    0.61607E-01   -0.79714E+01   224   0.305E+01    0.667E-01
DAV:   2    -0.165176844063E+02   -0.85167E-01   -0.87588E-01   240   0.442E+00    0.512E-01
DAV:   3    -0.165149881834E+02    0.26962E-02   -0.24060E-02   272   0.691E-01    0.370E-01
DAV:   4    -0.165122589466E+02    0.27292E-02   -0.81103E-03   224   0.310E-01    0.126E-01
DAV:   5    -0.165124004464E+02   -0.14150E-03   -0.15247E-03   256   0.133E-01    0.638E-02
DAV:   6    -0.165123499749E+02    0.50471E-04   -0.40853E-04   240   0.672E-02
  33 F= -.16512350E+02 E0= -.16516374E+02  d E =-.282929E-01  mag=     0.0000
       N       E                     dE             d eps       ncg     rms          rms(c)
DAV:   1    -0.165046952277E+02    0.77052E-02   -0.98268E+00   224   0.107E+01    0.224E-01
DAV:   2    -0.165152453052E+02   -0.10550E-01   -0.10806E-01   256   0.156E+00    0.183E-01
DAV:   3    -0.165148946589E+02    0.35065E-03   -0.29176E-03   272   0.242E-01    0.135E-01
DAV:   4    -0.165145562522E+02    0.33841E-03   -0.10261E-03   256   0.110E-01    0.482E-02
DAV:   5    -0.165146014879E+02   -0.45236E-04   -0.24952E-04   208   0.545E-02
  34 F= -.16514601E+02 E0= -.16518603E+02  d E =-.305444E-01  mag=     0.0000
       N       E                     dE             d eps       ncg     rms          rms(c)
DAV:   1    -0.165169574958E+02   -0.24012E-02   -0.28121E+00   224   0.569E+00    0.108E-01
DAV:   2    -0.165199914544E+02   -0.30340E-02   -0.30935E-02   240   0.828E-01    0.898E-02
DAV:   3    -0.165199006799E+02    0.90775E-04   -0.80511E-04   256   0.128E-01
  35 F= -.16519901E+02 E0= -.16523901E+02  d E =-.529919E-02  mag=     0.0000
       N       E                     dE             d eps       ncg     rms          rms(c)
DAV:   1    -0.165061046865E+02    0.13887E-01   -0.25475E+01   224   0.171E+01    0.331E-01
DAV:   2    -0.165330689694E+02   -0.26964E-01   -0.27456E-01   240   0.248E+00    0.287E-01
DAV:   3    -0.165321849949E+02    0.88397E-03   -0.72213E-03   272   0.380E-01    0.218E-01
DAV:   4    -0.165311435897E+02    0.10414E-02   -0.25836E-03   240   0.175E-01    0.835E-02
DAV:   5    -0.165311898834E+02   -0.46294E-04   -0.91922E-04   256   0.100E-01
  36 F= -.16531190E+02 E0= -.16535184E+02  d E =-.165884E-01  mag=     0.0000
       N       E                     dE             d eps       ncg     rms          rms(c)
DAV:   1    -0.164321749235E+02    0.98969E-01   -0.10260E+02   224   0.345E+01    0.662E-01
DAV:   2    -0.165411045206E+02   -0.10893E+00   -0.11104E+00   240   0.494E+00    0.561E-01
DAV:   3    -0.165380467058E+02    0.30578E-02   -0.29133E-02   272   0.760E-01    0.419E-01
DAV:   4    -0.165341474510E+02    0.38993E-02   -0.87314E-03   256   0.325E-01    0.178E-01
DAV:   5    -0.165341459795E+02    0.14715E-05   -0.37893E-03   256   0.202E-01    0.816E-02
DAV:   6    -0.165340855528E+02    0.60427E-04   -0.49686E-04   240   0.764E-02
  37 F= -.16534086E+02 E0= -.16538070E+02  d E =-.194841E-01  mag=     0.0000
       N       E                     dE             d eps       ncg     rms          rms(c)
DAV:   1    -0.165200286510E+02    0.14117E-01   -0.16332E+01   224   0.136E+01    0.267E-01
DAV:   2    -0.165373644180E+02   -0.17336E-01   -0.17651E-01   240   0.197E+00    0.221E-01
DAV:   3    -0.165368618630E+02    0.50255E-03   -0.46465E-03   272   0.304E-01    0.165E-01
DAV:   4    -0.165363054130E+02    0.55645E-03   -0.14700E-03   256   0.130E-01    0.638E-02
DAV:   5    -0.165363482300E+02   -0.42817E-04   -0.52673E-04   256   0.756E-02
  38 F= -.16536348E+02 E0= -.16540337E+02  d E =-.217467E-01  mag=     0.0000
       N       E                     dE             d eps       ncg     rms          rms(c)
DAV:   1    -0.165352520625E+02    0.10534E-02   -0.61171E+00   224   0.827E+00    0.172E-01
DAV:   2    -0.165416415074E+02   -0.63894E-02   -0.65703E-02   240   0.120E+00    0.151E-01
DAV:   3    -0.165414089886E+02    0.23252E-03   -0.17147E-03   272   0.185E-01    0.113E-01
DAV:   4    -0.165411558479E+02    0.25314E-03   -0.69764E-04   224   0.880E-02    0.432E-02
DAV:   5    -0.165411702576E+02   -0.14410E-04   -0.20412E-04   192   0.486E-02
  39 F= -.16541170E+02 E0= -.16545142E+02  d E =-.482203E-02  mag=     0.0000
       N       E                     dE             d eps       ncg     rms          rms(c)
DAV:   1    -0.164919132020E+02    0.49243E-01   -0.55256E+01   224   0.249E+01    0.507E-01
DAV:   2    -0.165498708178E+02   -0.57958E-01   -0.59649E-01   256   0.360E+00    0.453E-01
DAV:   3    -0.165480871978E+02    0.17836E-02   -0.15492E-02   272   0.558E-01    0.339E-01
DAV:   4    -0.165457801227E+02    0.23071E-02   -0.56152E-03   256   0.252E-01    0.139E-01
DAV:   5    -0.165458535497E+02   -0.73427E-04   -0.22730E-03   256   0.154E-01    0.711E-02
DAV:   6    -0.165457765325E+02    0.77017E-04   -0.38950E-04   240   0.665E-02
  40 F= -.16545777E+02 E0= -.16549710E+02  d E =-.942830E-02  mag=     0.0000
       N       E                     dE             d eps       ncg     rms          rms(c)
DAV:   1    -0.165493083263E+02   -0.34548E-02   -0.33956E+00   224   0.637E+00    0.306E-01
DAV:   2    -0.165527471903E+02   -0.34389E-02   -0.39622E-02   256   0.952E-01    0.186E-01
DAV:   3    -0.165526179329E+02    0.12926E-03   -0.16798E-03   256   0.185E-01    0.109E-01
DAV:   4    -0.165526349690E+02   -0.17036E-04   -0.30776E-04   224   0.782E-02
  41 F= -.16552635E+02 E0= -.16556569E+02  d E =-.685844E-02  mag=     0.0000
       N       E                     dE             d eps       ncg     rms          rms(c)
DAV:   1    -0.165516933741E+02    0.92456E-03   -0.25828E+00   224   0.556E+00    0.273E-01
DAV:   2    -0.165542982718E+02   -0.26049E-02   -0.30771E-02   256   0.833E-01    0.161E-01
DAV:   3    -0.165542121994E+02    0.86072E-04   -0.12908E-03   256   0.164E-01    0.953E-02
DAV:   4    -0.165542194420E+02   -0.72425E-05   -0.19318E-04   160   0.660E-02
  42 F= -.16554219E+02 E0= -.16558154E+02  d E =-.844291E-02  mag=     0.0000
       N       E                     dE             d eps       ncg     rms          rms(c)
DAV:   1    -0.165549926921E+02   -0.78049E-03   -0.34261E+00   224   0.639E+00    0.154E-01
DAV:   2    -0.165586134211E+02   -0.36207E-02   -0.38221E-02   256   0.941E-01    0.124E-01
DAV:   3    -0.165584961472E+02    0.11727E-03   -0.10804E-03   256   0.158E-01    0.825E-02
DAV:   4    -0.165583880794E+02    0.10807E-03   -0.27592E-04   224   0.611E-02    0.390E-02
DAV:   5    -0.165583986912E+02   -0.10612E-04   -0.11911E-04   160   0.417E-02
  43 F= -.16558399E+02 E0= -.16562338E+02  d E =-.417925E-02  mag=     0.0000
       N       E                     dE             d eps       ncg     rms          rms(c)
DAV:   1    -0.165400167085E+02    0.18371E-01   -0.21650E+01   224   0.161E+01    0.395E-01
DAV:   2    -0.165628058560E+02   -0.22789E-01   -0.23977E-01   240   0.236E+00    0.312E-01
DAV:   3    -0.165620297668E+02    0.77609E-03   -0.68233E-03   256   0.393E-01    0.209E-01
DAV:   4    -0.165612564247E+02    0.77334E-03   -0.20077E-03   256   0.162E-01    0.921E-02
DAV:   5    -0.165612861470E+02   -0.29722E-04   -0.59984E-04   256   0.848E-02
  44 F= -.16561286E+02 E0= -.16565235E+02  d E =-.706671E-02  mag=     0.0000
       N       E                     dE             d eps       ncg     rms          rms(c)
DAV:   1    -0.165610778112E+02    0.17861E-03   -0.33767E+00   224   0.630E+00    0.176E-01
DAV:   2    -0.165646980358E+02   -0.36202E-02   -0.37721E-02   256   0.933E-01    0.146E-01
DAV:   3    -0.165645600241E+02    0.13801E-03   -0.10806E-03   256   0.152E-01    0.996E-02
DAV:   4    -0.165644533174E+02    0.10671E-03   -0.47465E-04   256   0.771E-02    0.372E-02
DAV:   5    -0.165644752869E+02   -0.21969E-04   -0.47349E-05   160   0.277E-02
  45 F= -.16564475E+02 E0= -.16568435E+02  d E =-.318914E-02  mag=     0.0000
       N       E                     dE             d eps       ncg     rms          rms(c)
DAV:   1    -0.165594678882E+02    0.49854E-02   -0.66285E+00   224   0.883E+00    0.242E-01
DAV:   2    -0.165664806430E+02   -0.70128E-02   -0.73084E-02   256   0.130E+00    0.201E-01
DAV:   3    -0.165662060400E+02    0.27460E-03   -0.20804E-03   256   0.210E-01    0.138E-01
DAV:   4    -0.165659758905E+02    0.23015E-03   -0.95449E-04   256   0.109E-01    0.500E-02
DAV:   5    -0.165660026592E+02   -0.26769E-04   -0.85708E-05   160   0.374E-02
  46 F= -.16566003E+02 E0= -.16569978E+02  d E =-.471651E-02  mag=     0.0000
       N       E                     dE             d eps       ncg     rms          rms(c)
DAV:   1    -0.165668388546E+02   -0.86296E-03   -0.99111E-01   224   0.341E+00    0.991E-02
DAV:   2    -0.165678837592E+02   -0.10449E-02   -0.11189E-02   272   0.503E-01    0.717E-02
DAV:   3    -0.165678432288E+02    0.40530E-04   -0.30158E-04   224   0.773E-02
  47 F= -.16567843E+02 E0= -.16571821E+02  d E =-.184057E-02  mag=     0.0000
       N       E                     dE             d eps       ncg     rms          rms(c)
DAV:   1    -0.165666119074E+02    0.12719E-02   -0.28822E+00   224   0.581E+00    0.174E-01
DAV:   2    -0.165695988958E+02   -0.29870E-02   -0.32140E-02   256   0.852E-01    0.127E-01
DAV:   3    -0.165694682369E+02    0.13066E-03   -0.89586E-04   256   0.131E-01    0.812E-02
DAV:   4    -0.165694115655E+02    0.56671E-04   -0.35454E-04   240   0.689E-02
  48 F= -.16569412E+02 E0= -.16573392E+02  d E =-.340891E-02  mag=     0.0000
       N       E                     dE             d eps       ncg     rms          rms(c)
DAV:   1    -0.165701711941E+02   -0.70296E-03   -0.94265E-01   224   0.330E+00    0.701E-02
DAV:   2    -0.165711941867E+02   -0.10230E-02   -0.10606E-02   256   0.483E-01    0.525E-02
DAV:   3    -0.165711684131E+02    0.25774E-04   -0.28480E-04   224   0.761E-02
  49 F= -.16571168E+02 E0= -.16575158E+02  d E =-.175685E-02  mag=     0.0000
       N       E                     dE             d eps       ncg     rms          rms(c)
DAV:   1    -0.165683023154E+02    0.28919E-02   -0.57832E+00   224   0.817E+00    0.173E-01
DAV:   2    -0.165744330224E+02   -0.61307E-02   -0.63134E-02   256   0.119E+00    0.141E-01
DAV:   3    -0.165742139997E+02    0.21902E-03   -0.17464E-03   256   0.185E-01    0.104E-01
DAV:   4    -0.165740148351E+02    0.19916E-03   -0.64658E-04   256   0.870E-02    0.356E-02
DAV:   5    -0.165740336569E+02   -0.18822E-04   -0.11643E-04   144   0.394E-02
  50 F= -.16574034E+02 E0= -.16578054E+02  d E =-.462209E-02  mag=     0.0000
       N       E                     dE             d eps       ncg     rms          rms(c)
DAV:   1    -0.165745436410E+02   -0.52881E-03   -0.42679E-01   256   0.223E+00    0.592E-02
DAV:   2    -0.165749987728E+02   -0.45513E-03   -0.47908E-03   256   0.327E-01    0.419E-02
DAV:   3    -0.165749827997E+02    0.15973E-04   -0.12577E-04   160   0.528E-02
  51 F= -.16574983E+02 E0= -.16578995E+02  d E =-.949143E-03  mag=    -0.0000
       N       E                     dE             d eps       ncg     rms          rms(c)
DAV:   1    -0.165752717850E+02   -0.27301E-03   -0.43506E-01   256   0.226E+00    0.646E-02
DAV:   2    -0.165757221575E+02   -0.45037E-03   -0.47851E-03   256   0.326E-01    0.453E-02
DAV:   3    -0.165757039154E+02    0.18242E-04   -0.13161E-04   176   0.528E-02
  52 F= -.16575704E+02 E0= -.16579709E+02  d E =-.167026E-02  mag=     0.0000
       N       E                     dE             d eps       ncg     rms          rms(c)
DAV:   1    -0.165760171283E+02   -0.29497E-03   -0.31714E-01   256   0.190E+00    0.485E-02
DAV:   2    -0.165763481144E+02   -0.33099E-03   -0.34977E-03   256   0.277E-01    0.379E-02
DAV:   3    -0.165763358891E+02    0.12225E-04   -0.89185E-05   160   0.444E-02
  53 F= -.16576336E+02 E0= -.16580341E+02  d E =-.631974E-03  mag=    -0.0000
       N       E                     dE             d eps       ncg     rms          rms(c)
DAV:   1    -0.165764031057E+02   -0.54991E-04   -0.45306E-01   256   0.227E+00    0.679E-02
DAV:   2    -0.165768705326E+02   -0.46743E-03   -0.49786E-03   256   0.330E-01    0.500E-02
DAV:   3    -0.165768491842E+02    0.21348E-04   -0.13878E-04   176   0.534E-02
  54 F= -.16576849E+02 E0= -.16580855E+02  d E =-.114527E-02  mag=     0.0000
       N       E                     dE             d eps       ncg     rms          rms(c)
DAV:   1    -0.165771199124E+02   -0.24938E-03   -0.29881E-01   256   0.189E+00    0.794E-02
DAV:   2    -0.165774229726E+02   -0.30306E-03   -0.34696E-03   256   0.280E-01    0.536E-02
DAV:   3    -0.165774097630E+02    0.13210E-04   -0.12914E-04   160   0.504E-02
  55 F= -.16577410E+02 E0= -.16581406E+02  d E =-.560579E-03  mag=    -0.0000
       N       E                     dE             d eps       ncg     rms          rms(c)
DAV:   1    -0.165774343822E+02   -0.11410E-04   -0.37510E-03   256   0.215E-01    0.172E-02
DAV:   2    -0.165774369584E+02   -0.25762E-05   -0.47644E-05   160   0.310E-02
  56 F= -.16577437E+02 E0= -.16581432E+02  d E =-.587774E-03  mag=     0.0000
