 vasp.6.1.2 22Jul20 (build Jan 14 2022 17:24:41) gamma-only                      
 executed on             LinuxPGI date 2022.01.26  10:10:58
 running on    8 total cores
 distrk:  each k-point on    8 cores,    1 groups
 distr:  one band on NCORE=   8 cores,    1 groups


--------------------------------------------------------------------------------------------------------


 INCAR:
 POTCAR:    PAW_PBE Au 04Oct2007                  
 -----------------------------------------------------------------------------
|                                                                             |
|           W    W    AA    RRRRR   N    N  II  N    N   GGGG   !!!           |
|           W    W   A  A   R    R  NN   N  II  NN   N  G    G  !!!           |
|           W    W  A    A  R    R  N N  N  II  N N  N  G       !!!           |
|           W WW W  AAAAAA  RRRRR   N  N N  II  N  N N  G  GGG   !            |
|           WW  WW  A    A  R   R   N   NN  II  N   NN  G    G                |
|           W    W  A    A  R    R  N    N  II  N    N   GGGG   !!!           |
|                                                                             |
|     You use a magnetic or noncollinear calculation, but did not specify     |
|     the initial magnetic moment with the MAGMOM tag. Note that a            |
|     default of 1 will be used for all atoms. This ferromagnetic setup       |
|     may break the symmetry of the crystal, in particular it may rule        |
|     out finding an antiferromagnetic solution. Thence, we recommend         |
|     setting the initial magnetic moment manually or verifying carefully     |
|     that this magnetic setup is desired.                                    |
|                                                                             |
 -----------------------------------------------------------------------------

 -----------------------------------------------------------------------------
|                                                                             |
|           W    W    AA    RRRRR   N    N  II  N    N   GGGG   !!!           |
|           W    W   A  A   R    R  NN   N  II  NN   N  G    G  !!!           |
|           W    W  A    A  R    R  N N  N  II  N N  N  G       !!!           |
|           W WW W  AAAAAA  RRRRR   N  N N  II  N  N N  G  GGG   !            |
|           WW  WW  A    A  R   R   N   NN  II  N   NN  G    G                |
|           W    W  A    A  R    R  N    N  II  N    N   GGGG   !!!           |
|                                                                             |
|     For optimal performance we recommend to set                             |
|       NCORE = 4 - approx SQRT(number of cores).                             |
|     NCORE specifies how many cores store one orbital (NPAR=cpu/NCORE).      |
|     This setting can greatly improve the performance of VASP for DFT.       |
|     The default, NCORE=1 might be grossly inefficient on modern             |
|     multi-core architectures or massively parallel machines. Do your        |
|     own testing!!!!                                                         |
|     Unfortunately you need to use the default for GW and RPA                |
|     calculations (for HF NCORE is supported but not extensively tested      |
|     yet).                                                                   |
|                                                                             |
 -----------------------------------------------------------------------------

 POTCAR:    PAW_PBE Au 04Oct2007                  
   SHA256 =  d0044ae04e2bdce24051b198fc5c053d722a5bc6fe3c3b100514a13fc5d2db88 Au/POTCAR             
   COPYR  = (c) Copyright 04Oct2007 Georg Kresse                                                    
   COPYR  = This file is part of the software VASP. Any use, copying, and all other rights are regul
   COPYR  = If you do not have a valid VASP license, you may not use, copy or distribute this file. 
   VRHFIN =Au: s1d10                                                                                
   LEXCH  = PE                                                                                      
   EATOM  =   926.0867 eV,   68.0654 Ry                                                             
                                                                                                    
   TITEL  = PAW_PBE Au 04Oct2007                                                                    
   LULTRA =        F    use ultrasoft PP ?                                                          
   IUNSCR =        1    unscreen: 0-lin 1-nonlin 2-no                                               
   RPACOR =    2.330    partial core radius                                                         
   POMASS =  196.966; ZVAL   =   11.000    mass and valenz                                          
   RCORE  =    2.500    outmost cutoff radius                                                       
   RWIGS  =    2.840; RWIGS  =    1.503    wigner-seitz radius (au A)                               
   ENMAX  =  229.943; ENMIN  =  172.457 eV                                                          
   ICORE  =        3    local potential                                                             
   LCOR   =        T    correct aug charges                                                         
   LPAW   =        T    paw PP                                                                      
   EAUG   =  356.670                                                                                
   DEXC   =    0.000                                                                                
   RMAX   =    2.562    core radius for proj-oper                                                   
   RAUG   =    1.300    factor for augmentation sphere                                              
   RDEP   =    2.598    radius for radial grids                                                     
   RDEPT  =    2.193    core radius for aug-charge                                                  
                                                                                                    
   Atomic configuration                                                                             
   16 entries                                                                                       
     n  l   j            E        occ.                                                              
     1  0  0.50    -80748.5001   2.0000                                                             
     2  0  0.50    -14244.7466   2.0000                                                             
     2  1  1.50    -12310.9591   6.0000                                                             
     3  0  0.50     -3362.1768   2.0000                                                             
     3  1  1.50     -2801.5463   6.0000                                                             
     3  2  2.50     -2203.8206  10.0000                                                             
     4  0  0.50      -729.8168   2.0000                                                             
     4  1  1.50      -546.0527   6.0000                                                             
     4  2  2.50      -325.7302  10.0000                                                             
     4  3  3.50       -81.1472  14.0000                                                             
     5  0  0.50      -108.3201   2.0000                                                             
     5  1  1.50       -59.7479   6.0000                                                             
     5  2  2.50        -6.8783  10.0000                                                             
     6  0  0.50        -5.7602   1.0000                                                             
     6  1  1.50        -6.8029   0.0000                                                             
     5  3  2.50        -1.3606   0.0000                                                             
   Description                                                                                      
     l       E           TYP  RCUT    TYP  RCUT                                                     
     2     -6.8782861     23  2.500                                                                 
     2     -8.2388687     23  2.500                                                                 
     0     -5.7601759     23  2.500                                                                 
     0     -0.8493231     23  2.500                                                                 
     1     -2.7211652     23  2.500                                                                 
     1     27.2116520     23  2.500                                                                 
     3     -1.3605826     23  2.500                                                                 
  local pseudopotential read in
  partial core-charges read in
  partial kinetic energy density read in
  atomic valenz-charges read in
  non local Contribution for L=            2  read in
    real space projection operators read in
  non local Contribution for L=            2  read in
    real space projection operators read in
  non local Contribution for L=            0  read in
    real space projection operators read in
  non local Contribution for L=            0  read in
    real space projection operators read in
  non local Contribution for L=            1  read in
    real space projection operators read in
  non local Contribution for L=            1  read in
    real space projection operators read in
    PAW grid and wavefunctions read in
 
   number of l-projection  operators is LMAX  =            6
   number of lm-projection operators is LMMAX =           18
 
  PAW_PBE Au 04Oct2007                  :
 energy of atom  1       EATOM= -926.0867
 kinetic energy error for atom=    0.0062 (will be added to EATOM!!)
 
 
 POSCAR: Au
  positions in cartesian coordinates
  No initial velocities read in
 exchange correlation table for  LEXCH =        8
   RHO(1)=    0.500       N(1)  =     2000
   RHO(2)=  100.500       N(2)  =     4000
 


--------------------------------------------------------------------------------------------------------


 ion  position               nearest neighbor table
   1  0.446  0.447  0.408-   2 2.52   3 2.58   4 2.66
   2  0.445  0.557  0.401-   1 2.52   5 2.52   4 2.70
   3  0.476  0.395  0.502-   6 2.58   1 2.58   7 2.64   4 2.71
   4  0.516  0.507  0.484-   5 2.66   1 2.66   2 2.70   3 2.71   7 2.72   8 2.72
   5  0.436  0.596  0.501-   2 2.52   8 2.58   4 2.66
   6  0.429  0.428  0.597-   3 2.58   8 2.58   7 2.59
   7  0.550  0.446  0.578-   6 2.59   8 2.63   3 2.64   4 2.72
   8  0.469  0.535  0.588-   6 2.58   5 2.58   7 2.63   4 2.72
 

IMPORTANT INFORMATION: All symmetrisations will be switched off!
NOSYMM: (Re-)initialisation of all symmetry stuff for point group C_1.


----------------------------------------------------------------------------------------

                                     Primitive cell                                     

  volume of cell :   11170.4304

  direct lattice vectors                    reciprocal lattice vectors
    20.715537675  0.000000000  0.000000000     0.048272944  0.000000000  0.000000000
     0.000000000 22.788777101  0.000000000     0.000000000  0.043881249  0.000000000
     0.000000000  0.000000000 23.662066763     0.000000000  0.000000000  0.042261735

  length of vectors
    20.715537675 22.788777101 23.662066763     0.048272944  0.043881249  0.042261735

  position of ions in fractional coordinates (direct lattice)
     0.445953497  0.446875080  0.408476015
     0.445054365  0.557348230  0.401309550
     0.475803607  0.395046952  0.501775800
     0.515791641  0.506630356  0.483516308
     0.436098448  0.596217034  0.500909319
     0.428985789  0.428145742  0.597423823
     0.550166738  0.446351630  0.577846703
     0.469079844  0.534642922  0.587633689

  ion indices of the primitive-cell ions
   primitive index   ion index
                 1           1
                 2           2
                 3           3
                 4           4
                 5           5
                 6           6
                 7           7
                 8           8

----------------------------------------------------------------------------------------

 
 
 KPOINTS: KPOINTS created by Atomic Simulation Env

Automatic generation of k-mesh.
Space group operators:
 irot       det(A)        alpha          n_x          n_y          n_z        tau_x        tau_y        tau_z
    1     1.000000     0.000000     1.000000     0.000000     0.000000     0.000000     0.000000     0.000000
 
 Subroutine IBZKPT returns following result:
 ===========================================
 
 Found      1 irreducible k-points:
 
 Following reciprocal coordinates:
            Coordinates               Weight
  0.000000  0.000000  0.000000      1.000000
 
 Following cartesian coordinates:
            Coordinates               Weight
  0.000000  0.000000  0.000000      1.000000
 


--------------------------------------------------------------------------------------------------------




 Dimension of arrays:
   k-points           NKPTS =      1   k-points in BZ     NKDIM =      1   number of bands    NBANDS=     56
   number of dos      NEDOS =    301   number of ions     NIONS =      8
   non local maximal  LDIM  =      6   non local SUM 2l+1 LMDIM =     18
   total plane-waves  NPLWV = ******
   max r-space proj   IRMAX =      1   max aug-charges    IRDMAX=   8145
   dimension x,y,z NGX =   108 NGY =  112 NGZ =  120
   dimension x,y,z NGXF=   216 NGYF=  224 NGZF=  240
   support grid    NGXF=   216 NGYF=  224 NGZF=  240
   ions per type =               8
   NGX,Y,Z   is equivalent  to a cutoff of   8.67,  8.17,  8.43 a.u.
   NGXF,Y,Z  is equivalent  to a cutoff of  17.33, 16.34, 16.86 a.u.

 SYSTEM =  unknown system                          
 POSCAR =  Au                                      

 Startparameter for this run:
   NWRITE =      2    write-flag & timer
   PREC   = normal    normal or accurate (medium, high low for compatibility)
   ISTART =      0    job   : 0-new  1-cont  2-samecut
   ICHARG =      2    charge: 1-file 2-atom 10-const
   ISPIN  =      2    spin polarized calculation?
   LNONCOLLINEAR =      F non collinear calculations
   LSORBIT =      F    spin-orbit coupling
   INIWAV =      1    electr: 0-lowe 1-rand  2-diag
   LASPH  =      F    aspherical Exc in radial PAW
   METAGGA=      F    non-selfconsistent MetaGGA calc.

 Electronic Relaxation 1
   ENCUT  =  400.0 eV  29.40 Ry    5.42 a.u.  33.78 37.16 38.59*2*pi/ulx,y,z
   ENINI  =  400.0     initial cutoff
   ENAUG  =  356.7 eV  augmentation charge cutoff
   NELM   =     60;   NELMIN=  2; NELMDL=  0     # of ELM steps 
   EDIFF  = 0.1E-03   stopping-criterion for ELM
   LREAL  =      F    real-space projection
   NLSPLINE    = F    spline interpolate recip. space projectors
   LCOMPAT=      F    compatible to vasp.4.4
   GGA_COMPAT  = T    GGA compatible to vasp.4.4-vasp.4.6
   LMAXPAW     = -100 max onsite density
   LMAXMIX     =    2 max onsite mixed and CHGCAR
   VOSKOWN=      0    Vosko Wilk Nusair interpolation
   ROPT   =    0.00000
 Ionic relaxation
   EDIFFG = 0.1E-02   stopping-criterion for IOM
   NSW    =   1000    number of steps for IOM
   NBLOCK =      1;   KBLOCK =   1000    inner block; outer block 
   IBRION =      2    ionic relax: 0-MD 1-quasi-New 2-CG
   NFREE  =      1    steps in history (QN), initial steepest desc. (CG)
   ISIF   =      0    stress and relaxation
   IWAVPR =     11    prediction:  0-non 1-charg 2-wave 3-comb
   ISYM   =      0    0-nonsym 1-usesym 2-fastsym
   LCORR  =      T    Harris-Foulkes like correction to forces

   POTIM  = 0.5000    time-step for ionic-motion
   TEIN   =    0.0    initial temperature
   TEBEG  =    0.0;   TEEND  =   0.0 temperature during run
   SMASS  =  -3.00    Nose mass-parameter (am)
   estimated Nose-frequenzy (Omega)   =  0.10E-29 period in steps = 0.13E+47 mass=  -0.981E-26a.u.
   SCALEE = 1.0000    scale energy and forces
   NPACO  =    256;   APACO  = 16.0  distance and # of slots for P.C.
   PSTRESS=    0.0 pullay stress

  Mass of Ions in am
   POMASS = 196.97
  Ionic Valenz
   ZVAL   =  11.00
  Atomic Wigner-Seitz radii
   RWIGS  =  -1.00
  virtual crystal weights 
   VCA    =   1.00
   NELECT =      88.0000    total number of electrons
   NUPDOWN=      -1.0000    fix difference up-down

 DOS related values:
   EMIN   =  10.00;   EMAX   =-10.00  energy-range for DOS
   EFERMI =   0.00
   ISMEAR =     1;   SIGMA  =   0.20  broadening in eV -4-tet -1-fermi 0-gaus

 Electronic relaxation 2 (details)
   IALGO  =     38    algorithm
   LDIAG  =      T    sub-space diagonalisation (order eigenvalues)
   LSUBROT=      F    optimize rotation matrix (better conditioning)
   TURBO    =      0    0=normal 1=particle mesh
   IRESTART =      0    0=no restart 2=restart with 2 vectors
   NREBOOT  =      0    no. of reboots
   NMIN     =      0    reboot dimension
   EREF     =   0.00    reference energy to select bands
   IMIX   =      4    mixing-type and parameters
     AMIX     =   0.40;   BMIX     =  1.00
     AMIX_MAG =   1.60;   BMIX_MAG =  1.00
     AMIN     =   0.10
     WC   =   100.;   INIMIX=   1;  MIXPRE=   1;  MAXMIX= -45

 Intra band minimization:
   WEIMIN = 0.0010     energy-eigenvalue tresh-hold
   EBREAK =  0.45E-06  absolut break condition
   DEPER  =   0.30     relativ break condition  

   TIME   =   0.40     timestep for ELM

  volume/ion in A,a.u.               =    1396.30      9422.72
  Fermi-wavevector in a.u.,A,eV,Ry     =   0.325746  0.615571  1.443720  0.106110
  Thomas-Fermi vector in A             =   1.217008
 
 Write flags
   LWAVE        =      F    write WAVECAR
   LDOWNSAMPLE  =      F    k-point downsampling of WAVECAR
   LCHARG       =      F    write CHGCAR
   LVTOT        =      F    write LOCPOT, total local potential
   LVHAR        =      F    write LOCPOT, Hartree potential only
   LELF         =      F    write electronic localiz. function (ELF)
   LORBIT       =      0    0 simple, 1 ext, 2 COOP (PROOUT), +10 PAW based schemes


 Dipole corrections
   LMONO  =      F    monopole corrections only (constant potential shift)
   LDIPOL =      F    correct potential (dipole corrections)
   IDIPOL =      0    1-x, 2-y, 3-z, 4-all directions 
   EPSILON=  1.0000000 bulk dielectric constant

 Exchange correlation treatment:
   GGA     =    PE    GGA type
   LEXCH   =     8    internal setting for exchange type
   VOSKOWN=      0    Vosko Wilk Nusair interpolation
   LHFCALC =     F    Hartree Fock is set to
   LHFONE  =     F    Hartree Fock one center treatment
   AEXX    =    0.0000 exact exchange contribution

 Linear response parameters
   LEPSILON=     F    determine dielectric tensor
   LRPA    =     F    only Hartree local field effects (RPA)
   LNABLA  =     F    use nabla operator in PAW spheres
   LVEL    =     F    velocity operator in full k-point grid
   LINTERFAST=   F  fast interpolation
   KINTER  =     0    interpolate to denser k-point grid
   CSHIFT  =0.1000    complex shift for real part using Kramers Kronig
   OMEGAMAX=  -1.0    maximum frequency
   DEG_THRESHOLD= 0.2000000E-02 threshold for treating states as degnerate
   RTIME   =   -0.100 relaxation time in fs
  (WPLASMAI=    0.000 imaginary part of plasma frequency in eV, 0.658/RTIME)
   DFIELD  = 0.0000000 0.0000000 0.0000000 field for delta impulse in time
 
 Orbital magnetization related:
   ORBITALMAG=     F  switch on orbital magnetization
   LCHIMAG   =     F  perturbation theory with respect to B field
   DQ        =  0.001000  dq finite difference perturbation B field
   LLRAUG    =     F  two centre corrections for induced B field



--------------------------------------------------------------------------------------------------------


 conjugate gradient relaxation of ions
 charge density and potential will be updated during run
 spin polarized calculation
 Variant of blocked Davidson
 Davidson routine will perform the subspace rotation
 perform sub-space diagonalisation
    after iterative eigenvector-optimisation
 modified Broyden-mixing scheme, WC =      100.0
 initial mixing is a Kerker type mixing with AMIX =  0.4000 and BMIX =      1.0000
 Hartree-type preconditioning will be used
 using additional bands            12
 reciprocal scheme for non local part
 use partial core corrections
 calculate Harris-corrections to forces 
   (improved forces if not selfconsistent)
 use gradient corrections 
 use of overlap-Matrix (Vanderbilt PP)
 Methfessel and Paxton  Order N= 1 SIGMA  =   0.20


--------------------------------------------------------------------------------------------------------


  energy-cutoff  :      400.00
  volume of cell :    11170.43
      direct lattice vectors                 reciprocal lattice vectors
    20.715537675  0.000000000  0.000000000     0.048272944  0.000000000  0.000000000
     0.000000000 22.788777101  0.000000000     0.000000000  0.043881249  0.000000000
     0.000000000  0.000000000 23.662066763     0.000000000  0.000000000  0.042261735

  length of vectors
    20.715537675 22.788777101 23.662066763     0.048272944  0.043881249  0.042261735


 
 k-points in units of 2pi/SCALE and weight: KPOINTS created by Atomic Simulation Env
   0.00000000  0.00000000  0.00000000       1.000
 
 k-points in reciprocal lattice and weights: KPOINTS created by Atomic Simulation Env
   0.00000000  0.00000000  0.00000000       1.000
 
 position of ions in fractional coordinates (direct lattice) 
   0.44595350  0.44687508  0.40847602
   0.44505437  0.55734823  0.40130955
   0.47580361  0.39504695  0.50177580
   0.51579164  0.50663036  0.48351631
   0.43609845  0.59621703  0.50090932
   0.42898579  0.42814574  0.59742382
   0.55016674  0.44635163  0.57784670
   0.46907984  0.53464292  0.58763369
 
 position of ions in cartesian coordinates  (Angst):
   9.23816647 10.18373659  9.66538674
   9.21954047 12.70128458  9.49581338
   9.85652755  9.00263693 11.87305249
  10.68490118 11.54548626 11.44099517
   9.03401382 13.58705709 11.85254974
   8.88667128  9.75691789 14.13628237
  11.39699978 10.17180782 13.67304727
   9.71724118 12.18385837 13.90462759
 


--------------------------------------------------------------------------------------------------------


 use parallel FFT for orbitals z direction half grid
 k-point   1 :   0.0000 0.0000 0.0000  plane waves:  101497

 maximum and minimum number of plane-waves per node :     12694    12680

 maximum number of plane-waves:    101497
 maximum index in each direction: 
   IXMAX=   33   IYMAX=   37   IZMAX=   38
   IXMIN=  -33   IYMIN=  -37   IZMIN=    0


 parallel 3D FFT for wavefunctions:
    minimum data exchange during FFTs selected (reduces bandwidth)
 parallel 3D FFT for charge:
    minimum data exchange during FFTs selected (reduces bandwidth)


 total amount of memory used by VASP MPI-rank0   229644. kBytes
=======================================================================

   base      :      30000. kBytes
   nonl-proj :       3450. kBytes
   fftplans  :      53143. kBytes
   grid      :     120289. kBytes
   one-center:         15. kBytes
   wavefun   :      22747. kBytes
 
     INWAV:  cpu time    0.0001: real time    0.0001
 Broyden mixing: mesh for mixing (old mesh)
   NGX = 67   NGY = 75   NGZ = 77
  (NGX  =216   NGY  =224   NGZ  =240)
  gives a total of 386925 points

 initial charge density was supplied:
 charge density of overlapping atoms calculated
 number of electron      88.0000000 magnetization       8.0000000
 keeping initial charge density in first step


--------------------------------------------------------------------------------------------------------


 Maximum index for augmentation-charges          1005 (set IRDMAX)


--------------------------------------------------------------------------------------------------------


 First call to EWALD:  gamma=   0.079
 Maximum number of real-space cells 3x 3x 3
 Maximum number of reciprocal cells 3x 3x 3

    FEWALD:  cpu time    0.0011: real time    0.0011


--------------------------------------- Iteration      1(   1)  ---------------------------------------


    POTLOK:  cpu time    4.0086: real time    4.0248
    SETDIJ:  cpu time    0.0257: real time    0.0257
     EDDAV:  cpu time    6.6160: real time    6.6241
       DOS:  cpu time    0.0048: real time    0.0048
    --------------------------------------------
      LOOP:  cpu time   10.6552: real time   10.6795

 eigenvalue-minimisations  :   240
 total energy-change (2. order) : 0.7295522E+03  (-0.1379652E+04)
 number of electron      88.0000000 magnetization       8.0000000
 augmentation part       88.0000000 magnetization       8.0000000

 Free energy of the ion-electron system (eV)
  ---------------------------------------------------
  alpha Z        PSCENC =         6.67359669
  Ewald energy   TEWEN  =      8099.92771528
  -Hartree energ DENC   =    -15178.73009872
  -exchange      EXHF   =         0.00000000
  -V(xc)+E(xc)   XCENC  =       118.61058691
  PAW double counting   =      6992.17180065    -6807.49900724
  entropy T*S    EENTRO =        -0.00697705
  eigenvalues    EBANDS =        89.76044977
  atomic energy  EATOM  =      7408.64415014
  Solvation  Ediel_sol  =         0.00000000
  ---------------------------------------------------
  free energy    TOTEN  =       729.55221645 eV

  energy without entropy =      729.55919349  energy(sigma->0) =      729.55454213


--------------------------------------------------------------------------------------------------------




--------------------------------------- Iteration      1(   2)  ---------------------------------------


     EDDAV:  cpu time   10.3599: real time   10.3822
       DOS:  cpu time    0.0080: real time    0.0080
    --------------------------------------------
      LOOP:  cpu time   10.3679: real time   10.3902

 eigenvalue-minimisations  :   432
 total energy-change (2. order) :-0.2841647E+03  (-0.2670763E+03)
 number of electron      88.0000000 magnetization       8.0000000
 augmentation part       88.0000000 magnetization       8.0000000

 Free energy of the ion-electron system (eV)
  ---------------------------------------------------
  alpha Z        PSCENC =         6.67359669
  Ewald energy   TEWEN  =      8099.92771528
  -Hartree energ DENC   =    -15178.73009872
  -exchange      EXHF   =         0.00000000
  -V(xc)+E(xc)   XCENC  =       118.61058691
  PAW double counting   =      6992.17180065    -6807.49900724
  entropy T*S    EENTRO =        -0.06078800
  eigenvalues    EBANDS =      -194.35040469
  atomic energy  EATOM  =      7408.64415014
  Solvation  Ediel_sol  =         0.00000000
  ---------------------------------------------------
  free energy    TOTEN  =       445.38755103 eV

  energy without entropy =      445.44833903  energy(sigma->0) =      445.40781370


--------------------------------------------------------------------------------------------------------




--------------------------------------- Iteration      1(   3)  ---------------------------------------


     EDDAV:  cpu time   10.2387: real time   10.2561
       DOS:  cpu time    0.0052: real time    0.0052
    --------------------------------------------
      LOOP:  cpu time   10.2439: real time   10.2613

 eigenvalue-minimisations  :   416
 total energy-change (2. order) :-0.3164522E+03  (-0.2961196E+03)
 number of electron      88.0000000 magnetization       8.0000000
 augmentation part       88.0000000 magnetization       8.0000000

 Free energy of the ion-electron system (eV)
  ---------------------------------------------------
  alpha Z        PSCENC =         6.67359669
  Ewald energy   TEWEN  =      8099.92771528
  -Hartree energ DENC   =    -15178.73009872
  -exchange      EXHF   =         0.00000000
  -V(xc)+E(xc)   XCENC  =       118.61058691
  PAW double counting   =      6992.17180065    -6807.49900724
  entropy T*S    EENTRO =         0.00071636
  eigenvalues    EBANDS =      -510.86410517
  atomic energy  EATOM  =      7408.64415014
  Solvation  Ediel_sol  =         0.00000000
  ---------------------------------------------------
  free energy    TOTEN  =       128.93535491 eV

  energy without entropy =      128.93463856  energy(sigma->0) =      128.93511613


--------------------------------------------------------------------------------------------------------




--------------------------------------- Iteration      1(   4)  ---------------------------------------


     EDDAV:  cpu time    8.4648: real time    8.4777
       DOS:  cpu time    0.0051: real time    0.0051
    --------------------------------------------
      LOOP:  cpu time    8.4699: real time    8.4828

 eigenvalue-minimisations  :   320
 total energy-change (2. order) :-0.1253654E+03  (-0.1198435E+03)
 number of electron      88.0000000 magnetization       8.0000000
 augmentation part       88.0000000 magnetization       8.0000000

 Free energy of the ion-electron system (eV)
  ---------------------------------------------------
  alpha Z        PSCENC =         6.67359669
  Ewald energy   TEWEN  =      8099.92771528
  -Hartree energ DENC   =    -15178.73009872
  -exchange      EXHF   =         0.00000000
  -V(xc)+E(xc)   XCENC  =       118.61058691
  PAW double counting   =      6992.17180065    -6807.49900724
  entropy T*S    EENTRO =         0.02270421
  eigenvalues    EBANDS =      -636.25151145
  atomic energy  EATOM  =      7408.64415014
  Solvation  Ediel_sol  =         0.00000000
  ---------------------------------------------------
  free energy    TOTEN  =         3.56993647 eV

  energy without entropy =        3.54723227  energy(sigma->0) =        3.56236841


--------------------------------------------------------------------------------------------------------




--------------------------------------- Iteration      1(   5)  ---------------------------------------


     EDDAV:  cpu time    7.3069: real time    7.3182
       DOS:  cpu time    0.0049: real time    0.0049
    CHARGE:  cpu time    0.7987: real time    0.7999
    MIXING:  cpu time    0.0622: real time    0.0623
    --------------------------------------------
      LOOP:  cpu time    8.1728: real time    8.1853

 eigenvalue-minimisations  :   280
 total energy-change (2. order) :-0.1781760E+02  (-0.1625387E+02)
 number of electron      88.0000015 magnetization       7.3349394
 augmentation part       31.2737148 magnetization       5.8971369

 Broyden mixing:
  rms(total) = 0.21772E+01    rms(broyden)= 0.21772E+01
  rms(prec ) = 0.21947E+01
  weight for this iteration     100.00

 Free energy of the ion-electron system (eV)
  ---------------------------------------------------
  alpha Z        PSCENC =         6.67359669
  Ewald energy   TEWEN  =      8099.92771528
  -Hartree energ DENC   =    -15178.73009872
  -exchange      EXHF   =         0.00000000
  -V(xc)+E(xc)   XCENC  =       118.61058691
  PAW double counting   =      6992.17180065    -6807.49900724
  entropy T*S    EENTRO =         0.00519561
  eigenvalues    EBANDS =      -654.05160598
  atomic energy  EATOM  =      7408.64415014
  Solvation  Ediel_sol  =         0.00000000
  ---------------------------------------------------
  free energy    TOTEN  =       -14.24766664 eV

  energy without entropy =      -14.25286225  energy(sigma->0) =      -14.24939851


--------------------------------------------------------------------------------------------------------




--------------------------------------- Iteration      1(   6)  ---------------------------------------


    POTLOK:  cpu time    4.0567: real time    4.0687
    SETDIJ:  cpu time    0.0276: real time    0.0276
     EDDAV:  cpu time    6.2553: real time    6.2653
       DOS:  cpu time    0.0068: real time    0.0068
    CHARGE:  cpu time    0.8311: real time    0.8323
    MIXING:  cpu time    0.0713: real time    0.0714
    --------------------------------------------
      LOOP:  cpu time   11.2488: real time   11.2722

 eigenvalue-minimisations  :   232
 total energy-change (2. order) : 0.7975146E+01  (-0.3860541E+01)
 number of electron      88.0000015 magnetization       6.6060670
 augmentation part       32.3315843 magnetization       4.1177712

 Broyden mixing:
  rms(total) = 0.14432E+01    rms(broyden)= 0.14432E+01
  rms(prec ) = 0.14459E+01
  weight for this iteration     100.00

 eigenvalues of (default mixing * dielectric matrix)
  average eigenvalue GAMMA=   1.0182
  1.0182

 Free energy of the ion-electron system (eV)
  ---------------------------------------------------
  alpha Z        PSCENC =         6.67359669
  Ewald energy   TEWEN  =      8099.92771528
  -Hartree energ DENC   =    -15128.14272868
  -exchange      EXHF   =         0.00000000
  -V(xc)+E(xc)   XCENC  =       122.69608900
  PAW double counting   =      7415.60600986    -7238.89238538
  entropy T*S    EENTRO =         0.02464620
  eigenvalues    EBANDS =      -692.80961346
  atomic energy  EATOM  =      7408.64415014
  Solvation  Ediel_sol  =         0.00000000
  ---------------------------------------------------
  free energy    TOTEN  =        -6.27252035 eV

  energy without entropy =       -6.29716655  energy(sigma->0) =       -6.28073575


--------------------------------------------------------------------------------------------------------




--------------------------------------- Iteration      1(   7)  ---------------------------------------


    POTLOK:  cpu time    4.0527: real time    4.0599
    SETDIJ:  cpu time    0.0283: real time    0.0283
     EDDAV:  cpu time    7.0266: real time    7.0350
       DOS:  cpu time    0.0098: real time    0.0098
    CHARGE:  cpu time    0.8956: real time    0.8967
    MIXING:  cpu time    0.0802: real time    0.0803
    --------------------------------------------
      LOOP:  cpu time   12.0932: real time   12.1100

 eigenvalue-minimisations  :   256
 total energy-change (2. order) : 0.2153097E+01  (-0.2488672E+00)
 number of electron      88.0000015 magnetization       5.8329752
 augmentation part       32.2786541 magnetization       3.3693542

 Broyden mixing:
  rms(total) = 0.64178E+00    rms(broyden)= 0.64178E+00
  rms(prec ) = 0.64278E+00
  weight for this iteration     100.00

 eigenvalues of (default mixing * dielectric matrix)
  average eigenvalue GAMMA=   1.2277
  0.7138  1.7415

 Free energy of the ion-electron system (eV)
  ---------------------------------------------------
  alpha Z        PSCENC =         6.67359669
  Ewald energy   TEWEN  =      8099.92771528
  -Hartree energ DENC   =    -15142.37901782
  -exchange      EXHF   =         0.00000000
  -V(xc)+E(xc)   XCENC  =       124.94023915
  PAW double counting   =      7821.17449766    -7648.98795079
  entropy T*S    EENTRO =         0.01894324
  eigenvalues    EBANDS =      -674.13159643
  atomic energy  EATOM  =      7408.64415014
  Solvation  Ediel_sol  =         0.00000000
  ---------------------------------------------------
  free energy    TOTEN  =        -4.11942288 eV

  energy without entropy =       -4.13836612  energy(sigma->0) =       -4.12573729


--------------------------------------------------------------------------------------------------------




--------------------------------------- Iteration      1(   8)  ---------------------------------------


    POTLOK:  cpu time    4.0718: real time    4.0829
    SETDIJ:  cpu time    0.0268: real time    0.0268
     EDDAV:  cpu time    6.9374: real time    6.9455
       DOS:  cpu time    0.0119: real time    0.0119
    CHARGE:  cpu time    0.7912: real time    0.7949
    MIXING:  cpu time    0.0760: real time    0.0762
    --------------------------------------------
      LOOP:  cpu time   11.9149: real time   11.9380

 eigenvalue-minimisations  :   256
 total energy-change (2. order) :-0.3656492E+01  (-0.1341212E+00)
 number of electron      88.0000015 magnetization       5.4313441
 augmentation part       32.1888069 magnetization       3.0707749

 Broyden mixing:
  rms(total) = 0.19736E+00    rms(broyden)= 0.19736E+00
  rms(prec ) = 0.19945E+00
  weight for this iteration     100.00

 eigenvalues of (default mixing * dielectric matrix)
  average eigenvalue GAMMA=   1.2614
  2.1248  1.0138  0.6457

 Free energy of the ion-electron system (eV)
  ---------------------------------------------------
  alpha Z        PSCENC =         6.67359669
  Ewald energy   TEWEN  =      8099.92771528
  -Hartree energ DENC   =    -15150.26287089
  -exchange      EXHF   =         0.00000000
  -V(xc)+E(xc)   XCENC  =       122.19963751
  PAW double counting   =      8106.39661346    -7937.24094948
  entropy T*S    EENTRO =         0.02110978
  eigenvalues    EBANDS =      -664.13491731
  atomic energy  EATOM  =      7408.64415014
  Solvation  Ediel_sol  =         0.00000000
  ---------------------------------------------------
  free energy    TOTEN  =        -7.77591482 eV

  energy without entropy =       -7.79702460  energy(sigma->0) =       -7.78295141


--------------------------------------------------------------------------------------------------------




--------------------------------------- Iteration      1(   9)  ---------------------------------------


    POTLOK:  cpu time    4.0278: real time    4.0342
    SETDIJ:  cpu time    0.0271: real time    0.0271
     EDDAV:  cpu time    6.1935: real time    6.2040
       DOS:  cpu time    0.0037: real time    0.0037
    CHARGE:  cpu time    0.7731: real time    0.7739
    MIXING:  cpu time    0.0840: real time    0.0841
    --------------------------------------------
      LOOP:  cpu time   11.1091: real time   11.1269

 eigenvalue-minimisations  :   224
 total energy-change (2. order) :-0.1949243E+01  (-0.4387327E-01)
 number of electron      88.0000015 magnetization       4.8805282
 augmentation part       32.1967683 magnetization       2.5370140

 Broyden mixing:
  rms(total) = 0.11137E+00    rms(broyden)= 0.11137E+00
  rms(prec ) = 0.11288E+00
  weight for this iteration     100.00

 eigenvalues of (default mixing * dielectric matrix)
  average eigenvalue GAMMA=   1.2751
  2.2915  1.3248  0.8559  0.6281

 Free energy of the ion-electron system (eV)
  ---------------------------------------------------
  alpha Z        PSCENC =         6.67359669
  Ewald energy   TEWEN  =      8099.92771528
  -Hartree energ DENC   =    -15147.21432967
  -exchange      EXHF   =         0.00000000
  -V(xc)+E(xc)   XCENC  =       120.56337434
  PAW double counting   =      8136.12027019    -7967.48395976
  entropy T*S    EENTRO =         0.02846568
  eigenvalues    EBANDS =      -666.98444101
  atomic energy  EATOM  =      7408.64415014
  Solvation  Ediel_sol  =         0.00000000
  ---------------------------------------------------
  free energy    TOTEN  =        -9.72515811 eV

  energy without entropy =       -9.75362379  energy(sigma->0) =       -9.73464667


--------------------------------------------------------------------------------------------------------




--------------------------------------- Iteration      1(  10)  ---------------------------------------


    POTLOK:  cpu time    4.0150: real time    4.0248
    SETDIJ:  cpu time    0.0275: real time    0.0276
     EDDAV:  cpu time    6.3096: real time    6.3173
       DOS:  cpu time    0.0059: real time    0.0059
    CHARGE:  cpu time    0.8504: real time    0.8514
    MIXING:  cpu time    0.0927: real time    0.0929
    --------------------------------------------
      LOOP:  cpu time   11.3011: real time   11.3199

 eigenvalue-minimisations  :   224
 total energy-change (2. order) :-0.1951655E+01  (-0.5169771E-01)
 number of electron      88.0000015 magnetization       4.3198311
 augmentation part       32.2202335 magnetization       2.0682420

 Broyden mixing:
  rms(total) = 0.77444E-01    rms(broyden)= 0.77443E-01
  rms(prec ) = 0.78098E-01
  weight for this iteration     100.00

 eigenvalues of (default mixing * dielectric matrix)
  average eigenvalue GAMMA=   1.3132
  2.6328  1.6117  0.8380  0.8380  0.6455

 Free energy of the ion-electron system (eV)
  ---------------------------------------------------
  alpha Z        PSCENC =         6.67359669
  Ewald energy   TEWEN  =      8099.92771528
  -Hartree energ DENC   =    -15142.78889284
  -exchange      EXHF   =         0.00000000
  -V(xc)+E(xc)   XCENC  =       118.87265265
  PAW double counting   =      8141.45662587    -7973.22053476
  entropy T*S    EENTRO =         0.03013563
  eigenvalues    EBANDS =      -671.27226203
  atomic energy  EATOM  =      7408.64415014
  Solvation  Ediel_sol  =         0.00000000
  ---------------------------------------------------
  free energy    TOTEN  =       -11.67681336 eV

  energy without entropy =      -11.70694899  energy(sigma->0) =      -11.68685857


--------------------------------------------------------------------------------------------------------




--------------------------------------- Iteration      1(  11)  ---------------------------------------


    POTLOK:  cpu time    4.0810: real time    4.0865
    SETDIJ:  cpu time    0.0255: real time    0.0255
     EDDAV:  cpu time    6.4234: real time    6.4315
       DOS:  cpu time    0.0050: real time    0.0050
    CHARGE:  cpu time    0.8429: real time    0.8439
    MIXING:  cpu time    0.0976: real time    0.0977
    --------------------------------------------
      LOOP:  cpu time   11.4753: real time   11.4900

 eigenvalue-minimisations  :   232
 total energy-change (2. order) :-0.1253818E+01  (-0.2680253E-01)
 number of electron      88.0000015 magnetization       4.0392566
 augmentation part       32.2349702 magnetization       1.9861812

 Broyden mixing:
  rms(total) = 0.64117E-01    rms(broyden)= 0.64117E-01
  rms(prec ) = 0.65118E-01
  weight for this iteration     100.00

 eigenvalues of (default mixing * dielectric matrix)
  average eigenvalue GAMMA=   1.2260
  2.6631  1.5280  0.9289  0.9289  0.6535  0.6535

 Free energy of the ion-electron system (eV)
  ---------------------------------------------------
  alpha Z        PSCENC =         6.67359669
  Ewald energy   TEWEN  =      8099.92771528
  -Hartree energ DENC   =    -15139.61130655
  -exchange      EXHF   =         0.00000000
  -V(xc)+E(xc)   XCENC  =       117.74066203
  PAW double counting   =      8133.22626195    -7965.16158256
  entropy T*S    EENTRO =         0.01637477
  eigenvalues    EBANDS =      -674.38650319
  atomic energy  EATOM  =      7408.64415014
  Solvation  Ediel_sol  =         0.00000000
  ---------------------------------------------------
  free energy    TOTEN  =       -12.93063145 eV

  energy without entropy =      -12.94700622  energy(sigma->0) =      -12.93608971


--------------------------------------------------------------------------------------------------------




--------------------------------------- Iteration      1(  12)  ---------------------------------------


    POTLOK:  cpu time    3.9783: real time    3.9838
    SETDIJ:  cpu time    0.0264: real time    0.0264
     EDDAV:  cpu time    7.3248: real time    7.3340
       DOS:  cpu time    0.0046: real time    0.0046
    CHARGE:  cpu time    0.7740: real time    0.7751
    MIXING:  cpu time    0.1035: real time    0.1037
    --------------------------------------------
      LOOP:  cpu time   12.2117: real time   12.2276

 eigenvalue-minimisations  :   280
 total energy-change (2. order) :-0.2638530E+00  (-0.2638234E-02)
 number of electron      88.0000015 magnetization       3.2093413
 augmentation part       32.2325128 magnetization       1.2123497

 Broyden mixing:
  rms(total) = 0.54502E-01    rms(broyden)= 0.54502E-01
  rms(prec ) = 0.55222E-01
  weight for this iteration     100.00

 eigenvalues of (default mixing * dielectric matrix)
  average eigenvalue GAMMA=   1.3659
  3.1527  2.1473  1.0716  1.0716  0.8372  0.6403  0.6403

 Free energy of the ion-electron system (eV)
  ---------------------------------------------------
  alpha Z        PSCENC =         6.67359669
  Ewald energy   TEWEN  =      8099.92771528
  -Hartree energ DENC   =    -15138.64164745
  -exchange      EXHF   =         0.00000000
  -V(xc)+E(xc)   XCENC  =       117.48006506
  PAW double counting   =      8124.55531608    -7956.44076617
  entropy T*S    EENTRO =         0.01324518
  eigenvalues    EBANDS =      -675.40615927
  atomic energy  EATOM  =      7408.64415014
  Solvation  Ediel_sol  =         0.00000000
  ---------------------------------------------------
  free energy    TOTEN  =       -13.19448447 eV

  energy without entropy =      -13.20772965  energy(sigma->0) =      -13.19889953


--------------------------------------------------------------------------------------------------------




--------------------------------------- Iteration      1(  13)  ---------------------------------------


    POTLOK:  cpu time    4.0217: real time    4.0283
    SETDIJ:  cpu time    0.0270: real time    0.0270
     EDDAV:  cpu time    6.4914: real time    6.4988
       DOS:  cpu time    0.0099: real time    0.0099
    CHARGE:  cpu time    0.8059: real time    0.8069
    MIXING:  cpu time    0.1116: real time    0.1117
    --------------------------------------------
      LOOP:  cpu time   11.4676: real time   11.4826

 eigenvalue-minimisations  :   232
 total energy-change (2. order) :-0.9034769E+00  (-0.1863951E-01)
 number of electron      88.0000014 magnetization       2.7227067
 augmentation part       32.2574173 magnetization       0.9946587

 Broyden mixing:
  rms(total) = 0.50697E-01    rms(broyden)= 0.50695E-01
  rms(prec ) = 0.52227E-01
  weight for this iteration     100.00

 eigenvalues of (default mixing * dielectric matrix)
  average eigenvalue GAMMA=   1.4460
  3.7761  2.3086  1.3579  1.3579  0.8403  0.8008  0.6394  0.4874

 Free energy of the ion-electron system (eV)
  ---------------------------------------------------
  alpha Z        PSCENC =         6.67359669
  Ewald energy   TEWEN  =      8099.92771528
  -Hartree energ DENC   =    -15134.48807651
  -exchange      EXHF   =         0.00000000
  -V(xc)+E(xc)   XCENC  =       116.57044984
  PAW double counting   =      8101.14210904    -7932.90380143
  entropy T*S    EENTRO =        -0.00569632
  eigenvalues    EBANDS =      -679.65840807
  atomic energy  EATOM  =      7408.64415014
  Solvation  Ediel_sol  =         0.00000000
  ---------------------------------------------------
  free energy    TOTEN  =       -14.09796133 eV

  energy without entropy =      -14.09226501  energy(sigma->0) =      -14.09606256


--------------------------------------------------------------------------------------------------------




--------------------------------------- Iteration      1(  14)  ---------------------------------------


    POTLOK:  cpu time    3.9997: real time    4.0037
    SETDIJ:  cpu time    0.0268: real time    0.0268
     EDDAV:  cpu time    6.7474: real time    6.7580
       DOS:  cpu time    0.0038: real time    0.0038
    CHARGE:  cpu time    0.8295: real time    0.8312
    MIXING:  cpu time    0.1151: real time    0.1152
    --------------------------------------------
      LOOP:  cpu time   11.7223: real time   11.7386

 eigenvalue-minimisations  :   256
 total energy-change (2. order) :-0.2587793E+00  (-0.4210679E-02)
 number of electron      88.0000014 magnetization       2.2831257
 augmentation part       32.2482576 magnetization       0.6347832

 Broyden mixing:
  rms(total) = 0.28737E-01    rms(broyden)= 0.28736E-01
  rms(prec ) = 0.29606E-01
  weight for this iteration     100.00

 eigenvalues of (default mixing * dielectric matrix)
  average eigenvalue GAMMA=   1.6158
  5.3854  2.3475  1.5709  1.5709  1.0052  0.8465  0.6490  0.6490  0.5176

 Free energy of the ion-electron system (eV)
  ---------------------------------------------------
  alpha Z        PSCENC =         6.67359669
  Ewald energy   TEWEN  =      8099.92771528
  -Hartree energ DENC   =    -15133.69990994
  -exchange      EXHF   =         0.00000000
  -V(xc)+E(xc)   XCENC  =       116.31645939
  PAW double counting   =      8101.55268351    -7933.23406011
  entropy T*S    EENTRO =        -0.00785472
  eigenvalues    EBANDS =      -680.52952083
  atomic energy  EATOM  =      7408.64415014
  Solvation  Ediel_sol  =         0.00000000
  ---------------------------------------------------
  free energy    TOTEN  =       -14.35674059 eV

  energy without entropy =      -14.34888587  energy(sigma->0) =      -14.35412235


--------------------------------------------------------------------------------------------------------




--------------------------------------- Iteration      1(  15)  ---------------------------------------


    POTLOK:  cpu time    3.9745: real time    3.9828
    SETDIJ:  cpu time    0.0283: real time    0.0283
     EDDAV:  cpu time    6.3848: real time    6.3932
       DOS:  cpu time    0.0080: real time    0.0080
    CHARGE:  cpu time    0.8061: real time    0.8070
    MIXING:  cpu time    0.1354: real time    0.1355
    --------------------------------------------
      LOOP:  cpu time   11.3370: real time   11.3548

 eigenvalue-minimisations  :   240
 total energy-change (2. order) :-0.2337460E+00  (-0.2744932E-02)
 number of electron      88.0000014 magnetization       1.9342125
 augmentation part       32.2493703 magnetization       0.3857632

 Broyden mixing:
  rms(total) = 0.19863E-01    rms(broyden)= 0.19862E-01
  rms(prec ) = 0.20530E-01
  weight for this iteration     100.00

 eigenvalues of (default mixing * dielectric matrix)
  average eigenvalue GAMMA=   1.6855
  6.5957  2.4812  1.6504  1.6504  0.9586  0.8629  0.8629  0.6500  0.6500  0.4932

 Free energy of the ion-electron system (eV)
  ---------------------------------------------------
  alpha Z        PSCENC =         6.67359669
  Ewald energy   TEWEN  =      8099.92771528
  -Hartree energ DENC   =    -15132.43693157
  -exchange      EXHF   =         0.00000000
  -V(xc)+E(xc)   XCENC  =       116.07337214
  PAW double counting   =      8102.16889352    -7933.78416536
  entropy T*S    EENTRO =        -0.01357362
  eigenvalues    EBANDS =      -681.84354383
  atomic energy  EATOM  =      7408.64415014
  Solvation  Ediel_sol  =         0.00000000
  ---------------------------------------------------
  free energy    TOTEN  =       -14.59048660 eV

  energy without entropy =      -14.57691298  energy(sigma->0) =      -14.58596206


--------------------------------------------------------------------------------------------------------




--------------------------------------- Iteration      1(  16)  ---------------------------------------


    POTLOK:  cpu time    4.1000: real time    4.1043
    SETDIJ:  cpu time    0.0276: real time    0.0276
     EDDAV:  cpu time    6.5862: real time    6.5939
       DOS:  cpu time    0.0102: real time    0.0102
    CHARGE:  cpu time    0.9544: real time    0.9556
    MIXING:  cpu time    0.1823: real time    0.1825
    --------------------------------------------
      LOOP:  cpu time   11.8606: real time   11.8741

 eigenvalue-minimisations  :   240
 total energy-change (2. order) :-0.1914908E+00  (-0.1370757E-02)
 number of electron      88.0000014 magnetization       1.5980632
 augmentation part       32.2519499 magnetization       0.1469843

 Broyden mixing:
  rms(total) = 0.13718E-01    rms(broyden)= 0.13717E-01
  rms(prec ) = 0.14334E-01
  weight for this iteration     100.00

 eigenvalues of (default mixing * dielectric matrix)
  average eigenvalue GAMMA=   1.8405
  8.3008  2.5463  1.8803  1.8277  1.1272  1.0355  1.0355  0.7291  0.6487  0.5997
  0.5148

 Free energy of the ion-electron system (eV)
  ---------------------------------------------------
  alpha Z        PSCENC =         6.67359669
  Ewald energy   TEWEN  =      8099.92771528
  -Hartree energ DENC   =    -15131.25376369
  -exchange      EXHF   =         0.00000000
  -V(xc)+E(xc)   XCENC  =       115.86360155
  PAW double counting   =      8102.74231062    -7934.32404645
  entropy T*S    EENTRO =        -0.01984721
  eigenvalues    EBANDS =      -683.03569433
  atomic energy  EATOM  =      7408.64415014
  Solvation  Ediel_sol  =         0.00000000
  ---------------------------------------------------
  free energy    TOTEN  =       -14.78197740 eV

  energy without entropy =      -14.76213019  energy(sigma->0) =      -14.77536167


--------------------------------------------------------------------------------------------------------




--------------------------------------- Iteration      1(  17)  ---------------------------------------


    POTLOK:  cpu time    4.0998: real time    4.1052
    SETDIJ:  cpu time    0.0257: real time    0.0258
     EDDAV:  cpu time    6.7215: real time    6.7292
       DOS:  cpu time    0.0045: real time    0.0045
    CHARGE:  cpu time    0.8396: real time    0.8405
    MIXING:  cpu time    0.1459: real time    0.1460
    --------------------------------------------
      LOOP:  cpu time   11.8370: real time   11.8512

 eigenvalue-minimisations  :   248
 total energy-change (2. order) :-0.1467215E+00  (-0.7349992E-03)
 number of electron      88.0000014 magnetization       1.4377387
 augmentation part       32.2512918 magnetization       0.0751361

 Broyden mixing:
  rms(total) = 0.66012E-02    rms(broyden)= 0.65997E-02
  rms(prec ) = 0.70972E-02
  weight for this iteration     100.00

 eigenvalues of (default mixing * dielectric matrix)
  average eigenvalue GAMMA=   1.9472
  9.6797  2.5707  2.5707  1.7451  1.2610  1.0799  1.0799  0.8906  0.7238  0.6291
  0.6291  0.5066

 Free energy of the ion-electron system (eV)
  ---------------------------------------------------
  alpha Z        PSCENC =         6.67359669
  Ewald energy   TEWEN  =      8099.92771528
  -Hartree energ DENC   =    -15130.36529037
  -exchange      EXHF   =         0.00000000
  -V(xc)+E(xc)   XCENC  =       115.70403522
  PAW double counting   =      8105.98371602    -7937.55240935
  entropy T*S    EENTRO =        -0.02587780
  eigenvalues    EBANDS =      -683.91833478
  atomic energy  EATOM  =      7408.64415014
  Solvation  Ediel_sol  =         0.00000000
  ---------------------------------------------------
  free energy    TOTEN  =       -14.92869894 eV

  energy without entropy =      -14.90282114  energy(sigma->0) =      -14.92007301


--------------------------------------------------------------------------------------------------------




--------------------------------------- Iteration      1(  18)  ---------------------------------------


    POTLOK:  cpu time    3.9851: real time    3.9933
    SETDIJ:  cpu time    0.0277: real time    0.0278
     EDDAV:  cpu time    6.0799: real time    6.0870
       DOS:  cpu time    0.0093: real time    0.0093
    CHARGE:  cpu time    0.7630: real time    0.7640
    MIXING:  cpu time    0.1565: real time    0.1567
    --------------------------------------------
      LOOP:  cpu time   11.0215: real time   11.0380

 eigenvalue-minimisations  :   216
 total energy-change (2. order) :-0.5150617E-01  (-0.1206384E-03)
 number of electron      88.0000014 magnetization       1.3232087
 augmentation part       32.2507025 magnetization       0.0079814

 Broyden mixing:
  rms(total) = 0.41791E-02    rms(broyden)= 0.41785E-02
  rms(prec ) = 0.45950E-02
  weight for this iteration     100.00

 eigenvalues of (default mixing * dielectric matrix)
  average eigenvalue GAMMA=   1.9869
 10.5889  3.0222  2.3654  1.9356  1.3889  1.3889  0.9332  0.9332  0.8370  0.5091
  0.6825  0.6222  0.6222

 Free energy of the ion-electron system (eV)
  ---------------------------------------------------
  alpha Z        PSCENC =         6.67359669
  Ewald energy   TEWEN  =      8099.92771528
  -Hartree energ DENC   =    -15129.94319156
  -exchange      EXHF   =         0.00000000
  -V(xc)+E(xc)   XCENC  =       115.64905538
  PAW double counting   =      8107.05107943    -7938.61787448
  entropy T*S    EENTRO =        -0.02882916
  eigenvalues    EBANDS =      -684.33590685
  atomic energy  EATOM  =      7408.64415014
  Solvation  Ediel_sol  =         0.00000000
  ---------------------------------------------------
  free energy    TOTEN  =       -14.98020512 eV

  energy without entropy =      -14.95137596  energy(sigma->0) =      -14.97059540


--------------------------------------------------------------------------------------------------------




--------------------------------------- Iteration      1(  19)  ---------------------------------------


    POTLOK:  cpu time    3.9747: real time    3.9803
    SETDIJ:  cpu time    0.0282: real time    0.0282
     EDDAV:  cpu time    5.9518: real time    5.9589
       DOS:  cpu time    0.0101: real time    0.0101
    CHARGE:  cpu time    0.8345: real time    0.8354
    MIXING:  cpu time    0.1890: real time    0.1892
    --------------------------------------------
      LOOP:  cpu time   10.9883: real time   11.0023

 eigenvalue-minimisations  :   208
 total energy-change (2. order) :-0.2469736E-01  (-0.6093101E-04)
 number of electron      88.0000014 magnetization       1.2605771
 augmentation part       32.2508087 magnetization      -0.0200007

 Broyden mixing:
  rms(total) = 0.24886E-02    rms(broyden)= 0.24882E-02
  rms(prec ) = 0.28106E-02
  weight for this iteration     100.00

 eigenvalues of (default mixing * dielectric matrix)
  average eigenvalue GAMMA=   2.0279
 11.2936  3.2969  2.4208  2.1695  1.8069  1.2173  1.2173  0.8921  0.8921  0.8031
  0.5082  0.6295  0.6295  0.6140

 Free energy of the ion-electron system (eV)
  ---------------------------------------------------
  alpha Z        PSCENC =         6.67359669
  Ewald energy   TEWEN  =      8099.92771528
  -Hartree energ DENC   =    -15129.57050049
  -exchange      EXHF   =         0.00000000
  -V(xc)+E(xc)   XCENC  =       115.62129811
  PAW double counting   =      8107.03021197    -7938.59642017
  entropy T*S    EENTRO =        -0.03107265
  eigenvalues    EBANDS =      -684.70388135
  atomic energy  EATOM  =      7408.64415014
  Solvation  Ediel_sol  =         0.00000000
  ---------------------------------------------------
  free energy    TOTEN  =       -15.00490247 eV

  energy without entropy =      -14.97382982  energy(sigma->0) =      -14.99454492


--------------------------------------------------------------------------------------------------------




--------------------------------------- Iteration      1(  20)  ---------------------------------------


    POTLOK:  cpu time    4.1898: real time    4.1959
    SETDIJ:  cpu time    0.0280: real time    0.0280
     EDDAV:  cpu time    5.1741: real time    5.1828
       DOS:  cpu time    0.0009: real time    0.0009
    CHARGE:  cpu time    0.8557: real time    0.8567
    MIXING:  cpu time    0.1889: real time    0.1919
    --------------------------------------------
      LOOP:  cpu time   10.4374: real time   10.4562

 eigenvalue-minimisations  :   168
 total energy-change (2. order) :-0.1013221E-01  (-0.2212414E-04)
 number of electron      88.0000014 magnetization       1.2341024
 augmentation part       32.2507786 magnetization      -0.0286360

 Broyden mixing:
  rms(total) = 0.14040E-02    rms(broyden)= 0.14038E-02
  rms(prec ) = 0.16662E-02
  weight for this iteration     100.00

 eigenvalues of (default mixing * dielectric matrix)
  average eigenvalue GAMMA=   2.0310
 11.6467  3.6214  2.6696  2.1644  1.9441  1.2714  1.2714  0.9556  0.9556  0.8562
  0.7334  0.5084  0.6325  0.6325  0.6025

 Free energy of the ion-electron system (eV)
  ---------------------------------------------------
  alpha Z        PSCENC =         6.67359669
  Ewald energy   TEWEN  =      8099.92771528
  -Hartree energ DENC   =    -15129.34347373
  -exchange      EXHF   =         0.00000000
  -V(xc)+E(xc)   XCENC  =       115.61056912
  PAW double counting   =      8106.86468206    -7938.43287062
  entropy T*S    EENTRO =        -0.03216599
  eigenvalues    EBANDS =      -684.92723764
  atomic energy  EATOM  =      7408.64415014
  Solvation  Ediel_sol  =         0.00000000
  ---------------------------------------------------
  free energy    TOTEN  =       -15.01503469 eV

  energy without entropy =      -14.98286870  energy(sigma->0) =      -15.00431269


--------------------------------------------------------------------------------------------------------




--------------------------------------- Iteration      1(  21)  ---------------------------------------


    POTLOK:  cpu time    4.0200: real time    4.0270
    SETDIJ:  cpu time    0.0267: real time    0.0267
     EDDAV:  cpu time    5.0179: real time    5.0244
       DOS:  cpu time    0.0102: real time    0.0103
    CHARGE:  cpu time    0.8266: real time    0.8275
    MIXING:  cpu time    0.1954: real time    0.1956
    --------------------------------------------
      LOOP:  cpu time   10.0968: real time   10.1115

 eigenvalue-minimisations  :   168
 total energy-change (2. order) :-0.6126130E-02  (-0.8910945E-05)
 number of electron      88.0000014 magnetization       1.2185129
 augmentation part       32.2508982 magnetization      -0.0376314

 Broyden mixing:
  rms(total) = 0.96937E-03    rms(broyden)= 0.96930E-03
  rms(prec ) = 0.11686E-02
  weight for this iteration     100.00

 eigenvalues of (default mixing * dielectric matrix)
  average eigenvalue GAMMA=   2.0297
 11.8200  3.9517  2.8094  2.2476  1.8873  1.7397  1.1809  1.1809  0.8909  0.8506
  0.8506  0.5083  0.6799  0.6467  0.6153  0.6153

 Free energy of the ion-electron system (eV)
  ---------------------------------------------------
  alpha Z        PSCENC =         6.67359669
  Ewald energy   TEWEN  =      8099.92771528
  -Hartree energ DENC   =    -15129.19144557
  -exchange      EXHF   =         0.00000000
  -V(xc)+E(xc)   XCENC  =       115.60409180
  PAW double counting   =      8106.67165998    -7938.24093025
  entropy T*S    EENTRO =        -0.03253609
  eigenvalues    EBANDS =      -685.07746279
  atomic energy  EATOM  =      7408.64415014
  Solvation  Ediel_sol  =         0.00000000
  ---------------------------------------------------
  free energy    TOTEN  =       -15.02116082 eV

  energy without entropy =      -14.98862472  energy(sigma->0) =      -15.01031545


--------------------------------------------------------------------------------------------------------




--------------------------------------- Iteration      1(  22)  ---------------------------------------


    POTLOK:  cpu time    3.9668: real time    3.9915
    SETDIJ:  cpu time    0.0259: real time    0.0259
     EDDAV:  cpu time    4.8826: real time    4.8883
       DOS:  cpu time    0.0009: real time    0.0009
    CHARGE:  cpu time    0.8356: real time    0.8365
    MIXING:  cpu time    0.2102: real time    0.2104
    --------------------------------------------
      LOOP:  cpu time    9.9220: real time    9.9536

 eigenvalue-minimisations  :   160
 total energy-change (2. order) :-0.4692715E-02  (-0.4973747E-05)
 number of electron      88.0000014 magnetization       1.2087095
 augmentation part       32.2509919 magnetization      -0.0446185

 Broyden mixing:
  rms(total) = 0.67458E-03    rms(broyden)= 0.67456E-03
  rms(prec ) = 0.80939E-03
  weight for this iteration     100.00

 eigenvalues of (default mixing * dielectric matrix)
  average eigenvalue GAMMA=   2.0279
 11.8805  4.3836  2.7909  2.3865  2.1855  1.7203  1.2672  1.2672  0.9557  0.9557
  0.8533  0.7759  0.5083  0.6785  0.6311  0.6311  0.6035

 Free energy of the ion-electron system (eV)
  ---------------------------------------------------
  alpha Z        PSCENC =         6.67359669
  Ewald energy   TEWEN  =      8099.92771528
  -Hartree energ DENC   =    -15129.06192840
  -exchange      EXHF   =         0.00000000
  -V(xc)+E(xc)   XCENC  =       115.59887405
  PAW double counting   =      8106.48885457    -7938.05700032
  entropy T*S    EENTRO =        -0.03274128
  eigenvalues    EBANDS =      -685.20737426
  atomic energy  EATOM  =      7408.64415014
  Solvation  Ediel_sol  =         0.00000000
  ---------------------------------------------------
  free energy    TOTEN  =       -15.02585353 eV

  energy without entropy =      -14.99311225  energy(sigma->0) =      -15.01493977


--------------------------------------------------------------------------------------------------------




--------------------------------------- Iteration      1(  23)  ---------------------------------------


    POTLOK:  cpu time    4.0417: real time    4.0534
    SETDIJ:  cpu time    0.0297: real time    0.0298
     EDDAV:  cpu time    5.2675: real time    5.2737
       DOS:  cpu time    0.0009: real time    0.0009
    CHARGE:  cpu time    0.9458: real time    0.9468
    MIXING:  cpu time    0.2614: real time    0.2617
    --------------------------------------------
      LOOP:  cpu time   10.5471: real time   10.5663

 eigenvalue-minimisations  :   168
 total energy-change (2. order) :-0.3409578E-02  (-0.3517553E-05)
 number of electron      88.0000014 magnetization       1.2034611
 augmentation part       32.2509490 magnetization      -0.0489645

 Broyden mixing:
  rms(total) = 0.44731E-03    rms(broyden)= 0.44730E-03
  rms(prec ) = 0.53282E-03
  weight for this iteration     100.00

 eigenvalues of (default mixing * dielectric matrix)
  average eigenvalue GAMMA=   2.0629
 11.8839  5.0687  3.2610  2.3925  2.3925  1.9596  1.3690  1.2357  1.0431  1.0431
  0.8549  0.8549  0.7539  0.5083  0.6582  0.6301  0.6141  0.6084

 Free energy of the ion-electron system (eV)
  ---------------------------------------------------
  alpha Z        PSCENC =         6.67359669
  Ewald energy   TEWEN  =      8099.92771528
  -Hartree energ DENC   =    -15128.95109179
  -exchange      EXHF   =         0.00000000
  -V(xc)+E(xc)   XCENC  =       115.59501364
  PAW double counting   =      8106.42186690    -7937.98884101
  entropy T*S    EENTRO =        -0.03279615
  eigenvalues    EBANDS =      -685.31887683
  atomic energy  EATOM  =      7408.64415014
  Solvation  Ediel_sol  =         0.00000000
  ---------------------------------------------------
  free energy    TOTEN  =       -15.02926311 eV

  energy without entropy =      -14.99646697  energy(sigma->0) =      -15.01833106


--------------------------------------------------------------------------------------------------------




--------------------------------------- Iteration      1(  24)  ---------------------------------------


    POTLOK:  cpu time    4.0266: real time    4.0361
    SETDIJ:  cpu time    0.0279: real time    0.0279
     EDDAV:  cpu time    5.0109: real time    5.0194
       DOS:  cpu time    0.0103: real time    0.0104
    CHARGE:  cpu time    0.8322: real time    0.8332
    MIXING:  cpu time    0.2488: real time    0.2491
    --------------------------------------------
      LOOP:  cpu time   10.1567: real time   10.1760

 eigenvalue-minimisations  :   160
 total energy-change (2. order) :-0.1850097E-02  (-0.2822764E-05)
 number of electron      88.0000014 magnetization       1.1999448
 augmentation part       32.2510417 magnetization      -0.0525508

 Broyden mixing:
  rms(total) = 0.23189E-03    rms(broyden)= 0.23187E-03
  rms(prec ) = 0.28458E-03
  weight for this iteration     100.00

 eigenvalues of (default mixing * dielectric matrix)
  average eigenvalue GAMMA=   2.1142
 11.9654  6.3385  3.5338  2.5335  2.5335  1.8733  1.6622  1.1420  1.1420  1.1377
  0.8735  0.8735  0.8294  0.5083  0.7014  0.6726  0.6263  0.6263  0.5972

 Free energy of the ion-electron system (eV)
  ---------------------------------------------------
  alpha Z        PSCENC =         6.67359669
  Ewald energy   TEWEN  =      8099.92771528
  -Hartree energ DENC   =    -15128.84536871
  -exchange      EXHF   =         0.00000000
  -V(xc)+E(xc)   XCENC  =       115.59225006
  PAW double counting   =      8106.41172596    -7937.97850904
  entropy T*S    EENTRO =        -0.03279519
  eigenvalues    EBANDS =      -685.42387839
  atomic energy  EATOM  =      7408.64415014
  Solvation  Ediel_sol  =         0.00000000
  ---------------------------------------------------
  free energy    TOTEN  =       -15.03111321 eV

  energy without entropy =      -14.99831802  energy(sigma->0) =      -15.02018148


--------------------------------------------------------------------------------------------------------




--------------------------------------- Iteration      1(  25)  ---------------------------------------


    POTLOK:  cpu time    4.0086: real time    4.0137
    SETDIJ:  cpu time    0.0340: real time    0.0341
     EDDAV:  cpu time    5.1748: real time    5.1836
       DOS:  cpu time    0.0106: real time    0.0106
    CHARGE:  cpu time    0.7872: real time    0.7883
    MIXING:  cpu time    0.2448: real time    0.2451
    --------------------------------------------
      LOOP:  cpu time   10.2601: real time   10.2754

 eigenvalue-minimisations  :   168
 total energy-change (2. order) :-0.7712962E-03  (-0.9747596E-06)
 number of electron      88.0000014 magnetization       1.1986779
 augmentation part       32.2510310 magnetization      -0.0539340

 Broyden mixing:
  rms(total) = 0.16163E-03    rms(broyden)= 0.16162E-03
  rms(prec ) = 0.19034E-03
  weight for this iteration     100.00

 eigenvalues of (default mixing * dielectric matrix)
  average eigenvalue GAMMA=   2.1236
 12.0354  7.0648  3.5497  2.7390  2.4306  1.9138  1.9138  1.2886  1.2886  0.9860
  0.9860  0.9570  0.8512  0.7602  0.5083  0.6734  0.6734  0.6281  0.6281  0.5954

 Free energy of the ion-electron system (eV)
  ---------------------------------------------------
  alpha Z        PSCENC =         6.67359669
  Ewald energy   TEWEN  =      8099.92771528
  -Hartree energ DENC   =    -15128.78673582
  -exchange      EXHF   =         0.00000000
  -V(xc)+E(xc)   XCENC  =       115.59094932
  PAW double counting   =      8106.46638972    -7938.03300591
  entropy T*S    EENTRO =        -0.03281349
  eigenvalues    EBANDS =      -685.48213045
  atomic energy  EATOM  =      7408.64415014
  Solvation  Ediel_sol  =         0.00000000
  ---------------------------------------------------
  free energy    TOTEN  =       -15.03188451 eV

  energy without entropy =      -14.99907102  energy(sigma->0) =      -15.02094668


--------------------------------------------------------------------------------------------------------




--------------------------------------- Iteration      1(  26)  ---------------------------------------


    POTLOK:  cpu time    3.9588: real time    3.9682
    SETDIJ:  cpu time    0.0296: real time    0.0297
     EDDAV:  cpu time    5.1317: real time    5.1374
       DOS:  cpu time    0.0148: real time    0.0148
    CHARGE:  cpu time    0.8290: real time    0.8299
    MIXING:  cpu time    0.2770: real time    0.2774
    --------------------------------------------
      LOOP:  cpu time   10.2409: real time   10.2573

 eigenvalue-minimisations  :   160
 total energy-change (2. order) :-0.3387263E-03  (-0.2858539E-06)
 number of electron      88.0000014 magnetization       1.1982048
 augmentation part       32.2510394 magnetization      -0.0544082

 Broyden mixing:
  rms(total) = 0.98164E-04    rms(broyden)= 0.98159E-04
  rms(prec ) = 0.11881E-03
  weight for this iteration     100.00

 eigenvalues of (default mixing * dielectric matrix)
  average eigenvalue GAMMA=   2.1384
 12.0528  7.6614  3.7118  2.9682  2.4091  2.4091  1.6847  1.6847  1.1773  1.1773
  0.9438  0.9438  0.8741  0.7883  0.7644  0.5083  0.6729  0.6312  0.6312  0.5940
  0.6186

 Free energy of the ion-electron system (eV)
  ---------------------------------------------------
  alpha Z        PSCENC =         6.67359669
  Ewald energy   TEWEN  =      8099.92771528
  -Hartree energ DENC   =    -15128.76094444
  -exchange      EXHF   =         0.00000000
  -V(xc)+E(xc)   XCENC  =       115.59038572
  PAW double counting   =      8106.49447570    -7938.06117558
  entropy T*S    EENTRO =        -0.03280612
  eigenvalues    EBANDS =      -685.50762062
  atomic energy  EATOM  =      7408.64415014
  Solvation  Ediel_sol  =         0.00000000
  ---------------------------------------------------
  free energy    TOTEN  =       -15.03222323 eV

  energy without entropy =      -14.99941711  energy(sigma->0) =      -15.02128786


--------------------------------------------------------------------------------------------------------




--------------------------------------- Iteration      1(  27)  ---------------------------------------


    POTLOK:  cpu time    3.9658: real time    3.9744
    SETDIJ:  cpu time    0.0274: real time    0.0274
     EDDAV:  cpu time    5.0028: real time    5.0085
       DOS:  cpu time    0.0147: real time    0.0147
    CHARGE:  cpu time    0.7814: real time    0.7821
    MIXING:  cpu time    0.2913: real time    0.2916
    --------------------------------------------
      LOOP:  cpu time   10.0833: real time   10.0988

 eigenvalue-minimisations  :   160
 total energy-change (2. order) :-0.1880922E-03  (-0.1751650E-06)
 number of electron      88.0000014 magnetization       1.1978605
 augmentation part       32.2510601 magnetization      -0.0548397

 Broyden mixing:
  rms(total) = 0.62334E-04    rms(broyden)= 0.62329E-04
  rms(prec ) = 0.76623E-04
  weight for this iteration     100.00

 eigenvalues of (default mixing * dielectric matrix)
  average eigenvalue GAMMA=   2.1271
 12.0819  7.9390  3.9094  3.0440  2.4478  2.4478  1.7720  1.7720  1.2118  1.2118
  1.0385  0.9686  0.9686  0.8334  0.7489  0.7489  0.5083  0.6583  0.6411  0.6411
  0.6019  0.6019

 Free energy of the ion-electron system (eV)
  ---------------------------------------------------
  alpha Z        PSCENC =         6.67359669
  Ewald energy   TEWEN  =      8099.92771528
  -Hartree energ DENC   =    -15128.74325274
  -exchange      EXHF   =         0.00000000
  -V(xc)+E(xc)   XCENC  =       115.58999984
  PAW double counting   =      8106.51435208    -7938.08113625
  entropy T*S    EENTRO =        -0.03279957
  eigenvalues    EBANDS =      -685.52503679
  atomic energy  EATOM  =      7408.64415014
  Solvation  Ediel_sol  =         0.00000000
  ---------------------------------------------------
  free energy    TOTEN  =       -15.03241132 eV

  energy without entropy =      -14.99961175  energy(sigma->0) =      -15.02147813


--------------------------------------------------------------------------------------------------------




--------------------------------------- Iteration      1(  28)  ---------------------------------------


    POTLOK:  cpu time    3.9436: real time    3.9476
    SETDIJ:  cpu time    0.0269: real time    0.0269
     EDDAV:  cpu time    5.0330: real time    5.0386
       DOS:  cpu time    0.0091: real time    0.0091
    --------------------------------------------
      LOOP:  cpu time    9.0125: real time    9.0221

 eigenvalue-minimisations  :   160
 total energy-change (2. order) :-0.8861646E-04  (-0.7182247E-07)
 number of electron      88.0000014 magnetization       1.1978605
 augmentation part       32.2510601 magnetization      -0.0548397

 Free energy of the ion-electron system (eV)
  ---------------------------------------------------
  alpha Z        PSCENC =         6.67359669
  Ewald energy   TEWEN  =      8099.92771528
  -Hartree energ DENC   =    -15128.73645086
  -exchange      EXHF   =         0.00000000
  -V(xc)+E(xc)   XCENC  =       115.58987526
  PAW double counting   =      8106.52674163    -7938.09353897
  entropy T*S    EENTRO =        -0.03279960
  eigenvalues    EBANDS =      -685.53178951
  atomic energy  EATOM  =      7408.64415014
  Solvation  Ediel_sol  =         0.00000000
  ---------------------------------------------------
  free energy    TOTEN  =       -15.03249994 eV

  energy without entropy =      -14.99970034  energy(sigma->0) =      -15.02156674


--------------------------------------------------------------------------------------------------------




 average (electrostatic) potential at core
  the test charge radii are     1.2098
  (the norm of the test charge is              1.0000)
       1 -77.0909       2 -77.2960       3 -77.2554       4 -77.6164       5 -77.0790
       6 -77.1136       7 -77.3912       8 -77.2656
 
 
 
 E-fermi :  -4.6957     XC(G=0):  -0.3405     alpha+bet : -0.1701


 spin component 1

 k-point     1 :       0.0000    0.0000    0.0000
  band No.  band energies     occupation 
      1     -11.2286      1.00000
      2     -10.4974      1.00000
      3     -10.1491      1.00000
      4     -10.1070      1.00000
      5     -10.0256      1.00000
      6      -9.8629      1.00000
      7      -9.7562      1.00000
      8      -9.4490      1.00000
      9      -9.2709      1.00000
     10      -9.1571      1.00000
     11      -9.0497      1.00000
     12      -8.9799      1.00000
     13      -8.8867      1.00000
     14      -8.7994      1.00000
     15      -8.5341      1.00000
     16      -8.3830      1.00000
     17      -8.2996      1.00000
     18      -8.1038      1.00000
     19      -8.0515      1.00000
     20      -7.8460      1.00000
     21      -7.7175      1.00000
     22      -7.6462      1.00000
     23      -7.3375      1.00000
     24      -7.3029      1.00000
     25      -7.1914      1.00000
     26      -7.1438      1.00000
     27      -7.0368      1.00000
     28      -7.0267      1.00000
     29      -6.9448      1.00000
     30      -6.8617      1.00000
     31      -6.8371      1.00000
     32      -6.7181      1.00000
     33      -6.7003      1.00000
     34      -6.6412      1.00000
     35      -6.4990      1.00000
     36      -6.4197      1.00000
     37      -6.2357      1.00000
     38      -6.2031      1.00000
     39      -6.1687      1.00000
     40      -6.1265      1.00000
     41      -6.0687      1.00000
     42      -5.9439      1.00000
     43      -5.8529      1.00000
     44      -4.8799      1.01487
     45      -4.7185      0.59588
     46      -4.3223     -0.01200
     47      -3.5235     -0.00000
     48      -2.2039     -0.00000
     49      -2.1667     -0.00000
     50      -1.7435     -0.00000
     51      -1.5674     -0.00000
     52      -1.3403     -0.00000
     53      -0.9079     -0.00000
     54      -0.4331     -0.00000
     55      -0.3807     -0.00000
     56       0.1097     -0.00000

 spin component 2

 k-point     1 :       0.0000    0.0000    0.0000
  band No.  band energies     occupation 
      1     -11.1728      1.00000
      2     -10.4455      1.00000
      3     -10.1000      1.00000
      4     -10.0553      1.00000
      5      -9.9931      1.00000
      6      -9.8158      1.00000
      7      -9.7281      1.00000
      8      -9.3935      1.00000
      9      -9.2224      1.00000
     10      -9.1138      1.00000
     11      -8.9959      1.00000
     12      -8.9442      1.00000
     13      -8.8451      1.00000
     14      -8.7424      1.00000
     15      -8.4799      1.00000
     16      -8.3311      1.00000
     17      -8.2528      1.00000
     18      -8.0450      1.00000
     19      -8.0211      1.00000
     20      -7.8090      1.00000
     21      -7.6587      1.00000
     22      -7.5934      1.00000
     23      -7.3004      1.00000
     24      -7.2569      1.00000
     25      -7.1260      1.00000
     26      -7.1005      1.00000
     27      -6.9962      1.00000
     28      -6.9812      1.00000
     29      -6.8701      1.00000
     30      -6.8208      1.00000
     31      -6.7942      1.00000
     32      -6.6776      1.00000
     33      -6.6575      1.00000
     34      -6.5866      1.00000
     35      -6.4629      1.00000
     36      -6.3460      1.00000
     37      -6.1753      1.00000
[...]
  -Hartree energ DENC   =    -14645.34350443
  -exchange      EXHF   =         0.00000000
  -V(xc)+E(xc)   XCENC  =       114.12999867
  PAW double counting   =      7766.45425208    -7594.38943534
  entropy T*S    EENTRO =         0.01198447
  eigenvalues    EBANDS =      -657.40745634
  atomic energy  EATOM  =      7408.64415014
  Solvation  Ediel_sol  =         0.00000000
  ---------------------------------------------------
  free energy    TOTEN  =       -16.57743438 eV

  energy without entropy =      -16.58941885  energy(sigma->0) =      -16.58142921


--------------------------------------------------------------------------------------------------------




--------------------------------------- Iteration     56(   2)  ---------------------------------------


    POTLOK:  cpu time    3.8787: real time    3.8945
    SETDIJ:  cpu time    0.0276: real time    0.0276
     EDDAV:  cpu time    5.0748: real time    5.0857
       DOS:  cpu time    0.0117: real time    0.0117
    --------------------------------------------
      LOOP:  cpu time    8.9928: real time    9.0195

 eigenvalue-minimisations  :   160
 total energy-change (2. order) :-0.2576169E-05  (-0.4764398E-05)
 number of electron      87.9999965 magnetization       0.0000000
 augmentation part       32.4239640 magnetization      -0.0000000

 Free energy of the ion-electron system (eV)
  ---------------------------------------------------
  alpha Z        PSCENC =         6.67359669
  Ewald energy   TEWEN  =      7584.64897968
  -Hartree energ DENC   =    -14645.34369236
  -exchange      EXHF   =         0.00000000
  -V(xc)+E(xc)   XCENC  =       114.12992279
  PAW double counting   =      7766.44597090    -7594.38108948
  entropy T*S    EENTRO =         0.01198411
  eigenvalues    EBANDS =      -657.40725943
  atomic energy  EATOM  =      7408.64415014
  Solvation  Ediel_sol  =         0.00000000
  ---------------------------------------------------
  free energy    TOTEN  =       -16.57743696 eV

  energy without entropy =      -16.58942107  energy(sigma->0) =      -16.58143166


--------------------------------------------------------------------------------------------------------




 average (electrostatic) potential at core
  the test charge radii are     1.2098
  (the norm of the test charge is              1.0000)
       1 -77.0239       2 -77.0109       3 -77.0226       4 -77.4650       5 -77.0160
       6 -76.6217       7 -76.6392       8 -77.0248
 
 
 
 E-fermi :  -5.1926     XC(G=0):  -0.3613     alpha+bet : -0.1701


 spin component 1

 k-point     1 :       0.0000    0.0000    0.0000
  band No.  band energies     occupation 
      1     -10.5806      1.00000
      2      -9.8154      1.00000
      3      -9.6493      1.00000
      4      -9.6389      1.00000
      5      -9.3678      1.00000
      6      -9.3004      1.00000
      7      -9.0117      1.00000
      8      -8.8389      1.00000
      9      -8.6371      1.00000
     10      -8.5666      1.00000
     11      -8.3537      1.00000
     12      -8.3134      1.00000
     13      -8.1491      1.00000
     14      -8.0135      1.00000
     15      -7.9871      1.00000
     16      -7.7870      1.00000
     17      -7.7091      1.00000
     18      -7.6023      1.00000
     19      -7.3764      1.00000
     20      -7.3606      1.00000
     21      -7.2358      1.00000
     22      -7.1428      1.00000
     23      -7.1370      1.00000
     24      -7.0567      1.00000
     25      -6.9807      1.00000
     26      -6.9634      1.00000
     27      -6.9180      1.00000
     28      -6.8240      1.00000
     29      -6.8153      1.00000
     30      -6.8024      1.00000
     31      -6.6881      1.00000
     32      -6.6192      1.00000
     33      -6.5023      1.00000
     34      -6.4328      1.00000
     35      -6.4193      1.00000
     36      -6.4171      1.00000
     37      -6.2383      1.00000
     38      -6.2343      1.00000
     39      -6.1615      1.00000
     40      -6.0663      1.00000
     41      -5.9653      1.00000
     42      -5.9327      1.00000
     43      -5.7307      1.00047
     44      -5.3605      0.99952
     45      -4.1136     -0.00000
     46      -3.7178     -0.00000
     47      -3.5516     -0.00000
     48      -3.2831     -0.00000
     49      -1.7274     -0.00000
     50      -1.6696     -0.00000
     51      -1.1086     -0.00000
     52      -0.8596     -0.00000
     53      -0.8145     -0.00000
     54      -0.8069     -0.00000
     55      -0.5697     -0.00000
     56       0.0537     -0.00000

 spin component 2

 k-point     1 :       0.0000    0.0000    0.0000
  band No.  band energies     occupation 
      1     -10.5806      1.00000
      2      -9.8154      1.00000
      3      -9.6493      1.00000
      4      -9.6389      1.00000
      5      -9.3678      1.00000
      6      -9.3004      1.00000
      7      -9.0117      1.00000
      8      -8.8389      1.00000
      9      -8.6371      1.00000
     10      -8.5666      1.00000
     11      -8.3537      1.00000
     12      -8.3134      1.00000
     13      -8.1491      1.00000
     14      -8.0135      1.00000
     15      -7.9871      1.00000
     16      -7.7870      1.00000
     17      -7.7091      1.00000
     18      -7.6023      1.00000
     19      -7.3764      1.00000
     20      -7.3606      1.00000
     21      -7.2358      1.00000
     22      -7.1428      1.00000
     23      -7.1370      1.00000
     24      -7.0567      1.00000
     25      -6.9807      1.00000
     26      -6.9634      1.00000
     27      -6.9180      1.00000
     28      -6.8240      1.00000
     29      -6.8153      1.00000
     30      -6.8024      1.00000
     31      -6.6881      1.00000
     32      -6.6192      1.00000
     33      -6.5023      1.00000
     34      -6.4328      1.00000
     35      -6.4193      1.00000
     36      -6.4171      1.00000
     37      -6.2383      1.00000
     38      -6.2343      1.00000
     39      -6.1615      1.00000
     40      -6.0663      1.00000
     41      -5.9653      1.00000
     42      -5.9327      1.00000
     43      -5.7307      1.00047
     44      -5.3605      0.99952
     45      -4.1136     -0.00000
     46      -3.7178     -0.00000
     47      -3.5516     -0.00000
     48      -3.2831     -0.00000
     49      -1.7274     -0.00000
     50      -1.6696     -0.00000
     51      -1.1086     -0.00000
     52      -0.8596     -0.00000
     53      -0.8145     -0.00000
     54      -0.8069     -0.00000
     55      -0.5697     -0.00000
     56       0.0537     -0.00000


--------------------------------------------------------------------------------------------------------


 soft charge-density along one line, spin component            1
         0         1         2         3         4         5         6         7         8         9
 total charge-density along one line
 
 soft charge-density along one line, spin component            2
         0         1         2         3         4         5         6         7         8         9
 total charge-density along one line
 
 pseudopotential strength for first ion, spin component:            1
 -9.336  -0.006  -0.010  -0.001  -0.004  -9.455  -0.006  -0.010
 -0.006  -9.372   0.012  -0.000   0.000  -0.006  -9.490   0.011
 -0.010   0.012  -9.370   0.001  -0.027  -0.010   0.011  -9.488
 -0.001  -0.000   0.001  -9.323  -0.002  -0.001  -0.000   0.001
 -0.004   0.000  -0.027  -0.002  -9.326  -0.004   0.000  -0.026
 -9.455  -0.006  -0.010  -0.001  -0.004  -9.558  -0.006  -0.010
 -0.006  -9.490   0.011  -0.000   0.000  -0.006  -9.593   0.011
 -0.010   0.011  -9.488   0.001  -0.026  -0.010   0.011  -9.591
 -0.001  -0.000   0.001  -9.443  -0.002  -0.001  -0.000   0.001
 -0.004   0.000  -0.026  -0.002  -9.445  -0.004   0.000  -0.025
 -0.004  -0.001   0.007   0.005  -0.015  -0.004  -0.000   0.007
 -0.005  -0.001   0.010   0.007  -0.022  -0.005  -0.001   0.010
  0.001  -0.020   0.010  -0.000   0.016   0.001  -0.019   0.010
 -0.000  -0.016  -0.023   0.001  -0.000  -0.000  -0.015  -0.022
 -0.017  -0.000  -0.000  -0.021   0.001  -0.017  -0.000  -0.000
  0.001  -0.023   0.012  -0.000   0.018   0.001  -0.022   0.012
 -0.000  -0.017  -0.026   0.002  -0.000  -0.000  -0.017  -0.026
 -0.020  -0.000  -0.000  -0.023   0.001  -0.020  -0.000  -0.000
 pseudopotential strength for first ion, spin component:            2
 -9.336  -0.006  -0.010  -0.001  -0.004  -9.455  -0.006  -0.010
 -0.006  -9.372   0.012  -0.000   0.000  -0.006  -9.490   0.011
 -0.010   0.012  -9.370   0.001  -0.027  -0.010   0.011  -9.488
 -0.001  -0.000   0.001  -9.323  -0.002  -0.001  -0.000   0.001
 -0.004   0.000  -0.027  -0.002  -9.326  -0.004   0.000  -0.026
 -9.455  -0.006  -0.010  -0.001  -0.004  -9.558  -0.006  -0.010
 -0.006  -9.490   0.011  -0.000   0.000  -0.006  -9.593   0.011
 -0.010   0.011  -9.488   0.001  -0.026  -0.010   0.011  -9.591
 -0.001  -0.000   0.001  -9.443  -0.002  -0.001  -0.000   0.001
 -0.004   0.000  -0.026  -0.002  -9.445  -0.004   0.000  -0.025
 -0.004  -0.001   0.007   0.005  -0.015  -0.004  -0.000   0.007
 -0.005  -0.001   0.010   0.007  -0.022  -0.005  -0.001   0.010
  0.001  -0.020   0.010  -0.000   0.016   0.001  -0.019   0.010
 -0.000  -0.016  -0.023   0.001  -0.000  -0.000  -0.015  -0.022
 -0.017  -0.000  -0.000  -0.021   0.001  -0.017  -0.000  -0.000
  0.001  -0.023   0.012  -0.000   0.018   0.001  -0.022   0.012
 -0.000  -0.017  -0.026   0.002  -0.000  -0.000  -0.017  -0.026
 -0.020  -0.000  -0.000  -0.023   0.001  -0.020  -0.000  -0.000
 total augmentation occupancy for first ion, spin component:            1
  2.859   0.048   0.147   0.226   0.094  -0.868  -0.096  -0.214  -0.263  -0.148   0.140  -0.003   0.031  -0.038  -0.091   0.001
  0.048   3.272   0.126   0.052  -0.256  -0.097  -1.265   0.017  -0.102   0.267  -0.205   0.141  -0.147  -0.086  -0.026  -0.014
  0.147   0.126   3.285   0.203   0.295  -0.215   0.016  -1.410  -0.156  -0.351  -0.342   0.110   0.085  -0.176  -0.050   0.007
  0.226   0.052   0.203   3.075   0.070  -0.263  -0.100  -0.157  -0.924  -0.064  -0.254   0.043   0.000  -0.047  -0.115   0.001
  0.094  -0.256   0.295   0.070   3.134  -0.149   0.269  -0.354  -0.063  -1.006   0.686  -0.168   0.155   0.013  -0.034   0.010
 -0.868  -0.097  -0.215  -0.263  -0.149   0.829   0.135   0.264   0.294   0.192  -0.122   0.006  -0.044   0.043   0.125   0.002
 -0.096  -1.265   0.016  -0.100   0.269   0.135   1.217  -0.122   0.138  -0.278   0.208  -0.142   0.181   0.081   0.032  -0.006
 -0.214   0.017  -1.410  -0.157  -0.354   0.264  -0.122   1.460   0.124   0.396   0.320  -0.104  -0.128   0.227   0.048   0.004
 -0.263  -0.102  -0.156  -0.924  -0.063   0.294   0.138   0.124   0.766   0.061   0.219  -0.048   0.014   0.041   0.133  -0.002
 -0.148   0.267  -0.351  -0.064  -1.006   0.192  -0.278   0.396   0.061   0.865  -0.592   0.155  -0.177  -0.018   0.035   0.006
  0.140  -0.205  -0.342  -0.254   0.686  -0.122   0.208   0.320   0.219  -0.592   2.029  -0.322   0.166   0.209  -0.004  -0.011
 -0.003   0.141   0.110   0.043  -0.168   0.006  -0.142  -0.104  -0.048   0.155  -0.322   0.089  -0.047  -0.057  -0.002   0.002
  0.031  -0.147   0.085   0.000   0.155  -0.044   0.181  -0.128   0.014  -0.177   0.166  -0.047   0.064   0.006  -0.006  -0.003
 -0.038  -0.086  -0.176  -0.047   0.013   0.043   0.081   0.227   0.041  -0.018   0.209  -0.057   0.006   0.063   0.010  -0.001
 -0.091  -0.026  -0.050  -0.115  -0.034   0.125   0.032   0.048   0.133   0.035  -0.004  -0.002  -0.006   0.010   0.036   0.000
  0.001  -0.014   0.007   0.001   0.010   0.002  -0.006   0.004  -0.002   0.006  -0.011   0.002  -0.003  -0.001   0.000   0.001
  0.001  -0.012  -0.016   0.004  -0.003  -0.001  -0.001  -0.008  -0.002   0.002  -0.014   0.003  -0.001  -0.003  -0.000   0.000
 -0.014   0.001   0.000  -0.019   0.002  -0.003  -0.002  -0.001  -0.002  -0.001   0.001   0.000   0.000  -0.000  -0.001  -0.000
 total augmentation occupancy for first ion, spin component:            2
  0.000  -0.000  -0.000   0.000  -0.000  -0.000   0.000   0.000   0.000   0.000  -0.000  -0.000   0.000   0.000  -0.000  -0.000
 -0.000   0.000  -0.000  -0.000  -0.000   0.000  -0.000  -0.000   0.000   0.000  -0.000   0.000  -0.000  -0.000  -0.000   0.000
 -0.000  -0.000   0.000   0.000  -0.000   0.000   0.000  -0.000  -0.000   0.000   0.000  -0.000  -0.000   0.000  -0.000  -0.000
  0.000  -0.000   0.000   0.000  -0.000   0.000   0.000  -0.000  -0.000   0.000  -0.000  -0.000   0.000   0.000   0.000  -0.000
 -0.000  -0.000  -0.000  -0.000   0.000  -0.000   0.000   0.000   0.000  -0.000   0.000   0.000   0.000   0.000  -0.000  -0.000
 -0.000   0.000   0.000   0.000  -0.000  -0.000  -0.000  -0.000  -0.000   0.000   0.000  -0.000  -0.000  -0.000  -0.000   0.000
  0.000  -0.000   0.000   0.000   0.000  -0.000   0.000   0.000  -0.000  -0.000   0.000  -0.000   0.000   0.000   0.000   0.000
  0.000  -0.000  -0.000  -0.000   0.000  -0.000   0.000   0.000   0.000  -0.000  -0.000   0.000   0.000  -0.000   0.000   0.000
  0.000   0.000  -0.000  -0.000   0.000  -0.000  -0.000   0.000  -0.000   0.000   0.000  -0.000  -0.000   0.000  -0.000   0.000
  0.000   0.000   0.000   0.000  -0.000   0.000  -0.000  -0.000   0.000  -0.000  -0.000   0.000  -0.000  -0.000   0.000   0.000
 -0.000  -0.000   0.000  -0.000   0.000   0.000   0.000  -0.000   0.000  -0.000  -0.000   0.000  -0.000  -0.000   0.000   0.000
 -0.000   0.000  -0.000  -0.000   0.000  -0.000  -0.000   0.000  -0.000   0.000   0.000  -0.000  -0.000   0.000  -0.000  -0.000
  0.000  -0.000  -0.000   0.000   0.000  -0.000   0.000   0.000  -0.000  -0.000  -0.000  -0.000   0.000   0.000  -0.000  -0.000
  0.000  -0.000   0.000   0.000   0.000  -0.000   0.000  -0.000   0.000  -0.000  -0.000   0.000   0.000  -0.000   0.000   0.000
 -0.000  -0.000  -0.000   0.000  -0.000  -0.000   0.000   0.000  -0.000   0.000   0.000  -0.000  -0.000   0.000  -0.000   0.000
 -0.000   0.000  -0.000  -0.000  -0.000   0.000   0.000   0.000   0.000   0.000   0.000  -0.000  -0.000   0.000   0.000  -0.000
 -0.000   0.000  -0.000  -0.000   0.000   0.000  -0.000   0.000   0.000   0.000   0.000  -0.000  -0.000   0.000   0.000  -0.000
  0.000   0.000   0.000   0.000   0.000  -0.000  -0.000  -0.000   0.000  -0.000  -0.000   0.000  -0.000  -0.000  -0.000   0.000


------------------------ aborting loop because EDIFF is reached ----------------------------------------


    CHARGE:  cpu time    0.8302: real time    0.8392
    FORLOC:  cpu time    0.1107: real time    0.1134
    FORNL :  cpu time    3.6366: real time    3.6483
    FORCOR:  cpu time    3.8198: real time    3.8374
    FORHAR:  cpu time    0.4894: real time    0.4899
    MIXING:  cpu time    0.0724: real time    0.0725
    OFIELD:  cpu time    0.0000: real time    0.0000

 VOLUME and BASIS-vectors are now :
 -----------------------------------------------------------------------------
  energy-cutoff  :      400.00
  volume of cell :    11170.43
      direct lattice vectors                 reciprocal lattice vectors
    20.715537675  0.000000000  0.000000000     0.048272944  0.000000000  0.000000000
     0.000000000 22.788777101  0.000000000     0.000000000  0.043881249  0.000000000
     0.000000000  0.000000000 23.662066763     0.000000000  0.000000000  0.042261735

  length of vectors
    20.715537675 22.788777101 23.662066763     0.048272944  0.043881249  0.042261735


 FORCES acting on ions
    electron-ion (+dipol)            ewald-force                    non-local-force                 convergence-correction
 -----------------------------------------------------------------------------------------------
   0.274E+02 0.423E+03 0.661E+03   -.278E+02 -.420E+03 -.657E+03   0.445E+00 -.302E+01 -.405E+01   0.795E-04 -.911E-03 -.244E-02
   0.437E+03 -.318E+03 0.542E+03   -.433E+03 0.317E+03 -.540E+03   -.386E+01 0.109E+01 -.209E+01   0.212E-02 0.262E-02 -.399E-02
   0.109E+03 0.680E+03 0.292E+02   -.109E+03 -.678E+03 -.285E+02   0.552E+00 -.124E+01 -.680E+00   -.225E-04 0.145E-03 0.225E-02
   -.574E+03 -.233E+03 0.315E+03   0.574E+03 0.232E+03 -.314E+03   0.500E+00 0.115E+01 -.178E+01   0.143E-02 0.448E-03 0.705E-03
   0.974E+02 -.770E+03 -.977E+02   -.973E+02 0.766E+03 0.966E+02   -.497E-01 0.494E+01 0.104E+01   0.302E-03 0.188E-02 0.106E-02
   0.448E+03 0.331E+03 -.487E+03   -.444E+03 -.328E+03 0.483E+03   -.388E+01 -.264E+01 0.388E+01   0.366E-02 0.134E-04 -.871E-03
   -.695E+03 0.196E+03 -.364E+03   0.692E+03 -.193E+03 0.359E+03   0.318E+01 -.248E+01 0.408E+01   -.103E-02 0.969E-03 -.138E-02
   0.153E+03 -.308E+03 -.600E+03   -.154E+03 0.307E+03 0.599E+03   0.430E+00 0.119E+01 0.905E+00   0.584E-03 -.104E-02 0.792E-05
 -----------------------------------------------------------------------------------------------
   0.267E+01 0.995E+00 -.130E+01   -.568E-13 -.227E-12 0.114E-12   -.268E+01 -.998E+00 0.130E+01   0.713E-02 0.412E-02 -.467E-02
 
 
 POSITION                                       TOTAL-FORCE (eV/Angst)
 -----------------------------------------------------------------------------------
      9.68199      9.91985      9.50610         0.014122     -0.005787     -0.018765
      8.71852     12.40736      9.91130        -0.044681     -0.030306      0.046228
      9.60345      9.39767     12.15172         0.002544      0.004930      0.000258
     10.94445     11.70914     11.21637         0.023963     -0.008678      0.018522
      9.45150     13.90509     12.03233         0.013930      0.017563     -0.002206
      8.10649      9.58313     14.33550        -0.000190      0.022748     -0.035096
     12.03394     10.47076     13.24355        -0.011986      0.001532     -0.002410
      9.49372     11.73978     13.64488         0.002297     -0.002002     -0.006532
 -----------------------------------------------------------------------------------
    total drift:                               -0.000851      0.000458     -0.001569


--------------------------------------------------------------------------------------------------------



  FREE ENERGIE OF THE ION-ELECTRON SYSTEM (eV)
  ---------------------------------------------------
  free  energy   TOTEN  =       -16.57743696 eV

  energy  without entropy=      -16.58942107  energy(sigma->0) =      -16.58143166
 
 d Force = 0.1156125E-04[ 0.144E-04, 0.872E-05]  d Energy = 0.2719542E-04-0.156E-04
 d Force =-0.1231700E+00[-0.123E+00,-0.123E+00]  d Ewald  =-0.1231700E+00 0.480E-08


--------------------------------------------------------------------------------------------------------


    POTLOK:  cpu time    3.9203: real time    3.9360


--------------------------------------------------------------------------------------------------------




--------------------------------------------------------------------------------------------------------


  
 reached required accuracy - stopping structural energy minimisation
     LOOP+:  cpu time   33.4232: real time   33.5520
    4ORBIT:  cpu time    0.0000: real time    0.0000

 total amount of memory used by VASP MPI-rank0   229644. kBytes
=======================================================================

   base      :      30000. kBytes
   nonl-proj :       3450. kBytes
   fftplans  :      53143. kBytes
   grid      :     120289. kBytes
   one-center:         15. kBytes
   wavefun   :      22747. kBytes
 
  
  
 General timing and accounting informations for this job:
 ========================================================
  
                  Total CPU time used (sec):     4735.827
                            User time (sec):     4680.651
                          System time (sec):       55.176
                         Elapsed time (sec):     4753.568
  
                   Maximum memory used (kb):      451104.
                   Average memory used (kb):           0.
  
                          Minor page faults:     17973936
                          Major page faults:        96800
                 Voluntary context switches:         2583
