<?xml version="1.0" encoding="ISO-8859-1"?>
<modeling>
 <generator>
  <i name="program" type="string">vasp </i>
  <i name="version" type="string">6.1.2  </i>
  <i name="subversion" type="string">22Jul20 (build Jan 14 2022 17:24:41) gamma-only                       parallel </i>
  <i name="platform" type="string">LinuxPGI </i>
  <i name="date" type="string">2022 01 26 </i>
  <i name="time" type="string">10:10:58 </i>
 </generator>
 <incar>
  <i type="int" name="ISPIN">     2</i>
  <i type="int" name="IBRION">     2</i>
  <i type="int" name="NSW">  1000</i>
  <i type="int" name="ISIF">     0</i>
  <i type="int" name="ISYM">     0</i>
  <i name="ENCUT">    400.00000000</i>
  <i type="logical" name="LREAL"> F  </i>
  <i type="int" name="ISMEAR">     1</i>
  <i name="SIGMA">      0.20000000</i>
  <i type="logical" name="LWAVE"> F  </i>
  <i type="logical" name="LCHARG"> F  </i>
  <i type="int" name="KPAR">     1</i>
  <i type="int" name="NCORE">     8</i>
  <i type="string" name="GGA"> PE</i>
  <i type="int" name="ISPIN">     2</i>
 </incar>
 <structure name="primitive_cell" >
  <crystal>
   <varray name="basis" >
    <v>      20.71553768       0.00000000       0.00000000 </v>
    <v>       0.00000000      22.78877710       0.00000000 </v>
    <v>       0.00000000       0.00000000      23.66206676 </v>
   </varray>
   <i name="volume">  11170.43037377 </i>
   <varray name="rec_basis" >
    <v>       0.04827294       0.00000000       0.00000000 </v>
    <v>       0.00000000       0.04388125       0.00000000 </v>
    <v>       0.00000000       0.00000000       0.04226174 </v>
   </varray>
  </crystal>
  <varray name="positions" >
   <v>       0.44595350       0.44687508       0.40847602 </v>
   <v>       0.44505437       0.55734823       0.40130955 </v>
   <v>       0.47580361       0.39504695       0.50177580 </v>
   <v>       0.51579164       0.50663036       0.48351631 </v>
   <v>       0.43609845       0.59621703       0.50090932 </v>
   <v>       0.42898579       0.42814574       0.59742382 </v>
   <v>       0.55016674       0.44635163       0.57784670 </v>
   <v>       0.46907984       0.53464292       0.58763369 </v>
  </varray>
 </structure>
 <varray name="primitive_index" >
  <v type="int" >        1 </v>
  <v type="int" >        2 </v>
  <v type="int" >        3 </v>
  <v type="int" >        4 </v>
  <v type="int" >        5 </v>
  <v type="int" >        6 </v>
  <v type="int" >        7 </v>
  <v type="int" >        8 </v>
 </varray>
 <kpoints>
  <generation param="Gamma">
   <v type="int" name="divisions">       1        1        1 </v>
   <v name="usershift">      0.00000000       0.00000000       0.00000000 </v>
   <v name="genvec1">      1.00000000       0.00000000       0.00000000 </v>
   <v name="genvec2">      0.00000000       1.00000000       0.00000000 </v>
   <v name="genvec3">      0.00000000       0.00000000       1.00000000 </v>
   <v name="shift">      0.00000000       0.00000000       0.00000000 </v>
  </generation>
  <varray name="kpointlist" >
   <v>       0.00000000       0.00000000       0.00000000 </v>
  </varray>
  <varray name="weights" >
   <v>       1.00000000 </v>
  </varray>
 </kpoints>
 <parameters>
  <separator name="general" >
   <i type="string" name="SYSTEM">unknown system</i>
   <i type="logical" name="LCOMPAT"> F  </i>
  </separator>
  <separator name="electronic" >
   <i type="string" name="PREC">normal</i>
   <i name="ENMAX">    400.00000000</i>
   <i name="ENAUG">    356.67000000</i>
   <i name="EDIFF">      0.00010000</i>
   <i type="int" name="IALGO">    38</i>
   <i type="int" name="IWAVPR">    11</i>
   <i type="int" name="NBANDS">    56</i>
   <i type="int" name="NBANDSLOW">    -1</i>
   <i type="int" name="NBANDSHIGH">    -1</i>
   <i name="NELECT">     88.00000000</i>
   <i type="int" name="TURBO">     0</i>
   <i type="int" name="IRESTART">     0</i>
   <i type="int" name="NREBOOT">     0</i>
   <i type="int" name="NMIN">     0</i>
   <i name="EREF">      0.00000000</i>
   <separator name="electronic smearing" >
    <i type="int" name="ISMEAR">     1</i>
    <i name="SIGMA">      0.20000000</i>
    <i name="KSPACING">      0.50000000</i>
    <i type="logical" name="KGAMMA"> T  </i>
    <i type="logical" name="KBLOWUP"> T  </i>
   </separator>
   <separator name="electronic projectors" >
    <i type="logical" name="LREAL"> F  </i>
    <v name="ROPT">      0.00000000</v>
    <i type="int" name="LMAXPAW">  -100</i>
    <i type="int" name="LMAXMIX">     2</i>
    <i type="logical" name="NLSPLINE"> F  </i>
   </separator>
   <separator name="electronic startup" >
    <i type="int" name="ISTART">     0</i>
    <i type="int" name="ICHARG">     2</i>
    <i type="int" name="INIWAV">     1</i>
   </separator>
   <separator name="electronic spin" >
    <i type="int" name="ISPIN">     2</i>
    <i type="logical" name="LNONCOLLINEAR"> F  </i>
    <v name="MAGMOM">      1.00000000      1.00000000      1.00000000      1.00000000      1.00000000      1.00000000      1.00000000      1.00000000</v>
    <i name="NUPDOWN">     -1.00000000</i>
    <i type="logical" name="LSORBIT"> F  </i>
    <v name="SAXIS">      0.00000000      0.00000000      1.00000000</v>
    <i type="logical" name="LSPIRAL"> F  </i>
    <v name="QSPIRAL">      0.00000000      0.00000000      0.00000000</v>
    <i type="logical" name="LZEROZ"> F  </i>
   </separator>
   <separator name="electronic exchange-correlation" >
    <i type="logical" name="LASPH"> F  </i>
    <i type="logical" name="LMETAGGA"> F  </i>
   </separator>
   <separator name="electronic convergence" >
    <i type="int" name="NELM">    60</i>
    <i type="int" name="NELMDL">     0</i>
    <i type="int" name="NELMIN">     2</i>
    <i name="ENINI">    400.00000000</i>
    <separator name="electronic convergence detail" >
     <i type="logical" name="LDIAG"> T  </i>
     <i type="logical" name="LSUBROT"> F  </i>
     <i name="WEIMIN">      0.00100000</i>
     <i name="EBREAK">      0.00000045</i>
     <i name="DEPER">      0.30000000</i>
     <i type="int" name="NRMM">     4</i>
     <i name="TIME">      0.40000000</i>
    </separator>
   </separator>
   <separator name="electronic mixer" >
    <i name="AMIX">      0.40000000</i>
    <i name="BMIX">      1.00000000</i>
    <i name="AMIN">      0.10000000</i>
    <i name="AMIX_MAG">      1.60000000</i>
    <i name="BMIX_MAG">      1.00000000</i>
    <separator name="electronic mixer details" >
     <i type="int" name="IMIX">     4</i>
     <i type="logical" name="MIXFIRST"> F  </i>
     <i type="int" name="MAXMIX">   -45</i>
     <i name="WC">    100.00000000</i>
     <i type="int" name="INIMIX">     1</i>
     <i type="int" name="MIXPRE">     1</i>
     <i type="int" name="MREMOVE">     5</i>
    </separator>
   </separator>
   <separator name="electronic dipolcorrection" >
    <i type="logical" name="LDIPOL"> F  </i>
    <i type="logical" name="LMONO"> F  </i>
    <i type="int" name="IDIPOL">     0</i>
    <i name="EPSILON">      1.00000000</i>
    <v name="DIPOL">   -100.00000000   -100.00000000   -100.00000000</v>
    <i name="EFIELD">      0.00000000</i>
   </separator>
  </separator>
  <separator name="grids" >
   <i type="int" name="NGX">   108</i>
   <i type="int" name="NGY">   112</i>
   <i type="int" name="NGZ">   120</i>
   <i type="int" name="NGXF">   216</i>
   <i type="int" name="NGYF">   224</i>
   <i type="int" name="NGZF">   240</i>
   <i type="logical" name="ADDGRID"> F  </i>
  </separator>
  <separator name="ionic" >
   <i type="int" name="NSW">  1000</i>
   <i type="int" name="IBRION">     2</i>
   <i type="int" name="MDALGO">     0</i>
   <i type="int" name="ISIF">     0</i>
   <i name="PSTRESS">      0.00000000</i>
   <i name="EDIFFG">      0.00100000</i>
   <i type="int" name="NFREE">     1</i>
   <i name="POTIM">      0.50000000</i>
   <i name="SMASS">     -3.00000000</i>
   <i name="SCALEE">      1.00000000</i>
  </separator>
  <separator name="ionic md" >
   <i name="TEBEG">      0.00010000</i>
   <i name="TEEND">      0.00010000</i>
   <i type="int" name="NBLOCK">     1</i>
   <i type="int" name="KBLOCK">  1000</i>
   <i type="int" name="NPACO">   256</i>
   <i name="APACO">     16.00000000</i>
  </separator>
  <separator name="symmetry" >
   <i type="int" name="ISYM">     0</i>
   <i name="SYMPREC">      0.00001000</i>
  </separator>
  <separator name="dos" >
   <i type="int" name="LORBIT">     0</i>
   <v name="RWIGS">     -1.00000000</v>
   <i type="int" name="NEDOS">   301</i>
   <i name="EMIN">     10.00000000</i>
   <i name="EMAX">    -10.00000000</i>
   <i name="EFERMI">      0.00000000</i>
  </separator>
  <separator name="writing" >
   <i type="int" name="NWRITE">     2</i>
   <i type="logical" name="LWAVE"> F  </i>
   <i type="logical" name="LDOWNSAMPLE"> F  </i>
   <i type="logical" name="LCHARG"> F  </i>
   <i type="logical" name="LPARD"> F  </i>
   <i type="logical" name="LVTOT"> F  </i>
   <i type="logical" name="LVHAR"> F  </i>
   <i type="logical" name="LELF"> F  </i>
   <i type="logical" name="LOPTICS"> F  </i>
   <v name="STM">      0.00000000      0.00000000      0.00000000      0.00000000      0.00000000      0.00000000      0.00000000</v>
  </separator>
  <separator name="performance" >
   <i type="int" name="NPAR">     1</i>
   <i type="int" name="NSIM">     4</i>
   <i type="int" name="NBLK">    -1</i>
   <i type="logical" name="LPLANE"> T  </i>
   <i type="logical" name="LSCALAPACK"> T  </i>
   <i type="logical" name="LSCAAWARE"> F  </i>
   <i type="logical" name="LSCALU"> F  </i>
   <i type="logical" name="LASYNC"> F  </i>
   <i type="logical" name="LORBITALREAL"> F  </i>
  </separator>
  <separator name="miscellaneous" >
   <i type="int" name="IDIOT">     3</i>
   <i type="int" name="PHON_NSTRUCT">    -1</i>
   <i type="logical" name="LMUSIC"> F  </i>
   <v name="POMASS">    196.96600000</v>
   <v name="DARWINR">      0.00000000</v>
   <v name="DARWINV">      1.00000000</v>
   <i type="logical" name="LCORR"> T  </i>
  </separator>
  <i type="logical" name="GGA_COMPAT"> T  </i>
  <i type="logical" name="LBERRY"> F  </i>
  <i type="int" name="ICORELEVEL">     0</i>
  <i type="logical" name="LDAU"> F  </i>
  <i type="int" name="I_CONSTRAINED_M">     0</i>
  <separator name="electronic exchange-correlation" >
   <i type="string" name="GGA">PE</i>
   <i type="int" name="VOSKOWN">     0</i>
   <i type="logical" name="LHFCALC"> F  </i>
   <i type="string" name="PRECFOCK"></i>
   <i type="logical" name="LSYMGRAD"> F  </i>
   <i type="logical" name="LHFONE"> F  </i>
   <i type="logical" name="LRHFCALC"> F  </i>
   <i type="logical" name="LTHOMAS"> F  </i>
   <i type="logical" name="LMODELHF"> F  </i>
   <i type="logical" name="LFOCKACE"> F  </i>
   <i name="ENCUT4O">     -1.00000000</i>
   <i type="int" name="EXXOEP">     0</i>
   <i type="int" name="FOURORBIT">     0</i>
   <i name="AEXX">      0.00000000</i>
   <i name="HFALPHA">      0.00000000</i>
   <i name="MCALPHA">      0.00000000</i>
   <i name="ALDAX">      1.00000000</i>
   <i name="AGGAX">      1.00000000</i>
   <i name="ALDAC">      1.00000000</i>
   <i name="AGGAC">      1.00000000</i>
   <i type="int" name="NKREDX">     1</i>
   <i type="int" name="NKREDY">     1</i>
   <i type="int" name="NKREDZ">     1</i>
   <i type="logical" name="SHIFTRED"> F  </i>
   <i type="logical" name="ODDONLY"> F  </i>
   <i type="logical" name="EVENONLY"> F  </i>
   <i type="int" name="LMAXFOCK">     0</i>
   <i type="int" name="NMAXFOCKAE">     0</i>
   <i type="logical" name="LFOCKAEDFT"> F  </i>
   <i name="HFSCREEN">      0.00000000</i>
   <i name="HFSCREENC">      0.00000000</i>
   <i type="int" name="NBANDSGWLOW">     0</i>
  </separator>
  <separator name="vdW DFT" >
   <i type="logical" name="LUSE_VDW"> F  </i>
   <i name="Zab_VDW">     -0.84910000</i>
   <i name="PARAM1">      0.12340000</i>
   <i name="PARAM2">      1.00000000</i>
   <i name="PARAM3">      0.00000000</i>
  </separator>
  <separator name="model GW" >
   <i type="int" name="MODEL_GW">     0</i>
   <i name="MODEL_EPS0">    837.78227803</i>
   <i name="MODEL_ALPHA">      1.00000000</i>
  </separator>
  <separator name="linear response parameters" >
   <i type="logical" name="LEPSILON"> F  </i>
   <i type="logical" name="LRPA"> F  </i>
   <i type="logical" name="LNABLA"> F  </i>
   <i type="logical" name="LVEL"> F  </i>
   <i type="int" name="KINTER">     0</i>
   <i name="CSHIFT">      0.10000000</i>
   <i name="OMEGAMAX">     -1.00000000</i>
   <i name="DEG_THRESHOLD">      0.00200000</i>
   <i name="RTIME">     -0.10000000</i>
   <i name="WPLASMAI">      0.00000000</i>
   <v name="DFIELD">      0.00000000      0.00000000      0.00000000</v>
   <v name="WPLASMA">      0.00000000      0.00000000      0.00000000      0.00000000      0.00000000      0.00000000      0.00000000      0.00000000      0.00000000</v>
  </separator>
  <separator name="orbital magnetization" >
   <i type="logical" name="NUCIND"> F  </i>
   <v name="MAGPOS">      0.00000000      0.00000000      0.00000000</v>
   <i type="logical" name="LNICSALL"> T  </i>
   <i type="logical" name="ORBITALMAG"> F  </i>
   <i type="logical" name="LMAGBLOCH"> F  </i>
   <i type="logical" name="LCHIMAG"> F  </i>
   <i type="logical" name="LGAUGE"> T  </i>
   <i type="int" name="MAGATOM">     0</i>
   <v name="MAGDIPOL">      0.00000000      0.00000000      0.00000000</v>
   <v name="AVECCONST">      0.00000000      0.00000000      0.00000000</v>
  </separator>
  <separator name="response functions" >
   <i type="logical" name="LFINITE_TEMPERATURE"> F  </i>
   <i type="logical" name="LADDER"> F  </i>
   <i type="logical" name="LRPAFORCE"> F  </i>
   <i type="logical" name="LFXC"> F  </i>
   <i type="logical" name="LHARTREE"> T  </i>
   <i type="int" name="IBSE">     0</i>
   <v type="int" name="KPOINT">    -1     0     0     0</v>
   <i type="logical" name="LTCTC"> F  </i>
   <i type="logical" name="LTCTE"> F  </i>
   <i type="logical" name="LTETE"> F  </i>
   <i type="logical" name="LTRIPLET"> F  </i>
   <i type="logical" name="LFXCEPS"> F  </i>
   <i type="logical" name="LFXHEG"> F  </i>
   <i type="int" name="NATURALO">     2</i>
   <i type="logical" name="LHOLEGF"> F  </i>
   <i type="logical" name="L2ORDER"> F  </i>
   <i type="logical" name="LDMP1"> F  </i>
   <i type="logical" name="LMP2LT"> F  </i>
   <i type="logical" name="LSMP2LT"> F  </i>
   <i type="logical" name="LGWLF"> F  </i>
   <i name="ENCUTGW">     -2.00000000</i>
   <i name="ENCUTGWSOFT">     -2.00000000</i>
   <i name="ENCUTLF">     -1.00000000</i>
   <i type="logical" name="LESF_SPLINES"> F  </i>
   <i type="int" name="LMAXMP2">    -1</i>
   <i name="SCISSOR">      0.00000000</i>
   <i type="int" name="NOMEGA">     0</i>
   <i type="int" name="NOMEGAR">     0</i>
   <i type="int" name="NBANDSGW">    -1</i>
   <i type="int" name="NBANDSO">    -1</i>
   <i type="int" name="NBANDSV">    -1</i>
   <i type="int" name="NELM">     1</i>
   <i type="int" name="NELMHF">     1</i>
   <i type="int" name="DIM">     3</i>
   <i type="int" name="IESPILON">     4</i>
   <i type="int" name="ANTIRES">     0</i>
   <i name="OMEGAMAX">    -30.00000000</i>
   <i name="OMEGAMIN">    -30.00000000</i>
   <i name="OMEGATL">   -200.00000000</i>
   <i type="int" name="OMEGAGRID">     0</i>
   <i name="CSHIFT">     -0.10000000</i>
   <i type="logical" name="LSELFENERGY"> F  </i>
   <i type="logical" name="LSPECTRAL"> F  </i>
   <i type="logical" name="LSPECTRALGW"> F  </i>
   <i type="logical" name="LSINGLES"> F  </i>
   <i type="logical" name="LFERMIGW"> F  </i>
   <i type="logical" name="ODDONLYGW"> F  </i>
   <i type="logical" name="EVENONLYGW"> F  </i>
   <i type="int" name="NKREDLFX">     1</i>
   <i type="int" name="NKREDLFY">     1</i>
   <i type="int" name="NKREDLFZ">     1</i>
   <i type="int" name="MAXMEM">  2800</i>
   <i type="int" name="TELESCOPE">     0</i>
   <i type="int" name="NTAUPAR">    -1</i>
   <i type="int" name="NOMEGAPAR">    -1</i>
   <i name="LAMBDA">      1.00000000</i>
  </separator>
  <separator name="External order field" >
   <i name="OFIELD_KAPPA">      0.00000000</i>
   <v name="OFIELD_K">      0.00000000      0.00000000      0.00000000</v>
   <i name="OFIELD_Q6_NEAR">      0.00000000</i>
   <i name="OFIELD_Q6_FAR">      0.00000000</i>
   <i name="OFIELD_A">      0.00000000</i>
  </separator>
 </parameters>
 <atominfo>
  <atoms>       8 </atoms>
  <types>       1 </types>
  <array name="atoms" >
   <dimension dim="1">ion</dimension>
   <field type="string">element</field>
   <field type="int">atomtype</field>
   <set>
    <rc><c>Au</c><c>   1</c></rc>
    <rc><c>Au</c><c>   1</c></rc>
    <rc><c>Au</c><c>   1</c></rc>
    <rc><c>Au</c><c>   1</c></rc>
    <rc><c>Au</c><c>   1</c></rc>
    <rc><c>Au</c><c>   1</c></rc>
    <rc><c>Au</c><c>   1</c></rc>
    <rc><c>Au</c><c>   1</c></rc>
   </set>
  </array>
  <array name="atomtypes" >
   <dimension dim="1">type</dimension>
   <field type="int">atomspertype</field>
   <field type="string">element</field>
   <field>mass</field>
   <field>valence</field>
   <field type="string">pseudopotential</field>
   <set>
    <rc><c>   8</c><c>Au</c><c>    196.96600000</c><c>     11.00000000</c><c>  PAW_PBE Au 04Oct2007                  </c></rc>
   </set>
  </array>
 </atominfo>
 <structure name="initialpos" >
  <crystal>
   <varray name="basis" >
    <v>      20.71553768       0.00000000       0.00000000 </v>
    <v>       0.00000000      22.78877710       0.00000000 </v>
    <v>       0.00000000       0.00000000      23.66206676 </v>
   </varray>
   <i name="volume">  11170.43037377 </i>
   <varray name="rec_basis" >
    <v>       0.04827294       0.00000000       0.00000000 </v>
    <v>       0.00000000       0.04388125       0.00000000 </v>
    <v>       0.00000000       0.00000000       0.04226174 </v>
   </varray>
  </crystal>
  <varray name="positions" >
   <v>       0.44595350       0.44687508       0.40847602 </v>
   <v>       0.44505437       0.55734823       0.40130955 </v>
   <v>       0.47580361       0.39504695       0.50177580 </v>
   <v>       0.51579164       0.50663036       0.48351631 </v>
   <v>       0.43609845       0.59621703       0.50090932 </v>
   <v>       0.42898579       0.42814574       0.59742382 </v>
   <v>       0.55016674       0.44635163       0.57784670 </v>
   <v>       0.46907984       0.53464292       0.58763369 </v>
  </varray>
 </structure>
 <calculation>
  <scstep>
   <time name="dav">    6.62    6.62</time>
   <time name="total">   10.66   10.68</time>
   <energy>
    <i name="alphaZ">      6.67359669 </i>
    <i name="ewald">   8099.92771528 </i>
    <i name="hartreedc"> -15178.73009872 </i>
    <i name="XCdc">    118.61058691 </i>
    <i name="pawpsdc">   6992.17180065 </i>
    <i name="pawaedc">  -6807.49900724 </i>
    <i name="eentropy">     -0.00697705 </i>
    <i name="bandstr">     89.76044977 </i>
    <i name="atom">   7408.64415014 </i>
    <i name="e_fr_energy">    729.55221645 </i>
    <i name="e_wo_entrp">    729.55919349 </i>
    <i name="e_0_energy">    729.55454213 </i>
   </energy>
  </scstep>
  <scstep>
   <time name="dav">   10.36   10.38</time>
   <time name="total">   10.37   10.39</time>
   <energy>
    <i name="e_fr_energy">    445.38755103 </i>
    <i name="e_wo_entrp">    445.44833903 </i>
    <i name="e_0_energy">    445.40781370 </i>
   </energy>
  </scstep>
  <scstep>
   <time name="dav">   10.24   10.26</time>
   <time name="total">   10.24   10.26</time>
   <energy>
    <i name="e_fr_energy">    128.93535491 </i>
    <i name="e_wo_entrp">    128.93463856 </i>
    <i name="e_0_energy">    128.93511613 </i>
   </energy>
  </scstep>
  <scstep>
   <time name="dav">    8.46    8.48</time>
   <time name="total">    8.47    8.48</time>
   <energy>
    <i name="e_fr_energy">      3.56993647 </i>
    <i name="e_wo_entrp">      3.54723227 </i>
    <i name="e_0_energy">      3.56236841 </i>
   </energy>
  </scstep>
  <scstep>
   <time name="dav">    7.31    7.32</time>
   <time name="total">    8.17    8.19</time>
   <energy>
    <i name="e_fr_energy">    -14.24766664 </i>
    <i name="e_wo_entrp">    -14.25286225 </i>
    <i name="e_0_energy">    -14.24939851 </i>
   </energy>
  </scstep>
  <scstep>
   <time name="dav">    6.26    6.27</time>
   <time name="total">   11.25   11.27</time>
   <energy>
    <i name="e_fr_energy">     -6.27252035 </i>
    <i name="e_wo_entrp">     -6.29716655 </i>
    <i name="e_0_energy">     -6.28073575 </i>
   </energy>
  </scstep>
  <scstep>
   <time name="dav">    7.03    7.03</time>
   <time name="total">   12.09   12.11</time>
   <energy>
    <i name="e_fr_energy">     -4.11942288 </i>
    <i name="e_wo_entrp">     -4.13836612 </i>
    <i name="e_0_energy">     -4.12573729 </i>
   </energy>
  </scstep>
  <scstep>
   <time name="dav">    6.94    6.95</time>
   <time name="total">   11.91   11.94</time>
   <energy>
    <i name="e_fr_energy">     -7.77591482 </i>
    <i name="e_wo_entrp">     -7.79702460 </i>
    <i name="e_0_energy">     -7.78295141 </i>
   </energy>
  </scstep>
  <scstep>
   <time name="dav">    6.19    6.20</time>
   <time name="total">   11.11   11.13</time>
   <energy>
    <i name="e_fr_energy">     -9.72515811 </i>
    <i name="e_wo_entrp">     -9.75362379 </i>
    <i name="e_0_energy">     -9.73464667 </i>
   </energy>
  </scstep>
  <scstep>
   <time name="dav">    6.31    6.32</time>
   <time name="total">   11.30   11.32</time>
   <energy>
    <i name="e_fr_energy">    -11.67681336 </i>
    <i name="e_wo_entrp">    -11.70694899 </i>
    <i name="e_0_energy">    -11.68685857 </i>
   </energy>
  </scstep>
  <scstep>
   <time name="dav">    6.42    6.43</time>
   <time name="total">   11.48   11.49</time>
   <energy>
    <i name="e_fr_energy">    -12.93063145 </i>
    <i name="e_wo_entrp">    -12.94700622 </i>
    <i name="e_0_energy">    -12.93608971 </i>
   </energy>
  </scstep>
  <scstep>
   <time name="dav">    7.32    7.33</time>
   <time name="total">   12.21   12.23</time>
   <energy>
    <i name="e_fr_energy">    -13.19448447 </i>
    <i name="e_wo_entrp">    -13.20772965 </i>
    <i name="e_0_energy">    -13.19889953 </i>
   </energy>
  </scstep>
  <scstep>
   <time name="dav">    6.49    6.50</time>
   <time name="total">   11.47   11.48</time>
   <energy>
    <i name="e_fr_energy">    -14.09796133 </i>
    <i name="e_wo_entrp">    -14.09226501 </i>
    <i name="e_0_energy">    -14.09606256 </i>
   </energy>
  </scstep>
  <scstep>
   <time name="dav">    6.75    6.76</time>
   <time name="total">   11.72   11.74</time>
   <energy>
    <i name="e_fr_energy">    -14.35674059 </i>
    <i name="e_wo_entrp">    -14.34888587 </i>
    <i name="e_0_energy">    -14.35412235 </i>
   </energy>
  </scstep>
  <scstep>
   <time name="dav">    6.38    6.39</time>
   <time name="total">   11.34   11.35</time>
   <energy>
    <i name="e_fr_energy">    -14.59048660 </i>
    <i name="e_wo_entrp">    -14.57691298 </i>
    <i name="e_0_energy">    -14.58596206 </i>
   </energy>
  </scstep>
  <scstep>
   <time name="dav">    6.59    6.59</time>
   <time name="total">   11.86   11.87</time>
   <energy>
    <i name="e_fr_energy">    -14.78197740 </i>
    <i name="e_wo_entrp">    -14.76213019 </i>
    <i name="e_0_energy">    -14.77536167 </i>
   </energy>
  </scstep>
  <scstep>
   <time name="dav">    6.72    6.73</time>
   <time name="total">   11.84   11.85</time>
   <energy>
    <i name="e_fr_energy">    -14.92869894 </i>
    <i name="e_wo_entrp">    -14.90282114 </i>
    <i name="e_0_energy">    -14.92007301 </i>
   </energy>
  </scstep>
  <scstep>
   <time name="dav">    6.08    6.09</time>
   <time name="total">   11.02   11.04</time>
   <energy>
    <i name="e_fr_energy">    -14.98020512 </i>
    <i name="e_wo_entrp">    -14.95137596 </i>
    <i name="e_0_energy">    -14.97059540 </i>
   </energy>
  </scstep>
  <scstep>
   <time name="dav">    5.95    5.96</time>
   <time name="total">   10.99   11.00</time>
   <energy>
    <i name="e_fr_energy">    -15.00490247 </i>
    <i name="e_wo_entrp">    -14.97382982 </i>
    <i name="e_0_energy">    -14.99454492 </i>
   </energy>
  </scstep>
  <scstep>
   <time name="dav">    5.17    5.18</time>
   <time name="total">   10.44   10.46</time>
   <energy>
    <i name="e_fr_energy">    -15.01503469 </i>
    <i name="e_wo_entrp">    -14.98286870 </i>
    <i name="e_0_energy">    -15.00431269 </i>
   </energy>
  </scstep>
  <scstep>
   <time name="dav">    5.02    5.02</time>
   <time name="total">   10.10   10.11</time>
   <energy>
    <i name="e_fr_energy">    -15.02116082 </i>
    <i name="e_wo_entrp">    -14.98862472 </i>
    <i name="e_0_energy">    -15.01031545 </i>
   </energy>
  </scstep>
  <scstep>
   <time name="dav">    4.88    4.89</time>
   <time name="total">    9.92    9.95</time>
   <energy>
    <i name="e_fr_energy">    -15.02585353 </i>
    <i name="e_wo_entrp">    -14.99311225 </i>
    <i name="e_0_energy">    -15.01493977 </i>
   </energy>
  </scstep>
  <scstep>
   <time name="dav">    5.27    5.27</time>
   <time name="total">   10.55   10.57</time>
   <energy>
    <i name="e_fr_energy">    -15.02926311 </i>
    <i name="e_wo_entrp">    -14.99646697 </i>
    <i name="e_0_energy">    -15.01833106 </i>
   </energy>
  </scstep>
  <scstep>
   <time name="dav">    5.01    5.02</time>
   <time name="total">   10.16   10.18</time>
   <energy>
    <i name="e_fr_energy">    -15.03111321 </i>
    <i name="e_wo_entrp">    -14.99831802 </i>
    <i name="e_0_energy">    -15.02018148 </i>
   </energy>
  </scstep>
  <scstep>
   <time name="dav">    5.17    5.18</time>
   <time name="total">   10.26   10.28</time>
   <energy>
    <i name="e_fr_energy">    -15.03188451 </i>
    <i name="e_wo_entrp">    -14.99907102 </i>
    <i name="e_0_energy">    -15.02094668 </i>
   </energy>
  </scstep>
  <scstep>
   <time name="dav">    5.13    5.14</time>
   <time name="total">   10.24   10.26</time>
   <energy>
    <i name="e_fr_energy">    -15.03222323 </i>
    <i name="e_wo_entrp">    -14.99941711 </i>
    <i name="e_0_energy">    -15.02128786 </i>
   </energy>
  </scstep>
  <scstep>
   <time name="dav">    5.00    5.01</time>
   <time name="total">   10.08   10.10</time>
   <energy>
    <i name="e_fr_energy">    -15.03241132 </i>
    <i name="e_wo_entrp">    -14.99961175 </i>
    <i name="e_0_energy">    -15.02147813 </i>
   </energy>
  </scstep>
  <scstep>
   <time name="dav">    5.03    5.04</time>
   <time name="total">    9.01    9.02</time>
   <energy>
    <i name="alphaZ">      6.67359669 </i>
    <i name="ewald">   8099.92771528 </i>
    <i name="hartreedc"> -15128.73645086 </i>
    <i name="XCdc">    115.58987526 </i>
    <i name="pawpsdc">   8106.52674163 </i>
    <i name="pawaedc">  -7938.09353897 </i>
    <i name="eentropy">     -0.03279960 </i>
    <i name="bandstr">   -685.53178951 </i>
    <i name="atom">   7408.64415014 </i>
    <i name="e_fr_energy">    -15.03249994 </i>
    <i name="e_wo_entrp">    -14.99970034 </i>
    <i name="e_0_energy">    -15.02156674 </i>
   </energy>
  </scstep>
  <structure>
   <crystal>
    <varray name="basis" >
     <v>      20.71553768       0.00000000       0.00000000 </v>
     <v>       0.00000000      22.78877710       0.00000000 </v>
     <v>       0.00000000       0.00000000      23.66206676 </v>
    </varray>
    <i name="volume">  11170.43037377 </i>
    <varray name="rec_basis" >
     <v>       0.04827294       0.00000000       0.00000000 </v>
     <v>       0.00000000       0.04388125       0.00000000 </v>
     <v>       0.00000000       0.00000000       0.04226174 </v>
    </varray>
   </crystal>
   <varray name="positions" >
    <v>       0.44595350       0.44687508       0.40847602 </v>
    <v>       0.44505437       0.55734823       0.40130955 </v>
    <v>       0.47580361       0.39504695       0.50177580 </v>
    <v>       0.51579164       0.50663036       0.48351631 </v>
    <v>       0.43609845       0.59621703       0.50090932 </v>
    <v>       0.42898579       0.42814574       0.59742382 </v>
    <v>       0.55016674       0.44635163       0.57784670 </v>
    <v>       0.46907984       0.53464292       0.58763369 </v>
   </varray>
  </structure>
  <varray name="forces" >
   <v>      -0.34469123      -1.41704190      -0.82000182 </v>
   <v>      -0.11610253       1.13050521      -1.74651370 </v>
   <v>      -0.03001275      -1.19721585      -0.79119911 </v>
   <v>       1.01630147       0.01744546       0.07778742 </v>
   <v>      -0.54181295       1.32152676       0.89508841 </v>
   <v>      -2.09564477      -1.07764872       1.50927633 </v>
   <v>       2.24664151      -0.04890694       0.16610567 </v>
   <v>      -0.13467875       1.27133598       0.70945680 </v>
  </varray>
  <energy>
   <i name="e_fr_energy">    -15.03249994 </i>
   <i name="e_wo_entrp">    -14.99970034 </i>
   <i name="e_0_energy">    -15.02156674 </i>
  </energy>
  <time name="totalsc">  314.15  314.74</time>
 </calculation>
 <calculation>
  <scstep>
   <time name="dav">    6.39    6.40</time>
   <time name="total">   11.44   11.46</time>
   <energy>
    <i name="alphaZ">      6.67359669 </i>
    <i name="ewald">   7605.32005928 </i>
    <i name="hartreedc"> -14642.28577451 </i>
    <i name="XCdc">    113.99495584 </i>
    <i name="pawpsdc">   8106.52781858 </i>
    <i name="pawaedc">  -7938.09465210 </i>
    <i name="eentropy">     -0.03933008 </i>
    <i name="bandstr">   -676.05234917 </i>
    <i name="atom">   7408.64415014 </i>
    <i name="e_fr_energy">    -15.31152534 </i>
    <i name="e_wo_entrp">    -15.27219525 </i>
    <i name="e_0_energy">    -15.29841531 </i>
   </energy>
  </scstep>
  <scstep>
   <time name="dav">    6.52    6.53</time>
   <time name="total">   11.43   11.45</time>
   <energy>
    <i name="e_fr_energy">    -15.72036066 </i>
    <i name="e_wo_entrp">    -15.67463211 </i>
    <i name="e_0_energy">    -15.70511781 </i>
   </energy>
  </scstep>
  <scstep>
   <time name="dav">    6.76    6.77</time>
   <time name="total">   11.63   11.64</time>
   <energy>
    <i name="e_fr_energy">    -15.69550694 </i>
    <i name="e_wo_entrp">    -15.65405000 </i>
    <i name="e_0_energy">    -15.68168796 </i>
   </energy>
  </scstep>
  <scstep>
   <time name="dav">    7.12    7.13</time>
   <time name="total">   12.26   12.28</time>
   <energy>
    <i name="e_fr_energy">    -15.69228437 </i>
    <i name="e_wo_entrp">    -15.64441048 </i>
    <i name="e_0_energy">    -15.67632641 </i>
   </energy>
  </scstep>
  <scstep>
   <time name="dav">    6.48    6.49</time>
   <time name="total">   11.50   11.52</time>
   <energy>
    <i name="e_fr_energy">    -15.68999885 </i>
    <i name="e_wo_entrp">    -15.64517514 </i>
    <i name="e_0_energy">    -15.67505761 </i>
   </energy>
  </scstep>
  <scstep>
   <time name="dav">    6.57    6.58</time>
   <time name="total">   11.46   11.48</time>
   <energy>
    <i name="e_fr_energy">    -15.69148370 </i>
    <i name="e_wo_entrp">    -15.64635889 </i>
    <i name="e_0_energy">    -15.67644210 </i>
   </energy>
  </scstep>
  <scstep>
   <time name="dav">    5.60    5.61</time>
   <time name="total">   10.60   10.61</time>
   <energy>
    <i name="e_fr_energy">    -15.69244773 </i>
    <i name="e_wo_entrp">    -15.64682927 </i>
    <i name="e_0_energy">    -15.67724157 </i>
   </energy>
  </scstep>
  <scstep>
   <time name="dav">    4.59    4.60</time>
   <time name="total">    9.54    9.56</time>
   <energy>
    <i name="e_fr_energy">    -15.69357392 </i>
    <i name="e_wo_entrp">    -15.64774553 </i>
    <i name="e_0_energy">    -15.67829779 </i>
   </energy>
  </scstep>
  <scstep>
   <time name="dav">    4.72    4.73</time>
   <time name="total">    9.66    9.67</time>
   <energy>
    <i name="e_fr_energy">    -15.69501573 </i>
    <i name="e_wo_entrp">    -15.64876253 </i>
    <i name="e_0_energy">    -15.67959799 </i>
   </energy>
  </scstep>
  <scstep>
   <time name="dav">    4.89    4.90</time>
   <time name="total">    9.88    9.89</time>
   <energy>
    <i name="e_fr_energy">    -15.69600059 </i>
    <i name="e_wo_entrp">    -15.64943213 </i>
    <i name="e_0_energy">    -15.68047777 </i>
   </energy>
  </scstep>
  <scstep>
   <time name="dav">    4.86    4.87</time>
   <time name="total">    9.79    9.80</time>
   <energy>
    <i name="e_fr_energy">    -15.69792680 </i>
    <i name="e_wo_entrp">    -15.65068271 </i>
    <i name="e_0_energy">    -15.68217877 </i>
   </energy>
  </scstep>
  <scstep>
   <time name="dav">    4.84    4.85</time>
   <time name="total">    9.78    9.79</time>
   <energy>
    <i name="e_fr_energy">    -15.69968019 </i>
    <i name="e_wo_entrp">    -15.65175093 </i>
    <i name="e_0_energy">    -15.68370377 </i>
   </energy>
  </scstep>
  <scstep>
   <time name="dav">    4.92    4.92</time>
   <time name="total">    9.94    9.95</time>
   <energy>
    <i name="e_fr_energy">    -15.70117616 </i>
    <i name="e_wo_entrp">    -15.65256572 </i>
    <i name="e_0_energy">    -15.68497268 </i>
   </energy>
  </scstep>
  <scstep>
   <time name="dav">    4.94    4.94</time>
   <time name="total">   10.15   10.18</time>
   <energy>
    <i name="e_fr_energy">    -15.70224797 </i>
    <i name="e_wo_entrp">    -15.65301206 </i>
    <i name="e_0_energy">    -15.68583600 </i>
   </energy>
  </scstep>
  <scstep>
   <time name="dav">    4.87    4.88</time>
   <time name="total">    9.89    9.90</time>
   <energy>
    <i name="e_fr_energy">    -15.70283351 </i>
    <i name="e_wo_entrp">    -15.65318621 </i>
    <i name="e_0_energy">    -15.68628441 </i>
   </energy>
  </scstep>
  <scstep>
   <time name="dav">    4.70    4.71</time>
   <time name="total">    9.75    9.77</time>
   <energy>
    <i name="e_fr_energy">    -15.70348065 </i>
    <i name="e_wo_entrp">    -15.65333800 </i>
    <i name="e_0_energy">    -15.68676643 </i>
   </energy>
  </scstep>
  <scstep>
   <time name="dav">    5.01    5.03</time>
   <time name="total">   10.11   10.12</time>
   <energy>
    <i name="e_fr_energy">    -15.70382190 </i>
    <i name="e_wo_entrp">    -15.65326646 </i>
    <i name="e_0_energy">    -15.68697009 </i>
   </energy>
  </scstep>
  <scstep>
   <time name="dav">    5.14    5.15</time>
   <time name="total">    9.20    9.22</time>
   <energy>
    <i name="alphaZ">      6.67359669 </i>
    <i name="ewald">   7605.32005928 </i>
    <i name="hartreedc"> -14653.51999634 </i>
    <i name="XCdc">    114.24364574 </i>
    <i name="pawpsdc">   7803.35267391 </i>
    <i name="pawaedc">  -7632.04496588 </i>
    <i name="eentropy">     -0.05080297 </i>
    <i name="bandstr">   -668.32225230 </i>
    <i name="atom">   7408.64415014 </i>
    <i name="e_fr_energy">    -15.70389174 </i>
    <i name="e_wo_entrp">    -15.65308877 </i>
    <i name="e_0_energy">    -15.68695742 </i>
   </energy>
  </scstep>
  <structure>
   <crystal>
    <varray name="basis" >
     <v>      20.71553768       0.00000000       0.00000000 </v>
     <v>       0.00000000      22.78877710       0.00000000 </v>
     <v>       0.00000000       0.00000000      23.66206676 </v>
    </varray>
    <i name="volume">  11170.43037377 </i>
    <varray name="rec_basis" >
     <v>       0.04827294       0.00000000       0.00000000 </v>
     <v>       0.00000000       0.04388125       0.00000000 </v>
     <v>       0.00000000       0.00000000       0.04226174 </v>
    </varray>
   </crystal>
   <varray name="positions" >
    <v>       0.44515077       0.44387528       0.40680418 </v>
    <v>       0.44478398       0.55974145       0.39774873 </v>
    <v>       0.47573371       0.39251251       0.50016269 </v>
    <v>       0.51815842       0.50666729       0.48367490 </v>
    <v>       0.43483667       0.59901464       0.50273424 </v>
    <v>       0.42410542       0.42586442       0.60050096 </v>
    <v>       0.55539875       0.44624810       0.57818536 </v>
    <v>       0.46876620       0.53733427       0.58908014 </v>
   </varray>
  </structure>
  <varray name="forces" >
   <v>      -0.07398727      -0.08584247      -0.48114258 </v>
   <v>       0.12264670       0.12990210      -0.18168912 </v>
   <v>       0.03232501      -0.24637633       0.45122752 </v>
   <v>       0.01491777       0.01685857      -0.00892093 </v>
   <v>      -0.13294767       0.48016141      -0.14767927 </v>
   <v>      -0.18073161      -0.15149441       0.21776167 </v>
   <v>       0.16189221       0.15220561      -0.24577723 </v>
   <v>       0.05588487      -0.29541448       0.39621994 </v>
  </varray>
  <energy>
   <i name="e_fr_energy">    -15.70389174 </i>
   <i name="e_wo_entrp">    -15.65308877 </i>
   <i name="e_0_energy">    -15.68695742 </i>
  </energy>
  <time name="totalsc">  201.66  204.03</time>
 </calculation>
 <calculation>
  <scstep>
   <time name="dav">    6.89    6.90</time>
   <time name="total">   11.92   11.94</time>
   <energy>
    <i name="alphaZ">      6.67359669 </i>
    <i name="ewald">   7525.47132180 </i>
    <i name="hartreedc"> -14574.60173108 </i>
    <i name="XCdc">    114.00425201 </i>
    <i name="pawpsdc">   7803.35106672 </i>
    <i name="pawaedc">  -7632.04315977 </i>
    <i name="eentropy">     -0.05079821 </i>
    <i name="bandstr">   -667.15006327 </i>
    <i name="atom">   7408.64415014 </i>
    <i name="e_fr_energy">    -15.70136496 </i>
    <i name="e_wo_entrp">    -15.65056675 </i>
    <i name="e_0_energy">    -15.68443223 </i>
   </energy>
  </scstep>
  <scstep>
   <time name="dav">    6.80    6.81</time>
   <time name="total">   11.75   11.77</time>
   <energy>
    <i name="e_fr_energy">    -15.71382938 </i>
    <i name="e_wo_entrp">    -15.66137262 </i>
    <i name="e_0_energy">    -15.69634379 </i>
   </energy>
  </scstep>
  <scstep>
   <time name="dav">    6.64    6.65</time>
   <time name="total">   11.47   11.49</time>
   <energy>
    <i name="e_fr_energy">    -15.71290053 </i>
    <i name="e_wo_entrp">    -15.66166910 </i>
    <i name="e_0_energy">    -15.69582339 </i>
   </energy>
  </scstep>
  <scstep>
   <time name="dav">    6.82    6.82</time>
   <time name="total">   11.73   11.74</time>
   <energy>
    <i name="e_fr_energy">    -15.71247241 </i>
    <i name="e_wo_entrp">    -15.65979733 </i>
    <i name="e_0_energy">    -15.69491405 </i>
   </energy>
  </scstep>
  <scstep>
   <time name="dav">    5.14    5.15</time>
   <time name="total">   10.05   10.06</time>
   <energy>
    <i name="e_fr_energy">    -15.71237108 </i>
    <i name="e_wo_entrp">    -15.66040977 </i>
    <i name="e_0_energy">    -15.69505064 </i>
   </energy>
  </scstep>
  <scstep>
   <time name="dav">    5.28    5.29</time>
   <time name="total">    9.26    9.27</time>
   <energy>
    <i name="alphaZ">      6.67359669 </i>
    <i name="ewald">   7525.47132180 </i>
    <i name="hartreedc"> -14576.21736077 </i>
    <i name="XCdc">    114.04690309 </i>
    <i name="pawpsdc">   7763.73984657 </i>
    <i name="pawaedc">  -7592.01754754 </i>
    <i name="eentropy">     -0.05208454 </i>
    <i name="bandstr">   -666.00127192 </i>
    <i name="atom">   7408.64415014 </i>
    <i name="e_fr_energy">    -15.71244646 </i>
    <i name="e_wo_entrp">    -15.66036192 </i>
    <i name="e_0_energy">    -15.69508495 </i>
   </energy>
  </scstep>
  <structure>
   <crystal>
    <varray name="basis" >
     <v>      20.71553768       0.00000000       0.00000000 </v>
     <v>       0.00000000      22.78877710       0.00000000 </v>
     <v>       0.00000000       0.00000000      23.66206676 </v>
    </varray>
    <i name="volume">  11170.43037377 </i>
    <varray name="rec_basis" >
     <v>       0.04827294       0.00000000       0.00000000 </v>
     <v>       0.00000000       0.04388125       0.00000000 </v>
     <v>       0.00000000       0.00000000       0.04226174 </v>
    </varray>
   </crystal>
   <varray name="positions" >
    <v>       0.44501487       0.44336739       0.40652113 </v>
    <v>       0.44473821       0.56014663       0.39714586 </v>
    <v>       0.47572188       0.39208341       0.49988958 </v>
    <v>       0.51855913       0.50667354       0.48370175 </v>
    <v>       0.43462304       0.59948829       0.50304321 </v>
    <v>       0.42327915       0.42547818       0.60102194 </v>
    <v>       0.55628456       0.44623057       0.57824270 </v>
    <v>       0.46871310       0.53778993       0.58932503 </v>
   </varray>
  </structure>
  <varray name="forces" >
   <v>      -0.03902374       0.07532909      -0.43366240 </v>
   <v>       0.15177542       0.00627717       0.01143701 </v>
   <v>       0.04023941      -0.12579885       0.58919837 </v>
   <v>      -0.11378611       0.00721186      -0.00524771 </v>
   <v>      -0.08065567       0.37251427      -0.27100689 </v>
   <v>       0.01043464      -0.04657017       0.06785294 </v>
   <v>      -0.04798857       0.18518129      -0.30704839 </v>
   <v>       0.07900463      -0.47414467       0.34847706 </v>
  </varray>
  <energy>
   <i name="e_fr_energy">    -15.71244646 </i>
   <i name="e_wo_entrp">    -15.66036192 </i>
   <i name="e_0_energy">    -15.69508495 </i>
  </energy>
  <time name="totalsc">   79.89   80.06</time>
 </calculation>
 <calculation>
  <scstep>
   <time name="dav">    6.26    6.27</time>
   <time name="total">   11.29   11.31</time>
   <energy>
    <i name="alphaZ">      6.67359669 </i>
    <i name="ewald">   7482.93203310 </i>
    <i name="hartreedc"> -14534.15698853 </i>
    <i name="XCdc">    113.92111733 </i>
    <i name="pawpsdc">   7764.02981122 </i>
    <i name="pawaedc">  -7592.31049208 </i>
    <i name="eentropy">     -0.04041295 </i>
    <i name="bandstr">   -665.42795631 </i>
    <i name="atom">   7408.64415014 </i>
    <i name="e_fr_energy">    -15.73514138 </i>
    <i name="e_wo_entrp">    -15.69472843 </i>
    <i name="e_0_energy">    -15.72167040 </i>
   </energy>
  </scstep>
  <scstep>
   <time name="dav">    6.73    6.74</time>
   <time name="total">   11.63   11.65</time>
   <energy>
    <i name="e_fr_energy">    -15.75145860 </i>
    <i name="e_wo_entrp">    -15.70235182 </i>
    <i name="e_0_energy">    -15.73508967 </i>
   </energy>
  </scstep>
  <scstep>
   <time name="dav">    6.59    6.60</time>
   <time name="total">   11.58   11.59</time>
   <energy>
    <i name="e_fr_energy">    -15.74677459 </i>
    <i name="e_wo_entrp">    -15.70161668 </i>
    <i name="e_0_energy">    -15.73172196 </i>
   </energy>
  </scstep>
  <scstep>
   <time name="dav">    6.71    6.72</time>
   <time name="total">   11.80   11.82</time>
   <energy>
    <i name="e_fr_energy">    -15.74039271 </i>
    <i name="e_wo_entrp">    -15.69281850 </i>
    <i name="e_0_energy">    -15.72453464 </i>
   </energy>
  </scstep>
  <scstep>
   <time name="dav">    5.60    5.60</time>
   <time name="total">   10.50   10.51</time>
   <energy>
    <i name="e_fr_energy">    -15.73728781 </i>
    <i name="e_wo_entrp">    -15.68909135 </i>
    <i name="e_0_energy">    -15.72122232 </i>
   </energy>
  </scstep>
  <scstep>
   <time name="dav">    4.93    4.93</time>
   <time name="total">    9.90    9.91</time>
   <energy>
    <i name="e_fr_energy">    -15.73824634 </i>
    <i name="e_wo_entrp">    -15.68992636 </i>
    <i name="e_0_energy">    -15.72213968 </i>
   </energy>
  </scstep>
  <scstep>
   <time name="dav">    5.19    5.20</time>
   <time name="total">   10.21   10.22</time>
   <energy>
    <i name="e_fr_energy">    -15.73929938 </i>
    <i name="e_wo_entrp">    -15.69041068 </i>
    <i name="e_0_energy">    -15.72300315 </i>
   </energy>
  </scstep>
  <scstep>
   <time name="dav">    4.84    4.84</time>
   <time name="total">    9.79    9.80</time>
   <energy>
    <i name="e_fr_energy">    -15.74038969 </i>
    <i name="e_wo_entrp">    -15.69105832 </i>
    <i name="e_0_energy">    -15.72394590 </i>
   </energy>
  </scstep>
  <scstep>
   <time name="dav">    4.91    4.92</time>
   <time name="total">    9.79    9.80</time>
   <energy>
    <i name="e_fr_energy">    -15.74230197 </i>
    <i name="e_wo_entrp">    -15.69214960 </i>
    <i name="e_0_energy">    -15.72558451 </i>
   </energy>
  </scstep>
  <scstep>
   <time name="dav">    4.90    4.91</time>
   <time name="total">    9.87    9.89</time>
   <energy>
    <i name="e_fr_energy">    -15.74631588 </i>
    <i name="e_wo_entrp">    -15.69429091 </i>
    <i name="e_0_energy">    -15.72897422 </i>
   </energy>
  </scstep>
  <scstep>
   <time name="dav">    4.93    4.93</time>
   <time name="total">    9.91    9.93</time>
   <energy>
    <i name="e_fr_energy">    -15.75027863 </i>
    <i name="e_wo_entrp">    -15.69613343 </i>
    <i name="e_0_energy">    -15.73223023 </i>
   </energy>
  </scstep>
  <scstep>
   <time name="dav">    5.00    5.01</time>
   <time name="total">    9.97    9.98</time>
   <energy>
    <i name="e_fr_energy">    -15.75285326 </i>
    <i name="e_wo_entrp">    -15.69692977 </i>
    <i name="e_0_energy">    -15.73421209 </i>
   </energy>
  </scstep>
  <scstep>
   <time name="dav">    4.85    4.86</time>
   <time name="total">    9.84    9.86</time>
   <energy>
    <i name="e_fr_energy">    -15.75451688 </i>
    <i name="e_wo_entrp">    -15.69746683 </i>
    <i name="e_0_energy">    -15.73550020 </i>
   </energy>
  </scstep>
  <scstep>
   <time name="dav">    4.85    4.86</time>
   <time name="total">    9.94    9.96</time>
   <energy>
    <i name="e_fr_energy">    -15.75592685 </i>
    <i name="e_wo_entrp">    -15.69790704 </i>
    <i name="e_0_energy">    -15.73658691 </i>
   </energy>
  </scstep>
  <scstep>
   <time name="dav">    4.96    4.97</time>
   <time name="total">    9.98   10.00</time>
   <energy>
    <i name="e_fr_energy">    -15.75729773 </i>
    <i name="e_wo_entrp">    -15.69823645 </i>
    <i name="e_0_energy">    -15.73761064 </i>
   </energy>
  </scstep>
  <scstep>
   <time name="dav">    5.06    5.06</time>
   <time name="total">    9.98    9.99</time>
   <energy>
    <i name="e_fr_energy">    -15.75766066 </i>
    <i name="e_wo_entrp">    -15.69813597 </i>
    <i name="e_0_energy">    -15.73781910 </i>
   </energy>
  </scstep>
  <scstep>
   <time name="dav">    5.35    5.35</time>
   <time name="total">    9.37    9.38</time>
   <energy>
    <i name="alphaZ">      6.67359669 </i>
    <i name="ewald">   7482.93203310 </i>
    <i name="hartreedc"> -14535.63268371 </i>
    <i name="XCdc">    113.93292945 </i>
    <i name="pawpsdc">   7741.32184528 </i>
    <i name="pawaedc">  -7569.31555949 </i>
    <i name="eentropy">     -0.05991140 </i>
    <i name="bandstr">   -664.25415120 </i>
    <i name="atom">   7408.64415014 </i>
    <i name="e_fr_energy">    -15.75775112 </i>
    <i name="e_wo_entrp">    -15.69783972 </i>
    <i name="e_0_energy">    -15.73778065 </i>
   </energy>
  </scstep>
  <structure>
   <crystal>
    <varray name="basis" >
     <v>      20.71553768       0.00000000       0.00000000 </v>
     <v>       0.00000000      22.78877710       0.00000000 </v>
     <v>       0.00000000       0.00000000      23.66206676 </v>
    </varray>
    <i name="volume">  11170.43037377 </i>
    <varray name="rec_basis" >
     <v>       0.04827294       0.00000000       0.00000000 </v>
     <v>       0.00000000       0.04388125       0.00000000 </v>
     <v>       0.00000000       0.00000000       0.04226174 </v>
    </varray>
   </crystal>
   <varray name="positions" >
    <v>       0.44487324       0.44335409       0.40550774 </v>
    <v>       0.44508757       0.56030251       0.39695848 </v>
    <v>       0.47581461       0.39165756       0.50103572 </v>
    <v>       0.51842574       0.50669152       0.48370011 </v>
    <v>       0.43435391       0.60046974       0.50258035 </v>
    <v>       0.42301441       0.42524076       0.60134772 </v>
    <v>       0.55647976       0.44662971       0.57761560 </v>
    <v>       0.46888469       0.53691205       0.59014548 </v>
   </varray>
  </structure>
  <varray name="forces" >
   <v>       0.07548552      -0.02499918      -0.11132721 </v>
   <v>       0.15047102      -0.04209003       0.08115275 </v>
   <v>      -0.05672388       0.04867365       0.24759472 </v>
   <v>      -0.16452613       0.01984521      -0.03380700 </v>
   <v>       0.04950977       0.13552354      -0.02810546 </v>
   <v>      -0.07597603      -0.07501757       0.10932213 </v>
   <v>       0.05159367       0.18887700      -0.30484108 </v>
   <v>      -0.02983395      -0.25081262       0.04001114 </v>
  </varray>
  <energy>
   <i name="e_fr_energy">    -15.75775112 </i>
   <i name="e_wo_entrp">    -15.69783972 </i>
   <i name="e_0_energy">    -15.73778065 </i>
  </energy>
  <time name="totalsc">  189.12  189.47</time>
 </calculation>
 <calculation>
  <scstep>
   <time name="dav">    6.72    6.73</time>
   <time name="total">   11.51   11.53</time>
   <energy>
    <i name="alphaZ">      6.67359669 </i>
    <i name="ewald">   7453.50115878 </i>
    <i name="hartreedc"> -14506.45836156 </i>
    <i name="XCdc">    113.85172261 </i>
    <i name="pawpsdc">   7741.32235781 </i>
    <i name="pawaedc">  -7569.31575964 </i>
    <i name="eentropy">     -0.04509837 </i>
    <i name="bandstr">   -663.93163168 </i>
    <i name="atom">   7408.64415014 </i>
    <i name="e_fr_energy">    -15.75786521 </i>
    <i name="e_wo_entrp">    -15.71276684 </i>
    <i name="e_0_energy">    -15.74283242 </i>
   </energy>
  </scstep>
  <scstep>
   <time name="dav">    6.73    6.73</time>
   <time name="total">   11.64   11.65</time>
   <energy>
    <i name="e_fr_energy">    -15.76813784 </i>
    <i name="e_wo_entrp">    -15.71272827 </i>
    <i name="e_0_energy">    -15.74966798 </i>
   </energy>
  </scstep>
  <scstep>
   <time name="dav">    6.70    6.71</time>
   <time name="total">   11.88   11.90</time>
   <energy>
    <i name="e_fr_energy">    -15.76679466 </i>
    <i name="e_wo_entrp">    -15.71704814 </i>
    <i name="e_0_energy">    -15.75021249 </i>
   </energy>
  </scstep>
  <scstep>
   <time name="dav">    6.33    6.34</time>
   <time name="total">   11.24   11.26</time>
   <energy>
    <i name="e_fr_energy">    -15.76510271 </i>
    <i name="e_wo_entrp">    -15.71284064 </i>
    <i name="e_0_energy">    -15.74768202 </i>
   </energy>
  </scstep>
  <scstep>
   <time name="dav">    5.05    5.06</time>
   <time name="total">    9.98   10.00</time>
   <energy>
    <i name="e_fr_energy">    -15.76384916 </i>
    <i name="e_wo_entrp">    -15.71174259 </i>
    <i name="e_0_energy">    -15.74648030 </i>
   </energy>
  </scstep>
  <scstep>
   <time name="dav">    4.76    4.77</time>
   <time name="total">    8.83    8.84</time>
   <energy>
    <i name="alphaZ">      6.67359669 </i>
    <i name="ewald">   7453.50115878 </i>
    <i name="hartreedc"> -14507.21372541 </i>
    <i name="XCdc">    113.87117016 </i>
    <i name="pawpsdc">   7727.89989264 </i>
    <i name="pawaedc">  -7555.72007609 </i>
    <i name="eentropy">     -0.05215781 </i>
    <i name="bandstr">   -663.36785955 </i>
    <i name="atom">   7408.64415014 </i>
    <i name="e_fr_energy">    -15.76385045 </i>
    <i name="e_wo_entrp">    -15.71169264 </i>
    <i name="e_0_energy">    -15.74646451 </i>
   </energy>
  </scstep>
  <structure>
   <crystal>
    <varray name="basis" >
     <v>      20.71553768       0.00000000       0.00000000 </v>
     <v>       0.00000000      22.78877710       0.00000000 </v>
     <v>       0.00000000       0.00000000      23.66206676 </v>
    </varray>
    <i name="volume">  11170.43037377 </i>
    <varray name="rec_basis" >
     <v>       0.04827294       0.00000000       0.00000000 </v>
     <v>       0.00000000       0.04388125       0.00000000 </v>
     <v>       0.00000000       0.00000000       0.04226174 </v>
    </varray>
   </crystal>
   <varray name="positions" >
    <v>       0.44477369       0.44334475       0.40479544 </v>
    <v>       0.44533314       0.56041208       0.39682677 </v>
    <v>       0.47587979       0.39135823       0.50184132 </v>
    <v>       0.51833198       0.50670415       0.48369896 </v>
    <v>       0.43416474       0.60115959       0.50225502 </v>
    <v>       0.42282833       0.42507388       0.60157671 </v>
    <v>       0.55661697       0.44691026       0.57717482 </v>
    <v>       0.46900530       0.53629501       0.59072216 </v>
   </varray>
  </structure>
  <varray name="forces" >
   <v>       0.14180796      -0.07154750       0.07627837 </v>
   <v>       0.15410309      -0.07330439       0.12666613 </v>
   <v>      -0.11283853       0.14320498       0.04467118 </v>
   <v>      -0.21361395       0.03129889      -0.05847355 </v>
   <v>       0.12543752      -0.00685992       0.10147510 </v>
   <v>      -0.12412585      -0.09194442       0.13501869 </v>
   <v>       0.12316712       0.18316222      -0.29040812 </v>
   <v>      -0.09393736      -0.11400986      -0.13522780 </v>
  </varray>
  <energy>
   <i name="e_fr_energy">    -15.76385045 </i>
   <i name="e_wo_entrp">    -15.71169264 </i>
   <i name="e_0_energy">    -15.74646451 </i>
  </energy>
  <time name="totalsc">   78.73   79.13</time>
 </calculation>
 <calculation>
  <scstep>
   <time name="dav">    6.42    6.43</time>
   <time name="total">   11.33   11.35</time>
   <energy>
    <i name="alphaZ">      6.67359669 </i>
    <i name="ewald">   7467.77830999 </i>
    <i name="hartreedc"> -14521.35802596 </i>
    <i name="XCdc">    113.91997608 </i>
    <i name="pawpsdc">   7728.01429388 </i>
    <i name="pawaedc">  -7555.83579238 </i>
    <i name="eentropy">     -0.03955335 </i>
    <i name="bandstr">   -663.57325613 </i>
    <i name="atom">   7408.64415014 </i>
    <i name="e_fr_energy">    -15.77630104 </i>
    <i name="e_wo_entrp">    -15.73674769 </i>
    <i name="e_0_energy">    -15.76311659 </i>
   </energy>
  </scstep>
  <scstep>
   <time name="dav">    6.58    6.59</time>
   <time name="total">   11.66   11.69</time>
   <energy>
    <i name="e_fr_energy">    -15.78527436 </i>
    <i name="e_wo_entrp">    -15.73368554 </i>
    <i name="e_0_energy">    -15.76807809 </i>
   </energy>
  </scstep>
  <scstep>
   <time name="dav">    6.85    6.87</time>
   <time name="total">   11.82   11.85</time>
   <energy>
    <i name="e_fr_energy">    -15.78417815 </i>
    <i name="e_wo_entrp">    -15.73728707 </i>
    <i name="e_0_energy">    -15.76854779 </i>
   </energy>
  </scstep>
  <scstep>
   <time name="dav">    6.94    6.94</time>
   <time name="total">   11.86   11.88</time>
   <energy>
    <i name="e_fr_energy">    -15.78269879 </i>
    <i name="e_wo_entrp">    -15.73503696 </i>
    <i name="e_0_energy">    -15.76681151 </i>
   </energy>
  </scstep>
  <scstep>
   <time name="dav">    6.89    6.90</time>
   <time name="total">   11.98   11.99</time>
   <energy>
    <i name="e_fr_energy">    -15.78088277 </i>
    <i name="e_wo_entrp">    -15.73332088 </i>
    <i name="e_0_energy">    -15.76502881 </i>
   </energy>
  </scstep>
  <scstep>
   <time name="dav">    4.93    4.94</time>
   <time name="total">    9.95    9.97</time>
   <energy>
    <i name="e_fr_energy">    -15.78103154 </i>
    <i name="e_wo_entrp">    -15.73370836 </i>
    <i name="e_0_energy">    -15.76525715 </i>
   </energy>
  </scstep>
  <scstep>
   <time name="dav">    4.69    4.70</time>
   <time name="total">    9.70    9.71</time>
   <energy>
    <i name="e_fr_energy">    -15.78130615 </i>
    <i name="e_wo_entrp">    -15.73372539 </i>
    <i name="e_0_energy">    -15.76544590 </i>
   </energy>
  </scstep>
  <scstep>
   <time name="dav">    4.73    4.74</time>
   <time name="total">    9.87    9.90</time>
   <energy>
    <i name="e_fr_energy">    -15.78161801 </i>
    <i name="e_wo_entrp">    -15.73376266 </i>
    <i name="e_0_energy">    -15.76566622 </i>
   </energy>
  </scstep>
  <scstep>
   <time name="dav">    5.00    5.00</time>
   <time name="total">   10.07   10.08</time>
   <energy>
    <i name="e_fr_energy">    -15.78228933 </i>
    <i name="e_wo_entrp">    -15.73422440 </i>
    <i name="e_0_energy">    -15.76626769 </i>
   </energy>
  </scstep>
  <scstep>
   <time name="dav">    4.66    4.67</time>
   <time name="total">    9.60    9.62</time>
   <energy>
    <i name="e_fr_energy">    -15.78447974 </i>
    <i name="e_wo_entrp">    -15.73561202 </i>
    <i name="e_0_energy">    -15.76819050 </i>
   </energy>
  </scstep>
  <scstep>
   <time name="dav">    5.49    5.50</time>
   <time name="total">   10.46   10.48</time>
   <energy>
    <i name="e_fr_energy">    -15.78675313 </i>
    <i name="e_wo_entrp">    -15.73676609 </i>
    <i name="e_0_energy">    -15.77009079 </i>
   </energy>
  </scstep>
  <scstep>
   <time name="dav">    4.96    4.96</time>
   <time name="total">    9.99   10.01</time>
   <energy>
    <i name="e_fr_energy">    -15.78789674 </i>
    <i name="e_wo_entrp">    -15.73751309 </i>
    <i name="e_0_energy">    -15.77110219 </i>
   </energy>
  </scstep>
  <scstep>
   <time name="dav">    4.72    4.73</time>
   <time name="total">    9.77    9.79</time>
   <energy>
    <i name="e_fr_energy">    -15.78853519 </i>
    <i name="e_wo_entrp">    -15.73798530 </i>
    <i name="e_0_energy">    -15.77168523 </i>
   </energy>
  </scstep>
  <scstep>
   <time name="dav">    4.57    4.58</time>
   <time name="total">    9.62    9.64</time>
   <energy>
    <i name="e_fr_energy">    -15.79022798 </i>
    <i name="e_wo_entrp">    -15.73929699 </i>
    <i name="e_0_energy">    -15.77325098 </i>
   </energy>
  </scstep>
  <scstep>
   <time name="dav">    5.29    5.29</time>
   <time name="total">   10.54   10.55</time>
   <energy>
    <i name="e_fr_energy">    -15.79068268 </i>
    <i name="e_wo_entrp">    -15.73969415 </i>
    <i name="e_0_energy">    -15.77368650 </i>
   </energy>
  </scstep>
  <scstep>
   <time name="dav">    5.08    5.08</time>
   <time name="total">   10.17   10.20</time>
   <energy>
    <i name="e_fr_energy">    -15.79159507 </i>
    <i name="e_wo_entrp">    -15.74050305 </i>
    <i name="e_0_energy">    -15.77456439 </i>
   </energy>
  </scstep>
  <scstep>
   <time name="dav">    5.34    5.35</time>
   <time name="total">   10.33   10.34</time>
   <energy>
    <i name="e_fr_energy">    -15.79191897 </i>
    <i name="e_wo_entrp">    -15.74083137 </i>
    <i name="e_0_energy">    -15.77488977 </i>
   </energy>
  </scstep>
  <scstep>
   <time name="dav">    5.17    5.18</time>
   <time name="total">   10.17   10.18</time>
   <energy>
    <i name="e_fr_energy">    -15.79208300 </i>
    <i name="e_wo_entrp">    -15.74096389 </i>
    <i name="e_0_energy">    -15.77504330 </i>
   </energy>
  </scstep>
  <scstep>
   <time name="dav">    5.40    5.41</time>
   <time name="total">    9.50    9.52</time>
   <energy>
    <i name="alphaZ">      6.67359669 </i>
    <i name="ewald">   7467.77830999 </i>
    <i name="hartreedc"> -14521.18974310 </i>
    <i name="XCdc">    113.90466244 </i>
    <i name="pawpsdc">   7736.05210283 </i>
    <i name="pawaedc">  -7563.95149856 </i>
    <i name="eentropy">     -0.05110434 </i>
    <i name="bandstr">   -663.65257914 </i>
    <i name="atom">   7408.64415014 </i>
    <i name="e_fr_energy">    -15.79210305 </i>
    <i name="e_wo_entrp">    -15.74099871 </i>
    <i name="e_0_energy">    -15.77506827 </i>
   </energy>
  </scstep>
  <structure>
   <crystal>
    <varray name="basis" >
     <v>      20.71553768       0.00000000       0.00000000 </v>
     <v>       0.00000000      22.78877710       0.00000000 </v>
     <v>       0.00000000       0.00000000      23.66206676 </v>
    </varray>
    <i name="volume">  11170.43037377 </i>
    <varray name="rec_basis" >
     <v>       0.04827294       0.00000000       0.00000000 </v>
     <v>       0.00000000       0.04388125       0.00000000 </v>
     <v>       0.00000000       0.00000000       0.04226174 </v>
    </varray>
   </crystal>
   <varray name="positions" >
    <v>       0.44512534       0.44316259       0.40470855 </v>
    <v>       0.44584950       0.56027066       0.39708132 </v>
    <v>       0.47559465       0.39160214       0.50225440 </v>
    <v>       0.51770979       0.50678708       0.48355794 </v>
    <v>       0.43443742       0.60140422       0.50237554 </v>
    <v>       0.42241686       0.42478104       0.60198821 </v>
    <v>       0.55700726       0.44747395       0.57630938 </v>
    <v>       0.46879310       0.53577627       0.59061587 </v>
   </varray>
  </structure>
  <varray name="forces" >
   <v>       0.12752225      -0.09151333       0.05461354 </v>
   <v>       0.13249824      -0.06664442       0.11576615 </v>
   <v>      -0.13797746       0.12162369       0.04274864 </v>
   <v>      -0.14727238       0.04376258      -0.07562184 </v>
   <v>       0.10829580       0.01868546       0.10963109 </v>
   <v>      -0.12494759      -0.08673290       0.12607693 </v>
   <v>       0.16261436       0.16430611      -0.25782205 </v>
   <v>      -0.12073321      -0.10348719      -0.11539245 </v>
  </varray>
  <energy>
   <i name="e_fr_energy">    -15.79210305 </i>
   <i name="e_wo_entrp">    -15.74099871 </i>
   <i name="e_0_energy">    -15.77506827 </i>
  </energy>
  <time name="totalsc">  212.10  212.49</time>
 </calculation>
 <calculation>
  <scstep>
   <time name="dav">    6.25    6.26</time>
   <time name="total">   11.15   11.16</time>
   <energy>
    <i name="alphaZ">      6.67359669 </i>
    <i name="ewald">   7509.19490313 </i>
    <i name="hartreedc"> -14562.27714471 </i>
    <i name="XCdc">    114.05825850 </i>
    <i name="pawpsdc">   7736.04037987 </i>
    <i name="pawaedc">  -7563.93969059 </i>
    <i name="eentropy">     -0.00708788 </i>
    <i name="bandstr">   -664.14067788 </i>
    <i name="atom">   7408.64415014 </i>
    <i name="e_fr_energy">    -15.75331273 </i>
    <i name="e_wo_entrp">    -15.74622486 </i>
    <i name="e_0_energy">    -15.75095011 </i>
   </energy>
  </scstep>
  <scstep>
   <time name="dav">    6.79    6.80</time>
   <time name="total">   11.69   11.71</time>
   <energy>
    <i name="e_fr_energy">    -15.85706898 </i>
    <i name="e_wo_entrp">    -15.81474904 </i>
    <i name="e_0_energy">    -15.84296234 </i>
   </energy>
  </scstep>
  <scstep>
   <time name="dav">    6.44    6.45</time>
   <time name="total">   11.36   11.38</time>
   <energy>
    <i name="e_fr_energy">    -15.85292202 </i>
    <i name="e_wo_entrp">    -15.82433515 </i>
    <i name="e_0_energy">    -15.84339307 </i>
   </energy>
  </scstep>
  <scstep>
   <time name="dav">    6.79    6.80</time>
   <time name="total">   11.70   11.72</time>
   <energy>
    <i name="e_fr_energy">    -15.84990215 </i>
    <i name="e_wo_entrp">    -15.81801833 </i>
    <i name="e_0_energy">    -15.83927421 </i>
   </energy>
  </scstep>
  <scstep>
   <time name="dav">    6.35    6.37</time>
   <time name="total">   11.29   11.32</time>
   <energy>
    <i name="e_fr_energy">    -15.84953002 </i>
    <i name="e_wo_entrp">    -15.81995729 </i>
    <i name="e_0_energy">    -15.83967244 </i>
   </energy>
  </scstep>
  <scstep>
   <time name="dav">    6.63    6.64</time>
   <time name="total">   11.47   11.49</time>
   <energy>
    <i name="e_fr_energy">    -15.84939701 </i>
    <i name="e_wo_entrp">    -15.82012807 </i>
    <i name="e_0_energy">    -15.83964070 </i>
   </energy>
  </scstep>
  <scstep>
   <time name="dav">    4.70    4.71</time>
   <time name="total">    8.58    8.59</time>
   <energy>
    <i name="alphaZ">      6.67359669 </i>
    <i name="ewald">   7509.19490313 </i>
    <i name="hartreedc"> -14561.51182438 </i>
    <i name="XCdc">    114.03473461 </i>
    <i name="pawpsdc">   7762.31888441 </i>
    <i name="pawaedc">  -7590.48109350 </i>
    <i name="eentropy">     -0.02980774 </i>
    <i name="bandstr">   -664.69297655 </i>
    <i name="atom">   7408.64415014 </i>
    <i name="e_fr_energy">    -15.84943319 </i>
    <i name="e_wo_entrp">    -15.81962545 </i>
    <i name="e_0_energy">    -15.83949727 </i>
   </energy>
  </scstep>
  <structure>
   <crystal>
    <varray name="basis" >
     <v>      20.71553768       0.00000000       0.00000000 </v>
     <v>       0.00000000      22.78877710       0.00000000 </v>
     <v>       0.00000000       0.00000000      23.66206676 </v>
    </varray>
    <i name="volume">  11170.43037377 </i>
    <varray name="rec_basis" >
     <v>       0.04827294       0.00000000       0.00000000 </v>
     <v>       0.00000000       0.04388125       0.00000000 </v>
     <v>       0.00000000       0.00000000       0.04226174 </v>
    </varray>
   </crystal>
   <varray name="positions" >
    <v>       0.44618028       0.44261614       0.40444787 </v>
    <v>       0.44739860       0.55984642       0.39784498 </v>
    <v>       0.47473924       0.39233385       0.50349364 </v>
    <v>       0.51584323       0.50703586       0.48313488 </v>
    <v>       0.43525549       0.60213814       0.50273709 </v>
    <v>       0.42118244       0.42390251       0.60322270 </v>
    <v>       0.55817815       0.44916499       0.57371305 </v>
    <v>       0.46815650       0.53422005       0.59029700 </v>
   </varray>
  </structure>
  <varray name="forces" >
   <v>       0.08307273      -0.15679051      -0.00618687 </v>
   <v>       0.04626488      -0.01504646       0.03443468 </v>
   <v>      -0.21106757       0.05117122       0.02307945 </v>
   <v>       0.04061746       0.07110231      -0.11229409 </v>
   <v>       0.05685813       0.09282990       0.13891539 </v>
   <v>      -0.12759248      -0.06876393       0.09467451 </v>
   <v>       0.31445495       0.08076891      -0.11812169 </v>
   <v>      -0.20260810      -0.05527143      -0.05450138 </v>
  </varray>
  <energy>
   <i name="e_fr_energy">    -15.84943319 </i>
   <i name="e_wo_entrp">    -15.81962545 </i>
   <i name="e_0_energy">    -15.83949727 </i>
  </energy>
  <time name="totalsc">   91.05   91.31</time>
 </calculation>
 <calculation>
  <scstep>
   <time name="dav">    6.17    6.18</time>
   <time name="total">   11.14   11.16</time>
   <energy>
    <i name="alphaZ">      6.67359669 </i>
    <i name="ewald">   7585.27352706 </i>
    <i name="hartreedc"> -14637.06833563 </i>
    <i name="XCdc">    114.36459577 </i>
    <i name="pawpsdc">   7762.15257359 </i>
    <i name="pawaedc">  -7590.31530637 </i>
    <i name="eentropy">      0.03804846 </i>
    <i name="bandstr">   -665.26192305 </i>
    <i name="atom">   7408.64415014 </i>
    <i name="e_fr_energy">    -15.49907334 </i>
    <i name="e_wo_entrp">    -15.53712180 </i>
    <i name="e_0_energy">    -15.51175616 </i>
   </energy>
  </scstep>
  <scstep>
   <time name="dav">    6.52    6.53</time>
   <time name="total">   11.38   11.40</time>
   <energy>
    <i name="e_fr_energy">    -15.91875878 </i>
    <i name="e_wo_entrp">    -15.92602079 </i>
    <i name="e_0_energy">    -15.92117945 </i>
   </energy>
  </scstep>
  <scstep>
   <time name="dav">    6.77    6.78</time>
   <time name="total">   11.64   11.66</time>
   <energy>
    <i name="e_fr_energy">    -15.90604454 </i>
    <i name="e_wo_entrp">    -15.92394597 </i>
    <i name="e_0_energy">    -15.91201168 </i>
   </energy>
  </scstep>
  <scstep>
   <time name="dav">    6.92    6.93</time>
   <time name="total">   11.74   11.76</time>
   <energy>
    <i name="e_fr_energy">    -15.89527166 </i>
    <i name="e_wo_entrp">    -15.90946069 </i>
    <i name="e_0_energy">    -15.90000134 </i>
   </energy>
  </scstep>
  <scstep>
   <time name="dav">    6.24    6.25</time>
   <time name="total">   11.04   11.06</time>
   <energy>
    <i name="e_fr_energy">    -15.89532544 </i>
    <i name="e_wo_entrp">    -15.91161512 </i>
    <i name="e_0_energy">    -15.90075534 </i>
   </energy>
  </scstep>
  <scstep>
   <time name="dav">    6.58    6.59</time>
   <time name="total">   11.46   11.48</time>
   <energy>
    <i name="e_fr_energy">    -15.89490894 </i>
    <i name="e_wo_entrp">    -15.91057643 </i>
    <i name="e_0_energy">    -15.90013144 </i>
   </energy>
  </scstep>
  <scstep>
   <time name="dav">    4.69    4.70</time>
   <time name="total">    9.71    9.72</time>
   <energy>
    <i name="e_fr_energy">    -15.89509294 </i>
    <i name="e_wo_entrp">    -15.91041119 </i>
    <i name="e_0_energy">    -15.90019903 </i>
   </energy>
  </scstep>
  <scstep>
   <time name="dav">    5.25    5.25</time>
   <time name="total">   10.10   10.12</time>
   <energy>
    <i name="e_fr_energy">    -15.89521433 </i>
    <i name="e_wo_entrp">    -15.91069031 </i>
    <i name="e_0_energy">    -15.90037299 </i>
   </energy>
  </scstep>
  <scstep>
   <time name="dav">    4.69    4.70</time>
   <time name="total">    9.52    9.54</time>
   <energy>
    <i name="e_fr_energy">    -15.89534651 </i>
    <i name="e_wo_entrp">    -15.91081750 </i>
    <i name="e_0_energy">    -15.90050351 </i>
   </energy>
  </scstep>
  <scstep>
   <time name="dav">    5.25    5.25</time>
   <time name="total">   10.20   10.21</time>
   <energy>
    <i name="e_fr_energy">    -15.89550085 </i>
    <i name="e_wo_entrp">    -15.91092828 </i>
    <i name="e_0_energy">    -15.90064333 </i>
   </energy>
  </scstep>
  <scstep>
   <time name="dav">    4.55    4.55</time>
   <time name="total">    9.36    9.37</time>
   <energy>
    <i name="e_fr_energy">    -15.89565993 </i>
    <i name="e_wo_entrp">    -15.91106847 </i>
    <i name="e_0_energy">    -15.90079611 </i>
   </energy>
  </scstep>
  <scstep>
   <time name="dav">    5.19    5.20</time>
   <time name="total">    9.17    9.18</time>
   <energy>
    <i name="alphaZ">      6.67359669 </i>
    <i name="ewald">   7585.27352706 </i>
    <i name="hartreedc"> -14635.57054398 </i>
    <i name="XCdc">    114.31184123 </i>
    <i name="pawpsdc">   7820.54375180 </i>
    <i name="pawaedc">  -7649.29482600 </i>
    <i name="eentropy">      0.01540157 </i>
    <i name="bandstr">   -666.49262652 </i>
    <i name="atom">   7408.64415014 </i>
    <i name="e_fr_energy">    -15.89572802 </i>
    <i name="e_wo_entrp">    -15.91112959 </i>
    <i name="e_0_energy">    -15.90086188 </i>
   </energy>
  </scstep>
  <structure>
   <crystal>
    <varray name="basis" >
     <v>      20.71553768       0.00000000       0.00000000 </v>
     <v>       0.00000000      22.78877710       0.00000000 </v>
     <v>       0.00000000       0.00000000      23.66206676 </v>
    </varray>
    <i name="volume">  11170.43037377 </i>
    <varray name="rec_basis" >
     <v>       0.04827294       0.00000000       0.00000000 </v>
     <v>       0.00000000       0.04388125       0.00000000 </v>
     <v>       0.00000000       0.00000000       0.04226174 </v>
    </varray>
   </crystal>
   <varray name="positions" >
    <v>       0.44829018       0.44152323       0.40392650 </v>
    <v>       0.45049680       0.55899792       0.39937228 </v>
    <v>       0.47302842       0.39379726       0.50597213 </v>
    <v>       0.51211010       0.50753342       0.48228878 </v>
    <v>       0.43689162       0.60360596       0.50346018 </v>
    <v>       0.41871360       0.42214545       0.60569168 </v>
    <v>       0.56051993       0.45254709       0.56852039 </v>
    <v>       0.46688329       0.53110760       0.58965926 </v>
   </varray>
  </structure>
  <varray name="forces" >
   <v>       0.01423173      -0.29953114      -0.11387493 </v>
   <v>      -0.25381679       0.21751646      -0.34244853 </v>
   <v>      -0.35710850      -0.06574084      -0.01490447 </v>
   <v>       0.42275278       0.03799794      -0.04069322 </v>
   <v>      -0.02097877       0.22848391       0.20720497 </v>
   <v>      -0.17679907      -0.04687585       0.05245877 </v>
   <v>       0.74534938      -0.10509898       0.19445150 </v>
   <v>      -0.37363075       0.03324849       0.05780590 </v>
  </varray>
  <energy>
   <i name="e_fr_energy">    -15.89572802 </i>
   <i name="e_wo_entrp">    -15.91112959 </i>
   <i name="e_0_energy">    -15.90086188 </i>
  </energy>
  <time name="totalsc">  140.20  140.46</time>
 </calculation>
 <calculation>
  <scstep>
   <time name="dav">    6.17    6.18</time>
   <time name="total">   10.99   11.00</time>
   <energy>
    <i name="alphaZ">      6.67359669 </i>
    <i name="ewald">   7576.43296807 </i>
    <i name="hartreedc"> -14626.86313827 </i>
    <i name="XCdc">    114.29217672 </i>
    <i name="pawpsdc">   7820.56139345 </i>
    <i name="pawaedc">  -7649.31244519 </i>
    <i name="eentropy">      0.02086348 </i>
    <i name="bandstr">   -666.35288613 </i>
    <i name="atom">   7408.64415014 </i>
    <i name="e_fr_energy">    -15.90332106 </i>
    <i name="e_wo_entrp">    -15.92418453 </i>
    <i name="e_0_energy">    -15.91027555 </i>
   </energy>
  </scstep>
  <scstep>
   <time name="dav">    6.38    6.39</time>
   <time name="total">   11.14   11.16</time>
   <energy>
    <i name="e_fr_energy">    -15.90849719 </i>
    <i name="e_wo_entrp">    -15.92696018 </i>
    <i name="e_0_energy">    -15.91465152 </i>
   </energy>
  </scstep>
  <scstep>
   <time name="dav">    6.90    6.91</time>
   <time name="total">   11.86   11.88</time>
   <energy>
    <i name="e_fr_energy">    -15.90835002 </i>
    <i name="e_wo_entrp">    -15.92759120 </i>
    <i name="e_0_energy">    -15.91476375 </i>
   </energy>
  </scstep>
  <scstep>
   <time name="dav">    5.64    5.66</time>
   <time name="total">   10.58   10.60</time>
   <energy>
    <i name="e_fr_energy">    -15.90819207 </i>
    <i name="e_wo_entrp">    -15.92734982 </i>
    <i name="e_0_energy">    -15.91457799 </i>
   </energy>
  </scstep>
  <scstep>
   <time name="dav">    6.86    6.87</time>
   <time name="total">   10.74   10.76</time>
   <energy>
    <i name="alphaZ">      6.67359669 </i>
    <i name="ewald">   7576.43296807 </i>
    <i name="hartreedc"> -14627.13458556 </i>
    <i name="XCdc">    114.29804768 </i>
    <i name="pawpsdc">   7817.91335115 </i>
    <i name="pawaedc">  -7646.63532234 </i>
    <i name="eentropy">      0.01956103 </i>
    <i name="bandstr">   -666.11995982 </i>
    <i name="atom">   7408.64415014 </i>
    <i name="e_fr_energy">    -15.90819295 </i>
    <i name="e_wo_entrp">    -15.92775398 </i>
    <i name="e_0_energy">    -15.91471330 </i>
   </energy>
  </scstep>
  <structure>
   <crystal>
    <varray name="basis" >
     <v>      20.71553768       0.00000000       0.00000000 </v>
     <v>       0.00000000      22.78877710       0.00000000 </v>
     <v>       0.00000000       0.00000000      23.66206676 </v>
    </varray>
    <i name="volume">  11170.43037377 </i>
    <varray name="rec_basis" >
     <v>       0.04827294       0.00000000       0.00000000 </v>
     <v>       0.00000000       0.04388125       0.00000000 </v>
     <v>       0.00000000       0.00000000       0.04226174 </v>
    </varray>
   </crystal>
   <varray name="positions" >
    <v>       0.44851255       0.44129375       0.40383005 </v>
    <v>       0.45070481       0.55899628       0.39939945 </v>
    <v>       0.47269901       0.39392146       0.50622051 </v>
    <v>       0.51190991       0.50759931       0.48218669 </v>
    <v>       0.43705024       0.60384601       0.50361256 </v>
    <v>       0.41838430       0.42194699       0.60596453 </v>
    <v>       0.56108152       0.45285248       0.56806168 </v>
    <v>       0.46659160       0.53080166       0.58961574 </v>
   </varray>
  </structure>
  <varray name="forces" >
   <v>       0.01916078      -0.28152931      -0.11197769 </v>
   <v>      -0.27588853       0.21813372      -0.34530339 </v>
   <v>      -0.34877694      -0.04193820       0.00618228 </v>
   <v>       0.42852289       0.02546670      -0.01942761 </v>
   <v>      -0.01325182       0.21810532       0.19168167 </v>
   <v>      -0.17984093      -0.04163535       0.04615389 </v>
   <v>       0.73298273      -0.09958113       0.18599499 </v>
   <v>      -0.36290818       0.00297825       0.04669585 </v>
  </varray>
  <energy>
   <i name="e_fr_energy">    -15.90819295 </i>
   <i name="e_wo_entrp">    -15.92775398 </i>
   <i name="e_0_energy">    -15.91471330 </i>
  </energy>
  <time name="totalsc">   68.81   69.02</time>
 </calculation>
 <calculation>
  <scstep>
   <time name="dav">    6.36    6.37</time>
   <time name="total">   11.32   11.35</time>
   <energy>
    <i name="alphaZ">      6.67359669 </i>
    <i name="ewald">   7549.13467179 </i>
    <i name="hartreedc"> -14600.23744444 </i>
    <i name="XCdc">    114.24017539 </i>
    <i name="pawpsdc">   7817.83800065 </i>
    <i name="pawaedc">  -7646.55966613 </i>
    <i name="eentropy">      0.03330756 </i>
    <i name="bandstr">   -665.66458875 </i>
    <i name="atom">   7408.64415014 </i>
    <i name="e_fr_energy">    -15.89779710 </i>
    <i name="e_wo_entrp">    -15.93110466 </i>
    <i name="e_0_energy">    -15.90889962 </i>
   </energy>
  </scstep>
  <scstep>
   <time name="dav">    6.62    6.64</time>
   <time name="total">   11.34   11.36</time>
   <energy>
    <i name="e_fr_energy">    -15.94437607 </i>
    <i name="e_wo_entrp">    -15.97314980 </i>
    <i name="e_0_energy">    -15.95396731 </i>
   </energy>
  </scstep>
  <scstep>
   <time name="dav">    6.37    6.38</time>
   <time name="total">   11.15   11.17</time>
   <energy>
    <i name="e_fr_energy">    -15.94313450 </i>
    <i name="e_wo_entrp">    -15.97333524 </i>
    <i name="e_0_energy">    -15.95320141 </i>
   </energy>
  </scstep>
  <scstep>
   <time name="dav">    6.49    6.50</time>
   <time name="total">   11.29   11.31</time>
   <energy>
    <i name="e_fr_energy">    -15.94157588 </i>
    <i name="e_wo_entrp">    -15.97177488 </i>
    <i name="e_0_energy">    -15.95164221 </i>
   </energy>
  </scstep>
  <scstep>
   <time name="dav">    6.51    6.52</time>
   <time name="total">   11.18   11.20</time>
   <energy>
    <i name="e_fr_energy">    -15.94147942 </i>
    <i name="e_wo_entrp">    -15.97248634 </i>
    <i name="e_0_energy">    -15.95181506 </i>
   </energy>
  </scstep>
  <scstep>
   <time name="dav">    5.08    5.11</time>
   <time name="total">    8.98    9.01</time>
   <energy>
    <i name="alphaZ">      6.67359669 </i>
    <i name="ewald">   7549.13467179 </i>
    <i name="hartreedc"> -14601.02846623 </i>
    <i name="XCdc">    114.25690155 </i>
    <i name="pawpsdc">   7809.91340316 </i>
    <i name="pawaedc">  -7638.54680994 </i>
    <i name="eentropy">      0.03085389 </i>
    <i name="bandstr">   -665.01975139 </i>
    <i name="atom">   7408.64415014 </i>
    <i name="e_fr_energy">    -15.94145035 </i>
    <i name="e_wo_entrp">    -15.97230423 </i>
    <i name="e_0_energy">    -15.95173497 </i>
   </energy>
  </scstep>
  <structure>
   <crystal>
    <varray name="basis" >
     <v>      20.71553768       0.00000000       0.00000000 </v>
     <v>       0.00000000      22.78877710       0.00000000 </v>
     <v>       0.00000000       0.00000000      23.66206676 </v>
    </varray>
    <i name="volume">  11170.43037377 </i>
    <varray name="rec_basis" >
     <v>       0.04827294       0.00000000       0.00000000 </v>
     <v>       0.00000000       0.04388125       0.00000000 </v>
     <v>       0.00000000       0.00000000       0.04226174 </v>
    </varray>
   </crystal>
   <varray name="positions" >
    <v>       0.44917967       0.44060529       0.40354071 </v>
    <v>       0.45132882       0.55899135       0.39948096 </v>
    <v>       0.47171076       0.39429404       0.50696564 </v>
    <v>       0.51130936       0.50779700       0.48188044 </v>
    <v>       0.43752612       0.60456614       0.50406968 </v>
    <v>       0.41739639       0.42135162       0.60678308 </v>
    <v>       0.56276629       0.45376866       0.56668552 </v>
    <v>       0.46571652       0.52988385       0.58948517 </v>
   </varray>
  </structure>
  <varray name="forces" >
   <v>       0.02748010      -0.21926784      -0.09574958 </v>
   <v>      -0.35666826       0.23010295      -0.37137565 </v>
   <v>      -0.30616173       0.02556473       0.05021151 </v>
   <v>       0.45598659      -0.02135647       0.05965009 </v>
   <v>       0.00513905       0.17020866       0.14277630 </v>
   <v>      -0.17489798      -0.01830480       0.01633689 </v>
   <v>       0.66399889      -0.09981465       0.18719653 </v>
   <v>      -0.31487666      -0.06713258       0.01095391 </v>
  </varray>
  <energy>
   <i name="e_fr_energy">    -15.94145035 </i>
   <i name="e_wo_entrp">    -15.97230423 </i>
   <i name="e_0_energy">    -15.95173497 </i>
  </energy>
  <time name="totalsc">   78.80   79.13</time>
[...]
       <r>    -1.8488     2.0981    48.0662 </r>
       <r>    -1.8000     4.2195    48.2720 </r>
       <r>    -1.7513     6.4019    48.5843 </r>
       <r>    -1.7025     7.8563    48.9676 </r>
       <r>    -1.6537     7.9716    49.3564 </r>
       <r>    -1.6049     6.6909    49.6828 </r>
       <r>    -1.5561     4.5441    49.9045 </r>
       <r>    -1.5073     2.3132    50.0173 </r>
       <r>    -1.4586     0.6075    50.0470 </r>
       <r>    -1.4098    -0.3402    50.0304 </r>
       <r>    -1.3610    -0.5846    50.0018 </r>
       <r>    -1.3122    -0.2659    49.9889 </r>
       <r>    -1.2634     0.4909    50.0128 </r>
       <r>    -1.2147     1.5238    50.0872 </r>
       <r>    -1.1659     2.5707    50.2126 </r>
       <r>    -1.1171     3.3677    50.3768 </r>
       <r>    -1.0683     3.8953    50.5669 </r>
       <r>    -1.0195     4.5206    50.7874 </r>
       <r>    -0.9708     5.7771    51.0692 </r>
       <r>    -0.9220     7.8490    51.4521 </r>
       <r>    -0.8732    10.2067    51.9500 </r>
       <r>    -0.8244    11.8238    52.5267 </r>
       <r>    -0.7756    11.8929    53.1069 </r>
       <r>    -0.7269    10.4329    53.6158 </r>
       <r>    -0.6781     8.2363    54.0176 </r>
       <r>    -0.6293     6.2218    54.3211 </r>
       <r>    -0.5805     4.8093    54.5557 </r>
       <r>    -0.5317     3.8314    54.7426 </r>
       <r>    -0.4829     2.9212    54.8851 </r>
       <r>    -0.4342     1.9134    54.9784 </r>
       <r>    -0.3854     0.9206    55.0233 </r>
       <r>    -0.3366     0.1425    55.0303 </r>
       <r>    -0.2878    -0.3179    55.0148 </r>
       <r>    -0.2390    -0.4701    54.9918 </r>
       <r>    -0.1903    -0.3319    54.9757 </r>
       <r>    -0.1415     0.1413    54.9825 </r>
       <r>    -0.0927     1.0019    55.0314 </r>
       <r>    -0.0439     2.1695    55.1372 </r>
       <r>     0.0049     3.3434    55.3003 </r>
       <r>     0.0536     4.0920    55.5000 </r>
       <r>     0.1024     4.0944    55.6997 </r>
       <r>     0.1512     3.3535    55.8633 </r>
       <r>     0.2000     2.1967    55.9704 </r>
       <r>     0.2488     1.0654    56.0224 </r>
       <r>     0.2975     0.2677    56.0355 </r>
       <r>     0.3463    -0.1271    56.0293 </r>
       <r>     0.3951    -0.2259    56.0182 </r>
       <r>     0.4439    -0.1825    56.0093 </r>
       <r>     0.4927    -0.1083    56.0041 </r>
       <r>     0.5415    -0.0520    56.0015 </r>
       <r>     0.5902    -0.0210    56.0005 </r>
       <r>     0.6390    -0.0072    56.0001 </r>
       <r>     0.6878    -0.0022    56.0000 </r>
       <r>     0.7366    -0.0006    56.0000 </r>
       <r>     0.7854    -0.0001    56.0000 </r>
       <r>     0.8341    -0.0000    56.0000 </r>
       <r>     0.8829    -0.0000    56.0000 </r>
       <r>     0.9317    -0.0000    56.0000 </r>
       <r>     0.9805    -0.0000    56.0000 </r>
       <r>     1.0293    -0.0000    56.0000 </r>
       <r>     1.0780    -0.0000    56.0000 </r>
       <r>     1.1268    -0.0000    56.0000 </r>
       <r>     1.1756    -0.0000    56.0000 </r>
       <r>     1.2244    -0.0000    56.0000 </r>
       <r>     1.2732    -0.0000    56.0000 </r>
       <r>     1.3220    -0.0000    56.0000 </r>
       <r>     1.3707     0.0000    56.0000 </r>
       <r>     1.4195     0.0000    56.0000 </r>
       <r>     1.4683     0.0000    56.0000 </r>
       <r>     1.5171     0.0000    56.0000 </r>
       <r>     1.5659     0.0000    56.0000 </r>
       <r>     1.6146     0.0000    56.0000 </r>
       <r>     1.6634     0.0000    56.0000 </r>
       <r>     1.7122     0.0000    56.0000 </r>
       <r>     1.7610     0.0000    56.0000 </r>
       <r>     1.8098     0.0000    56.0000 </r>
       <r>     1.8585     0.0000    56.0000 </r>
       <r>     1.9073     0.0000    56.0000 </r>
       <r>     1.9561     0.0000    56.0000 </r>
       <r>     2.0049     0.0000    56.0000 </r>
       <r>     2.0537     0.0000    56.0000 </r>
      </set>
      <set comment="spin 2">
       <r>   -12.5806     0.0000     0.0000 </r>
       <r>   -12.5319     0.0000     0.0000 </r>
       <r>   -12.4831     0.0000     0.0000 </r>
       <r>   -12.4343     0.0000     0.0000 </r>
       <r>   -12.3855     0.0000     0.0000 </r>
       <r>   -12.3367     0.0000     0.0000 </r>
       <r>   -12.2880     0.0000     0.0000 </r>
       <r>   -12.2392     0.0000     0.0000 </r>
       <r>   -12.1904    -0.0000    -0.0000 </r>
       <r>   -12.1416    -0.0000    -0.0000 </r>
       <r>   -12.0928    -0.0000    -0.0000 </r>
       <r>   -12.0441    -0.0000    -0.0000 </r>
       <r>   -11.9953    -0.0000    -0.0000 </r>
       <r>   -11.9465    -0.0000    -0.0000 </r>
       <r>   -11.8977    -0.0000    -0.0000 </r>
       <r>   -11.8489    -0.0000    -0.0000 </r>
       <r>   -11.8001    -0.0000    -0.0000 </r>
       <r>   -11.7514    -0.0000    -0.0000 </r>
       <r>   -11.7026    -0.0000    -0.0000 </r>
       <r>   -11.6538    -0.0000    -0.0000 </r>
       <r>   -11.6050    -0.0000    -0.0000 </r>
       <r>   -11.5562    -0.0000    -0.0000 </r>
       <r>   -11.5075    -0.0000    -0.0000 </r>
       <r>   -11.4587    -0.0000    -0.0000 </r>
       <r>   -11.4099    -0.0000    -0.0000 </r>
       <r>   -11.3611    -0.0000    -0.0000 </r>
       <r>   -11.3123    -0.0000    -0.0000 </r>
       <r>   -11.2636    -0.0001    -0.0000 </r>
       <r>   -11.2148    -0.0006    -0.0000 </r>
       <r>   -11.1660    -0.0022    -0.0001 </r>
       <r>   -11.1172    -0.0072    -0.0005 </r>
       <r>   -11.0684    -0.0210    -0.0015 </r>
       <r>   -11.0197    -0.0520    -0.0041 </r>
       <r>   -10.9709    -0.1083    -0.0093 </r>
       <r>   -10.9221    -0.1825    -0.0182 </r>
       <r>   -10.8733    -0.2259    -0.0293 </r>
       <r>   -10.8245    -0.1271    -0.0355 </r>
       <r>   -10.7757     0.2677    -0.0224 </r>
       <r>   -10.7270     1.0654     0.0296 </r>
       <r>   -10.6782     2.1967     0.1367 </r>
       <r>   -10.6294     3.3536     0.3003 </r>
       <r>   -10.5806     4.0952     0.5001 </r>
       <r>   -10.5318     4.0948     0.6998 </r>
       <r>   -10.4831     3.3525     0.8634 </r>
       <r>   -10.4343     2.1947     0.9704 </r>
       <r>   -10.3855     1.0612     1.0222 </r>
       <r>   -10.3367     0.2567     1.0347 </r>
       <r>   -10.2879    -0.1565     1.0271 </r>
       <r>   -10.2392    -0.2960     1.0127 </r>
       <r>   -10.1904    -0.3248     0.9968 </r>
       <r>   -10.1416    -0.3460     0.9799 </r>
       <r>   -10.0928    -0.3574     0.9625 </r>
       <r>   -10.0440    -0.2539     0.9501 </r>
       <r>    -9.9953     0.1293     0.9564 </r>
       <r>    -9.9465     0.9417     1.0024 </r>
       <r>    -9.8977     2.2383     1.1115 </r>
       <r>    -9.8489     3.9438     1.3039 </r>
       <r>    -9.8001     5.8624     1.5899 </r>
       <r>    -9.7513     7.6878     1.9649 </r>
       <r>    -9.7026     9.0120     2.4045 </r>
       <r>    -9.6538     9.4237     2.8642 </r>
       <r>    -9.6050     8.7614     3.2916 </r>
       <r>    -9.5562     7.3636     3.6508 </r>
       <r>    -9.5074     6.0117     3.9441 </r>
       <r>    -9.4587     5.4682     4.2108 </r>
       <r>    -9.4099     5.9197     4.4996 </r>
       <r>    -9.3611     6.8143     4.8320 </r>
       <r>    -9.3123     7.2716     5.1867 </r>
       <r>    -9.2635     6.7470     5.5158 </r>
       <r>    -9.2148     5.4160     5.7800 </r>
       <r>    -9.1660     3.9980     5.9751 </r>
       <r>    -9.1172     3.2111     6.1317 </r>
       <r>    -9.0684     3.3103     6.2932 </r>
       <r>    -9.0196     4.0241     6.4895 </r>
       <r>    -8.9708     4.8444     6.7258 </r>
       <r>    -8.9221     5.3788     6.9882 </r>
       <r>    -8.8733     5.5298     7.2579 </r>
       <r>    -8.8245     5.4735     7.5249 </r>
       <r>    -8.7757     5.5186     7.7941 </r>
       <r>    -8.7269     5.9061     8.0823 </r>
       <r>    -8.6782     6.6162     8.4050 </r>
       <r>    -8.6294     7.3316     8.7626 </r>
       <r>    -8.5806     7.6664     9.1366 </r>
       <r>    -8.5318     7.5202     9.5035 </r>
       <r>    -8.4830     7.2099     9.8552 </r>
       <r>    -8.4343     7.1943    10.2061 </r>
       <r>    -8.3855     7.6338    10.5785 </r>
       <r>    -8.3367     8.2399    10.9804 </r>
       <r>    -8.2879     8.5792    11.3989 </r>
       <r>    -8.2391     8.5148    11.8143 </r>
       <r>    -8.1904     8.3309    12.2207 </r>
       <r>    -8.1416     8.4290    12.6319 </r>
       <r>    -8.0928     8.9097    13.0665 </r>
       <r>    -8.0440     9.4477    13.5274 </r>
       <r>    -7.9952     9.5749    13.9944 </r>
       <r>    -7.9464     9.1184    14.4392 </r>
       <r>    -7.8977     8.3921    14.8486 </r>
       <r>    -7.8489     7.9503    15.2364 </r>
       <r>    -7.8001     8.1126    15.6322 </r>
       <r>    -7.7513     8.6785    16.0555 </r>
       <r>    -7.7025     9.0789    16.4984 </r>
       <r>    -7.6538     8.8222    16.9288 </r>
       <r>    -7.6050     7.8789    17.3131 </r>
       <r>    -7.5562     6.7333    17.6416 </r>
       <r>    -7.5074     6.0820    17.9383 </r>
       <r>    -7.4586     6.3868    18.2498 </r>
       <r>    -7.4099     7.5979    18.6204 </r>
       <r>    -7.3611     9.2562    19.0720 </r>
       <r>    -7.3123    10.8798    19.6027 </r>
       <r>    -7.2635    12.2849    20.2020 </r>
       <r>    -7.2147    13.5805    20.8644 </r>
       <r>    -7.1659    14.9252    21.5925 </r>
       <r>    -7.1172    16.3448    22.3898 </r>
       <r>    -7.0684    17.7539    23.2559 </r>
       <r>    -7.0196    19.0611    24.1857 </r>
       <r>    -6.9708    20.1845    25.1703 </r>
       <r>    -6.9220    20.9721    26.1934 </r>
       <r>    -6.8733    21.1601    27.2256 </r>
       <r>    -6.8245    20.4738    28.2243 </r>
       <r>    -6.7757    18.8373    29.1432 </r>
       <r>    -6.7269    16.5503    29.9506 </r>
       <r>    -6.6781    14.2770    30.6470 </r>
       <r>    -6.6294    12.8017    31.2715 </r>
       <r>    -6.5806    12.6423    31.8882 </r>
       <r>    -6.5318    13.7271    32.5578 </r>
       <r>    -6.4830    15.3651    33.3073 </r>
       <r>    -6.4342    16.6215    34.1181 </r>
       <r>    -6.3855    16.9028    34.9427 </r>
       <r>    -6.3367    16.2971    35.7377 </r>
       <r>    -6.2879    15.3690    36.4874 </r>
       <r>    -6.2391    14.6234    37.2007 </r>
       <r>    -6.1903    14.1689    37.8919 </r>
       <r>    -6.1415    13.8318    38.5666 </r>
       <r>    -6.0928    13.4499    39.2227 </r>
       <r>    -6.0440    12.9643    39.8552 </r>
       <r>    -5.9952    12.2981    40.4551 </r>
       <r>    -5.9464    11.3031    41.0064 </r>
       <r>    -5.8976     9.9101    41.4899 </r>
       <r>    -5.8489     8.2769    41.8936 </r>
       <r>    -5.8001     6.6991    42.2204 </r>
       <r>    -5.7513     5.3559    42.4817 </r>
       <r>    -5.7025     4.1910    42.6861 </r>
       <r>    -5.6537     3.0719    42.8360 </r>
       <r>    -5.6050     2.0428    42.9356 </r>
       <r>    -5.5562     1.3806    43.0030 </r>
       <r>    -5.5074     1.3816    43.0704 </r>
       <r>    -5.4586     2.0703    43.1713 </r>
       <r>    -5.4098     3.0886    43.3220 </r>
       <r>    -5.3611     3.8661    43.5106 </r>
       <r>    -5.3123     3.9561    43.7036 </r>
       <r>    -5.2635     3.2911    43.8641 </r>
       <r>    -5.2147     2.1783    43.9704 </r>
       <r>    -5.1659     1.0647    44.0223 </r>
       <r>    -5.1171     0.2705    44.0355 </r>
       <r>    -5.0684    -0.1257    44.0294 </r>
       <r>    -5.0196    -0.2261    44.0184 </r>
       <r>    -4.9708    -0.1833    44.0094 </r>
       <r>    -4.9220    -0.1090    44.0041 </r>
       <r>    -4.8732    -0.0525    44.0015 </r>
       <r>    -4.8245    -0.0212    44.0005 </r>
       <r>    -4.7757    -0.0076    44.0001 </r>
       <r>    -4.7269    -0.0032    44.0000 </r>
       <r>    -4.6781    -0.0042    43.9998 </r>
       <r>    -4.6293    -0.0117    43.9992 </r>
       <r>    -4.5806    -0.0315    43.9977 </r>
       <r>    -4.5318    -0.0727    43.9941 </r>
       <r>    -4.4830    -0.1393    43.9873 </r>
       <r>    -4.4342    -0.2098    43.9771 </r>
       <r>    -4.3854    -0.2100    43.9668 </r>
       <r>    -4.3366    -0.0044    43.9666 </r>
       <r>    -4.2879     0.5543    43.9937 </r>
       <r>    -4.2391     1.5097    44.0673 </r>
       <r>    -4.1903     2.6834    44.1982 </r>
       <r>    -4.1415     3.6769    44.3776 </r>
       <r>    -4.0927     4.0572    44.5755 </r>
       <r>    -4.0440     3.6333    44.7527 </r>
       <r>    -3.9952     2.6182    44.8804 </r>
       <r>    -3.9464     1.5419    44.9557 </r>
       <r>    -3.8976     0.9700    45.0030 </r>
       <r>    -3.8488     1.2174    45.0624 </r>
       <r>    -3.8001     2.2220    45.1707 </r>
       <r>    -3.7513     3.6177    45.3472 </r>
       <r>    -3.7025     4.9349    45.5880 </r>
       <r>    -3.6537     5.7978    45.8708 </r>
       <r>    -3.6049     6.0265    46.1648 </r>
       <r>    -3.5562     5.6493    46.4403 </r>
       <r>    -3.5074     4.8832    46.6785 </r>
       <r>    -3.4586     4.0864    46.8779 </r>
       <r>    -3.4098     3.6180    47.0544 </r>
       <r>    -3.3610     3.6204    47.2310 </r>
       <r>    -3.3122     3.8902    47.4207 </r>
       <r>    -3.2635     3.9995    47.6158 </r>
       <r>    -3.2147     3.6083    47.7919 </r>
       <r>    -3.1659     2.7079    47.9240 </r>
       <r>    -3.1171     1.5957    48.0018 </r>
       <r>    -3.0683     0.6371    48.0329 </r>
       <r>    -3.0196     0.0403    48.0348 </r>
       <r>    -2.9708    -0.2017    48.0250 </r>
       <r>    -2.9220    -0.2202    48.0143 </r>
       <r>    -2.8732    -0.1529    48.0068 </r>
       <r>    -2.8244    -0.0826    48.0028 </r>
       <r>    -2.7757    -0.0368    48.0010 </r>
       <r>    -2.7269    -0.0139    48.0003 </r>
       <r>    -2.6781    -0.0045    48.0001 </r>
       <r>    -2.6293    -0.0013    48.0000 </r>
       <r>    -2.5805    -0.0003    48.0000 </r>
       <r>    -2.5318    -0.0001    48.0000 </r>
       <r>    -2.4830    -0.0000    48.0000 </r>
       <r>    -2.4342    -0.0001    48.0000 </r>
       <r>    -2.3854    -0.0003    48.0000 </r>
       <r>    -2.3366    -0.0013    47.9999 </r>
       <r>    -2.2878    -0.0049    47.9997 </r>
       <r>    -2.2391    -0.0159    47.9989 </r>
       <r>    -2.1903    -0.0444    47.9967 </r>
       <r>    -2.1415    -0.1061    47.9916 </r>
       <r>    -2.0927    -0.2131    47.9812 </r>
       <r>    -2.0439    -0.3457    47.9643 </r>
       <r>    -1.9952    -0.4066    47.9445 </r>
       <r>    -1.9464    -0.1880    47.9353 </r>
       <r>    -1.8976     0.5857    47.9639 </r>
       <r>    -1.8488     2.0981    48.0662 </r>
       <r>    -1.8000     4.2195    48.2720 </r>
       <r>    -1.7513     6.4019    48.5843 </r>
       <r>    -1.7025     7.8563    48.9676 </r>
       <r>    -1.6537     7.9716    49.3564 </r>
       <r>    -1.6049     6.6909    49.6828 </r>
       <r>    -1.5561     4.5441    49.9045 </r>
       <r>    -1.5073     2.3132    50.0173 </r>
       <r>    -1.4586     0.6075    50.0470 </r>
       <r>    -1.4098    -0.3402    50.0304 </r>
       <r>    -1.3610    -0.5846    50.0018 </r>
       <r>    -1.3122    -0.2659    49.9889 </r>
       <r>    -1.2634     0.4909    50.0128 </r>
       <r>    -1.2147     1.5238    50.0872 </r>
       <r>    -1.1659     2.5707    50.2126 </r>
       <r>    -1.1171     3.3677    50.3768 </r>
       <r>    -1.0683     3.8953    50.5669 </r>
       <r>    -1.0195     4.5206    50.7874 </r>
       <r>    -0.9708     5.7771    51.0692 </r>
       <r>    -0.9220     7.8490    51.4521 </r>
       <r>    -0.8732    10.2067    51.9500 </r>
       <r>    -0.8244    11.8238    52.5267 </r>
       <r>    -0.7756    11.8929    53.1069 </r>
       <r>    -0.7269    10.4329    53.6158 </r>
       <r>    -0.6781     8.2363    54.0176 </r>
       <r>    -0.6293     6.2218    54.3211 </r>
       <r>    -0.5805     4.8093    54.5557 </r>
       <r>    -0.5317     3.8314    54.7426 </r>
       <r>    -0.4829     2.9212    54.8851 </r>
       <r>    -0.4342     1.9134    54.9784 </r>
       <r>    -0.3854     0.9206    55.0233 </r>
       <r>    -0.3366     0.1425    55.0303 </r>
       <r>    -0.2878    -0.3179    55.0148 </r>
       <r>    -0.2390    -0.4701    54.9918 </r>
       <r>    -0.1903    -0.3319    54.9757 </r>
       <r>    -0.1415     0.1413    54.9825 </r>
       <r>    -0.0927     1.0019    55.0314 </r>
       <r>    -0.0439     2.1695    55.1372 </r>
       <r>     0.0049     3.3434    55.3003 </r>
       <r>     0.0536     4.0920    55.5000 </r>
       <r>     0.1024     4.0944    55.6997 </r>
       <r>     0.1512     3.3534    55.8633 </r>
       <r>     0.2000     2.1967    55.9704 </r>
       <r>     0.2488     1.0654    56.0224 </r>
       <r>     0.2975     0.2677    56.0355 </r>
       <r>     0.3463    -0.1271    56.0293 </r>
       <r>     0.3951    -0.2259    56.0182 </r>
       <r>     0.4439    -0.1825    56.0093 </r>
       <r>     0.4927    -0.1083    56.0041 </r>
       <r>     0.5415    -0.0520    56.0015 </r>
       <r>     0.5902    -0.0210    56.0005 </r>
       <r>     0.6390    -0.0072    56.0001 </r>
       <r>     0.6878    -0.0022    56.0000 </r>
       <r>     0.7366    -0.0006    56.0000 </r>
       <r>     0.7854    -0.0001    56.0000 </r>
       <r>     0.8341    -0.0000    56.0000 </r>
       <r>     0.8829    -0.0000    56.0000 </r>
       <r>     0.9317    -0.0000    56.0000 </r>
       <r>     0.9805    -0.0000    56.0000 </r>
       <r>     1.0293    -0.0000    56.0000 </r>
       <r>     1.0780    -0.0000    56.0000 </r>
       <r>     1.1268    -0.0000    56.0000 </r>
       <r>     1.1756    -0.0000    56.0000 </r>
       <r>     1.2244    -0.0000    56.0000 </r>
       <r>     1.2732    -0.0000    56.0000 </r>
       <r>     1.3220    -0.0000    56.0000 </r>
       <r>     1.3707     0.0000    56.0000 </r>
       <r>     1.4195     0.0000    56.0000 </r>
       <r>     1.4683     0.0000    56.0000 </r>
       <r>     1.5171     0.0000    56.0000 </r>
       <r>     1.5659     0.0000    56.0000 </r>
       <r>     1.6146     0.0000    56.0000 </r>
       <r>     1.6634     0.0000    56.0000 </r>
       <r>     1.7122     0.0000    56.0000 </r>
       <r>     1.7610     0.0000    56.0000 </r>
       <r>     1.8098     0.0000    56.0000 </r>
       <r>     1.8585     0.0000    56.0000 </r>
       <r>     1.9073     0.0000    56.0000 </r>
       <r>     1.9561     0.0000    56.0000 </r>
       <r>     2.0049     0.0000    56.0000 </r>
       <r>     2.0537     0.0000    56.0000 </r>
      </set>
     </set>
    </array>
   </total>
  </dos>
 </calculation>
 <structure name="finalpos" >
  <crystal>
   <varray name="basis" >
    <v>      20.71553768       0.00000000       0.00000000 </v>
    <v>       0.00000000      22.78877710       0.00000000 </v>
    <v>       0.00000000       0.00000000      23.66206676 </v>
   </varray>
   <i name="volume">  11170.43037377 </i>
   <varray name="rec_basis" >
    <v>       0.04827294       0.00000000       0.00000000 </v>
    <v>       0.00000000       0.04388125       0.00000000 </v>
    <v>       0.00000000       0.00000000       0.04226174 </v>
   </varray>
  </crystal>
  <varray name="positions" >
   <v>       0.46737815       0.43529556       0.40174446 </v>
   <v>       0.42086867       0.54445030       0.41886885 </v>
   <v>       0.46358673       0.41238129       0.51355289 </v>
   <v>       0.52832094       0.51381179       0.47402317 </v>
   <v>       0.45625152       0.61017280       0.50850735 </v>
   <v>       0.39132403       0.42051984       0.60584306 </v>
   <v>       0.58091396       0.45946997       0.55969521 </v>
   <v>       0.45828993       0.51515640       0.57665621 </v>
  </varray>
 </structure>
</modeling>
