unknown system                          
            1
    20.715538    0.000000    0.000000
     0.000000   22.788777    0.000000
     0.000000    0.000000   23.662067
   Au
     8
Direct configuration=     1
   0.44595350  0.44687508  0.40847602
   0.44505437  0.55734823  0.40130955
   0.47580361  0.39504695  0.50177580
   0.51579164  0.50663036  0.48351631
   0.43609845  0.59621703  0.50090932
   0.42898579  0.42814574  0.59742382
   0.55016674  0.44635163  0.57784670
   0.46907984  0.53464292  0.58763369
Direct configuration=     2
   0.44515077  0.44387528  0.40680418
   0.44478398  0.55974145  0.39774873
   0.47573371  0.39251251  0.50016269
   0.51815842  0.50666729  0.48367490
   0.43483667  0.59901464  0.50273424
   0.42410542  0.42586442  0.60050096
   0.55539875  0.44624810  0.57818536
   0.46876620  0.53733427  0.58908014
Direct configuration=     3
   0.44501487  0.44336739  0.40652113
   0.44473821  0.56014663  0.39714586
   0.47572188  0.39208341  0.49988958
   0.51855913  0.50667354  0.48370175
   0.43462304  0.59948829  0.50304321
   0.42327915  0.42547818  0.60102194
   0.55628456  0.44623057  0.57824270
   0.46871310  0.53778993  0.58932503
Direct configuration=     4
   0.44487324  0.44335409  0.40550774
   0.44508757  0.56030251  0.39695848
   0.47581461  0.39165756  0.50103572
   0.51842574  0.50669152  0.48370011
   0.43435391  0.60046974  0.50258035
   0.42301441  0.42524076  0.60134772
   0.55647976  0.44662971  0.57761560
   0.46888469  0.53691205  0.59014548
Direct configuration=     5
   0.44477369  0.44334475  0.40479544
   0.44533314  0.56041208  0.39682677
   0.47587979  0.39135823  0.50184132
   0.51833198  0.50670415  0.48369896
   0.43416474  0.60115959  0.50225502
   0.42282833  0.42507388  0.60157671
   0.55661697  0.44691026  0.57717482
   0.46900530  0.53629501  0.59072216
Direct configuration=     6
   0.44512534  0.44316259  0.40470855
   0.44584950  0.56027066  0.39708132
   0.47559465  0.39160214  0.50225440
   0.51770979  0.50678708  0.48355794
   0.43443742  0.60140422  0.50237554
   0.42241686  0.42478104  0.60198821
   0.55700726  0.44747395  0.57630938
   0.46879310  0.53577627  0.59061587
Direct configuration=     7
   0.44618028  0.44261614  0.40444787
   0.44739860  0.55984642  0.39784498
   0.47473924  0.39233385  0.50349364
   0.51584323  0.50703586  0.48313488
   0.43525549  0.60213814  0.50273709
   0.42118244  0.42390251  0.60322270
   0.55817815  0.44916499  0.57371305
   0.46815650  0.53422005  0.59029700
Direct configuration=     8
   0.44829018  0.44152323  0.40392650
   0.45049680  0.55899792  0.39937228
   0.47302842  0.39379726  0.50597213
   0.51211010  0.50753342  0.48228878
   0.43689162  0.60360596  0.50346018
   0.41871360  0.42214545  0.60569168
   0.56051993  0.45254709  0.56852039
   0.46688329  0.53110760  0.58965926
Direct configuration=     9
   0.44851255  0.44129375  0.40383005
   0.45070481  0.55899628  0.39939945
   0.47269901  0.39392146  0.50622051
   0.51190991  0.50759931  0.48218669
   0.43705024  0.60384601  0.50361256
   0.41838430  0.42194699  0.60596453
   0.56108152  0.45285248  0.56806168
   0.46659160  0.53080166  0.58961574
Direct configuration=    10
   0.44917967  0.44060529  0.40354071
   0.45132882  0.55899135  0.39948096
   0.47171076  0.39429404  0.50696564
   0.51130936  0.50779700  0.48188044
   0.43752612  0.60456614  0.50406968
   0.41739639  0.42135162  0.60678308
   0.56276629  0.45376866  0.56668552
   0.46571652  0.52988385  0.58948517
Direct configuration=    11
   0.45051390  0.43922837  0.40296203
   0.45257685  0.55898148  0.39964398
   0.46973428  0.39503920  0.50845591
   0.51010824  0.50819237  0.48126793
   0.43847788  0.60600641  0.50498394
   0.41542058  0.42016088  0.60842018
   0.56613583  0.45560102  0.56393322
   0.46396636  0.52804822  0.58922403
Direct configuration=    12
   0.45318238  0.43647453  0.40180466
   0.45507292  0.55896174  0.39997002
   0.46578131  0.39652953  0.51143644
   0.50770601  0.50898311  0.48004291
   0.44038140  0.60888694  0.50681244
   0.41146895  0.41777939  0.61169437
   0.57287491  0.45926573  0.55842861
   0.46046605  0.52437696  0.58870175
Direct configuration=    13
   0.45131754  0.43839902  0.40261347
   0.45332857  0.55897553  0.39974217
   0.46854380  0.39548803  0.50935353
   0.50938478  0.50843051  0.48089900
   0.43905115  0.60687391  0.50553461
   0.41423050  0.41944367  0.60940624
   0.56816538  0.45670469  0.56227545
   0.46291220  0.52694258  0.58906674
Direct configuration=    14
   0.45187467  0.43785488  0.40243098
   0.45273874  0.55949145  0.39896023
   0.46764738  0.39610280  0.51001743
   0.50981520  0.50821038  0.48129157
   0.43949911  0.60734444  0.50589979
   0.41333020  0.41908829  0.60989267
   0.56994003  0.45717111  0.56161725
   0.46208860  0.52599460  0.58878128
Direct configuration=    15
   0.45316085  0.43659867  0.40200968
   0.45137707  0.56068248  0.39715506
   0.46557791  0.39752206  0.51155010
   0.51080887  0.50770217  0.48219787
   0.44053325  0.60843070  0.50674283
   0.41125176  0.41826788  0.61101566
   0.57403697  0.45824788  0.56009775
   0.46018724  0.52380610  0.58812226
Direct configuration=    16
   0.45282563  0.43692609  0.40211949
   0.45173197  0.56037205  0.39762555
   0.46611729  0.39715215  0.51115063
   0.51054989  0.50783463  0.48196166
   0.44026372  0.60814758  0.50652310
   0.41179348  0.41848171  0.61072297
   0.57296916  0.45796723  0.56049378
   0.46068281  0.52437651  0.58829403
Direct configuration=    17
   0.45369467  0.43680372  0.40229927
   0.45060608  0.56057838  0.39728598
   0.46513425  0.39836957  0.51191258
   0.51067767  0.50828232  0.48127054
   0.44112859  0.60808077  0.50667870
   0.41053575  0.41811439  0.61126092
   0.57541337  0.45798816  0.56055392
   0.45974355  0.52304063  0.58762931
Direct configuration=    18
   0.45464924  0.43666931  0.40249673
   0.44936939  0.56080502  0.39691299
   0.46405448  0.39970680  0.51274951
   0.51081803  0.50877407  0.48051141
   0.44207857  0.60800739  0.50684960
   0.40915427  0.41771092  0.61185181
   0.57809809  0.45801114  0.56061998
   0.45871186  0.52157330  0.58689917
Direct configuration=    19
   0.45655837  0.43640049  0.40289167
   0.44689602  0.56125829  0.39616702
   0.46189494  0.40238125  0.51442336
   0.51109874  0.50975756  0.47899316
   0.44397853  0.60786062  0.50719141
   0.40639129  0.41690399  0.61303359
   0.58346755  0.45805710  0.56075209
   0.45664849  0.51863864  0.58543891
Direct configuration=    20
   0.45529408  0.43657851  0.40263013
   0.44853397  0.56095812  0.39666103
   0.46332506  0.40061014  0.51331488
   0.51091284  0.50910626  0.47999859
   0.44272032  0.60795782  0.50696505
   0.40822103  0.41743837  0.61225098
   0.57991172  0.45802666  0.56066460
   0.45801493  0.52058207  0.58640595
Direct configuration=    21
   0.45652041  0.43693779  0.40315646
   0.44676518  0.56058851  0.39711125
   0.46271109  0.40297149  0.51417003
   0.51199426  0.50941652  0.47960294
   0.44408709  0.60730849  0.50688889
   0.40622880  0.41682339  0.61314552
   0.58116264  0.45853194  0.55995566
   0.45746446  0.51867982  0.58486046
Direct configuration=    22
   0.46019941  0.43801562  0.40473544
   0.44145882  0.55947969  0.39846193
   0.46086917  0.41005553  0.51673549
   0.51523853  0.51034729  0.47841598
   0.44818742  0.60536051  0.50666042
   0.40025211  0.41497844  0.61582916
   0.58491540  0.46004779  0.55782881
   0.45581307  0.51297308  0.58022398
Direct configuration=    23
   0.45923981  0.43773449  0.40432359
   0.44284288  0.55976890  0.39810963
   0.46134960  0.40820779  0.51606634
   0.51439233  0.51010452  0.47872557
   0.44711793  0.60586860  0.50672001
   0.40181101  0.41545966  0.61512918
   0.58393656  0.45965241  0.55838356
   0.45624380  0.51446158  0.58143332
Direct configuration=    24
   0.45985877  0.43777046  0.40402571
   0.44131443  0.55863774  0.39945804
   0.46089979  0.40935095  0.51726956
   0.51792174  0.51104446  0.47763652
   0.44783811  0.60609467  0.50675459
   0.40007098  0.41496290  0.61563848
   0.58309116  0.46042896  0.55719846
   0.45593896  0.51296779  0.58090985
Direct configuration=    25
   0.46018425  0.43778938  0.40386906
   0.44051067  0.55804289  0.40016713
   0.46066324  0.40995210  0.51790229
   0.51977775  0.51153876  0.47706382
   0.44821683  0.60621355  0.50677278
   0.39915595  0.41470167  0.61590630
   0.58264659  0.46083733  0.55657525
   0.45577865  0.51218226  0.58063458
Direct configuration=    26
   0.46040482  0.43772257  0.40412869
   0.43973210  0.55684964  0.40159506
   0.46082978  0.40997844  0.51742343
   0.52114974  0.51284782  0.47517074
   0.44851895  0.60615212  0.50712779
   0.39809013  0.41449228  0.61604751
   0.58227098  0.46058762  0.55699582
   0.45593743  0.51262745  0.58040216
Direct configuration=    27
   0.46040200  0.43772342  0.40412537
   0.43974207  0.55686491  0.40157678
   0.46082764  0.40997811  0.51742956
   0.52113218  0.51283107  0.47519497
   0.44851509  0.60615291  0.50712325
   0.39810378  0.41449496  0.61604571
   0.58227578  0.46059081  0.55699043
   0.45593540  0.51262175  0.58040513
Direct configuration=    28
   0.46055522  0.43722803  0.40447609
   0.43813875  0.55597342  0.40251834
   0.46125051  0.41025151  0.51684565
   0.52316001  0.51329102  0.47469700
   0.44875356  0.60619172  0.50783441
   0.39757209  0.41483075  0.61539769
   0.58114986  0.46047738  0.55720275
   0.45635394  0.51301412  0.57991927
Direct configuration=    29
   0.46071458  0.43671282  0.40484083
   0.43647130  0.55504627  0.40349756
   0.46169030  0.41053586  0.51623839
   0.52526894  0.51376937  0.47417911
   0.44900156  0.60623208  0.50857402
   0.39701913  0.41517996  0.61472375
   0.57997890  0.46035941  0.55742357
   0.45678922  0.51342217  0.57941397
Direct configuration=    30
   0.46102250  0.43640680  0.40502353
   0.43481199  0.55407716  0.40486958
   0.46195182  0.41100133  0.51620587
   0.52626641  0.51429436  0.47363745
   0.44944392  0.60618979  0.50886124
   0.39711279  0.41610234  0.61322511
   0.57924862  0.45996432  0.55809780
   0.45707588  0.51322185  0.57897062
Direct configuration=    31
   0.46113709  0.43629293  0.40509152
   0.43419451  0.55371652  0.40538015
   0.46204914  0.41117455  0.51619378
   0.52663760  0.51448972  0.47343588
   0.44960853  0.60617405  0.50896812
   0.39714764  0.41644558  0.61266741
   0.57897686  0.45981729  0.55834871
   0.45718255  0.51314731  0.57880563
Direct configuration=    32
   0.46146976  0.43635116  0.40488368
   0.43338711  0.55331578  0.40616249
   0.46230038  0.41116789  0.51590785
   0.52636985  0.51431836  0.47369440
   0.44996238  0.60630102  0.50869374
   0.39689342  0.41671756  0.61222655
   0.57916533  0.45967725  0.55861219
   0.45738570  0.51340891  0.57871030
Direct configuration=    33
   0.46246776  0.43652586  0.40426016
   0.43096493  0.55211359  0.40850950
   0.46305412  0.41114792  0.51505008
   0.52556659  0.51380428  0.47446995
   0.45102392  0.60668193  0.50787060
   0.39613073  0.41753351  0.61090397
   0.57973072  0.45925714  0.55940264
   0.45799515  0.51419372  0.57842431
Direct configuration=    34
   0.46281945  0.43658743  0.40404043
   0.43011137  0.55168994  0.40933657
   0.46331973  0.41114088  0.51474781
   0.52528352  0.51362312  0.47474326
   0.45139800  0.60681616  0.50758053
   0.39586197  0.41782104  0.61043789
   0.57992997  0.45910910  0.55968119
   0.45820992  0.51447028  0.57832352
Direct configuration=    35
   0.46301507  0.43656212  0.40382799
   0.42956588  0.55144218  0.40965017
   0.46341766  0.41111953  0.51468983
   0.52530063  0.51345873  0.47492866
   0.45158206  0.60707765  0.50753714
   0.39574084  0.41799577  0.61015248
   0.58002086  0.45906629  0.55977709
   0.45829094  0.51453566  0.57832786
Direct configuration=    36
   0.46360190  0.43648621  0.40319067
   0.42792943  0.55069888  0.41059094
   0.46371146  0.41105551  0.51451591
   0.52535194  0.51296557  0.47548487
   0.45213422  0.60786212  0.50740695
   0.39537744  0.41851997  0.60929622
   0.58029354  0.45893787  0.56006477
   0.45853400  0.51473181  0.57834088
Direct configuration=    37
   0.46477556  0.43633438  0.40191604
   0.42465652  0.54921229  0.41247249
   0.46429905  0.41092745  0.51416805
   0.52545455  0.51197926  0.47659729
   0.45323855  0.60943106  0.50714658
   0.39465066  0.41956836  0.60758371
   0.58083890  0.45868103  0.56064013
   0.45902014  0.51512412  0.57836692
Direct configuration=    38
   0.46430531  0.43639522  0.40242675
   0.42596789  0.54980793  0.41171860
   0.46406361  0.41097876  0.51430743
   0.52541344  0.51237445  0.47615157
   0.45279608  0.60880243  0.50725090
   0.39494186  0.41914830  0.60826987
   0.58062039  0.45878394  0.56040959
   0.45882536  0.51496693  0.57835648
Direct configuration=    39
   0.46461323  0.43634832  0.40213919
   0.42533465  0.54924954  0.41227494
   0.46411327  0.41089316  0.51424711
   0.52539779  0.51239861  0.47601098
   0.45311756  0.60920479  0.50735022
   0.39467690  0.41935779  0.60789689
   0.58080772  0.45870123  0.56059426
   0.45887280  0.51510450  0.57837760
Direct configuration=    40
   0.46553702  0.43620765  0.40127652
   0.42343494  0.54757436  0.41394396
   0.46426223  0.41063637  0.51406617
   0.52535083  0.51247109  0.47558919
   0.45408201  0.61041189  0.50764817
   0.39388202  0.41998626  0.60677797
   0.58136972  0.45845310  0.56114827
   0.45901515  0.51551722  0.57844096
Direct configuration=    41
   0.46559832  0.43610410  0.40148508
   0.42357606  0.54750332  0.41431907
   0.46435464  0.41085822  0.51391756
   0.52547752  0.51255491  0.47566519
   0.45419141  0.61003194  0.50770397
   0.39366597  0.41993474  0.60687854
   0.58096959  0.45869112  0.56077395
   0.45910042  0.51557959  0.57814785
Direct configuration=    42
   0.46565186  0.43601366  0.40166722
   0.42369930  0.54744128  0.41464665
   0.46443535  0.41105197  0.51378778
   0.52558816  0.51262811  0.47573157
   0.45428695  0.60970012  0.50775270
   0.39347728  0.41988975  0.60696638
   0.58062014  0.45889900  0.56044705
   0.45917489  0.51563405  0.57789186
Direct configuration=    43
   0.46577335  0.43584263  0.40183285
   0.42371237  0.54721650  0.41506673
   0.46428717  0.41122095  0.51383826
   0.52594066  0.51294392  0.47533190
   0.45444142  0.60955917  0.50792607
   0.39335544  0.41998103  0.60688072
   0.58042926  0.45904375  0.56022817
   0.45899427  0.51545000  0.57778651
Direct configuration=    44
   0.46607850  0.43541302  0.40224891
   0.42374520  0.54665186  0.41612193
   0.46391496  0.41164542  0.51396505
   0.52682610  0.51373717  0.47432796
   0.45482943  0.60920511  0.50836156
   0.39304938  0.42021031  0.60666556
   0.57994979  0.45940736  0.55967834
   0.45854058  0.51498768  0.57752189
Direct configuration=    45
   0.46623442  0.43520997  0.40231776
   0.42339409  0.54639098  0.41633908
   0.46378692  0.41178627  0.51394108
   0.52742694  0.51389111  0.47405948
   0.45500258  0.60934247  0.50864456
   0.39276131  0.42020653  0.60665536
   0.57992516  0.45951916  0.55951789
   0.45840250  0.51491145  0.57741600
Direct configuration=    46
   0.46645264  0.43492577  0.40241411
   0.42290269  0.54602587  0.41664300
   0.46360773  0.41198340  0.51390753
   0.52826786  0.51410656  0.47368372
   0.45524492  0.60953470  0.50904065
   0.39235814  0.42020124  0.60664109
   0.57989070  0.45967564  0.55929333
   0.45820925  0.51480476  0.57726779
Direct configuration=    47
   0.46655797  0.43497336  0.40235033
   0.42266637  0.54584279  0.41683583
   0.46359130  0.41206182  0.51385940
   0.52828148  0.51410695  0.47365278
   0.45536778  0.60960757  0.50902952
   0.39212380  0.42012731  0.60664919
   0.58010203  0.45963116  0.55937776
   0.45824319  0.51490698  0.57713639
Direct configuration=    48
   0.46673710  0.43505428  0.40224187
   0.42226449  0.54553145  0.41716376
   0.46356337  0.41219519  0.51377756
   0.52830466  0.51410762  0.47360017
   0.45557669  0.60973150  0.50901060
   0.39172528  0.42000159  0.60666298
   0.58046143  0.45955553  0.55952133
   0.45830091  0.51508080  0.57691295
Direct configuration=    49
   0.46684730  0.43512084  0.40213460
   0.42201983  0.54536990  0.41740740
   0.46353612  0.41229188  0.51382095
   0.52830003  0.51402811  0.47370224
   0.45569315  0.60982349  0.50890442
   0.39164227  0.42004777  0.60654265
   0.58059424  0.45954445  0.55954750
   0.45830099  0.51503151  0.57683145
Direct configuration=    50
   0.46711969  0.43528534  0.40186946
   0.42141513  0.54497061  0.41800961
   0.46346875  0.41253087  0.51392822
   0.52828859  0.51383158  0.47395453
   0.45598098  0.61005085  0.50864199
   0.39143709  0.42016192  0.60624523
   0.58092250  0.45951709  0.55961217
   0.45830119  0.51490969  0.57663001
Direct configuration=    51
   0.46717821  0.43529471  0.40186892
   0.42132544  0.54487424  0.41822199
   0.46350194  0.41246448  0.51378763
   0.52827620  0.51381805  0.47397802
   0.45603631  0.61005756  0.50857553
   0.39141161  0.42025783  0.60616953
   0.58093389  0.45951580  0.55961561
   0.45827033  0.51497526  0.57667400
Direct configuration=    52
   0.46723685  0.43530410  0.40186838
   0.42123555  0.54477766  0.41843485
   0.46353521  0.41239796  0.51364672
   0.52826377  0.51380450  0.47400156
   0.45609177  0.61006430  0.50850892
   0.39138607  0.42035396  0.60609365
   0.58094530  0.45951450  0.55961905
   0.45823941  0.51504097  0.57671809
Direct configuration=    53
   0.46728336  0.43528799  0.40179135
   0.42107683  0.54467111  0.41855968
   0.46353265  0.41239570  0.51367357
   0.52832390  0.51379352  0.47404946
   0.45614969  0.61012018  0.50852151
   0.39139890  0.42042472  0.60597365
   0.58091234  0.45951226  0.55962596
   0.45825626  0.51505247  0.57669603
Direct configuration=    54
   0.46733885  0.43526876  0.40169946
   0.42088745  0.54454397  0.41870862
   0.46352961  0.41239301  0.51370560
   0.52839565  0.51378042  0.47410661
   0.45621879  0.61018686  0.50853654
   0.39141420  0.42050915  0.60583048
   0.58087302  0.45950958  0.55963419
   0.45827635  0.51506620  0.57666971
Direct configuration=    55
   0.46737439  0.43529299  0.40174016
   0.42087047  0.54445926  0.41885353
   0.46358127  0.41238241  0.51356749
   0.52832809  0.51380879  0.47403115
   0.45624839  0.61017414  0.50851014
   0.39133266  0.42051882  0.60584186
   0.58091004  0.45947376  0.55968938
   0.45828863  0.51514777  0.57665750
Direct configuration=    56
   0.46737815  0.43529556  0.40174446
   0.42086867  0.54445030  0.41886885
   0.46358673  0.41238129  0.51355289
   0.52832094  0.51381179  0.47402317
   0.45625152  0.61017280  0.50850735
   0.39132403  0.42051984  0.60584306
   0.58091396  0.45946997  0.55969521
   0.45828993  0.51515640  0.57665621
