  10  10   0   0
  0.1106884E+04  0.2221760E-08  0.2350950E-08  0.2119150E-08  0.5000000E-15
   1.0000000000000000E-004
  CAR 
 unknown system                          
      1.84504271    -11.84217076  301     -3.81551984      1.00000000
    -11.842  0.0000E+00  0.0000E+00  0.0000E+00  0.0000E+00
    -11.797  0.0000E+00  0.0000E+00  0.0000E+00  0.0000E+00
    -11.751  0.0000E+00  0.0000E+00  0.0000E+00  0.0000E+00
    -11.705  0.0000E+00  0.0000E+00  0.0000E+00  0.0000E+00
    -11.660  0.0000E+00  0.0000E+00  0.0000E+00  0.0000E+00
    -11.614  0.0000E+00  0.0000E+00  0.0000E+00  0.0000E+00
    -11.568  0.0000E+00  0.0000E+00  0.0000E+00  0.0000E+00
    -11.523  0.0000E+00  0.0000E+00  0.0000E+00  0.0000E+00
    -11.477 -0.4778E-30  0.0000E+00 -0.2180E-31  0.0000E+00
    -11.432 -0.1790E-28 -0.5607E-29 -0.8383E-30 -0.2558E-30
    -11.386 -0.6178E-27 -0.1953E-27 -0.2902E-28 -0.9167E-29
    -11.340 -0.1920E-25 -0.6283E-26 -0.9048E-27 -0.2958E-27
    -11.295 -0.5368E-24 -0.1819E-24 -0.2539E-25 -0.8594E-26
    -11.249 -0.1351E-22 -0.4738E-23 -0.6416E-24 -0.2248E-24
    -11.203 -0.3058E-21 -0.1111E-21 -0.1459E-22 -0.5292E-23
    -11.158 -0.6230E-20 -0.2342E-20 -0.2988E-21 -0.1122E-21
    -11.112 -0.1142E-18 -0.4444E-19 -0.5507E-20 -0.2140E-20
    -11.067 -0.1881E-17 -0.7584E-18 -0.9134E-19 -0.3674E-19
    -11.021 -0.2666E-16 -0.1164E-16 -0.1308E-17 -0.5677E-18
    -10.975 -0.3605E-15 -0.1557E-15 -0.1775E-16 -0.7671E-17
    -10.930 -0.4298E-14 -0.1926E-14 -0.2138E-15 -0.9552E-16
    -10.884 -0.4611E-13 -0.2141E-13 -0.2317E-14 -0.1072E-14
    -10.838 -0.4441E-12 -0.2136E-12 -0.2258E-13 -0.1082E-13
    -10.793 -0.3839E-11 -0.1913E-11 -0.1977E-12 -0.9810E-13
    -10.747 -0.2976E-10 -0.1537E-10 -0.1556E-11 -0.7995E-12
    -10.702 -0.2069E-09 -0.1108E-09 -0.1099E-10 -0.5853E-11
    -10.656 -0.1288E-08 -0.7150E-09 -0.6975E-10 -0.3848E-10
    -10.610 -0.7174E-08 -0.4132E-08 -0.3971E-09 -0.2270E-09
    -10.565 -0.3572E-07 -0.2135E-07 -0.2027E-08 -0.1201E-08
    -10.519 -0.1587E-06 -0.9850E-07 -0.9269E-08 -0.5695E-08
    -10.473 -0.6282E-06 -0.4050E-06 -0.3793E-07 -0.2418E-07
    -10.428 -0.2208E-05 -0.1481E-05 -0.1387E-06 -0.9174E-07
    -10.382 -0.6871E-05 -0.4799E-05 -0.4522E-06 -0.3107E-06
    -10.337 -0.1882E-04 -0.1372E-04 -0.1311E-05 -0.9365E-06
    -10.291 -0.4501E-04 -0.3434E-04 -0.3364E-05 -0.2503E-05
    -10.245 -0.9271E-04 -0.7443E-04 -0.7594E-05 -0.5899E-05
    -10.200 -0.1603E-03 -0.1369E-03 -0.1491E-04 -0.1214E-04
    -10.154 -0.2198E-03 -0.2046E-03 -0.2494E-04 -0.2148E-04
    -10.108 -0.1975E-03 -0.2204E-03 -0.3395E-04 -0.3154E-04
    -10.063  0.2529E-04 -0.7814E-04 -0.3279E-04 -0.3510E-04
    -10.017  0.5684E-03  0.3498E-03 -0.6862E-05 -0.1914E-04
     -9.972  0.1465E-02  0.1136E-02  0.5998E-04  0.3268E-04
     -9.926  0.2578E-02  0.2205E-02  0.1776E-03  0.1333E-03
     -9.880  0.3597E-02  0.3296E-02  0.3417E-03  0.2837E-03
     -9.835  0.4160E-02  0.4044E-02  0.5315E-03  0.4682E-03
     -9.789  0.4045E-02  0.4161E-02  0.7161E-03  0.6580E-03
     -9.743  0.3298E-02  0.3598E-02  0.8665E-03  0.8222E-03
     -9.698  0.2207E-02  0.2580E-02  0.9672E-03  0.9399E-03
     -9.652  0.1137E-02  0.1467E-02  0.1019E-02  0.1007E-02
     -9.607  0.3507E-03  0.5694E-03  0.1035E-02  0.1033E-02
     -9.561 -0.7775E-04  0.2583E-04  0.1032E-02  0.1034E-02
     -9.515 -0.2204E-03 -0.1973E-03  0.1021E-02  0.1025E-02
     -9.470 -0.2047E-03 -0.2198E-03  0.1012E-02  0.1015E-02
     -9.424 -0.1370E-03 -0.1605E-03  0.1006E-02  0.1008E-02
     -9.378 -0.7451E-04 -0.9280E-04  0.1003E-02  0.1003E-02
     -9.333 -0.3438E-04 -0.4506E-04  0.1001E-02  0.1001E-02
     -9.287 -0.1374E-04 -0.1885E-04  0.1000E-02  0.1000E-02
     -9.242 -0.4807E-05 -0.6882E-05  0.1000E-02  0.1000E-02
     -9.196 -0.1484E-05 -0.2212E-05  0.1000E-02  0.1000E-02
     -9.150 -0.4059E-06 -0.6294E-06  0.1000E-02  0.1000E-02
     -9.105 -0.9873E-07 -0.1591E-06  0.1000E-02  0.1000E-02
     -9.059 -0.2152E-07 -0.3580E-07  0.1000E-02  0.1000E-02
     -9.013 -0.4894E-08 -0.7192E-08  0.1000E-02  0.1000E-02
     -8.968 -0.5053E-08 -0.1292E-08  0.1000E-02  0.1000E-02
     -8.922 -0.2249E-07 -0.2124E-09  0.1000E-02  0.1000E-02
     -8.877 -0.1032E-06 -0.6776E-10  0.1000E-02  0.1000E-02
     -8.831 -0.4245E-06 -0.2639E-09  0.1000E-02  0.1000E-02
     -8.785 -0.1555E-05 -0.1598E-08  0.9999E-03  0.1000E-02
     -8.740 -0.5056E-05 -0.8781E-08  0.9997E-03  0.1000E-02
     -8.694 -0.1454E-04 -0.4314E-07  0.9990E-03  0.1000E-02
     -8.648 -0.3681E-04 -0.1892E-06  0.9973E-03  0.1000E-02
     -8.603 -0.8126E-04 -0.7387E-06  0.9936E-03  0.1000E-02
     -8.557 -0.1542E-03 -0.2563E-05  0.9866E-03  0.9998E-03
     -8.512 -0.2441E-03 -0.7873E-05  0.9755E-03  0.9995E-03
     -8.466 -0.3003E-03 -0.2130E-04  0.9618E-03  0.9985E-03
     -8.420 -0.2168E-03 -0.5041E-04  0.9519E-03  0.9962E-03
     -8.375  0.1544E-03 -0.1030E-03  0.9589E-03  0.9915E-03
     -8.329  0.9466E-03 -0.1777E-03  0.1002E-02  0.9834E-03
     -8.283  0.2191E-02 -0.2467E-03  0.1102E-02  0.9721E-03
     -8.238  0.3747E-02 -0.2375E-03  0.1273E-02  0.9613E-03
     -8.192  0.5310E-02 -0.3442E-04  0.1515E-02  0.9597E-03
     -8.147  0.6496E-02  0.4831E-03  0.1812E-02  0.9818E-03
     -8.101  0.6981E-02  0.1368E-02  0.2130E-02  0.1044E-02
     -8.055  0.6621E-02  0.2545E-02  0.2432E-02  0.1160E-02
     -8.010  0.5502E-02  0.3814E-02  0.2683E-02  0.1334E-02
     -7.964  0.3904E-02  0.4928E-02  0.2861E-02  0.1559E-02
     -7.919  0.2200E-02  0.5692E-02  0.2962E-02  0.1819E-02
     -7.873  0.7496E-03  0.6008E-02  0.2996E-02  0.2093E-02
     -7.827 -0.1714E-03  0.5846E-02  0.2988E-02  0.2360E-02
     -7.782 -0.3690E-03  0.5220E-02  0.2971E-02  0.2598E-02
     -7.736  0.2795E-03  0.4201E-02  0.2984E-02  0.2789E-02
     -7.690  0.1772E-02  0.2953E-02  0.3065E-02  0.2924E-02
     -7.645  0.3863E-02  0.1710E-02  0.3241E-02  0.3002E-02
     -7.599  0.5994E-02  0.6919E-03  0.3515E-02  0.3034E-02
     -7.554  0.7434E-02  0.6826E-05  0.3854E-02  0.3034E-02
     -7.508  0.7626E-02 -0.3715E-03  0.4202E-02  0.3017E-02
     -7.462  0.6568E-02 -0.5431E-03  0.4501E-02  0.2992E-02
     -7.417  0.4931E-02 -0.5787E-03  0.4726E-02  0.2966E-02
     -7.371  0.3801E-02 -0.4396E-03  0.4900E-02  0.2946E-02
     -7.325  0.4129E-02  0.2893E-04  0.5088E-02  0.2947E-02
     -7.280  0.6222E-02  0.1015E-02  0.5372E-02  0.2994E-02
     -7.234  0.9544E-02  0.2587E-02  0.5807E-02  0.3112E-02
     -7.189  0.1300E-01  0.4556E-02  0.6400E-02  0.3319E-02
     -7.143  0.1553E-01  0.6446E-02  0.7109E-02  0.3614E-02
     -7.097  0.1673E-01  0.7660E-02  0.7873E-02  0.3963E-02
     -7.052  0.1694E-01  0.7753E-02  0.8646E-02  0.4317E-02
     -7.006  0.1683E-01  0.6664E-02  0.9414E-02  0.4621E-02
     -6.960  0.1676E-01  0.4740E-02  0.1018E-01  0.4837E-02
     -6.915  0.1645E-01  0.2560E-02  0.1093E-01  0.4954E-02
     -6.869  0.1526E-01  0.6875E-03  0.1162E-01  0.4985E-02
     -6.824  0.1288E-01 -0.4623E-03  0.1221E-01  0.4964E-02
     -6.778  0.9737E-02 -0.6134E-03  0.1266E-01  0.4936E-02
     -6.732  0.6848E-02  0.4208E-03  0.1297E-01  0.4955E-02
     -6.687  0.5169E-02  0.2681E-02  0.1321E-01  0.5078E-02
     -6.641  0.5000E-02  0.5898E-02  0.1343E-01  0.5347E-02
     -6.595  0.5843E-02  0.9394E-02  0.1370E-01  0.5775E-02
     -6.550  0.6794E-02  0.1224E-01  0.1401E-01  0.6334E-02
     -6.504  0.7171E-02  0.1366E-01  0.1434E-01  0.6957E-02
     -6.459  0.6903E-02  0.1344E-01  0.1465E-01  0.7570E-02
     -6.413  0.6475E-02  0.1204E-01  0.1495E-01  0.8120E-02
     -6.367  0.6496E-02  0.1035E-01  0.1524E-01  0.8592E-02
     -6.322  0.7270E-02  0.9215E-02  0.1558E-01  0.9012E-02
     -6.276  0.8670E-02  0.9136E-02  0.1597E-01  0.9429E-02
     -6.230  0.1035E-01  0.1008E-01  0.1644E-01  0.9889E-02
     -6.185  0.1206E-01  0.1158E-01  0.1699E-01  0.1042E-01
     -6.139  0.1375E-01  0.1296E-01  0.1762E-01  0.1101E-01
     -6.094  0.1537E-01  0.1360E-01  0.1832E-01  0.1163E-01
     -6.048  0.1662E-01  0.1322E-01  0.1908E-01  0.1223E-01
     -6.002  0.1698E-01  0.1202E-01  0.1986E-01  0.1278E-01
     -5.957  0.1596E-01  0.1053E-01  0.2058E-01  0.1326E-01
     -5.911  0.1363E-01  0.9358E-02  0.2121E-01  0.1369E-01
     -5.865  0.1070E-01  0.8819E-02  0.2169E-01  0.1409E-01
     -5.820  0.8168E-02  0.8759E-02  0.2207E-01  0.1449E-01
     -5.774  0.6781E-02  0.8690E-02  0.2238E-01  0.1489E-01
     -5.729  0.6696E-02  0.8155E-02  0.2268E-01  0.1526E-01
     -5.683  0.7624E-02  0.7087E-02  0.2303E-01  0.1558E-01
     -5.637  0.9213E-02  0.5883E-02  0.2345E-01  0.1585E-01
     -5.592  0.1129E-01  0.5123E-02  0.2396E-01  0.1608E-01
     -5.546  0.1376E-01  0.5154E-02  0.2459E-01  0.1632E-01
     -5.500  0.1633E-01  0.5865E-02  0.2534E-01  0.1659E-01
     -5.455  0.1842E-01  0.6864E-02  0.2618E-01  0.1690E-01
     -5.409  0.1941E-01  0.7872E-02  0.2706E-01  0.1726E-01
     -5.364  0.1900E-01  0.8981E-02  0.2793E-01  0.1767E-01
     -5.318  0.1746E-01  0.1053E-01  0.2873E-01  0.1815E-01
     -5.272  0.1553E-01  0.1271E-01  0.2944E-01  0.1873E-01
     -5.227  0.1415E-01  0.1521E-01  0.3008E-01  0.1942E-01
     -5.181  0.1412E-01  0.1731E-01  0.3073E-01  0.2021E-01
     -5.135  0.1579E-01  0.1826E-01  0.3145E-01  0.2105E-01
     -5.090  0.1895E-01  0.1773E-01  0.3231E-01  0.2185E-01
     -5.044  0.2291E-01  0.1602E-01  0.3336E-01  0.2259E-01
     -4.999  0.2673E-01  0.1395E-01  0.3458E-01  0.2322E-01
     -4.953  0.2963E-01  0.1247E-01  0.3593E-01  0.2379E-01
     -4.907  0.3125E-01  0.1222E-01  0.3735E-01  0.2435E-01
     -4.862  0.3180E-01  0.1329E-01  0.3880E-01  0.2496E-01
     -4.816  0.3186E-01  0.1514E-01  0.4026E-01  0.2565E-01
     -4.770  0.3209E-01  0.1693E-01  0.4172E-01  0.2642E-01
     -4.725  0.3283E-01  0.1797E-01  0.4322E-01  0.2724E-01
     -4.679  0.3397E-01  0.1805E-01  0.4477E-01  0.2806E-01
     -4.634  0.3493E-01  0.1747E-01  0.4636E-01  0.2886E-01
     -4.588  0.3485E-01  0.1673E-01  0.4795E-01  0.2962E-01
     -4.542  0.3300E-01  0.1627E-01  0.4946E-01  0.3036E-01
     -4.497  0.2915E-01  0.1633E-01  0.5079E-01  0.3111E-01
     -4.451  0.2378E-01  0.1695E-01  0.5187E-01  0.3188E-01
     -4.405  0.1789E-01  0.1812E-01  0.5269E-01  0.3271E-01
     -4.360  0.1246E-01  0.1967E-01  0.5326E-01  0.3361E-01
     -4.314  0.8137E-02  0.2137E-01  0.5363E-01  0.3458E-01
     -4.269  0.5010E-02  0.2287E-01  0.5386E-01  0.3563E-01
     -4.223  0.2858E-02  0.2386E-01  0.5399E-01  0.3671E-01
     -4.177  0.1390E-02  0.2422E-01  0.5405E-01  0.3782E-01
     -4.132  0.4136E-03  0.2403E-01  0.5407E-01  0.3892E-01
     -4.086 -0.1758E-03  0.2355E-01  0.5406E-01  0.3999E-01
     -4.040 -0.4646E-03  0.2305E-01  0.5404E-01  0.4104E-01
     -3.995 -0.5529E-03  0.2266E-01  0.5402E-01  0.4208E-01
     -3.949 -0.5232E-03  0.2241E-01  0.5399E-01  0.4310E-01
     -3.904 -0.3881E-03  0.2217E-01  0.5397E-01  0.4411E-01
     -3.858 -0.7404E-04  0.2181E-01  0.5397E-01  0.4510E-01
     -3.812  0.5277E-03  0.2127E-01  0.5399E-01  0.4607E-01
     -3.767  0.1456E-02  0.2062E-01  0.5406E-01  0.4702E-01
     -3.721  0.2582E-02  0.2007E-01  0.5418E-01  0.4793E-01
     -3.675  0.3603E-02  0.1978E-01  0.5434E-01  0.4883E-01
     -3.630  0.4162E-02  0.1972E-01  0.5453E-01  0.4973E-01
     -3.584  0.4040E-02  0.1960E-01  0.5472E-01  0.5063E-01
     -3.539  0.3286E-02  0.1901E-01  0.5487E-01  0.5150E-01
     -3.493  0.2190E-02  0.1765E-01  0.5497E-01  0.5230E-01
     -3.447  0.1111E-02  0.1549E-01  0.5502E-01  0.5301E-01
     -3.402  0.3016E-03  0.1283E-01  0.5503E-01  0.5359E-01
     -3.356 -0.1779E-03  0.1011E-01  0.5502E-01  0.5405E-01
     -3.310 -0.4106E-03  0.7675E-02  0.5501E-01  0.5440E-01
     -3.265 -0.5132E-03  0.5649E-02  0.5498E-01  0.5466E-01
     -3.219 -0.5288E-03  0.3975E-02  0.5496E-01  0.5484E-01
     -3.174 -0.3722E-03  0.2553E-02  0.5494E-01  0.5496E-01
     -3.128  0.1493E-03  0.1349E-02  0.5495E-01  0.5502E-01
     -3.082  0.1233E-02  0.3993E-03  0.5500E-01  0.5504E-01
     -3.037  0.2917E-02 -0.2634E-03  0.5514E-01  0.5503E-01
     -2.991  0.4951E-02 -0.6416E-03  0.5536E-01  0.5500E-01
     -2.945  0.6795E-02 -0.7333E-03  0.5567E-01  0.5496E-01
     -2.900  0.7827E-02 -0.4591E-03  0.5603E-01  0.5494E-01
     -2.854  0.7646E-02  0.3457E-03  0.5638E-01  0.5496E-01
     -2.809  0.6311E-02  0.1817E-02  0.5667E-01  0.5504E-01
     -2.763  0.4326E-02  0.3869E-02  0.5686E-01  0.5522E-01
     -2.717  0.2407E-02  0.6073E-02  0.5697E-01  0.5550E-01
     -2.672  0.1167E-02  0.7750E-02  0.5703E-01  0.5585E-01
     -2.626  0.8905E-03  0.8279E-02  0.5707E-01  0.5623E-01
     -2.580  0.1479E-02  0.7441E-02  0.5714E-01  0.5657E-01
     -2.535  0.2563E-02  0.5545E-02  0.5725E-01  0.5682E-01
     -2.489  0.3700E-02  0.3256E-02  0.5742E-01  0.5697E-01
     -2.444  0.4572E-02  0.1248E-02  0.5763E-01  0.5702E-01
     -2.398  0.5077E-02 -0.4942E-04  0.5786E-01  0.5702E-01
     -2.352  0.5263E-02 -0.4893E-03  0.5810E-01  0.5700E-01
     -2.307  0.5188E-02 -0.1000E-03  0.5834E-01  0.5700E-01
     -2.261  0.4829E-02  0.1017E-02  0.5856E-01  0.5704E-01
     -2.215  0.4128E-02  0.2683E-02  0.5875E-01  0.5716E-01
     -2.170  0.3113E-02  0.4590E-02  0.5889E-01  0.5737E-01
     -2.124  0.1947E-02  0.6288E-02  0.5898E-01  0.5766E-01
     -2.079  0.8604E-03  0.7305E-02  0.5902E-01  0.5799E-01
     -2.033  0.3469E-04  0.7334E-02  0.5902E-01  0.5833E-01
     -1.987 -0.4566E-03  0.6375E-02  0.5900E-01  0.5862E-01
     -1.942 -0.5998E-03  0.4738E-02  0.5897E-01  0.5884E-01
     -1.896 -0.3533E-03  0.2892E-02  0.5895E-01  0.5897E-01
     -1.851  0.3831E-03  0.1263E-02  0.5897E-01  0.5903E-01
     -1.805  0.1692E-02  0.8855E-04  0.5905E-01  0.5903E-01
     -1.759  0.3498E-02 -0.5811E-03  0.5921E-01  0.5900E-01
     -1.714  0.5466E-02 -0.7653E-03  0.5946E-01  0.5897E-01
     -1.668  0.7065E-02 -0.4274E-03  0.5978E-01  0.5895E-01
     -1.622  0.7772E-02  0.5467E-03  0.6013E-01  0.5897E-01
     -1.577  0.7339E-02  0.2221E-02  0.6047E-01  0.5907E-01
     -1.531  0.5925E-02  0.4414E-02  0.6074E-01  0.5928E-01
     -1.486  0.4010E-02  0.6603E-02  0.6092E-01  0.5958E-01
     -1.440  0.2158E-02  0.8076E-02  0.6102E-01  0.5995E-01
     -1.394  0.7654E-03  0.8278E-02  0.6106E-01  0.6032E-01
     -1.349 -0.4624E-04  0.7136E-02  0.6105E-01  0.6065E-01
     -1.303 -0.3844E-03  0.5098E-02  0.6104E-01  0.6088E-01
     -1.257 -0.4526E-03  0.2881E-02  0.6102E-01  0.6101E-01
     -1.212 -0.4253E-03  0.1087E-02  0.6100E-01  0.6106E-01
     -1.166 -0.3786E-03 -0.2368E-04  0.6098E-01  0.6106E-01
     -1.121 -0.2778E-03 -0.5252E-03  0.6097E-01  0.6104E-01
     -1.075 -0.1024E-04 -0.6418E-03  0.6097E-01  0.6101E-01
     -1.029  0.5429E-03 -0.5581E-03  0.6099E-01  0.6098E-01
     -0.984  0.1412E-02 -0.3230E-03  0.6105E-01  0.6097E-01
     -0.938  0.2471E-02  0.1286E-03  0.6117E-01  0.6097E-01
     -0.892  0.3470E-02  0.8732E-03  0.6133E-01  0.6101E-01
     -0.847  0.4164E-02  0.1887E-02  0.6152E-01  0.6110E-01
     -0.801  0.4461E-02  0.3000E-02  0.6172E-01  0.6124E-01
     -0.756  0.4456E-02  0.3968E-02  0.6192E-01  0.6142E-01
     -0.710  0.4328E-02  0.4603E-02  0.6212E-01  0.6163E-01
     -0.664  0.4197E-02  0.4873E-02  0.6231E-01  0.6185E-01
     -0.619  0.4106E-02  0.4865E-02  0.6250E-01  0.6207E-01
     -0.573  0.4130E-02  0.4685E-02  0.6269E-01  0.6229E-01
     -0.527  0.4470E-02  0.4402E-02  0.6289E-01  0.6249E-01
     -0.482  0.5373E-02  0.4110E-02  0.6314E-01  0.6267E-01
     -0.436  0.6899E-02  0.4018E-02  0.6345E-01  0.6286E-01
     -0.391  0.8736E-02  0.4421E-02  0.6385E-01  0.6306E-01
     -0.345  0.1025E-01  0.5525E-02  0.6432E-01  0.6331E-01
     -0.299  0.1079E-01  0.7230E-02  0.6481E-01  0.6364E-01
     -0.254  0.9997E-02  0.9066E-02  0.6527E-01  0.6405E-01
     -0.208  0.8044E-02  0.1035E-01  0.6563E-01  0.6453E-01
     -0.162  0.5492E-02  0.1049E-01  0.6588E-01  0.6501E-01
     -0.117  0.3027E-02  0.9300E-02  0.6602E-01  0.6543E-01
     -0.071  0.1150E-02  0.7081E-02  0.6607E-01  0.6575E-01
     -0.026  0.3695E-04  0.4480E-02  0.6608E-01  0.6596E-01
      0.020 -0.4236E-03  0.2170E-02  0.6606E-01  0.6606E-01
      0.066 -0.4773E-03  0.5691E-03  0.6603E-01  0.6608E-01
      0.111 -0.3583E-03 -0.2607E-03  0.6602E-01  0.6607E-01
      0.157 -0.2150E-03 -0.5110E-03  0.6601E-01  0.6605E-01
      0.203 -0.1090E-03 -0.4523E-03  0.6600E-01  0.6603E-01
      0.248 -0.4789E-04 -0.2986E-03  0.6600E-01  0.6601E-01
      0.294 -0.1844E-04 -0.1622E-03  0.6600E-01  0.6601E-01
      0.339 -0.6275E-05 -0.7518E-04  0.6600E-01  0.6600E-01
      0.385 -0.1895E-05 -0.3030E-04  0.6600E-01  0.6600E-01
      0.431 -0.5099E-06 -0.1072E-04  0.6600E-01  0.6600E-01
      0.476 -0.1224E-06 -0.3353E-05  0.6600E-01  0.6600E-01
      0.522 -0.2628E-07 -0.9309E-06  0.6600E-01  0.6600E-01
      0.568 -0.5049E-08 -0.2301E-06  0.6600E-01  0.6600E-01
      0.613 -0.8694E-09 -0.5073E-07  0.6600E-01  0.6600E-01
      0.659 -0.1342E-09 -0.9998E-08  0.6600E-01  0.6600E-01
      0.704 -0.1860E-10 -0.1763E-08  0.6600E-01  0.6600E-01
      0.750 -0.2313E-11 -0.2786E-09  0.6600E-01  0.6600E-01
      0.796 -0.2584E-12 -0.3946E-10  0.6600E-01  0.6600E-01
      0.841 -0.2592E-13 -0.5015E-11  0.6600E-01  0.6600E-01
      0.887 -0.2341E-14 -0.5721E-12  0.6600E-01  0.6600E-01
      0.933 -0.1898E-15 -0.5863E-13  0.6600E-01  0.6600E-01
      0.978 -0.1460E-16 -0.5397E-14  0.6600E-01  0.6600E-01
      1.024  0.0000E+00 -0.4477E-15  0.6600E-01  0.6600E-01
      1.069  0.0000E+00 -0.3407E-16  0.6600E-01  0.6600E-01
      1.115  0.0000E+00  0.0000E+00  0.6600E-01  0.6600E-01
      1.161  0.0000E+00  0.0000E+00  0.6600E-01  0.6600E-01
      1.206  0.0000E+00  0.0000E+00  0.6600E-01  0.6600E-01
      1.252  0.0000E+00  0.0000E+00  0.6600E-01  0.6600E-01
      1.298  0.0000E+00  0.0000E+00  0.6600E-01  0.6600E-01
      1.343  0.0000E+00  0.0000E+00  0.6600E-01  0.6600E-01
      1.389  0.0000E+00  0.0000E+00  0.6600E-01  0.6600E-01
      1.434  0.0000E+00  0.0000E+00  0.6600E-01  0.6600E-01
      1.480  0.0000E+00  0.0000E+00  0.6600E-01  0.6600E-01
      1.526  0.0000E+00  0.0000E+00  0.6600E-01  0.6600E-01
      1.571  0.0000E+00  0.0000E+00  0.6600E-01  0.6600E-01
      1.617  0.0000E+00  0.0000E+00  0.6600E-01  0.6600E-01
      1.663  0.0000E+00  0.0000E+00  0.6600E-01  0.6600E-01
      1.708  0.0000E+00  0.0000E+00  0.6600E-01  0.6600E-01
      1.754  0.0000E+00  0.0000E+00  0.6600E-01  0.6600E-01
      1.799  0.0000E+00  0.0000E+00  0.6600E-01  0.6600E-01
      1.845  0.0000E+00  0.0000E+00  0.6600E-01  0.6600E-01
