   10   10 1000    2
  0.1106884E+04  0.2221760E-08  0.2350950E-08  0.2119149E-08  0.5000000E-15
   1.0000000000000000E-004
  CAR 
 unknown system                          
    100      1     66
 
  0.1262379E-14  0.1262379E-14  0.1262379E-14  0.1000000E+01
    1       -9.842171     -9.827188   1.000000   1.000000
    2       -8.185895     -7.977138   1.000000   1.000000
    3       -8.053423     -7.799482   1.000000   1.000000
    4       -7.555049     -7.131614   1.000000   1.000000
    5       -7.525728     -7.053851   1.000000   1.000000
    6       -7.215188     -6.552669   1.000000   1.000000
    7       -7.158259     -6.551286   1.000000   1.000000
    8       -7.128796     -6.513237   1.000000   1.000000
    9       -7.122746     -6.388195   1.000000   1.000000
   10       -6.962380     -6.255034   1.000000   1.000000
   11       -6.912405     -6.156228   1.000000   1.000000
   12       -6.878081     -6.090709   1.000000   1.000000
   13       -6.866353     -6.066753   1.000000   1.000000
   14       -6.575475     -5.933671   1.000000   1.000000
   15       -6.527093     -5.775158   1.000000   1.000000
   16       -6.310053     -5.743951   1.000000   1.000000
   17       -6.221743     -5.484175   1.000000   1.000000
   18       -6.166303     -5.419144   1.000000   1.000000
   19       -6.038946     -5.248906   1.000000   1.000000
   20       -6.013221     -5.203242   1.000000   1.000000
   21       -5.975218     -5.166878   1.000000   1.000000
   22       -5.944875     -5.143812   1.000000   1.000000
   23       -5.715577     -5.039914   1.000000   1.000000
   24       -5.664736     -5.019967   1.000000   1.000000
   25       -5.496622     -4.863510   1.000000   1.000000
   26       -5.492355     -4.793343   1.000000   1.000000
   27       -5.443833     -4.767430   1.000000   1.000000
   28       -5.409314     -4.745435   1.000000   1.000000
   29       -5.321881     -4.650913   1.000000   1.000000
   30       -5.312678     -4.605179   1.000000   1.000000
   31       -5.191163     -4.528368   1.000000   1.000003
   32       -5.118743     -4.467985   1.000000   1.000020
   33       -5.069289     -4.432117   1.000000   1.000058
   34       -5.006784     -4.339600   1.000000   1.000665
   35       -5.002975     -4.313310   1.000000   1.001216
   36       -4.955855     -4.274322   1.000000   1.002765
   37       -4.952630     -4.221877   1.000000   1.007205
   38       -4.920561     -4.218230   1.000000   1.007650
   39       -4.885360     -4.136720   1.000000   1.022788
   40       -4.832540     -4.106815   1.000000   1.029541
   41       -4.807871     -4.084468   1.000000   1.033583
   42       -4.772299     -3.996837   1.000000   1.012521
   43       -4.750523     -3.985803   1.000000   1.002057
   44       -4.720387     -3.934244   1.000000   0.917132
   45       -4.667942     -3.882341   1.000000   0.766008
   46       -4.655647     -3.834669   1.000000   0.580615
   47       -4.604471     -3.787076   1.000000   0.380983
   48       -4.596292     -3.771406   1.000000   0.318280
   49       -4.577131     -3.674204   1.000001   0.037850
   50       -4.532936     -3.633173   1.000002  -0.013377
   51       -4.524940     -3.574953   1.000003  -0.035382
   52       -4.506616     -3.557307   1.000006  -0.034839
   53       -4.438329     -3.457877   1.000049  -0.014889
   54       -4.307330     -3.453432   1.001388  -0.014033
   55       -3.637753     -3.275732  -0.009415  -0.000455
   56       -2.938756     -2.670186  -0.000000  -0.000000
   57       -2.869679     -2.637170  -0.000000  -0.000000
   58       -2.474970     -2.131130  -0.000000  -0.000000
   59       -2.267609     -2.024453  -0.000000  -0.000000
   60       -1.682611     -1.442644  -0.000000  -0.000000
   61       -1.596620     -1.424244  -0.000000  -0.000000
   62       -0.859236     -0.744719  -0.000000  -0.000000
   63       -0.627810     -0.531826  -0.000000  -0.000000
   64       -0.398881     -0.296387  -0.000000  -0.000000
   65       -0.320536     -0.180319  -0.000000  -0.000000
   66       -0.258172     -0.154957  -0.000000  -0.000000
