       N       E                     dE             d eps       ncg     rms          rms(c)
DAV:   1     0.629365893420E+03    0.62937E+03   -0.16582E+04   264   0.704E+02
DAV:   2     0.107780321790E+03   -0.52159E+03   -0.48294E+03   456   0.140E+02
DAV:   3    -0.292575823339E+02   -0.13704E+03   -0.12657E+03   312   0.135E+02
DAV:   4    -0.414658798072E+02   -0.12208E+02   -0.11359E+02   294   0.550E+01
DAV:   5    -0.417159914636E+02   -0.25011E+00   -0.24819E+00   314   0.616E+00    0.198E+01
DAV:   6    -0.442279594523E+02   -0.25120E+01   -0.53137E+01   296   0.910E+01    0.415E+01
DAV:   7    -0.398167562036E+02    0.44112E+01   -0.35711E+01   286   0.981E+01    0.284E+01
DAV:   8    -0.392352911547E+02    0.58147E+00   -0.21053E+01   324   0.667E+01    0.325E+01
DAV:   9    -0.361377335355E+02    0.30976E+01   -0.13422E+01   350   0.536E+01    0.173E+01
DAV:  10    -0.367031122608E+02   -0.56538E+00   -0.78366E+00   360   0.472E+01    0.184E+01
DAV:  11    -0.359541582906E+02    0.74895E+00   -0.33092E+00   318   0.344E+01    0.170E+01
DAV:  12    -0.353837753392E+02    0.57038E+00   -0.18645E+00   302   0.230E+01    0.778E+00
DAV:  13    -0.354386930961E+02   -0.54918E-01   -0.97300E-01   406   0.130E+01    0.900E+00
DAV:  14    -0.353768802792E+02    0.61813E-01   -0.81567E-01   286   0.126E+01    0.644E+00
DAV:  15    -0.353698575205E+02    0.70228E-02   -0.38183E-01   336   0.995E+00    0.604E+00
DAV:  16    -0.353569414953E+02    0.12916E-01   -0.34839E-01   300   0.952E+00    0.577E+00
DAV:  17    -0.353312263482E+02    0.25715E-01   -0.17402E-01   350   0.751E+00    0.513E+00
DAV:  18    -0.352964130131E+02    0.34813E-01   -0.16142E-01   284   0.672E+00    0.444E+00
DAV:  19    -0.352846136866E+02    0.11799E-01   -0.16930E-01   344   0.547E+00    0.416E+00
DAV:  20    -0.352832351887E+02    0.13785E-02   -0.86860E-02   348   0.450E+00    0.195E+00
DAV:  21    -0.353098361712E+02   -0.26601E-01   -0.44363E-02   328   0.357E+00    0.190E+00
DAV:  22    -0.353772440176E+02   -0.67408E-01   -0.30573E-02   316   0.285E+00    0.113E+00
DAV:  23    -0.354618921577E+02   -0.84648E-01   -0.12995E-02   304   0.139E+00    0.442E-01
DAV:  24    -0.355466376522E+02   -0.84745E-01   -0.78549E-03   318   0.772E-01    0.430E-01
DAV:  25    -0.356274165782E+02   -0.80779E-01   -0.56043E-03   278   0.782E-01    0.245E-01
DAV:  26    -0.357157793335E+02   -0.88363E-01   -0.58927E-03   290   0.441E-01    0.224E-01
DAV:  27    -0.358012627567E+02   -0.85483E-01   -0.53486E-03   282   0.465E-01    0.200E-01
DAV:  28    -0.358574554543E+02   -0.56193E-01   -0.28712E-03   274   0.388E-01    0.110E-01
DAV:  29    -0.359025928804E+02   -0.45137E-01   -0.15250E-03   244   0.204E-01    0.991E-02
DAV:  30    -0.359457921967E+02   -0.43199E-01   -0.14085E-03   270   0.174E-01    0.491E-02
DAV:  31    -0.359711621883E+02   -0.25370E-01   -0.64417E-04   248   0.104E-01    0.637E-02
DAV:  32    -0.359884893287E+02   -0.17327E-01   -0.44212E-04   230   0.133E-01    0.474E-02
DAV:  33    -0.359978913834E+02   -0.94021E-02   -0.24356E-04   232   0.900E-02    0.360E-02
DAV:  34    -0.360036104657E+02   -0.57191E-02   -0.13432E-04   192   0.561E-02    0.171E-02
DAV:  35    -0.360082774435E+02   -0.46670E-02   -0.17099E-04   222   0.412E-02    0.292E-02
DAV:  36    -0.360111373376E+02   -0.28599E-02   -0.72989E-05   192   0.442E-02    0.117E-02
DAV:  37    -0.360125202646E+02   -0.13829E-02   -0.47243E-05   192   0.253E-02    0.895E-03
DAV:  38    -0.360134342592E+02   -0.91399E-03   -0.28700E-05   176   0.211E-02    0.115E-02
DAV:  39    -0.360144907647E+02   -0.10565E-02   -0.52802E-05   184   0.241E-02    0.784E-03
DAV:  40    -0.360147688534E+02   -0.27809E-03   -0.14621E-05   184   0.154E-02    0.640E-03
DAV:  41    -0.360151074279E+02   -0.33857E-03   -0.23869E-05   180   0.128E-02    0.579E-03
DAV:  42    -0.360152550571E+02   -0.14763E-03   -0.11418E-05   184   0.136E-02    0.438E-03
DAV:  43    -0.360153181488E+02   -0.63092E-04   -0.63066E-06   164   0.102E-02
   1 F= -.36015318E+02 E0= -.36001201E+02  d E =-.360153E+02  mag=     8.2962
       N       E                     dE             d eps       ncg     rms          rms(c)
DAV:   1    -0.362126565544E+02   -0.19740E+00   -0.11565E+02   264   0.423E+01    0.332E+00
DAV:   2    -0.365692301569E+02   -0.35657E+00   -0.19014E+00   396   0.180E+01    0.984E+00
DAV:   3    -0.363580474661E+02    0.21118E+00   -0.15948E+00   294   0.225E+01    0.493E+00
DAV:   4    -0.364849453080E+02   -0.12690E+00   -0.45527E-01   348   0.120E+01    0.823E+00
DAV:   5    -0.363361625461E+02    0.14878E+00   -0.41383E-01   308   0.977E+00    0.149E+00
DAV:   6    -0.363890744457E+02   -0.52912E-01   -0.99146E-02   366   0.517E+00    0.305E+00
DAV:   7    -0.363694973340E+02    0.19577E-01   -0.99385E-02   284   0.542E+00    0.161E+00
DAV:   8    -0.363956737757E+02   -0.26176E-01   -0.13446E-01   380   0.501E+00    0.356E+00
DAV:   9    -0.363706083664E+02    0.25065E-01   -0.83988E-02   316   0.447E+00    0.139E+00
DAV:  10    -0.363764762146E+02   -0.58678E-02   -0.22311E-02   356   0.262E+00    0.139E+00
DAV:  11    -0.363756093524E+02    0.86686E-03   -0.15652E-02   316   0.218E+00    0.691E-01
DAV:  12    -0.363761368291E+02   -0.52748E-03   -0.51965E-03   340   0.103E+00    0.426E-01
DAV:  13    -0.363768621416E+02   -0.72531E-03   -0.21850E-03   300   0.740E-01    0.342E-01
DAV:  14    -0.363768866551E+02   -0.24514E-04   -0.11099E-03   270   0.561E-01    0.153E-01
DAV:  15    -0.363774474456E+02   -0.56079E-03   -0.37998E-04   172   0.306E-01    0.126E-01
DAV:  16    -0.363775858361E+02   -0.13839E-03   -0.17978E-04   172   0.298E-01    0.994E-02
DAV:  17    -0.363778241155E+02   -0.23828E-03   -0.10507E-04   172   0.192E-01    0.504E-02
DAV:  18    -0.363779191151E+02   -0.95000E-04   -0.82454E-05   164   0.147E-01
   2 F= -.36377919E+02 E0= -.36370634E+02  d E =-.362601E+00  mag=     8.2648
       N       E                     dE             d eps       ncg     rms          rms(c)
DAV:   1    -0.363829467233E+02   -0.51226E-02   -0.24608E+01   264   0.191E+01    0.153E+00
DAV:   2    -0.364591268602E+02   -0.76180E-01   -0.36938E-01   396   0.884E+00    0.470E+00
DAV:   3    -0.364048580231E+02    0.54269E-01   -0.21331E-01   286   0.106E+01    0.228E+00
DAV:   4    -0.364449398569E+02   -0.40082E-01   -0.13213E-01   356   0.615E+00    0.385E+00
DAV:   5    -0.364075149348E+02    0.37425E-01   -0.92710E-02   316   0.501E+00    0.795E-01
DAV:   6    -0.364197776955E+02   -0.12263E-01   -0.20663E-02   340   0.255E+00    0.137E+00
DAV:   7    -0.364166060818E+02    0.31716E-02   -0.18882E-02   292   0.234E+00    0.736E-01
DAV:   8    -0.364219318552E+02   -0.53258E-02   -0.20819E-02   300   0.261E+00    0.131E+00
DAV:   9    -0.364174740456E+02    0.44578E-02   -0.15820E-02   292   0.223E+00    0.560E-01
DAV:  10    -0.364184471006E+02   -0.97306E-03   -0.66587E-03   364   0.108E+00    0.501E-01
DAV:  11    -0.364189872382E+02   -0.54014E-03   -0.21990E-03   292   0.722E-01    0.267E-01
DAV:  12    -0.364191430012E+02   -0.15576E-03   -0.68102E-04   180   0.436E-01    0.136E-01
DAV:  13    -0.364194777820E+02   -0.33478E-03   -0.24302E-04   170   0.287E-01    0.115E-01
DAV:  14    -0.364196133512E+02   -0.13557E-03   -0.14854E-04   164   0.229E-01    0.462E-02
DAV:  15    -0.364198510267E+02   -0.23768E-03   -0.68081E-05   166   0.151E-01    0.672E-02
DAV:  16    -0.364200136045E+02   -0.16258E-03   -0.55231E-05   164   0.138E-01    0.318E-02
DAV:  17    -0.364202148917E+02   -0.20129E-03   -0.27581E-05   168   0.757E-02    0.412E-02
DAV:  18    -0.364203000978E+02   -0.85206E-04   -0.22075E-05   146   0.729E-02
   3 F= -.36420300E+02 E0= -.36416194E+02  d E =-.404982E+00  mag=     8.2331
       N       E                     dE             d eps       ncg     rms          rms(c)
DAV:   1    -0.364243149098E+02   -0.41000E-02   -0.19890E+00   268   0.539E+00    0.452E-01
DAV:   2    -0.364350559749E+02   -0.10741E-01   -0.43960E-02   372   0.335E+00    0.203E+00
DAV:   3    -0.364222860474E+02    0.12770E-01   -0.26673E-02   292   0.356E+00    0.393E-01
DAV:   4    -0.364268320718E+02   -0.45460E-02   -0.65734E-03   380   0.118E+00    0.640E-01
DAV:   5    -0.364255158846E+02    0.13162E-02   -0.32641E-03   284   0.107E+00    0.234E-01
DAV:   6    -0.364258247608E+02   -0.30888E-03   -0.11303E-03   276   0.531E-01    0.220E-01
DAV:   7    -0.364256082949E+02    0.21647E-03   -0.84968E-04   198   0.451E-01    0.263E-01
DAV:   8    -0.364254298188E+02    0.17848E-03   -0.59669E-04   176   0.425E-01    0.261E-01
DAV:   9    -0.364252111082E+02    0.21871E-03   -0.69924E-04   214   0.478E-01    0.171E-01
DAV:  10    -0.364253362823E+02   -0.12517E-03   -0.32583E-04   166   0.299E-01    0.124E-01
DAV:  11    -0.364255146877E+02   -0.17841E-03   -0.23850E-04   174   0.255E-01    0.151E-01
DAV:  12    -0.364255707002E+02   -0.56012E-04   -0.12829E-04   166   0.208E-01
   4 F= -.36425571E+02 E0= -.36422302E+02  d E =-.527060E-02  mag=     8.2057
       N       E                     dE             d eps       ncg     rms          rms(c)
DAV:   1    -0.364167734586E+02    0.87412E-02   -0.92779E+00   268   0.117E+01    0.996E-01
DAV:   2    -0.364767137166E+02   -0.59940E-01   -0.23088E-01   356   0.771E+00    0.445E+00
DAV:   3    -0.364129848697E+02    0.63729E-01   -0.12050E-01   300   0.801E+00    0.892E-01
DAV:   4    -0.364377900061E+02   -0.24805E-01   -0.55327E-02   364   0.361E+00    0.239E+00
DAV:   5    -0.364226510994E+02    0.15139E-01   -0.43742E-02   292   0.321E+00    0.533E-01
DAV:   6    -0.364260612254E+02   -0.34101E-02   -0.64018E-03   372   0.126E+00    0.436E-01
DAV:   7    -0.364259314628E+02    0.12976E-03   -0.38239E-03   302   0.957E-01    0.558E-01
DAV:   8    -0.364253556237E+02    0.57584E-03   -0.30079E-03   296   0.911E-01    0.481E-01
DAV:   9    -0.364252468990E+02    0.10872E-03   -0.36563E-03   302   0.103E+00    0.506E-01
DAV:  10    -0.364251176476E+02    0.12925E-03   -0.22222E-03   310   0.788E-01    0.372E-01
DAV:  11    -0.364256394704E+02   -0.52182E-03   -0.11338E-03   254   0.603E-01    0.372E-01
DAV:  12    -0.364257679504E+02   -0.12848E-03   -0.62681E-04   214   0.492E-01    0.112E-01
DAV:  13    -0.364262259843E+02   -0.45803E-03   -0.24331E-04   176   0.245E-01    0.929E-02
DAV:  14    -0.364267843998E+02   -0.55842E-03   -0.13713E-04   170   0.160E-01    0.548E-02
DAV:  15    -0.364270965659E+02   -0.31217E-03   -0.64314E-05   158   0.116E-01    0.549E-02
DAV:  16    -0.364276857516E+02   -0.58919E-03   -0.40188E-05   172   0.100E-01    0.189E-02
DAV:  17    -0.364279838015E+02   -0.29805E-03   -0.20356E-05   156   0.590E-02    0.212E-02
DAV:  18    -0.364287875121E+02   -0.80371E-03   -0.24334E-05   180   0.475E-02    0.124E-02
DAV:  19    -0.364297534889E+02   -0.96598E-03   -0.31990E-05   174   0.207E-02    0.106E-02
DAV:  20    -0.364305484633E+02   -0.79497E-03   -0.20196E-05   184   0.164E-02    0.760E-03
DAV:  21    -0.364315428520E+02   -0.99439E-03   -0.24430E-05   184   0.152E-02    0.847E-03
DAV:  22    -0.364321716381E+02   -0.62879E-03   -0.15536E-05   184   0.137E-02    0.565E-03
DAV:  23    -0.364329929257E+02   -0.82129E-03   -0.21580E-05   184   0.125E-02    0.587E-03
DAV:  24    -0.364336872995E+02   -0.69437E-03   -0.24838E-05   200   0.118E-02    0.423E-03
DAV:  25    -0.364341239212E+02   -0.43662E-03   -0.10340E-05   184   0.105E-02    0.306E-03
DAV:  26    -0.364343094638E+02   -0.18554E-03   -0.53588E-06   176   0.886E-03    0.219E-03
DAV:  27    -0.364344688731E+02   -0.15941E-03   -0.35050E-06   176   0.600E-03    0.145E-03
DAV:  28    -0.364346004685E+02   -0.13160E-03   -0.29741E-06   176   0.471E-03    0.110E-03
DAV:  29    -0.364346669902E+02   -0.66522E-04   -0.12906E-06   176   0.409E-03
   5 F= -.36434667E+02 E0= -.36433427E+02  d E =-.143669E-01  mag=     8.0983
       N       E                     dE             d eps       ncg     rms          rms(c)
DAV:   1    -0.364375858856E+02   -0.29854E-02   -0.16081E+00   264   0.476E+00    0.468E-01
DAV:   2    -0.364610769473E+02   -0.23491E-01   -0.72206E-02   388   0.448E+00    0.300E+00
DAV:   3    -0.364324162646E+02    0.28661E-01   -0.40319E-02   308   0.446E+00    0.579E-01
DAV:   4    -0.364401746049E+02   -0.77583E-02   -0.12665E-02   396   0.181E+00    0.954E-01
DAV:   5    -0.364382178141E+02    0.19568E-02   -0.42769E-03   318   0.129E+00    0.175E-01
DAV:   6    -0.364391172970E+02   -0.89948E-03   -0.91111E-04   296   0.507E-01    0.156E-01
DAV:   7    -0.364392732693E+02   -0.15597E-03   -0.78921E-04   208   0.412E-01    0.242E-01
DAV:   8    -0.364391589241E+02    0.11435E-03   -0.68540E-04   176   0.375E-01    0.267E-01
DAV:   9    -0.364388980124E+02    0.26091E-03   -0.66208E-04   192   0.432E-01    0.137E-01
DAV:  10    -0.364389834466E+02   -0.85434E-04   -0.14831E-04   168   0.244E-01
   6 F= -.36438983E+02 E0= -.36438409E+02  d E =-.431646E-02  mag=     8.0894
       N       E                     dE             d eps       ncg     rms          rms(c)
DAV:   1    -0.364259125669E+02    0.12985E-01   -0.14516E+01   264   0.144E+01    0.146E+00
DAV:   2    -0.366440878725E+02   -0.21818E+00   -0.82172E-01   364   0.142E+01    0.816E+00
DAV:   3    -0.364149487940E+02    0.22914E+00   -0.39990E-01   308   0.138E+01    0.228E+00
DAV:   4    -0.364455166698E+02   -0.30568E-01   -0.11246E-01   414   0.531E+00    0.225E+00
DAV:   5    -0.364401295979E+02    0.53871E-02   -0.33166E-02   304   0.328E+00    0.711E-01
DAV:   6    -0.364416487593E+02   -0.15192E-02   -0.99494E-03   288   0.174E+00    0.413E-01
DAV:   7    -0.364434795250E+02   -0.18308E-02   -0.85370E-03   344   0.126E+00    0.776E-01
DAV:   8    -0.364421353944E+02    0.13441E-02   -0.59345E-03   296   0.125E+00    0.477E-01
DAV:   9    -0.364427196920E+02   -0.58430E-03   -0.52053E-03   328   0.119E+00    0.729E-01
DAV:  10    -0.364412657188E+02    0.14540E-02   -0.49652E-03   312   0.112E+00    0.323E-01
DAV:  11    -0.364420158154E+02   -0.75010E-03   -0.17271E-03   294   0.636E-01    0.353E-01
DAV:  12    -0.364419340068E+02    0.81809E-04   -0.80486E-04   246   0.495E-01
   7 F= -.36441934E+02 E0= -.36442995E+02  d E =-.726702E-02  mag=     8.0620
       N       E                     dE             d eps       ncg     rms          rms(c)
DAV:   1    -0.364436123442E+02   -0.15965E-02   -0.13494E+00   264   0.445E+00    0.341E-01
DAV:   2    -0.364481819207E+02   -0.45696E-02   -0.22346E-02   380   0.207E+00    0.138E+00
DAV:   3    -0.364440596220E+02    0.41223E-02   -0.17950E-02   308   0.254E+00    0.679E-01
DAV:   4    -0.364470619001E+02   -0.30023E-02   -0.74372E-03   356   0.157E+00    0.742E-01
DAV:   5    -0.364454671391E+02    0.15948E-02   -0.38003E-03   294   0.119E+00    0.174E-01
DAV:   6    -0.364460287624E+02   -0.56162E-03   -0.77812E-04   278   0.468E-01    0.157E-01
DAV:   7    -0.364465889146E+02   -0.56015E-03   -0.74888E-04   182   0.393E-01    0.233E-01
DAV:   8    -0.364465493176E+02    0.39597E-04   -0.51204E-04   184   0.371E-01
   8 F= -.36446549E+02 E0= -.36448338E+02  d E =-.461531E-02  mag=     8.0483
       N       E                     dE             d eps       ncg     rms          rms(c)
DAV:   1    -0.364374351077E+02    0.91538E-02   -0.83697E+00   264   0.111E+01    0.817E-01
DAV:   2    -0.364550089594E+02   -0.17574E-01   -0.11431E-01   380   0.421E+00    0.244E+00
DAV:   3    -0.364514167086E+02    0.35923E-02   -0.82225E-02   284   0.592E+00    0.211E+00
DAV:   4    -0.364543513939E+02   -0.29347E-02   -0.53365E-02   356   0.376E+00    0.171E+00
DAV:   5    -0.364472897270E+02    0.70617E-02   -0.21520E-02   286   0.268E+00    0.279E-01
DAV:   6    -0.364507660511E+02   -0.34763E-02   -0.67304E-03   370   0.125E+00    0.718E-01
DAV:   7    -0.364500996599E+02    0.66639E-03   -0.55253E-03   300   0.115E+00    0.367E-01
DAV:   8    -0.364508173989E+02   -0.71774E-03   -0.26146E-03   326   0.871E-01    0.452E-01
DAV:   9    -0.364509917581E+02   -0.17436E-03   -0.30708E-03   302   0.889E-01    0.374E-01
DAV:  10    -0.364509512153E+02    0.40543E-04   -0.14074E-03   278   0.621E-01    0.204E-01
DAV:  11    -0.364513208913E+02   -0.36968E-03   -0.50735E-04   190   0.431E-01    0.210E-01
DAV:  12    -0.364513885501E+02   -0.67659E-04   -0.27069E-04   174   0.353E-01
   9 F= -.36451389E+02 E0= -.36453486E+02  d E =-.945454E-02  mag=     8.0299
       N       E                     dE             d eps       ncg     rms          rms(c)
DAV:   1    -0.364507498730E+02    0.57102E-03   -0.26666E+00   264   0.617E+00    0.481E-01
DAV:   2    -0.364630544110E+02   -0.12305E-01   -0.44639E-02   388   0.332E+00    0.236E+00
DAV:   3    -0.364485304196E+02    0.14524E-01   -0.26994E-02   302   0.377E+00    0.711E-01
DAV:   4    -0.364573299760E+02   -0.87996E-02   -0.17928E-02   380   0.211E+00    0.116E+00
DAV:   5    -0.364531387492E+02    0.41912E-02   -0.88013E-03   276   0.169E+00    0.213E-01
DAV:   6    -0.364544012687E+02   -0.12625E-02   -0.16698E-03   354   0.632E-01    0.241E-01
DAV:   7    -0.364550533847E+02   -0.65212E-03   -0.14769E-03   278   0.610E-01    0.372E-01
DAV:   8    -0.364548827161E+02    0.17067E-03   -0.10561E-03   238   0.510E-01    0.287E-01
DAV:   9    -0.364549912313E+02   -0.10852E-03   -0.70445E-04   198   0.477E-01    0.205E-01
DAV:  10    -0.364551780089E+02   -0.18678E-03   -0.46008E-04   184   0.376E-01    0.107E-01
DAV:  11    -0.364554124585E+02   -0.23445E-03   -0.14128E-04   156   0.219E-01    0.129E-01
DAV:  12    -0.364554428147E+02   -0.30356E-04   -0.12421E-04   156   0.195E-01
  10 F= -.36455443E+02 E0= -.36457595E+02  d E =-.405426E-02  mag=     8.0190
       N       E                     dE             d eps       ncg     rms          rms(c)
DAV:   1    -0.364442473582E+02    0.11165E-01   -0.90677E+00   264   0.114E+01    0.906E-01
DAV:   2    -0.364948303217E+02   -0.50583E-01   -0.16586E-01   388   0.650E+00    0.461E+00
DAV:   3    -0.364403307998E+02    0.54500E-01   -0.94621E-02   300   0.726E+00    0.132E+00
DAV:   4    -0.364662654323E+02   -0.25935E-01   -0.68455E-02   372   0.395E+00    0.209E+00
DAV:   5    -0.364533293062E+02    0.12936E-01   -0.33901E-02   284   0.317E+00    0.406E-01
DAV:   6    -0.364564174219E+02   -0.30881E-02   -0.58551E-03   356   0.119E+00    0.506E-01
DAV:   7    -0.364574204436E+02   -0.10030E-02   -0.50871E-03   310   0.110E+00    0.639E-01
DAV:   8    -0.364569426245E+02    0.47782E-03   -0.32461E-03   300   0.877E-01    0.493E-01
DAV:   9    -0.364570811515E+02   -0.13853E-03   -0.27241E-03   318   0.900E-01    0.329E-01
DAV:  10    -0.364573753075E+02   -0.29416E-03   -0.13007E-03   288   0.631E-01    0.251E-01
DAV:  11    -0.364575628726E+02   -0.18757E-03   -0.57710E-04   204   0.428E-01    0.207E-01
DAV:  12    -0.364575739829E+02   -0.11110E-04   -0.42987E-04   172   0.369E-01
  11 F= -.36457574E+02 E0= -.36459929E+02  d E =-.618543E-02  mag=     8.0101
       N       E                     dE             d eps       ncg     rms          rms(c)
DAV:   1    -0.364530674291E+02    0.44954E-02   -0.42601E+00   264   0.785E+00    0.650E-01
DAV:   2    -0.364833948594E+02   -0.30327E-01   -0.12124E-01   388   0.509E+00    0.345E+00
DAV:   3    -0.364512038671E+02    0.32191E-01   -0.72345E-02   300   0.548E+00    0.113E+00
DAV:   4    -0.364620439587E+02   -0.10840E-01   -0.25654E-02   374   0.308E+00    0.145E+00
DAV:   5    -0.364574747368E+02    0.45692E-02   -0.14130E-02   300   0.218E+00    0.544E-01
DAV:   6    -0.364581914599E+02   -0.71672E-03   -0.43458E-03   332   0.109E+00    0.252E-01
DAV:   7    -0.364591992050E+02   -0.10077E-02   -0.31123E-03   318   0.836E-01    0.464E-01
DAV:   8    -0.364589580576E+02    0.24115E-03   -0.20869E-03   300   0.759E-01    0.291E-01
DAV:   9    -0.364593195504E+02   -0.36149E-03   -0.12761E-03   270   0.607E-01    0.350E-01
DAV:  10    -0.364591856132E+02    0.13394E-03   -0.11017E-03   236   0.555E-01    0.177E-01
DAV:  11    -0.364593418727E+02   -0.15626E-03   -0.32390E-04   166   0.349E-01    0.114E-01
DAV:  12    -0.364594662087E+02   -0.12434E-03   -0.15435E-04   164   0.223E-01    0.800E-02
DAV:  13    -0.364595083666E+02   -0.42158E-04   -0.81304E-05   148   0.170E-01
  12 F= -.36459508E+02 E0= -.36461964E+02  d E =-.193438E-02  mag=     8.0012
       N       E                     dE             d eps       ncg     rms          rms(c)
DAV:   1    -0.364595495742E+02   -0.83365E-04   -0.46485E-02   266   0.825E-01    0.794E-02
DAV:   2    -0.364601017925E+02   -0.55222E-03   -0.19238E-03   348   0.753E-01    0.471E-01
DAV:   3    -0.364593151626E+02    0.78663E-03   -0.18363E-03   292   0.758E-01    0.162E-01
DAV:   4    -0.364596606182E+02   -0.34546E-03   -0.26891E-04   188   0.341E-01    0.104E-01
DAV:   5    -0.364597484102E+02   -0.87792E-04   -0.11598E-04   158   0.203E-01
  13 F= -.36459748E+02 E0= -.36462206E+02  d E =-.217443E-02  mag=     7.9996
       N       E                     dE             d eps       ncg     rms          rms(c)
DAV:   1    -0.364594452510E+02    0.21537E-03   -0.78090E-01   264   0.339E+00    0.307E-01
DAV:   2    -0.364649263023E+02   -0.54811E-02   -0.19858E-02   374   0.268E+00    0.143E+00
DAV:   3    -0.364579961954E+02    0.69301E-02   -0.12344E-02   294   0.266E+00    0.397E-01
DAV:   4    -0.364610442309E+02   -0.30480E-02   -0.61272E-03   388   0.126E+00    0.681E-01
DAV:   5    -0.364599282371E+02    0.11160E-02   -0.34260E-03   310   0.101E+00    0.301E-01
DAV:   6    -0.364601182201E+02   -0.18998E-03   -0.63841E-04   252   0.467E-01    0.940E-02
DAV:   7    -0.364604699058E+02   -0.35169E-03   -0.42848E-04   168   0.326E-01    0.191E-01
DAV:   8    -0.364604343571E+02    0.35549E-04   -0.43722E-04   172   0.313E-01
  14 F= -.36460434E+02 E0= -.36462257E+02  d E =-.685947E-03  mag=     7.9946
       N       E                     dE             d eps       ncg     rms          rms(c)
DAV:   1    -0.364604606085E+02    0.92973E-05   -0.77846E-02   264   0.111E+00    0.164E-01
DAV:   2    -0.364640888084E+02   -0.36282E-02   -0.13650E-02   388   0.183E+00    0.126E+00
DAV:   3    -0.364591186521E+02    0.49702E-02   -0.12356E-02   308   0.176E+00    0.224E-01
DAV:   4    -0.364604394128E+02   -0.13208E-02   -0.14287E-03   330   0.530E-01    0.156E-01
DAV:   5    -0.364606368297E+02   -0.19742E-03   -0.42240E-04   172   0.309E-01    0.133E-01
DAV:   6    -0.364605945331E+02    0.42297E-04   -0.19062E-04   160   0.236E-01
  15 F= -.36460595E+02 E0= -.36462389E+02  d E =-.846123E-03  mag=     7.9920
