 vasp.6.1.2 22Jul20 (build Aug  2 2021 21:04:21) gamma-only                      
 executed on             LinuxPGI date 2021.12.25  09:14:25
 running on   16 total cores
 distrk:  each k-point on   16 cores,    1 groups
 distr:  one band on NCORE=   8 cores,    2 groups


--------------------------------------------------------------------------------------------------------


 INCAR:
 POTCAR:    PAW_PBE Ni 02Aug2007                  
 -----------------------------------------------------------------------------
|                                                                             |
|           W    W    AA    RRRRR   N    N  II  N    N   GGGG   !!!           |
|           W    W   A  A   R    R  NN   N  II  NN   N  G    G  !!!           |
|           W    W  A    A  R    R  N N  N  II  N N  N  G       !!!           |
|           W WW W  AAAAAA  RRRRR   N  N N  II  N  N N  G  GGG   !            |
|           WW  WW  A    A  R   R   N   NN  II  N   NN  G    G                |
|           W    W  A    A  R    R  N    N  II  N    N   GGGG   !!!           |
|                                                                             |
|     You use a magnetic or noncollinear calculation, but did not specify     |
|     the initial magnetic moment with the MAGMOM tag. Note that a            |
|     default of 1 will be used for all atoms. This ferromagnetic setup       |
|     may break the symmetry of the crystal, in particular it may rule        |
|     out finding an antiferromagnetic solution. Thence, we recommend         |
|     setting the initial magnetic moment manually or verifying carefully     |
|     that this magnetic setup is desired.                                    |
|                                                                             |
 -----------------------------------------------------------------------------

 POTCAR:    PAW_PBE Ni 02Aug2007                  
   SHA256 =  0534bc51ca8003dfef23f56753fef9fdd3e22eac8d719fccacb59f3e6b7a69c7 Ni/POTCAR             
   COPYR  = (c) Copyright 02Aug2007 Georg Kresse                                                    
   COPYR  = This file is part of the software VASP. Any use, copying, and all other rights are regul
   COPYR  = If you do not have a valid VASP license, you may not use, copy or distribute this file. 
   VRHFIN =Ni:                                                                                      
   LEXCH  = PE                                                                                      
   EATOM  =  1077.6739 eV,   79.2068 Ry                                                             
                                                                                                    
   TITEL  = PAW_PBE Ni 02Aug2007                                                                    
   LULTRA =        F    use ultrasoft PP ?                                                          
   IUNSCR =        1    unscreen: 0-lin 1-nonlin 2-no                                               
   RPACOR =    2.000    partial core radius                                                         
   POMASS =   58.690; ZVAL   =   10.000    mass and valenz                                          
   RCORE  =    2.300    outmost cutoff radius                                                       
   RWIGS  =    2.430; RWIGS  =    1.286    wigner-seitz radius (au A)                               
   ENMAX  =  269.532; ENMIN  =  202.149 eV                                                          
   RCLOC  =    1.201    cutoff for local pot                                                        
   LCOR   =        T    correct aug charges                                                         
   LPAW   =        T    paw PP                                                                      
   EAUG   =  544.565                                                                                
   DEXC   =    0.000                                                                                
   RMAX   =    2.357    core radius for proj-oper                                                   
   RAUG   =    1.300    factor for augmentation sphere                                              
   RDEP   =    2.390    radius for radial grids                                                     
   RDEPT  =    1.838    core radius for aug-charge                                                  
                                                                                                    
   Atomic configuration                                                                             
    9 entries                                                                                       
     n  l   j            E        occ.                                                              
     1  0  0.50     -8206.4253   2.0000                                                             
     2  0  0.50      -976.1748   2.0000                                                             
     2  1  1.50      -839.0571   6.0000                                                             
     3  0  0.50      -105.9991   2.0000                                                             
     3  1  1.50       -66.4603   6.0000                                                             
     3  2  2.50        -4.6458   9.0000                                                             
     4  0  0.50        -4.4926   1.0000                                                             
     4  1  1.50        -4.0817   0.0000                                                             
     4  3  2.50        -1.3606   0.0000                                                             
   Description                                                                                      
     l       E           TYP  RCUT    TYP  RCUT                                                     
     2     -4.6457903     23  2.300                                                                 
     2     -6.0063729     23  2.300                                                                 
     0     -4.4925590     23  2.300                                                                 
     0      5.0102601     23  2.300                                                                 
     1     -2.7211652     23  2.300                                                                 
     1     16.5183231     23  2.300                                                                 
  local pseudopotential read in
  partial core-charges read in
  partial kinetic energy density read in
  atomic valenz-charges read in
  non local Contribution for L=            2  read in
    real space projection operators read in
  non local Contribution for L=            2  read in
    real space projection operators read in
  non local Contribution for L=            0  read in
    real space projection operators read in
  non local Contribution for L=            0  read in
    real space projection operators read in
  non local Contribution for L=            1  read in
    real space projection operators read in
  non local Contribution for L=            1  read in
    real space projection operators read in
    PAW grid and wavefunctions read in
 
   number of l-projection  operators is LMAX  =            6
   number of lm-projection operators is LMMAX =           18
 
  PAW_PBE Ni 02Aug2007                  :
 energy of atom  1       EATOM=-1077.6739
 kinetic energy error for atom=    0.0101 (will be added to EATOM!!)
 
 
 POSCAR: Ni
  positions in cartesian coordinates
  No initial velocities read in
 exchange correlation table for  LEXCH =        8
   RHO(1)=    0.500       N(1)  =     2000
   RHO(2)=  100.500       N(2)  =     4000
 


--------------------------------------------------------------------------------------------------------


 ion  position               nearest neighbor table
   1  0.500  0.441  0.533-   9 2.39   5 2.40   4 2.41   7 2.44   2 2.47   6 2.47
   2  0.504  0.477  0.424-   9 2.38   3 2.41   6 2.42   5 2.43   8 2.43   1 2.47   4 3.08
   3  0.475  0.564  0.477-  10 2.38   7 2.40   2 2.41   5 2.43   4 2.47   8 2.48
   4  0.556  0.528  0.546-  10 2.38   1 2.41   7 2.42   8 2.43   6 2.43   3 2.47   2 3.08
   5  0.411  0.480  0.485-   1 2.40   7 2.42   2 2.43   3 2.43
   6  0.597  0.454  0.478-   9 2.41   2 2.42   4 2.43   8 2.47   1 2.47
   7  0.452  0.525  0.579-   3 2.40   4 2.42   5 2.42   1 2.44
   8  0.579  0.551  0.437-  10 2.41   4 2.43   2 2.43   6 2.47   3 2.48
   9  0.527  0.380  0.448-   2 2.38   1 2.39   6 2.41
  10  0.554  0.624  0.512-   4 2.38   3 2.38   8 2.41
 

IMPORTANT INFORMATION: All symmetrisations will be switched off!
NOSYMM: (Re-)initialisation of all symmetry stuff for point group C_1.


----------------------------------------------------------------------------------------

                                     Primitive cell                                     

  volume of cell :   11068.8419

  direct lattice vectors                    reciprocal lattice vectors
    22.217599891  0.000000000  0.000000000     0.045009362  0.000000000  0.000000000
     0.000000000 23.509502955  0.000000000     0.000000000  0.042535991  0.000000000
     0.000000000  0.000000000 21.191494944     0.000000000  0.000000000  0.047188743

  length of vectors
    22.217599891 23.509502955 21.191494944     0.045009362  0.042535991  0.047188743

  position of ions in fractional coordinates (direct lattice)
     0.499658634  0.440996266  0.533260595
     0.503719722  0.476985728  0.424028118
     0.475215231  0.563514724  0.476828034
     0.556130862  0.527579279  0.546043675
     0.411180337  0.479827679  0.484949419
     0.596634613  0.453792102  0.477838065
     0.451772830  0.524897079  0.578596394
     0.579236894  0.550743591  0.437095324
     0.526881550  0.380298982  0.447682323
     0.554428624  0.624196534  0.511967907

  ion indices of the primitive-cell ions
   primitive index   ion index
                 1           1
                 2           2
                 3           3
                 4           4
                 5           5
                 6           6
                 7           7
                 8           8
                 9           9
                10          10

----------------------------------------------------------------------------------------

 
 
 KPOINTS: KPOINTS created by Atomic Simulation Env

Automatic generation of k-mesh.
Space group operators:
 irot       det(A)        alpha          n_x          n_y          n_z        tau_x        tau_y        tau_z
    1     1.000000     0.000000     1.000000     0.000000     0.000000     0.000000     0.000000     0.000000
 
 Subroutine IBZKPT returns following result:
 ===========================================
 
 Found      1 irreducible k-points:
 
 Following reciprocal coordinates:
            Coordinates               Weight
  0.000000  0.000000  0.000000      1.000000
 
 Following cartesian coordinates:
            Coordinates               Weight
  0.000000  0.000000  0.000000      1.000000
 


--------------------------------------------------------------------------------------------------------




 Dimension of arrays:
   k-points           NKPTS =      1   k-points in BZ     NKDIM =      1   number of bands    NBANDS=     66
   number of dos      NEDOS =    301   number of ions     NIONS =     10
   non local maximal  LDIM  =      6   non local SUM 2l+1 LMDIM =     18
   total plane-waves  NPLWV = ******
   max r-space proj   IRMAX =      1   max aug-charges    IRDMAX=   4450
   dimension x,y,z NGX =   112 NGY =  120 NGZ =  108
   dimension x,y,z NGXF=   224 NGYF=  240 NGZF=  216
   support grid    NGXF=   224 NGYF=  240 NGZF=  216
   ions per type =              10
   NGX,Y,Z   is equivalent  to a cutoff of   8.38,  8.49,  8.47 a.u.
   NGXF,Y,Z  is equivalent  to a cutoff of  16.76, 16.97, 16.95 a.u.

 SYSTEM =  unknown system                          
 POSCAR =  Ni                                      

 Startparameter for this run:
   NWRITE =      2    write-flag & timer
   PREC   = normal    normal or accurate (medium, high low for compatibility)
   ISTART =      0    job   : 0-new  1-cont  2-samecut
   ICHARG =      2    charge: 1-file 2-atom 10-const
   ISPIN  =      2    spin polarized calculation?
   LNONCOLLINEAR =      F non collinear calculations
   LSORBIT =      F    spin-orbit coupling
   INIWAV =      1    electr: 0-lowe 1-rand  2-diag
   LASPH  =      F    aspherical Exc in radial PAW
   METAGGA=      F    non-selfconsistent MetaGGA calc.

 Electronic Relaxation 1
   ENCUT  =  400.0 eV  29.40 Ry    5.42 a.u.  36.23 38.34 34.56*2*pi/ulx,y,z
   ENINI  =  400.0     initial cutoff
   ENAUG  =  544.6 eV  augmentation charge cutoff
   NELM   =     60;   NELMIN=  2; NELMDL=  0     # of ELM steps 
   EDIFF  = 0.1E-03   stopping-criterion for ELM
   LREAL  =      F    real-space projection
   NLSPLINE    = F    spline interpolate recip. space projectors
   LCOMPAT=      F    compatible to vasp.4.4
   GGA_COMPAT  = T    GGA compatible to vasp.4.4-vasp.4.6
   LMAXPAW     = -100 max onsite density
   LMAXMIX     =    2 max onsite mixed and CHGCAR
   VOSKOWN=      0    Vosko Wilk Nusair interpolation
   ROPT   =    0.00000
 Ionic relaxation
   EDIFFG = 0.1E-02   stopping-criterion for IOM
   NSW    =   1000    number of steps for IOM
   NBLOCK =      1;   KBLOCK =   1000    inner block; outer block 
   IBRION =      2    ionic relax: 0-MD 1-quasi-New 2-CG
   NFREE  =      1    steps in history (QN), initial steepest desc. (CG)
   ISIF   =      0    stress and relaxation
   IWAVPR =     11    prediction:  0-non 1-charg 2-wave 3-comb
   ISYM   =      0    0-nonsym 1-usesym 2-fastsym
   LCORR  =      T    Harris-Foulkes like correction to forces

   POTIM  = 0.5000    time-step for ionic-motion
   TEIN   =    0.0    initial temperature
   TEBEG  =    0.0;   TEEND  =   0.0 temperature during run
   SMASS  =  -3.00    Nose mass-parameter (am)
   estimated Nose-frequenzy (Omega)   =  0.10E-29 period in steps = 0.13E+47 mass=  -0.113E-25a.u.
   SCALEE = 1.0000    scale energy and forces
   NPACO  =    256;   APACO  = 16.0  distance and # of slots for P.C.
   PSTRESS=    0.0 pullay stress

  Mass of Ions in am
   POMASS =  58.69
  Ionic Valenz
   ZVAL   =  10.00
  Atomic Wigner-Seitz radii
   RWIGS  =  -1.00
  virtual crystal weights 
   VCA    =   1.00
   NELECT =     100.0000    total number of electrons
   NUPDOWN=      -1.0000    fix difference up-down

 DOS related values:
   EMIN   =  10.00;   EMAX   =-10.00  energy-range for DOS
   EFERMI =   0.00
   ISMEAR =     1;   SIGMA  =   0.20  broadening in eV -4-tet -1-fermi 0-gaus

 Electronic relaxation 2 (details)
   IALGO  =     38    algorithm
   LDIAG  =      T    sub-space diagonalisation (order eigenvalues)
   LSUBROT=      F    optimize rotation matrix (better conditioning)
   TURBO    =      0    0=normal 1=particle mesh
   IRESTART =      0    0=no restart 2=restart with 2 vectors
   NREBOOT  =      0    no. of reboots
   NMIN     =      0    reboot dimension
   EREF     =   0.00    reference energy to select bands
   IMIX   =      4    mixing-type and parameters
     AMIX     =   0.40;   BMIX     =  1.00
     AMIX_MAG =   1.60;   BMIX_MAG =  1.00
     AMIN     =   0.10
     WC   =   100.;   INIMIX=   1;  MIXPRE=   1;  MAXMIX= -45

 Intra band minimization:
   WEIMIN = 0.0010     energy-eigenvalue tresh-hold
   EBREAK =  0.38E-06  absolut break condition
   DEPER  =   0.30     relativ break condition  

   TIME   =   0.40     timestep for ELM

  volume/ion in A,a.u.               =    1106.88      7469.62
  Fermi-wavevector in a.u.,A,eV,Ry     =   0.340963  0.644327  1.581757  0.116256
  Thomas-Fermi vector in A             =   1.245110
 
 Write flags
   LWAVE        =      F    write WAVECAR
   LDOWNSAMPLE  =      F    k-point downsampling of WAVECAR
   LCHARG       =      F    write CHGCAR
   LVTOT        =      F    write LOCPOT, total local potential
   LVHAR        =      F    write LOCPOT, Hartree potential only
   LELF         =      F    write electronic localiz. function (ELF)
   LORBIT       =      0    0 simple, 1 ext, 2 COOP (PROOUT), +10 PAW based schemes


 Dipole corrections
   LMONO  =      F    monopole corrections only (constant potential shift)
   LDIPOL =      F    correct potential (dipole corrections)
   IDIPOL =      0    1-x, 2-y, 3-z, 4-all directions 
   EPSILON=  1.0000000 bulk dielectric constant

 Exchange correlation treatment:
   GGA     =    PE    GGA type
   LEXCH   =     8    internal setting for exchange type
   VOSKOWN=      0    Vosko Wilk Nusair interpolation
   LHFCALC =     F    Hartree Fock is set to
   LHFONE  =     F    Hartree Fock one center treatment
   AEXX    =    0.0000 exact exchange contribution

 Linear response parameters
   LEPSILON=     F    determine dielectric tensor
   LRPA    =     F    only Hartree local field effects (RPA)
   LNABLA  =     F    use nabla operator in PAW spheres
   LVEL    =     F    velocity operator in full k-point grid
   LINTERFAST=   F  fast interpolation
   KINTER  =     0    interpolate to denser k-point grid
   CSHIFT  =0.1000    complex shift for real part using Kramers Kronig
   OMEGAMAX=  -1.0    maximum frequency
   DEG_THRESHOLD= 0.2000000E-02 threshold for treating states as degnerate
   RTIME   =   -0.100 relaxation time in fs
  (WPLASMAI=    0.000 imaginary part of plasma frequency in eV, 0.658/RTIME)
   DFIELD  = 0.0000000 0.0000000 0.0000000 field for delta impulse in time
 
 Orbital magnetization related:
   ORBITALMAG=     F  switch on orbital magnetization
   LCHIMAG   =     F  perturbation theory with respect to B field
   DQ        =  0.001000  dq finite difference perturbation B field
   LLRAUG    =     F  two centre corrections for induced B field



--------------------------------------------------------------------------------------------------------


 conjugate gradient relaxation of ions
 charge density and potential will be updated during run
 spin polarized calculation
 Variant of blocked Davidson
 Davidson routine will perform the subspace rotation
 perform sub-space diagonalisation
    after iterative eigenvector-optimisation
 modified Broyden-mixing scheme, WC =      100.0
 initial mixing is a Kerker type mixing with AMIX =  0.4000 and BMIX =      1.0000
 Hartree-type preconditioning will be used
 using additional bands            16
 reciprocal scheme for non local part
 use partial core corrections
 calculate Harris-corrections to forces 
   (improved forces if not selfconsistent)
 use gradient corrections 
 use of overlap-Matrix (Vanderbilt PP)
 Methfessel and Paxton  Order N= 1 SIGMA  =   0.20


--------------------------------------------------------------------------------------------------------


  energy-cutoff  :      400.00
  volume of cell :    11068.84
      direct lattice vectors                 reciprocal lattice vectors
    22.217599891  0.000000000  0.000000000     0.045009362  0.000000000  0.000000000
     0.000000000 23.509502955  0.000000000     0.000000000  0.042535991  0.000000000
     0.000000000  0.000000000 21.191494944     0.000000000  0.000000000  0.047188743

  length of vectors
    22.217599891 23.509502955 21.191494944     0.045009362  0.042535991  0.047188743


 
 k-points in units of 2pi/SCALE and weight: KPOINTS created by Atomic Simulation Env
   0.00000000  0.00000000  0.00000000       1.000
 
 k-points in reciprocal lattice and weights: KPOINTS created by Atomic Simulation Env
   0.00000000  0.00000000  0.00000000       1.000
 
 position of ions in fractional coordinates (direct lattice) 
   0.49965863  0.44099627  0.53326059
   0.50371972  0.47698573  0.42402812
   0.47521523  0.56351472  0.47682803
   0.55613086  0.52757928  0.54604367
   0.41118034  0.47982768  0.48494942
   0.59663461  0.45379210  0.47783806
   0.45177283  0.52489708  0.57859639
   0.57923689  0.55074359  0.43709532
   0.52688155  0.38029898  0.44768232
   0.55442862  0.62419653  0.51196791
 
 position of ions in cartesian coordinates  (Angst):
  11.10121560 10.36760302 11.30058920
  11.19144324 11.21369738  8.98578971
  10.55814187 13.24795107 10.10469888
  12.35589298 12.40312661 11.57148177
   9.13544021 11.28051023 10.27680316
  13.25578911 10.66842677 10.12610293
  10.03730797 12.34006943 12.26132255
  12.86925355 12.94770808  9.26270335
  11.70604347  8.94064004  9.48705769
  12.31807333 14.67455025 10.84936531
 


--------------------------------------------------------------------------------------------------------


 use parallel FFT for orbitals z direction half grid
 k-point   1 :   0.0000 0.0000 0.0000  plane waves:  100467

 maximum and minimum number of plane-waves per node :     12562    12556

 maximum number of plane-waves:    100467
 maximum index in each direction: 
   IXMAX=   36   IYMAX=   38   IZMAX=   34
   IXMIN=  -36   IYMIN=  -38   IZMIN=    0


 parallel 3D FFT for wavefunctions:
    minimum data exchange during FFTs selected (reduces bandwidth)
 parallel 3D FFT for charge:
    minimum data exchange during FFTs selected (reduces bandwidth)


 total amount of memory used by VASP MPI-rank0   142755. kBytes
=======================================================================

   base      :      30000. kBytes
   nonl-proj :       3817. kBytes
   fftplans  :      28427. kBytes
   grid      :      67200. kBytes
   one-center:         31. kBytes
   wavefun   :      13280. kBytes
 
     INWAV:  cpu time    0.0000: real time    0.0000
 Broyden mixing: mesh for mixing (old mesh)
   NGX = 73   NGY = 77   NGZ = 69
  (NGX  =224   NGY  =240   NGZ  =216)
  gives a total of 387849 points

 initial charge density was supplied:
 charge density of overlapping atoms calculated
 number of electron     100.0000000 magnetization      10.0000000
 keeping initial charge density in first step


--------------------------------------------------------------------------------------------------------


 Maximum index for augmentation-charges           312 (set IRDMAX)


--------------------------------------------------------------------------------------------------------


 First call to EWALD:  gamma=   0.080
 Maximum number of real-space cells 3x 3x 3
 Maximum number of reciprocal cells 3x 3x 3

    FEWALD:  cpu time    0.0012: real time    0.0012


--------------------------------------- Iteration      1(   1)  ---------------------------------------


    POTLOK:  cpu time    2.3412: real time    2.3528
    SETDIJ:  cpu time    0.0221: real time    0.0221
     EDDAV:  cpu time    5.2006: real time    5.2068
       DOS:  cpu time    0.0009: real time    0.0009
    --------------------------------------------
      LOOP:  cpu time    7.5647: real time    7.5826

 eigenvalue-minimisations  :   264
 total energy-change (2. order) : 0.6293659E+03  (-0.1658184E+04)
 number of electron     100.0000000 magnetization      10.0000000
 augmentation part      100.0000000 magnetization      10.0000000

 Free energy of the ion-electron system (eV)
  ---------------------------------------------------
  alpha Z        PSCENC =         4.60747398
  Ewald energy   TEWEN  =     12805.73928941
  -Hartree energ DENC   =    -22657.68033264
  -exchange      EXHF   =         0.00000000
  -V(xc)+E(xc)   XCENC  =       304.85843897
  PAW double counting   =      9628.33173603   -10296.70712275
  entropy T*S    EENTRO =        -0.05150791
  eigenvalues    EBANDS =        63.62954703
  atomic energy  EATOM  =     10776.63837129
  Solvation  Ediel_sol  =         0.00000000
  ---------------------------------------------------
  free energy    TOTEN  =       629.36589342 eV

  energy without entropy =      629.41740133  energy(sigma->0) =      629.38306272


--------------------------------------------------------------------------------------------------------




--------------------------------------- Iteration      1(   2)  ---------------------------------------


     EDDAV:  cpu time    7.8424: real time    7.8519
       DOS:  cpu time    0.0008: real time    0.0008
    --------------------------------------------
      LOOP:  cpu time    7.8431: real time    7.8526

 eigenvalue-minimisations  :   456
 total energy-change (2. order) :-0.5215856E+03  (-0.4829358E+03)
 number of electron     100.0000000 magnetization      10.0000000
 augmentation part      100.0000000 magnetization      10.0000000

 Free energy of the ion-electron system (eV)
  ---------------------------------------------------
  alpha Z        PSCENC =         4.60747398
  Ewald energy   TEWEN  =     12805.73928941
  -Hartree energ DENC   =    -22657.68033264
  -exchange      EXHF   =         0.00000000
  -V(xc)+E(xc)   XCENC  =       304.85843897
  PAW double counting   =      9628.33173603   -10296.70712275
  entropy T*S    EENTRO =        -0.00970543
  eigenvalues    EBANDS =      -457.99782708
  atomic energy  EATOM  =     10776.63837129
  Solvation  Ediel_sol  =         0.00000000
  ---------------------------------------------------
  free energy    TOTEN  =       107.78032179 eV

  energy without entropy =      107.79002722  energy(sigma->0) =      107.78355693


--------------------------------------------------------------------------------------------------------




--------------------------------------- Iteration      1(   3)  ---------------------------------------


     EDDAV:  cpu time    5.8168: real time    5.8254
       DOS:  cpu time    0.0008: real time    0.0008
    --------------------------------------------
      LOOP:  cpu time    5.8176: real time    5.8261

 eigenvalue-minimisations  :   312
 total energy-change (2. order) :-0.1370379E+03  (-0.1265652E+03)
 number of electron     100.0000000 magnetization      10.0000000
 augmentation part      100.0000000 magnetization      10.0000000

 Free energy of the ion-electron system (eV)
  ---------------------------------------------------
  alpha Z        PSCENC =         4.60747398
  Ewald energy   TEWEN  =     12805.73928941
  -Hartree energ DENC   =    -22657.68033264
  -exchange      EXHF   =         0.00000000
  -V(xc)+E(xc)   XCENC  =       304.85843897
  PAW double counting   =      9628.33173603   -10296.70712275
  entropy T*S    EENTRO =        -0.01518675
  eigenvalues    EBANDS =      -595.03024988
  atomic energy  EATOM  =     10776.63837129
  Solvation  Ediel_sol  =         0.00000000
  ---------------------------------------------------
  free energy    TOTEN  =       -29.25758233 eV

  energy without entropy =      -29.24239558  energy(sigma->0) =      -29.25252008


--------------------------------------------------------------------------------------------------------




--------------------------------------- Iteration      1(   4)  ---------------------------------------


     EDDAV:  cpu time    5.5509: real time    5.5573
       DOS:  cpu time    0.0008: real time    0.0008
    --------------------------------------------
      LOOP:  cpu time    5.5517: real time    5.5581

 eigenvalue-minimisations  :   294
 total energy-change (2. order) :-0.1220830E+02  (-0.1135876E+02)
 number of electron     100.0000000 magnetization      10.0000000
 augmentation part      100.0000000 magnetization      10.0000000

 Free energy of the ion-electron system (eV)
  ---------------------------------------------------
  alpha Z        PSCENC =         4.60747398
  Ewald energy   TEWEN  =     12805.73928941
  -Hartree energ DENC   =    -22657.68033264
  -exchange      EXHF   =         0.00000000
  -V(xc)+E(xc)   XCENC  =       304.85843897
  PAW double counting   =      9628.33173603   -10296.70712275
  entropy T*S    EENTRO =        -0.07544587
  eigenvalues    EBANDS =      -607.17828823
  atomic energy  EATOM  =     10776.63837129
  Solvation  Ediel_sol  =         0.00000000
  ---------------------------------------------------
  free energy    TOTEN  =       -41.46587981 eV

  energy without entropy =      -41.39043393  energy(sigma->0) =      -41.44073118


--------------------------------------------------------------------------------------------------------




--------------------------------------- Iteration      1(   5)  ---------------------------------------


     EDDAV:  cpu time    5.8390: real time    5.8462
       DOS:  cpu time    0.0008: real time    0.0008
    CHARGE:  cpu time    0.6513: real time    0.6521
    MIXING:  cpu time    0.0393: real time    0.0393
    --------------------------------------------
      LOOP:  cpu time    6.5304: real time    6.5384

 eigenvalue-minimisations  :   314
 total energy-change (2. order) :-0.2501117E+00  (-0.2481919E+00)
 number of electron      99.9999957 magnetization       9.9326586
 augmentation part       59.3073259 magnetization       7.9474942

 Broyden mixing:
  rms(total) = 0.19758E+01    rms(broyden)= 0.19749E+01
  rms(prec ) = 0.20822E+01
  weight for this iteration     100.00

 Free energy of the ion-electron system (eV)
  ---------------------------------------------------
  alpha Z        PSCENC =         4.60747398
  Ewald energy   TEWEN  =     12805.73928941
  -Hartree energ DENC   =    -22657.68033264
  -exchange      EXHF   =         0.00000000
  -V(xc)+E(xc)   XCENC  =       304.85843897
  PAW double counting   =      9628.33173603   -10296.70712275
  entropy T*S    EENTRO =        -0.07434262
  eigenvalues    EBANDS =      -607.42950314
  atomic energy  EATOM  =     10776.63837129
  Solvation  Ediel_sol  =         0.00000000
  ---------------------------------------------------
  free energy    TOTEN  =       -41.71599146 eV

  energy without entropy =      -41.64164884  energy(sigma->0) =      -41.69121059


--------------------------------------------------------------------------------------------------------




--------------------------------------- Iteration      1(   6)  ---------------------------------------


    POTLOK:  cpu time    2.3035: real time    2.3094
    SETDIJ:  cpu time    0.0231: real time    0.0231
     EDDAV:  cpu time    5.6159: real time    5.6225
       DOS:  cpu time    0.0095: real time    0.0096
    CHARGE:  cpu time    0.6250: real time    0.6257
    MIXING:  cpu time    0.0474: real time    0.0475
    --------------------------------------------
      LOOP:  cpu time    8.6245: real time    8.6378

 eigenvalue-minimisations  :   296
 total energy-change (2. order) :-0.2511968E+01  (-0.5313697E+01)
 number of electron      99.9999945 magnetization       9.8512276
 augmentation part       64.3892616 magnetization       8.8348755

 Broyden mixing:
  rms(total) = 0.41468E+01    rms(broyden)= 0.41462E+01
  rms(prec ) = 0.43513E+01
  weight for this iteration     100.00

 eigenvalues of (default mixing * dielectric matrix)
  average eigenvalue GAMMA=   0.2131
  0.2131

 Free energy of the ion-electron system (eV)
  ---------------------------------------------------
  alpha Z        PSCENC =         4.60747398
  Ewald energy   TEWEN  =     12805.73928941
  -Hartree energ DENC   =    -22551.10175904
  -exchange      EXHF   =         0.00000000
  -V(xc)+E(xc)   XCENC  =       297.93447881
  PAW double counting   =      9940.28950477   -10583.05282298
  entropy T*S    EENTRO =        -0.05961646
  eigenvalues    EBANDS =      -735.22287924
  atomic energy  EATOM  =     10776.63837129
  Solvation  Ediel_sol  =         0.00000000
  ---------------------------------------------------
  free energy    TOTEN  =       -44.22795945 eV

  energy without entropy =      -44.16834300  energy(sigma->0) =      -44.20808730


--------------------------------------------------------------------------------------------------------




--------------------------------------- Iteration      1(   7)  ---------------------------------------


    POTLOK:  cpu time    2.3255: real time    2.3306
    SETDIJ:  cpu time    0.0233: real time    0.0233
     EDDAV:  cpu time    5.4520: real time    5.4583
       DOS:  cpu time    0.0103: real time    0.0103
    CHARGE:  cpu time    0.6244: real time    0.6251
    MIXING:  cpu time    0.0466: real time    0.0466
    --------------------------------------------
      LOOP:  cpu time    8.4822: real time    8.4943

 eigenvalue-minimisations  :   286
 total energy-change (2. order) : 0.4411203E+01  (-0.3571063E+01)
 number of electron      99.9999951 magnetization       9.7532680
 augmentation part       64.4596310 magnetization       8.3401734

 Broyden mixing:
  rms(total) = 0.28384E+01    rms(broyden)= 0.28373E+01
  rms(prec ) = 0.29972E+01
  weight for this iteration     100.00

 eigenvalues of (default mixing * dielectric matrix)
  average eigenvalue GAMMA=   0.2979
  0.4407  0.1550

 Free energy of the ion-electron system (eV)
  ---------------------------------------------------
  alpha Z        PSCENC =         4.60747398
  Ewald energy   TEWEN  =     12805.73928941
  -Hartree energ DENC   =    -22576.23083965
  -exchange      EXHF   =         0.00000000
  -V(xc)+E(xc)   XCENC  =       298.81395963
  PAW double counting   =     10041.39836637   -10692.51752071
  entropy T*S    EENTRO =         0.03948383
  eigenvalues    EBANDS =      -698.30534037
  atomic energy  EATOM  =     10776.63837129
  Solvation  Ediel_sol  =         0.00000000
  ---------------------------------------------------
  free energy    TOTEN  =       -39.81675620 eV

  energy without entropy =      -39.85624004  energy(sigma->0) =      -39.82991748


--------------------------------------------------------------------------------------------------------




--------------------------------------- Iteration      1(   8)  ---------------------------------------


    POTLOK:  cpu time    2.3327: real time    2.3433
    SETDIJ:  cpu time    0.0230: real time    0.0230
     EDDAV:  cpu time    5.9699: real time    5.9769
       DOS:  cpu time    0.0096: real time    0.0097
    CHARGE:  cpu time    0.5983: real time    0.5989
    MIXING:  cpu time    0.0512: real time    0.0513
    --------------------------------------------
      LOOP:  cpu time    8.9847: real time    9.0030

 eigenvalue-minimisations  :   324
 total energy-change (2. order) : 0.5814650E+00  (-0.2105311E+01)
 number of electron      99.9999967 magnetization       9.7070337
 augmentation part       62.6726631 magnetization       7.9298623

 Broyden mixing:
  rms(total) = 0.32486E+01    rms(broyden)= 0.32478E+01
  rms(prec ) = 0.34704E+01
  weight for this iteration     100.00

 eigenvalues of (default mixing * dielectric matrix)
  average eigenvalue GAMMA=   0.2990
  0.6012  0.1479  0.1479

 Free energy of the ion-electron system (eV)
  ---------------------------------------------------
  alpha Z        PSCENC =         4.60747398
  Ewald energy   TEWEN  =     12805.73928941
  -Hartree energ DENC   =    -22631.05754632
  -exchange      EXHF   =         0.00000000
  -V(xc)+E(xc)   XCENC  =       300.38984031
  PAW double counting   =     10200.31641171   -10865.43598934
  entropy T*S    EENTRO =        -0.09003758
  eigenvalues    EBANDS =      -630.34310462
  atomic energy  EATOM  =     10776.63837129
  Solvation  Ediel_sol  =         0.00000000
  ---------------------------------------------------
  free energy    TOTEN  =       -39.23529115 eV

  energy without entropy =      -39.14525358  energy(sigma->0) =      -39.20527863


--------------------------------------------------------------------------------------------------------




--------------------------------------- Iteration      1(   9)  ---------------------------------------


    POTLOK:  cpu time    2.3368: real time    2.3467
    SETDIJ:  cpu time    0.0229: real time    0.0229
     EDDAV:  cpu time    6.3446: real time    6.3570
       DOS:  cpu time    0.0096: real time    0.0096
    CHARGE:  cpu time    0.6093: real time    0.6100
    MIXING:  cpu time    0.0533: real time    0.0534
    --------------------------------------------
      LOOP:  cpu time    9.3765: real time    9.3995

 eigenvalue-minimisations  :   350
 total energy-change (2. order) : 0.3097558E+01  (-0.1342182E+01)
 number of electron      99.9999959 magnetization       9.6585644
 augmentation part       62.6341325 magnetization       7.9313409

 Broyden mixing:
  rms(total) = 0.17317E+01    rms(broyden)= 0.17308E+01
  rms(prec ) = 0.18439E+01
  weight for this iteration     100.00

 eigenvalues of (default mixing * dielectric matrix)
  average eigenvalue GAMMA=   0.2908
  0.6464  0.2449  0.1360  0.1360

 Free energy of the ion-electron system (eV)
  ---------------------------------------------------
  alpha Z        PSCENC =         4.60747398
  Ewald energy   TEWEN  =     12805.73928941
  -Hartree energ DENC   =    -22649.74881498
  -exchange      EXHF   =         0.00000000
  -V(xc)+E(xc)   XCENC  =       300.78553431
  PAW double counting   =     10274.46138048   -10944.78477953
  entropy T*S    EENTRO =        -0.04707985
  eigenvalues    EBANDS =      -603.78910865
  atomic energy  EATOM  =     10776.63837129
  Solvation  Ediel_sol  =         0.00000000
  ---------------------------------------------------
  free energy    TOTEN  =       -36.13773354 eV

  energy without entropy =      -36.09065368  energy(sigma->0) =      -36.12204025


--------------------------------------------------------------------------------------------------------




--------------------------------------- Iteration      1(  10)  ---------------------------------------


    POTLOK:  cpu time    2.3118: real time    2.3180
    SETDIJ:  cpu time    0.0247: real time    0.0247
     EDDAV:  cpu time    6.4653: real time    6.4727
       DOS:  cpu time    0.0103: real time    0.0104
    CHARGE:  cpu time    0.6056: real time    0.6064
    MIXING:  cpu time    0.0542: real time    0.0542
    --------------------------------------------
      LOOP:  cpu time    9.4719: real time    9.4864

 eigenvalue-minimisations  :   360
 total energy-change (2. order) :-0.5653787E+00  (-0.7836639E+00)
 number of electron      99.9999958 magnetization       9.5878507
 augmentation part       62.0668836 magnetization       7.3731778

 Broyden mixing:
  rms(total) = 0.18441E+01    rms(broyden)= 0.18431E+01
  rms(prec ) = 0.19541E+01
  weight for this iteration     100.00

 eigenvalues of (default mixing * dielectric matrix)
  average eigenvalue GAMMA=   0.3839
  1.0222  0.4863  0.1517  0.1517  0.1076

 Free energy of the ion-electron system (eV)
  ---------------------------------------------------
  alpha Z        PSCENC =         4.60747398
  Ewald energy   TEWEN  =     12805.73928941
  -Hartree energ DENC   =    -22660.03318852
  -exchange      EXHF   =         0.00000000
  -V(xc)+E(xc)   XCENC  =       300.95667556
  PAW double counting   =     10332.18506151   -11005.12377381
  entropy T*S    EENTRO =        -0.03152593
  eigenvalues    EBANDS =      -591.64149577
  atomic energy  EATOM  =     10776.63837129
  Solvation  Ediel_sol  =         0.00000000
  ---------------------------------------------------
  free energy    TOTEN  =       -36.70311226 eV

  energy without entropy =      -36.67158633  energy(sigma->0) =      -36.69260362


--------------------------------------------------------------------------------------------------------




--------------------------------------- Iteration      1(  11)  ---------------------------------------


    POTLOK:  cpu time    2.3147: real time    2.3206
    SETDIJ:  cpu time    0.0225: real time    0.0225
     EDDAV:  cpu time    5.9204: real time    5.9273
       DOS:  cpu time    0.0037: real time    0.0037
    CHARGE:  cpu time    0.6049: real time    0.6056
    MIXING:  cpu time    0.0628: real time    0.0629
    --------------------------------------------
      LOOP:  cpu time    8.9290: real time    8.9426

 eigenvalue-minimisations  :   318
 total energy-change (2. order) : 0.7489540E+00  (-0.3309200E+00)
 number of electron      99.9999951 magnetization       9.5727269
 augmentation part       62.1703035 magnetization       7.6478855

 Broyden mixing:
  rms(total) = 0.17047E+01    rms(broyden)= 0.17042E+01
  rms(prec ) = 0.18012E+01
  weight for this iteration     100.00

 eigenvalues of (default mixing * dielectric matrix)
  average eigenvalue GAMMA=   0.3654
  1.1693  0.4618  0.1649  0.1649  0.1158  0.1158

 Free energy of the ion-electron system (eV)
  ---------------------------------------------------
  alpha Z        PSCENC =         4.60747398
  Ewald energy   TEWEN  =     12805.73928941
  -Hartree energ DENC   =    -22666.48319633
  -exchange      EXHF   =         0.00000000
  -V(xc)+E(xc)   XCENC  =       301.04379625
  PAW double counting   =     10445.83796659   -11122.39985811
  entropy T*S    EENTRO =        -0.07167798
  eigenvalues    EBANDS =      -580.86632340
  atomic energy  EATOM  =     10776.63837129
  Solvation  Ediel_sol  =         0.00000000
  ---------------------------------------------------
  free energy    TOTEN  =       -35.95415829 eV

  energy without entropy =      -35.88248031  energy(sigma->0) =      -35.93026563


--------------------------------------------------------------------------------------------------------




--------------------------------------- Iteration      1(  12)  ---------------------------------------


    POTLOK:  cpu time    2.3183: real time    2.3258
    SETDIJ:  cpu time    0.0228: real time    0.0228
     EDDAV:  cpu time    5.6615: real time    5.6680
       DOS:  cpu time    0.0061: real time    0.0061
    CHARGE:  cpu time    0.6110: real time    0.6118
    MIXING:  cpu time    0.0610: real time    0.0611
    --------------------------------------------
      LOOP:  cpu time    8.6808: real time    8.6956

 eigenvalue-minimisations  :   302
 total energy-change (2. order) : 0.5703830E+00  (-0.1864542E+00)
 number of electron      99.9999964 magnetization       9.5463003
 augmentation part       62.2221899 magnetization       7.8310130

 Broyden mixing:
  rms(total) = 0.77841E+00    rms(broyden)= 0.77761E+00
  rms(prec ) = 0.82572E+00
  weight for this iteration     100.00

 eigenvalues of (default mixing * dielectric matrix)
  average eigenvalue GAMMA=   0.3758
  1.2714  0.4207  0.4207  0.1557  0.1557  0.1190  0.0870

 Free energy of the ion-electron system (eV)
  ---------------------------------------------------
  alpha Z        PSCENC =         4.60747398
  Ewald energy   TEWEN  =     12805.73928941
  -Hartree energ DENC   =    -22668.04619657
  -exchange      EXHF   =         0.00000000
  -V(xc)+E(xc)   XCENC  =       301.06119435
  PAW double counting   =     10465.40563701   -11142.66370910
  entropy T*S    EENTRO =        -0.08424391
  eigenvalues    EBANDS =      -578.04159181
  atomic energy  EATOM  =     10776.63837129
  Solvation  Ediel_sol  =         0.00000000
  ---------------------------------------------------
  free energy    TOTEN  =       -35.38377534 eV

  energy without entropy =      -35.29953143  energy(sigma->0) =      -35.35569404


--------------------------------------------------------------------------------------------------------




--------------------------------------- Iteration      1(  13)  ---------------------------------------


    POTLOK:  cpu time    2.3108: real time    2.3179
    SETDIJ:  cpu time    0.0236: real time    0.0237
     EDDAV:  cpu time    7.1265: real time    7.1372
       DOS:  cpu time    0.0065: real time    0.0066
    CHARGE:  cpu time    0.5934: real time    0.5973
    MIXING:  cpu time    0.0718: real time    0.0719
    --------------------------------------------
      LOOP:  cpu time   10.1327: real time   10.1546

 eigenvalue-minimisations  :   406
 total energy-change (2. order) :-0.5491776E-01  (-0.9729966E-01)
 number of electron      99.9999961 magnetization       9.5068015
 augmentation part       62.2564395 magnetization       7.8274757

 Broyden mixing:
  rms(total) = 0.89981E+00    rms(broyden)= 0.89948E+00
  rms(prec ) = 0.96101E+00
  weight for this iteration     100.00

 eigenvalues of (default mixing * dielectric matrix)
  average eigenvalue GAMMA=   0.3925
  1.4447  0.5532  0.5532  0.1508  0.1508  0.1103  0.0884  0.0884

 Free energy of the ion-electron system (eV)
  ---------------------------------------------------
  alpha Z        PSCENC =         4.60747398
  Ewald energy   TEWEN  =     12805.73928941
  -Hartree energ DENC   =    -22668.80871119
  -exchange      EXHF   =         0.00000000
  -V(xc)+E(xc)   XCENC  =       300.99693724
  PAW double counting   =     10483.56046549   -11161.11987251
  entropy T*S    EENTRO =        -0.08257461
  eigenvalues    EBANDS =      -576.97007220
  atomic energy  EATOM  =     10776.63837129
  Solvation  Ediel_sol  =         0.00000000
  ---------------------------------------------------
  free energy    TOTEN  =       -35.43869310 eV

  energy without entropy =      -35.35611848  energy(sigma->0) =      -35.41116822


--------------------------------------------------------------------------------------------------------




--------------------------------------- Iteration      1(  14)  ---------------------------------------


    POTLOK:  cpu time    2.3118: real time    2.3167
    SETDIJ:  cpu time    0.0222: real time    0.0222
     EDDAV:  cpu time    5.4463: real time    5.4552
       DOS:  cpu time    0.0069: real time    0.0069
    CHARGE:  cpu time    0.5904: real time    0.5910
    MIXING:  cpu time    0.0712: real time    0.0713
    --------------------------------------------
      LOOP:  cpu time    8.4489: real time    8.4634

 eigenvalue-minimisations  :   286
 total energy-change (2. order) : 0.6181282E-01  (-0.8156720E-01)
 number of electron      99.9999967 magnetization       9.4808028
 augmentation part       62.3851449 magnetization       7.9344147

 Broyden mixing:
  rms(total) = 0.64363E+00    rms(broyden)= 0.64314E+00
  rms(prec ) = 0.68259E+00
  weight for this iteration     100.00

 eigenvalues of (default mixing * dielectric matrix)
  average eigenvalue GAMMA=   0.3804
  1.5258  0.5596  0.5596  0.1642  0.1642  0.1626  0.1216  0.1011  0.0651

 Free energy of the ion-electron system (eV)
  ---------------------------------------------------
  alpha Z        PSCENC =         4.60747398
  Ewald energy   TEWEN  =     12805.73928941
  -Hartree energ DENC   =    -22669.64806905
  -exchange      EXHF   =         0.00000000
  -V(xc)+E(xc)   XCENC  =       300.90851222
  PAW double counting   =     10508.78901010   -11186.66153887
  entropy T*S    EENTRO =        -0.06794723
  eigenvalues    EBANDS =      -575.68198214
  atomic energy  EATOM  =     10776.63837129
  Solvation  Ediel_sol  =         0.00000000
  ---------------------------------------------------
  free energy    TOTEN  =       -35.37688028 eV

  energy without entropy =      -35.30893305  energy(sigma->0) =      -35.35423120


--------------------------------------------------------------------------------------------------------




--------------------------------------- Iteration      1(  15)  ---------------------------------------


    POTLOK:  cpu time    2.3119: real time    2.3157
    SETDIJ:  cpu time    0.0225: real time    0.0225
     EDDAV:  cpu time    6.1499: real time    6.1597
       DOS:  cpu time    0.0040: real time    0.0040
    CHARGE:  cpu time    0.5972: real time    0.5979
    MIXING:  cpu time    0.0808: real time    0.0809
    --------------------------------------------
      LOOP:  cpu time    9.1664: real time    9.1806

 eigenvalue-minimisations  :   336
 total energy-change (2. order) : 0.7022759E-02  (-0.3818326E-01)
 number of electron      99.9999961 magnetization       9.4328949
 augmentation part       62.4131493 magnetization       7.8950396

 Broyden mixing:
  rms(total) = 0.60375E+00    rms(broyden)= 0.60342E+00
  rms(prec ) = 0.63616E+00
  weight for this iteration     100.00

 eigenvalues of (default mixing * dielectric matrix)
  average eigenvalue GAMMA=   0.3963
  1.5993  0.6195  0.6195  0.4412  0.1562  0.1562  0.1090  0.1048  0.0903  0.0671

 Free energy of the ion-electron system (eV)
  ---------------------------------------------------
  alpha Z        PSCENC =         4.60747398
  Ewald energy   TEWEN  =     12805.73928941
  -Hartree energ DENC   =    -22670.91538001
  -exchange      EXHF   =         0.00000000
  -V(xc)+E(xc)   XCENC  =       300.87981425
  PAW double counting   =     10519.84344043   -11197.80711988
  entropy T*S    EENTRO =        -0.06863262
  eigenvalues    EBANDS =      -574.28711439
  atomic energy  EATOM  =     10776.63837129
  Solvation  Ediel_sol  =         0.00000000
  ---------------------------------------------------
  free energy    TOTEN  =       -35.36985752 eV

  energy without entropy =      -35.30122490  energy(sigma->0) =      -35.34697998


--------------------------------------------------------------------------------------------------------




--------------------------------------- Iteration      1(  16)  ---------------------------------------


    POTLOK:  cpu time    2.3104: real time    2.3213
    SETDIJ:  cpu time    0.0226: real time    0.0226
     EDDAV:  cpu time    5.6902: real time    5.6968
       DOS:  cpu time    0.0053: real time    0.0053
    CHARGE:  cpu time    0.5966: real time    0.6031
    MIXING:  cpu time    0.0908: real time    0.0909
    --------------------------------------------
      LOOP:  cpu time    8.7159: real time    8.7399

 eigenvalue-minimisations  :   300
 total energy-change (2. order) : 0.1291603E-01  (-0.3483940E-01)
 number of electron      99.9999961 magnetization       9.4036648
 augmentation part       62.4365088 magnetization       7.8258310

 Broyden mixing:
  rms(total) = 0.57740E+00    rms(broyden)= 0.57708E+00
  rms(prec ) = 0.60981E+00
  weight for this iteration     100.00

 eigenvalues of (default mixing * dielectric matrix)
  average eigenvalue GAMMA=   0.3908
  1.6414  0.6800  0.6800  0.4817  0.1539  0.1539  0.1272  0.1272  0.0934  0.0934
  0.0664

 Free energy of the ion-electron system (eV)
  ---------------------------------------------------
  alpha Z        PSCENC =         4.60747398
  Ewald energy   TEWEN  =     12805.73928941
  -Hartree energ DENC   =    -22673.51070435
  -exchange      EXHF   =         0.00000000
  -V(xc)+E(xc)   XCENC  =       300.82804179
  PAW double counting   =     10531.81979826   -11209.68241587
  entropy T*S    EENTRO =        -0.04988635
  eigenvalues    EBANDS =      -571.74690966
  atomic energy  EATOM  =     10776.63837129
  Solvation  Ediel_sol  =         0.00000000
  ---------------------------------------------------
  free energy    TOTEN  =       -35.35694150 eV

  energy without entropy =      -35.30705515  energy(sigma->0) =      -35.34031271


--------------------------------------------------------------------------------------------------------




--------------------------------------- Iteration      1(  17)  ---------------------------------------


    POTLOK:  cpu time    2.3144: real time    2.3189
    SETDIJ:  cpu time    0.0222: real time    0.0222
     EDDAV:  cpu time    6.3533: real time    6.3637
       DOS:  cpu time    0.0062: real time    0.0062
    CHARGE:  cpu time    0.5990: real time    0.6022
    MIXING:  cpu time    0.0976: real time    0.0977
    --------------------------------------------
      LOOP:  cpu time    9.3927: real time    9.4108

 eigenvalue-minimisations  :   350
 total energy-change (2. order) : 0.2571515E-01  (-0.1740152E-01)
 number of electron      99.9999960 magnetization       9.3306270
 augmentation part       62.4624719 magnetization       7.7337408

 Broyden mixing:
  rms(total) = 0.51338E+00    rms(broyden)= 0.51317E+00
  rms(prec ) = 0.54330E+00
  weight for this iteration     100.00

 eigenvalues of (default mixing * dielectric matrix)
  average eigenvalue GAMMA=   0.4156
  1.7645  0.7722  0.7722  0.5004  0.3875  0.1575  0.1575  0.1134  0.1134  0.0972
  0.0850  0.0661

 Free energy of the ion-electron system (eV)
  ---------------------------------------------------
  alpha Z        PSCENC =         4.60747398
  Ewald energy   TEWEN  =     12805.73928941
  -Hartree energ DENC   =    -22675.14741385
  -exchange      EXHF   =         0.00000000
  -V(xc)+E(xc)   XCENC  =       300.82243394
  PAW double counting   =     10537.06510001   -11214.86916496
  entropy T*S    EENTRO =        -0.05384343
  eigenvalues    EBANDS =      -570.13347274
  atomic energy  EATOM  =     10776.63837129
  Solvation  Ediel_sol  =         0.00000000
  ---------------------------------------------------
  free energy    TOTEN  =       -35.33122635 eV

  energy without entropy =      -35.27738292  energy(sigma->0) =      -35.31327854


--------------------------------------------------------------------------------------------------------




--------------------------------------- Iteration      1(  18)  ---------------------------------------


    POTLOK:  cpu time    2.3213: real time    2.3270
    SETDIJ:  cpu time    0.0225: real time    0.0225
     EDDAV:  cpu time    5.4376: real time    5.4440
       DOS:  cpu time    0.0059: real time    0.0059
    CHARGE:  cpu time    0.6242: real time    0.6249
    MIXING:  cpu time    0.1055: real time    0.1056
    --------------------------------------------
      LOOP:  cpu time    8.5170: real time    8.5299

 eigenvalue-minimisations  :   284
 total energy-change (2. order) : 0.3481334E-01  (-0.1614188E-01)
 number of electron      99.9999961 magnetization       9.2962213
 augmentation part       62.5066784 magnetization       7.7470431

 Broyden mixing:
  rms(total) = 0.44407E+00    rms(broyden)= 0.44382E+00
  rms(prec ) = 0.47095E+00
  weight for this iteration     100.00

 eigenvalues of (default mixing * dielectric matrix)
  average eigenvalue GAMMA=   0.4034
  1.8298  0.7891  0.7891  0.5433  0.3745  0.1545  0.1545  0.1450  0.1067  0.1067
  0.1027  0.0825  0.0662

 Free energy of the ion-electron system (eV)
  ---------------------------------------------------
  alpha Z        PSCENC =         4.60747398
  Ewald energy   TEWEN  =     12805.73928941
  -Hartree energ DENC   =    -22679.32355171
  -exchange      EXHF   =         0.00000000
  -V(xc)+E(xc)   XCENC  =       300.83405437
  PAW double counting   =     10548.08367684   -11225.87037993
  entropy T*S    EENTRO =        -0.06508471
  eigenvalues    EBANDS =      -565.94026256
  atomic energy  EATOM  =     10776.63837129
  Solvation  Ediel_sol  =         0.00000000
  ---------------------------------------------------
  free energy    TOTEN  =       -35.29641301 eV

  energy without entropy =      -35.23132830  energy(sigma->0) =      -35.27471811


--------------------------------------------------------------------------------------------------------




--------------------------------------- Iteration      1(  19)  ---------------------------------------


    POTLOK:  cpu time    2.3119: real time    2.3156
    SETDIJ:  cpu time    0.0228: real time    0.0228
     EDDAV:  cpu time    6.2669: real time    6.2795
       DOS:  cpu time    0.0059: real time    0.0059
    CHARGE:  cpu time    0.6224: real time    0.6231
    MIXING:  cpu time    0.1093: real time    0.1119
    --------------------------------------------
      LOOP:  cpu time    9.3393: real time    9.3588

 eigenvalue-minimisations  :   344
 total energy-change (2. order) : 0.1179933E-01  (-0.1692950E-01)
 number of electron      99.9999962 magnetization       9.1897209
 augmentation part       62.5304621 magnetization       7.6527961

 Broyden mixing:
  rms(total) = 0.41619E+00    rms(broyden)= 0.41606E+00
  rms(prec ) = 0.44101E+00
  weight for this iteration     100.00

 eigenvalues of (default mixing * dielectric matrix)
  average eigenvalue GAMMA=   0.4444
  2.1809  0.9006  0.6482  0.6482  0.4893  0.4893  0.1565  0.1565  0.1144  0.1144
  0.0931  0.0898  0.0660  0.0744

 Free energy of the ion-electron system (eV)
  ---------------------------------------------------
  alpha Z        PSCENC =         4.60747398
  Ewald energy   TEWEN  =     12805.73928941
  -Hartree energ DENC   =    -22681.10872432
  -exchange      EXHF   =         0.00000000
  -V(xc)+E(xc)   XCENC  =       300.84609235
  PAW double counting   =     10552.49738062   -11230.26155625
  entropy T*S    EENTRO =        -0.06590657
  eigenvalues    EBANDS =      -564.17703422
  atomic energy  EATOM  =     10776.63837129
  Solvation  Ediel_sol  =         0.00000000
  ---------------------------------------------------
  free energy    TOTEN  =       -35.28461369 eV

  energy without entropy =      -35.21870712  energy(sigma->0) =      -35.26264483


--------------------------------------------------------------------------------------------------------




--------------------------------------- Iteration      1(  20)  ---------------------------------------


    POTLOK:  cpu time    2.3246: real time    2.3276
    SETDIJ:  cpu time    0.0231: real time    0.0231
     EDDAV:  cpu time    6.3136: real time    6.3214
       DOS:  cpu time    0.0055: real time    0.0055
    CHARGE:  cpu time    0.6385: real time    0.6392
    MIXING:  cpu time    0.1162: real time    0.1163
    --------------------------------------------
      LOOP:  cpu time    9.4215: real time    9.4332

 eigenvalue-minimisations  :   348
 total energy-change (2. order) : 0.1378498E-02  (-0.8686001E-02)
 number of electron      99.9999962 magnetization       9.1645013
 augmentation part       62.5460258 magnetization       7.6701239

 Broyden mixing:
  rms(total) = 0.19500E+00    rms(broyden)= 0.19477E+00
  rms(prec ) = 0.20625E+00
  weight for this iteration     100.00

 eigenvalues of (default mixing * dielectric matrix)
  average eigenvalue GAMMA=   0.4359
  2.2101  0.9638  0.6374  0.6374  0.4949  0.4949  0.2318  0.1567  0.1567  0.1146
  0.1146  0.0922  0.0922  0.0661  0.0745

 Free energy of the ion-electron system (eV)
  ---------------------------------------------------
  alpha Z        PSCENC =         4.60747398
  Ewald energy   TEWEN  =     12805.73928941
  -Hartree energ DENC   =    -22687.08296965
  -exchange      EXHF   =         0.00000000
  -V(xc)+E(xc)   XCENC  =       300.89065447
  PAW double counting   =     10563.64152975   -11241.47441039
  entropy T*S    EENTRO =        -0.05527654
  eigenvalues    EBANDS =      -558.18789753
  atomic energy  EATOM  =     10776.63837129
  Solvation  Ediel_sol  =         0.00000000
  ---------------------------------------------------
  free energy    TOTEN  =       -35.28323519 eV

  energy without entropy =      -35.22795865  energy(sigma->0) =      -35.26480968


--------------------------------------------------------------------------------------------------------




--------------------------------------- Iteration      1(  21)  ---------------------------------------


    POTLOK:  cpu time    2.3093: real time    2.3216
    SETDIJ:  cpu time    0.0238: real time    0.0238
     EDDAV:  cpu time    6.0337: real time    6.0409
       DOS:  cpu time    0.0040: real time    0.0040
    CHARGE:  cpu time    0.6000: real time    0.6006
    MIXING:  cpu time    0.1194: real time    0.1195
    --------------------------------------------
      LOOP:  cpu time    9.0902: real time    9.1105

 eigenvalue-minimisations  :   328
 total energy-change (2. order) :-0.2660098E-01  (-0.4436297E-02)
 number of electron      99.9999962 magnetization       9.0915749
 augmentation part       62.5403037 magnetization       7.6111950

 Broyden mixing:
  rms(total) = 0.19040E+00    rms(broyden)= 0.19029E+00
  rms(prec ) = 0.20147E+00
  weight for this iteration     100.00

 eigenvalues of (default mixing * dielectric matrix)
  average eigenvalue GAMMA=   0.4827
  2.4042  1.4218  0.6414  0.6414  0.5723  0.5723  0.4964  0.1566  0.1566  0.1134
  0.1134  0.1104  0.0917  0.0917  0.0661  0.0744

 Free energy of the ion-electron system (eV)
  ---------------------------------------------------
  alpha Z        PSCENC =         4.60747398
  Ewald energy   TEWEN  =     12805.73928941
  -Hartree energ DENC   =    -22688.56254838
  -exchange      EXHF   =         0.00000000
  -V(xc)+E(xc)   XCENC  =       300.89276950
  PAW double counting   =     10563.14515184   -11240.95193526
  entropy T*S    EENTRO =        -0.05520456
  eigenvalues    EBANDS =      -556.76320401
  atomic energy  EATOM  =     10776.63837129
  Solvation  Ediel_sol  =         0.00000000
  ---------------------------------------------------
  free energy    TOTEN  =       -35.30983617 eV

  energy without entropy =      -35.25463162  energy(sigma->0) =      -35.29143465


--------------------------------------------------------------------------------------------------------




--------------------------------------- Iteration      1(  22)  ---------------------------------------


    POTLOK:  cpu time    2.3096: real time    2.3133
    SETDIJ:  cpu time    0.0226: real time    0.0226
     EDDAV:  cpu time    5.8733: real time    5.8844
       DOS:  cpu time    0.0042: real time    0.0042
    CHARGE:  cpu time    0.5980: real time    0.5987
    MIXING:  cpu time    0.1300: real time    0.1327
    --------------------------------------------
      LOOP:  cpu time    8.9377: real time    8.9559

 eigenvalue-minimisations  :   316
 total energy-change (2. order) :-0.6740785E-01  (-0.3057267E-02)
 number of electron      99.9999962 magnetization       9.0378795
 augmentation part       62.5250531 magnetization       7.5777285

 Broyden mixing:
  rms(total) = 0.11254E+00    rms(broyden)= 0.11244E+00
  rms(prec ) = 0.11907E+00
  weight for this iteration     100.00

 eigenvalues of (default mixing * dielectric matrix)
  average eigenvalue GAMMA=   0.5019
  2.4246  1.4801  0.7638  0.6623  0.6623  0.5398  0.5398  0.4901  0.1565  0.1565
  0.1143  0.1143  0.1039  0.0918  0.0918  0.0661  0.0744

 Free energy of the ion-electron system (eV)
  ---------------------------------------------------
  alpha Z        PSCENC =         4.60747398
  Ewald energy   TEWEN  =     12805.73928941
  -Hartree energ DENC   =    -22692.39396106
  -exchange      EXHF   =         0.00000000
  -V(xc)+E(xc)   XCENC  =       300.88458869
  PAW double counting   =     10559.55198690   -11237.17800810
  entropy T*S    EENTRO =        -0.05527245
  eigenvalues    EBANDS =      -553.17171269
  atomic energy  EATOM  =     10776.63837129
  Solvation  Ediel_sol  =         0.00000000
  ---------------------------------------------------
  free energy    TOTEN  =       -35.37724402 eV

  energy without entropy =      -35.32197156  energy(sigma->0) =      -35.35881987


--------------------------------------------------------------------------------------------------------




--------------------------------------- Iteration      1(  23)  ---------------------------------------


    POTLOK:  cpu time    2.3032: real time    2.3094
    SETDIJ:  cpu time    0.0226: real time    0.0226
     EDDAV:  cpu time    5.6895: real time    5.6961
       DOS:  cpu time    0.0040: real time    0.0040
    CHARGE:  cpu time    0.6184: real time    0.6191
    MIXING:  cpu time    0.1449: real time    0.1450
    --------------------------------------------
      LOOP:  cpu time    8.7825: real time    8.7962

 eigenvalue-minimisations  :   304
 total energy-change (2. order) :-0.8464814E-01  (-0.1299523E-02)
 number of electron      99.9999963 magnetization       8.9640294
 augmentation part       62.5410019 magnetization       7.5488667

 Broyden mixing:
  rms(total) = 0.44177E-01    rms(broyden)= 0.44101E-01
  rms(prec ) = 0.47745E-01
  weight for this iteration     100.00

 eigenvalues of (default mixing * dielectric matrix)
  average eigenvalue GAMMA=   0.5471
  2.7431  1.6513  0.8383  0.8383  0.6258  0.6258  0.5325  0.5325  0.4899  0.1565
  0.1565  0.1143  0.1143  0.1045  0.0918  0.0918  0.0661  0.0744

 Free energy of the ion-electron system (eV)
  ---------------------------------------------------
  alpha Z        PSCENC =         4.60747398
  Ewald energy   TEWEN  =     12805.73928941
  -Hartree energ DENC   =    -22693.85917308
  -exchange      EXHF   =         0.00000000
  -V(xc)+E(xc)   XCENC  =       300.81318097
  PAW double counting   =     10555.90856148   -11233.40995068
  entropy T*S    EENTRO =        -0.05423656
  eigenvalues    EBANDS =      -551.84540897
  atomic energy  EATOM  =     10776.63837129
  Solvation  Ediel_sol  =         0.00000000
  ---------------------------------------------------
  free energy    TOTEN  =       -35.46189216 eV

  energy without entropy =      -35.40765560  energy(sigma->0) =      -35.44381331


--------------------------------------------------------------------------------------------------------




--------------------------------------- Iteration      1(  24)  ---------------------------------------


    POTLOK:  cpu time    2.3249: real time    2.3274
    SETDIJ:  cpu time    0.0232: real time    0.0232
     EDDAV:  cpu time    5.8877: real time    5.8945
       DOS:  cpu time    0.0042: real time    0.0042
    CHARGE:  cpu time    0.6112: real time    0.6118
    MIXING:  cpu time    0.1533: real time    0.1535
    --------------------------------------------
      LOOP:  cpu time    9.0045: real time    9.0147

 eigenvalue-minimisations  :   318
 total energy-change (2. order) :-0.8474549E-01  (-0.7854899E-03)
 number of electron      99.9999963 magnetization       8.8933853
 augmentation part       62.5285862 magnetization       7.5021587

 Broyden mixing:
  rms(total) = 0.43015E-01    rms(broyden)= 0.42951E-01
  rms(prec ) = 0.46244E-01
  weight for this iteration     100.00

 eigenvalues of (default mixing * dielectric matrix)
  average eigenvalue GAMMA=   0.5844
  2.8979  1.8106  0.9833  0.9833  0.6851  0.5871  0.5871  0.5532  0.5532  0.4936
  0.1565  0.1565  0.1143  0.1143  0.1044  0.0918  0.0918  0.0661  0.0744

 Free energy of the ion-electron system (eV)
  ---------------------------------------------------
  alpha Z        PSCENC =         4.60747398
  Ewald energy   TEWEN  =     12805.73928941
  -Hartree energ DENC   =    -22696.57812258
  -exchange      EXHF   =         0.00000000
  -V(xc)+E(xc)   XCENC  =       300.76837438
  PAW double counting   =     10552.09487648   -11229.53120057
  entropy T*S    EENTRO =        -0.04989293
  eigenvalues    EBANDS =      -549.23580713
  atomic energy  EATOM  =     10776.63837129
  Solvation  Ediel_sol  =         0.00000000
  ---------------------------------------------------
  free energy    TOTEN  =       -35.54663765 eV

  energy without entropy =      -35.49674472  energy(sigma->0) =      -35.53000667


--------------------------------------------------------------------------------------------------------




--------------------------------------- Iteration      1(  25)  ---------------------------------------


    POTLOK:  cpu time    2.3085: real time    2.3175
    SETDIJ:  cpu time    0.0223: real time    0.0223
     EDDAV:  cpu time    5.3413: real time    5.3524
       DOS:  cpu time    0.0035: real time    0.0035
    CHARGE:  cpu time    0.6010: real time    0.6042
    MIXING:  cpu time    0.1571: real time    0.1608
    --------------------------------------------
      LOOP:  cpu time    8.4337: real time    8.4607

 eigenvalue-minimisations  :   278
 total energy-change (2. order) :-0.8077893E-01  (-0.5604286E-03)
 number of electron      99.9999963 magnetization       8.8176573
 augmentation part       62.5232923 magnetization       7.4532373

 Broyden mixing:
  rms(total) = 0.24483E-01    rms(broyden)= 0.24452E-01
  rms(prec ) = 0.26594E-01
  weight for this iteration     100.00

 eigenvalues of (default mixing * dielectric matrix)
  average eigenvalue GAMMA=   0.6153
  2.8733  1.9201  1.2396  0.9282  0.9282  0.6284  0.6284  0.5331  0.5331  0.6008
  0.5221  0.1565  0.1565  0.1143  0.1143  0.1044  0.0918  0.0918  0.0661  0.0744

 Free energy of the ion-electron system (eV)
  ---------------------------------------------------
  alpha Z        PSCENC =         4.60747398
  Ewald energy   TEWEN  =     12805.73928941
  -Hartree energ DENC   =    -22698.61287254
  -exchange      EXHF   =         0.00000000
  -V(xc)+E(xc)   XCENC  =       300.72027653
  PAW double counting   =     10547.89489022   -11225.25950152
  entropy T*S    EENTRO =        -0.04967361
  eigenvalues    EBANDS =      -547.30567035
  atomic energy  EATOM  =     10776.63837129
  Solvation  Ediel_sol  =         0.00000000
  ---------------------------------------------------
  free energy    TOTEN  =       -35.62741658 eV

  energy without entropy =      -35.57774297  energy(sigma->0) =      -35.61085871


--------------------------------------------------------------------------------------------------------




--------------------------------------- Iteration      1(  26)  ---------------------------------------


    POTLOK:  cpu time    2.3147: real time    2.3219
    SETDIJ:  cpu time    0.0222: real time    0.0222
     EDDAV:  cpu time    5.4833: real time    5.4919
       DOS:  cpu time    0.0036: real time    0.0036
    CHARGE:  cpu time    0.5981: real time    0.5988
    MIXING:  cpu time    0.1753: real time    0.1754
    --------------------------------------------
      LOOP:  cpu time    8.5971: real time    8.6139

 eigenvalue-minimisations  :   290
 total energy-change (2. order) :-0.8836276E-01  (-0.5892736E-03)
 number of electron      99.9999963 magnetization       8.7228828
 augmentation part       62.5313710 magnetization       7.3903350

 Broyden mixing:
  rms(total) = 0.22392E-01    rms(broyden)= 0.22371E-01
  rms(prec ) = 0.24302E-01
  weight for this iteration     100.00

 eigenvalues of (default mixing * dielectric matrix)
  average eigenvalue GAMMA=   0.6583
  3.0711  1.9832  1.7143  0.9618  0.9618  0.6798  0.6798  0.6112  0.6112  0.5352
  0.5352  0.5093  0.1565  0.1565  0.1143  0.1143  0.1044  0.0918  0.0918  0.0661
  0.0744

 Free energy of the ion-electron system (eV)
  ---------------------------------------------------
  alpha Z        PSCENC =         4.60747398
  Ewald energy   TEWEN  =     12805.73928941
  -Hartree energ DENC   =    -22699.83744727
  -exchange      EXHF   =         0.00000000
  -V(xc)+E(xc)   XCENC  =       300.64006105
  PAW double counting   =     10543.80519142   -11221.12250506
  entropy T*S    EENTRO =        -0.04895211
  eigenvalues    EBANDS =      -546.13726205
  atomic energy  EATOM  =     10776.63837129
  Solvation  Ediel_sol  =         0.00000000
  ---------------------------------------------------
  free energy    TOTEN  =       -35.71577933 eV

  energy without entropy =      -35.66682723  energy(sigma->0) =      -35.69946196


--------------------------------------------------------------------------------------------------------




--------------------------------------- Iteration      1(  27)  ---------------------------------------


    POTLOK:  cpu time    2.3216: real time    2.3267
    SETDIJ:  cpu time    0.0226: real time    0.0226
     EDDAV:  cpu time    5.3857: real time    5.3943
       DOS:  cpu time    0.0036: real time    0.0037
    CHARGE:  cpu time    0.5954: real time    0.5985
    MIXING:  cpu time    0.1850: real time    0.1852
    --------------------------------------------
      LOOP:  cpu time    8.5139: real time    8.5310

 eigenvalue-minimisations  :   282
 total energy-change (2. order) :-0.8548342E-01  (-0.5348587E-03)
 number of electron      99.9999963 magnetization       8.6461021
 augmentation part       62.5258787 magnetization       7.3397374

 Broyden mixing:
  rms(total) = 0.20046E-01    rms(broyden)= 0.20014E-01
  rms(prec ) = 0.21291E-01
  weight for this iteration     100.00

 eigenvalues of (default mixing * dielectric matrix)
  average eigenvalue GAMMA=   0.7075
  3.6596  2.0217  2.0217  0.9470  0.9470  0.8465  0.7499  0.6024  0.6024  0.5386
  0.5386  0.6085  0.5105  0.1565  0.1565  0.1143  0.1143  0.1044  0.0918  0.0918
  0.0661  0.0744

 Free energy of the ion-electron system (eV)
  ---------------------------------------------------
  alpha Z        PSCENC =         4.60747398
  Ewald energy   TEWEN  =     12805.73928941
  -Hartree energ DENC   =    -22701.70267600
  -exchange      EXHF   =         0.00000000
  -V(xc)+E(xc)   XCENC  =       300.57496875
  PAW double counting   =     10540.40533278   -11217.72861540
  entropy T*S    EENTRO =        -0.04694742
  eigenvalues    EBANDS =      -544.28846016
  atomic energy  EATOM  =     10776.63837129
  Solvation  Ediel_sol  =         0.00000000
  ---------------------------------------------------
  free energy    TOTEN  =       -35.80126276 eV

  energy without entropy =      -35.75431533  energy(sigma->0) =      -35.78561362


--------------------------------------------------------------------------------------------------------




--------------------------------------- Iteration      1(  28)  ---------------------------------------


    POTLOK:  cpu time    2.3093: real time    2.3134
    SETDIJ:  cpu time    0.0224: real time    0.0225
     EDDAV:  cpu time    5.2691: real time    5.2755
       DOS:  cpu time    0.0040: real time    0.0040
    CHARGE:  cpu time    0.6053: real time    0.6060
    MIXING:  cpu time    0.2025: real time    0.2028
    --------------------------------------------
      LOOP:  cpu time    8.4126: real time    8.4240

 eigenvalue-minimisations  :   274
 total energy-change (2. order) :-0.5619270E-01  (-0.2871237E-03)
 number of electron      99.9999963 magnetization       8.5765677
 augmentation part       62.5297254 magnetization       7.2967771

 Broyden mixing:
  rms(total) = 0.10994E-01    rms(broyden)= 0.10971E-01
  rms(prec ) = 0.11676E-01
  weight for this iteration     100.00

 eigenvalues of (default mixing * dielectric matrix)
  average eigenvalue GAMMA=   0.7535
  4.3132  2.1417  2.1417  1.0409  0.9490  0.9490  0.7442  0.7442  0.5934  0.5934
  0.5395  0.5395  0.5495  0.5218  0.1565  0.1565  0.1143  0.1143  0.1044  0.0918
  0.0918  0.0661  0.0744

 Free energy of the ion-electron system (eV)
  ---------------------------------------------------
  alpha Z        PSCENC =         4.60747398
  Ewald energy   TEWEN  =     12805.73928941
  -Hartree energ DENC   =    -22702.81686806
  -exchange      EXHF   =         0.00000000
  -V(xc)+E(xc)   XCENC  =       300.52832343
  PAW double counting   =     10538.33250592   -11215.65923069
  entropy T*S    EENTRO =        -0.04616062
  eigenvalues    EBANDS =      -543.18116012
  atomic energy  EATOM  =     10776.63837129
  Solvation  Ediel_sol  =         0.00000000
  ---------------------------------------------------
  free energy    TOTEN  =       -35.85745545 eV

  energy without entropy =      -35.81129483  energy(sigma->0) =      -35.84206858


--------------------------------------------------------------------------------------------------------




--------------------------------------- Iteration      1(  29)  ---------------------------------------


    POTLOK:  cpu time    2.3276: real time    2.3383
    SETDIJ:  cpu time    0.0231: real time    0.0231
     EDDAV:  cpu time    4.8639: real time    4.8697
       DOS:  cpu time    0.0035: real time    0.0035
    CHARGE:  cpu time    0.6203: real time    0.6210
    MIXING:  cpu time    0.2097: real time    0.2100
    --------------------------------------------
      LOOP:  cpu time    8.0481: real time    8.0656

 eigenvalue-minimisations  :   244
 total energy-change (2. order) :-0.4513743E-01  (-0.1525025E-03)
 number of electron      99.9999963 magnetization       8.5067751
 augmentation part       62.5283361 magnetization       7.2445999

 Broyden mixing:
  rms(total) = 0.99145E-02    rms(broyden)= 0.98993E-02
  rms(prec ) = 0.10477E-01
  weight for this iteration     100.00

 eigenvalues of (default mixing * dielectric matrix)
  average eigenvalue GAMMA=   0.8152
  4.9378  2.3939  2.3939  1.1146  0.9622  0.9622  0.9183  0.9183  0.5969  0.5969
  0.5396  0.5396  0.6043  0.6043  0.5111  0.1565  0.1565  0.1143  0.1143  0.1044
  0.0918  0.0918  0.0661  0.0744

 Free energy of the ion-electron system (eV)
  ---------------------------------------------------
  alpha Z        PSCENC =         4.60747398
  Ewald energy   TEWEN  =     12805.73928941
  -Hartree energ DENC   =    -22703.68963301
  -exchange      EXHF   =         0.00000000
  -V(xc)+E(xc)   XCENC  =       300.48986716
  PAW double counting   =     10537.54409670   -11214.90198630
  entropy T*S    EENTRO =        -0.04517669
  eigenvalues    EBANDS =      -542.28489544
  atomic energy  EATOM  =     10776.63837129
  Solvation  Ediel_sol  =         0.00000000
  ---------------------------------------------------
  free energy    TOTEN  =       -35.90259288 eV

  energy without entropy =      -35.85741619  energy(sigma->0) =      -35.88753398


--------------------------------------------------------------------------------------------------------




--------------------------------------- Iteration      1(  30)  ---------------------------------------


    POTLOK:  cpu time    2.3156: real time    2.3189
    SETDIJ:  cpu time    0.0229: real time    0.0229
     EDDAV:  cpu time    5.2212: real time    5.2298
       DOS:  cpu time    0.0037: real time    0.0037
    CHARGE:  cpu time    0.5948: real time    0.5979
    MIXING:  cpu time    0.2206: real time    0.2208
    --------------------------------------------
      LOOP:  cpu time    8.3787: real time    8.3941

 eigenvalue-minimisations  :   270
 total energy-change (2. order) :-0.4319932E-01  (-0.1408505E-03)
 number of electron      99.9999963 magnetization       8.4569078
 augmentation part       62.5300546 magnetization       7.2134275

 Broyden mixing:
  rms(total) = 0.49139E-02    rms(broyden)= 0.48980E-02
  rms(prec ) = 0.51471E-02
  weight for this iteration     100.00

 eigenvalues of (default mixing * dielectric matrix)
  average eigenvalue GAMMA=   0.8602
  5.7573  2.5208  2.5208  1.2218  0.9513  0.9513  0.9589  0.9589  0.5986  0.5986
  0.5396  0.5396  0.6690  0.6690  0.5610  0.5171  0.1565  0.1565  0.1143  0.1143
  0.1044  0.0918  0.0918  0.0661  0.0744

 Free energy of the ion-electron system (eV)
  ---------------------------------------------------
  alpha Z        PSCENC =         4.60747398
  Ewald energy   TEWEN  =     12805.73928941
  -Hartree energ DENC   =    -22704.16739224
  -exchange      EXHF   =         0.00000000
  -V(xc)+E(xc)   XCENC  =       300.44840655
  PAW double counting   =     10536.87033269   -11214.24764899
  entropy T*S    EENTRO =        -0.04473303
  eigenvalues    EBANDS =      -541.78989187
  atomic energy  EATOM  =     10776.63837129
  Solvation  Ediel_sol  =         0.00000000
  ---------------------------------------------------
  free energy    TOTEN  =       -35.94579220 eV

  energy without entropy =      -35.90105916  energy(sigma->0) =      -35.93088119


--------------------------------------------------------------------------------------------------------




--------------------------------------- Iteration      1(  31)  ---------------------------------------


    POTLOK:  cpu time    2.3210: real time    2.3296
    SETDIJ:  cpu time    0.0227: real time    0.0228
     EDDAV:  cpu time    4.9189: real time    4.9247
       DOS:  cpu time    0.0015: real time    0.0015
    CHARGE:  cpu time    0.6057: real time    0.6063
    MIXING:  cpu time    0.2406: real time    0.2409
    --------------------------------------------
      LOOP:  cpu time    8.1105: real time    8.1258

 eigenvalue-minimisations  :   248
 total energy-change (2. order) :-0.2536999E-01  (-0.6441736E-04)
 number of electron      99.9999963 magnetization       8.4142169
 augmentation part       62.5301479 magnetization       7.1833401

 Broyden mixing:
  rms(total) = 0.63737E-02    rms(broyden)= 0.63667E-02
  rms(prec ) = 0.67205E-02
  weight for this iteration     100.00

 eigenvalues of (default mixing * dielectric matrix)
  average eigenvalue GAMMA=   0.9187
  6.6666  2.6609  2.6609  1.5072  0.9603  0.9603  0.9740  0.9740  0.7955  0.7955
[...]
 total energy-change (2. order) : 0.4229666E-04  (-0.1906200E-04)
 number of electron      99.9999927 magnetization       7.9924834
 augmentation part       62.3814591 magnetization       6.9456347

 Free energy of the ion-electron system (eV)
  ---------------------------------------------------
  alpha Z        PSCENC =         4.60747398
  Ewald energy   TEWEN  =     13504.20727409
  -Hartree energ DENC   =    -23386.70980635
  -exchange      EXHF   =         0.00000000
  -V(xc)+E(xc)   XCENC  =       301.65952427
  PAW double counting   =     10834.51314207   -11515.21610606
  entropy T*S    EENTRO =         0.00538473
  eigenvalues    EBANDS =      -556.16585255
  atomic energy  EATOM  =     10776.63837129
  Solvation  Ediel_sol  =         0.00000000
  ---------------------------------------------------
  free energy    TOTEN  =       -36.46059453 eV

  energy without entropy =      -36.46597927  energy(sigma->0) =      -36.46238944


--------------------------------------------------------------------------------------------------------




 average (electrostatic) potential at core
  the test charge radii are     0.9791
  (the norm of the test charge is              1.0000)
       1 -95.0421       2 -95.0515       3 -95.0425       4 -95.0503       5 -94.7914
       6 -94.8688       7 -94.7925       8 -94.8695       9 -94.5318      10 -94.5288
 
 
 
 E-fermi :  -3.8155     XC(G=0):  -0.3117     alpha+bet : -0.1618


 spin component 1

 k-point     1 :       0.0000    0.0000    0.0000
  band No.  band energies     occupation 
      1      -9.8422      1.00000
      2      -8.1859      1.00000
      3      -8.0534      1.00000
      4      -7.5550      1.00000
      5      -7.5257      1.00000
      6      -7.2152      1.00000
      7      -7.1583      1.00000
      8      -7.1288      1.00000
      9      -7.1227      1.00000
     10      -6.9624      1.00000
     11      -6.9124      1.00000
     12      -6.8781      1.00000
     13      -6.8664      1.00000
     14      -6.5755      1.00000
     15      -6.5271      1.00000
     16      -6.3101      1.00000
     17      -6.2217      1.00000
     18      -6.1663      1.00000
     19      -6.0389      1.00000
     20      -6.0132      1.00000
     21      -5.9752      1.00000
     22      -5.9449      1.00000
     23      -5.7156      1.00000
     24      -5.6647      1.00000
     25      -5.4966      1.00000
     26      -5.4924      1.00000
     27      -5.4438      1.00000
     28      -5.4093      1.00000
     29      -5.3219      1.00000
     30      -5.3127      1.00000
     31      -5.1912      1.00000
     32      -5.1187      1.00000
     33      -5.0693      1.00000
     34      -5.0068      1.00000
     35      -5.0030      1.00000
     36      -4.9559      1.00000
     37      -4.9526      1.00000
     38      -4.9206      1.00000
     39      -4.8854      1.00000
     40      -4.8325      1.00000
     41      -4.8079      1.00000
     42      -4.7723      1.00000
     43      -4.7505      1.00000
     44      -4.7204      1.00000
     45      -4.6679      1.00000
     46      -4.6556      1.00000
     47      -4.6045      1.00000
     48      -4.5963      1.00000
     49      -4.5771      1.00000
     50      -4.5329      1.00000
     51      -4.5249      1.00000
     52      -4.5066      1.00001
     53      -4.4383      1.00005
     54      -4.3073      1.00139
     55      -3.6378     -0.00942
     56      -2.9388     -0.00000
     57      -2.8697     -0.00000
     58      -2.4750     -0.00000
     59      -2.2676     -0.00000
     60      -1.6826     -0.00000
     61      -1.5966     -0.00000
     62      -0.8592     -0.00000
     63      -0.6278     -0.00000
     64      -0.3989     -0.00000
     65      -0.3205     -0.00000
     66      -0.2582     -0.00000

 spin component 2

 k-point     1 :       0.0000    0.0000    0.0000
  band No.  band energies     occupation 
      1      -9.8272      1.00000
      2      -7.9771      1.00000
      3      -7.7995      1.00000
      4      -7.1316      1.00000
      5      -7.0539      1.00000
      6      -6.5527      1.00000
      7      -6.5513      1.00000
      8      -6.5132      1.00000
      9      -6.3882      1.00000
     10      -6.2550      1.00000
     11      -6.1562      1.00000
     12      -6.0907      1.00000
     13      -6.0668      1.00000
     14      -5.9337      1.00000
     15      -5.7752      1.00000
     16      -5.7440      1.00000
     17      -5.4842      1.00000
     18      -5.4191      1.00000
     19      -5.2489      1.00000
     20      -5.2032      1.00000
     21      -5.1669      1.00000
     22      -5.1438      1.00000
     23      -5.0399      1.00000
     24      -5.0200      1.00000
     25      -4.8635      1.00000
     26      -4.7933      1.00000
     27      -4.7674      1.00000
     28      -4.7454      1.00000
     29      -4.6509      1.00000
     30      -4.6052      1.00000
     31      -4.5284      1.00000
     32      -4.4680      1.00002
     33      -4.4321      1.00006
     34      -4.3396      1.00066
     35      -4.3133      1.00122
     36      -4.2743      1.00276
     37      -4.2219      1.00720
     38      -4.2182      1.00765
     39      -4.1367      1.02279
     40      -4.1068      1.02954
     41      -4.0845      1.03358
     42      -3.9968      1.01252
     43      -3.9858      1.00206
     44      -3.9342      0.91713
     45      -3.8823      0.76601
     46      -3.8347      0.58062
     47      -3.7871      0.38098
     48      -3.7714      0.31828
     49      -3.6742      0.03785
     50      -3.6332     -0.01338
     51      -3.5750     -0.03538
     52      -3.5573     -0.03484
     53      -3.4579     -0.01489
     54      -3.4534     -0.01403
     55      -3.2757     -0.00045
     56      -2.6702     -0.00000
     57      -2.6372     -0.00000
     58      -2.1311     -0.00000
     59      -2.0245     -0.00000
     60      -1.4426     -0.00000
     61      -1.4242     -0.00000
     62      -0.7447     -0.00000
     63      -0.5318     -0.00000
     64      -0.2964     -0.00000
     65      -0.1803     -0.00000
     66      -0.1550     -0.00000


--------------------------------------------------------------------------------------------------------


 soft charge-density along one line, spin component            1
         0         1         2         3         4         5         6         7         8         9
 total charge-density along one line
 
 soft charge-density along one line, spin component            2
         0         1         2         3         4         5         6         7         8         9
 total charge-density along one line
 
 pseudopotential strength for first ion, spin component:            1
 -9.892   0.067  -0.059  -0.076   0.000 -10.179   0.064  -0.056
  0.067 -10.053   0.083   0.080   0.122   0.064 -10.334   0.080
 -0.059   0.083  -9.971   0.054   0.096  -0.056   0.080 -10.255
 -0.076   0.080   0.054  -9.874  -0.004  -0.073   0.076   0.051
  0.000   0.122   0.096  -0.004  -9.929   0.000   0.116   0.092
-10.179   0.064  -0.056  -0.073   0.000 -10.411   0.061  -0.053
  0.064 -10.334   0.080   0.076   0.116   0.061 -10.559   0.076
 -0.056   0.080 -10.255   0.051   0.092  -0.053   0.076 -10.484
 -0.073   0.076   0.051 -10.162  -0.004  -0.069   0.073   0.049
  0.000   0.116   0.092  -0.004 -10.214   0.000   0.111   0.088
 -0.018   0.023   0.006  -0.011   0.003  -0.018   0.022   0.006
 -0.032   0.040   0.010  -0.019   0.005  -0.031   0.038   0.010
 -0.000   0.005   0.009   0.001   0.013  -0.000   0.004   0.009
  0.001  -0.006   0.004  -0.002   0.001   0.001  -0.005   0.003
 -0.009   0.001   0.001   0.007  -0.004  -0.008   0.001   0.001
  0.000   0.002   0.010   0.001   0.014   0.000   0.002   0.009
  0.001  -0.004   0.002  -0.002   0.002   0.001  -0.003   0.001
 -0.008   0.001   0.001   0.005  -0.004  -0.007   0.001   0.001
 pseudopotential strength for first ion, spin component:            2
 -9.257   0.019  -0.042  -0.045  -0.001  -9.574   0.018  -0.040
  0.019  -9.193  -0.086   0.032   0.025   0.018  -9.512  -0.082
 -0.042  -0.086  -9.265   0.002  -0.026  -0.040  -0.082  -9.582
 -0.045   0.032   0.002  -9.315   0.046  -0.042   0.031   0.002
 -0.001   0.025  -0.026   0.046  -9.233  -0.001   0.023  -0.025
 -9.574   0.018  -0.040  -0.042  -0.001  -9.835   0.017  -0.038
  0.018  -9.512  -0.082   0.031   0.023   0.017  -9.775  -0.079
 -0.040  -0.082  -9.582   0.002  -0.025  -0.038  -0.079  -9.842
 -0.042   0.031   0.002  -9.630   0.044  -0.040   0.029   0.002
 -0.001   0.023  -0.025   0.044  -9.551  -0.001   0.022  -0.024
 -0.009   0.013   0.001  -0.007   0.005  -0.009   0.012   0.001
 -0.015   0.022   0.002  -0.011   0.009  -0.015   0.021   0.002
 -0.002   0.010   0.007  -0.000   0.014  -0.002   0.010   0.006
 -0.000  -0.016   0.012  -0.003  -0.000  -0.000  -0.015   0.010
 -0.014  -0.000   0.001   0.010  -0.004  -0.013  -0.000   0.001
 -0.002   0.011   0.007  -0.000   0.015  -0.002   0.010   0.006
 -0.000  -0.018   0.013  -0.003  -0.000  -0.000  -0.017   0.011
 -0.015  -0.000   0.001   0.010  -0.004  -0.014  -0.000   0.001
 total augmentation occupancy for first ion, spin component:            1
  2.915   0.123   0.017  -0.372  -0.026  -1.179   0.024  -0.044   0.228   0.026   0.315  -0.015   0.028  -0.006  -0.241  -0.008
  0.123   2.598   0.287   0.097   0.426   0.014  -1.102  -0.090   0.054  -0.158  -0.254  -0.044   0.097  -0.112  -0.027   0.005
  0.017   0.287   2.889   0.101   0.467  -0.039  -0.083  -1.200   0.001  -0.248  -0.094   0.018   0.174   0.237  -0.012  -0.009
 -0.372   0.097   0.101   3.138  -0.291   0.220   0.059  -0.006  -1.263   0.223   0.338  -0.036  -0.024  -0.052   0.268   0.001
 -0.026   0.426   0.467  -0.291   2.635   0.025  -0.163  -0.263   0.224  -0.964  -0.046  -0.021   0.180   0.054  -0.060  -0.007
 -1.179   0.014  -0.039   0.220   0.025   1.244  -0.113   0.048  -0.123  -0.031  -0.296   0.026   0.010   0.022   0.289   0.001
  0.024  -1.102  -0.083   0.059  -0.163  -0.113   1.271  -0.013  -0.167  -0.016   0.313   0.012  -0.141   0.173   0.035   0.012
 -0.044  -0.090  -1.200  -0.006  -0.263   0.048  -0.013   1.275  -0.059   0.141   0.061  -0.011  -0.170  -0.295   0.001   0.017
  0.228   0.054   0.001  -1.263   0.224  -0.123  -0.167  -0.059   1.243  -0.189  -0.315   0.041   0.033   0.054  -0.288  -0.002
  0.026  -0.158  -0.248   0.223  -0.964  -0.031  -0.016   0.141  -0.189   1.048   0.024   0.016  -0.174  -0.055   0.047   0.020
  0.315  -0.254  -0.094   0.338  -0.046  -0.296   0.313   0.061  -0.315   0.024   2.074  -0.237   0.227  -0.232   0.047  -0.040
 -0.015  -0.044   0.018  -0.036  -0.021   0.026   0.012  -0.011   0.041   0.016  -0.237   0.035  -0.040   0.041  -0.007   0.006
  0.028   0.097   0.174  -0.024   0.180   0.010  -0.141  -0.170   0.033  -0.174   0.227  -0.040   0.210   0.047  -0.034  -0.022
 -0.006  -0.112   0.237  -0.052   0.054   0.022   0.173  -0.295   0.054  -0.055  -0.232   0.041   0.047   0.215  -0.026  -0.001
 -0.241  -0.027  -0.012   0.268  -0.060   0.289   0.035   0.001  -0.288   0.047   0.047  -0.007  -0.034  -0.026   0.221   0.002
 -0.008   0.005  -0.009   0.001  -0.007   0.001   0.012   0.017  -0.002   0.020  -0.040   0.006  -0.022  -0.001   0.002   0.003
  0.003  -0.004  -0.008   0.006  -0.005  -0.003  -0.014   0.027  -0.010   0.006   0.039  -0.006  -0.001  -0.021   0.003  -0.000
  0.008   0.002   0.006  -0.010   0.003  -0.026  -0.003  -0.002   0.027  -0.006  -0.009   0.001   0.002   0.003  -0.020  -0.000
 total augmentation occupancy for first ion, spin component:            2
  0.751  -0.162   0.046   0.148  -0.008  -0.349   0.072  -0.014  -0.085   0.005   0.002   0.002  -0.007  -0.006  -0.011  -0.001
 -0.162   1.411  -0.462  -0.197  -0.367   0.091  -0.672   0.221   0.110   0.190  -0.095  -0.037   0.033  -0.079  -0.020   0.005
  0.046  -0.462   0.958  -0.173  -0.348  -0.021   0.214  -0.452   0.084   0.155   0.034   0.016  -0.028   0.037  -0.003  -0.000
  0.148  -0.197  -0.173   0.509   0.158  -0.077   0.103   0.094  -0.230  -0.081   0.011   0.006  -0.016  -0.004  -0.011  -0.001
 -0.008  -0.367  -0.348   0.158   0.915   0.005   0.190   0.173  -0.081  -0.426   0.035   0.003  -0.019   0.004   0.004   0.003
 -0.349   0.091  -0.021  -0.077   0.005   0.075  -0.034   0.002   0.033  -0.003  -0.002  -0.005   0.000   0.001  -0.004   0.001
  0.072  -0.672   0.214   0.103   0.190  -0.034   0.223  -0.094  -0.050  -0.079   0.040   0.020  -0.008   0.032   0.011  -0.003
 -0.014   0.221  -0.452   0.094   0.173   0.002  -0.094   0.129  -0.043  -0.067  -0.013  -0.006   0.015  -0.008   0.003  -0.001
 -0.085   0.110   0.084  -0.230  -0.081   0.033  -0.050  -0.043   0.029   0.039  -0.007  -0.006   0.009   0.002   0.014   0.000
  0.005   0.190   0.155  -0.081  -0.426  -0.003  -0.079  -0.067   0.039   0.107  -0.021  -0.001   0.010  -0.004  -0.001  -0.003
  0.002  -0.095   0.034   0.011   0.035  -0.002   0.040  -0.013  -0.007  -0.021  -0.125   0.044  -0.015   0.034   0.006   0.002
  0.002  -0.037   0.016   0.006   0.003  -0.005   0.020  -0.006  -0.006  -0.001   0.044  -0.007   0.003  -0.002   0.001  -0.001
 -0.007   0.033  -0.028  -0.016  -0.019   0.000  -0.008   0.015   0.009   0.010  -0.015   0.003  -0.017  -0.009  -0.000   0.002
 -0.006  -0.079   0.037  -0.004   0.004   0.001   0.032  -0.008   0.002  -0.004   0.034  -0.002  -0.009  -0.003   0.003   0.000
 -0.011  -0.020  -0.003  -0.011   0.004  -0.004   0.011   0.003   0.014  -0.001   0.006   0.001  -0.000   0.003  -0.014  -0.000
 -0.001   0.005  -0.000  -0.001   0.003   0.001  -0.003  -0.001   0.000  -0.003   0.002  -0.001   0.002   0.000  -0.000  -0.000
 -0.000  -0.007   0.007  -0.001  -0.001  -0.000   0.003  -0.004   0.000  -0.000  -0.003   0.001   0.001   0.002  -0.000  -0.000
 -0.004   0.000   0.001   0.004  -0.001   0.003  -0.000  -0.000  -0.003   0.001  -0.000  -0.000  -0.000  -0.000   0.002   0.000


------------------------ aborting loop because EDIFF is reached ----------------------------------------


    CHARGE:  cpu time    0.5968: real time    0.5974
    FORLOC:  cpu time    0.0667: real time    0.0668
    FORNL :  cpu time    2.5237: real time    2.5256
    FORCOR:  cpu time    2.2571: real time    2.2591
    FORHAR:  cpu time    0.2906: real time    0.2909
    MIXING:  cpu time    0.0495: real time    0.0496
    OFIELD:  cpu time    0.0000: real time    0.0000

 VOLUME and BASIS-vectors are now :
 -----------------------------------------------------------------------------
  energy-cutoff  :      400.00
  volume of cell :    11068.84
      direct lattice vectors                 reciprocal lattice vectors
    22.217599891  0.000000000  0.000000000     0.045009362  0.000000000  0.000000000
     0.000000000 23.509502955  0.000000000     0.000000000  0.042535991  0.000000000
     0.000000000  0.000000000 21.191494944     0.000000000  0.000000000  0.047188743

  length of vectors
    22.217599891 23.509502955 21.191494944     0.045009362  0.042535991  0.047188743


 FORCES acting on ions
    electron-ion (+dipol)            ewald-force                    non-local-force                 convergence-correction
 -----------------------------------------------------------------------------------------------
   0.176E+03 0.789E+03 -.631E+03   -.175E+03 -.787E+03 0.629E+03   -.888E+00 -.204E+01 0.189E+01   0.768E-01 -.233E-01 0.357E-01
   0.240E+03 0.196E+03 0.982E+03   -.239E+03 -.196E+03 -.979E+03   -.290E+00 0.191E+00 -.249E+01   -.244E-02 -.805E-01 0.732E-03
   0.589E+03 -.789E+03 0.285E+03   -.587E+03 0.787E+03 -.284E+03   -.201E+01 0.204E+01 -.583E+00   0.291E-01 0.325E-01 0.319E-01
   -.582E+03 -.196E+03 -.827E+03   0.580E+03 0.196E+03 0.825E+03   0.168E+01 -.185E+00 0.186E+01   0.292E-01 -.647E-02 0.716E-01
   0.109E+04 0.200E+03 0.192E+03   -.108E+04 -.198E+03 -.190E+03   -.763E+01 -.265E+01 -.174E+01   -.932E-02 -.114E-02 0.256E-01
   -.100E+04 0.436E+03 0.297E+02   0.995E+03 -.435E+03 -.301E+02   0.597E+01 -.104E+01 0.342E+00   0.254E-01 -.145E-01 0.777E-01
   0.575E+03 -.202E+03 -.943E+03   -.571E+03 0.199E+03 0.936E+03   -.373E+01 0.266E+01 0.688E+01   0.395E-01 -.241E-01 0.134E-01
   -.683E+03 -.435E+03 0.732E+03   0.680E+03 0.434E+03 -.727E+03   0.369E+01 0.104E+01 -.473E+01   0.111E-01 -.430E-01 0.566E-01
   -.844E+02 0.101E+04 0.344E+03   0.852E+02 -.101E+04 -.340E+03   -.857E+00 -.929E+01 -.346E+01   0.661E-01 0.131E-01 0.478E-03
   -.316E+03 -.101E+04 -.163E+03   0.314E+03 0.100E+04 0.160E+03   0.205E+01 0.929E+01 0.293E+01   0.476E-01 0.105E-01 0.525E-01
 -----------------------------------------------------------------------------------------------
   0.170E+01 0.125E+00 -.127E+01   0.568E-13 -.227E-12 -.171E-12   -.202E+01 0.982E-02 0.891E+00   0.313E+00 -.137E+00 0.366E+00
 
 
 POSITION                                       TOTAL-FORCE (eV/Angst)
 -----------------------------------------------------------------------------------
     11.06561     10.40868     11.20503         0.017315     -0.013168      0.003680
     11.16129     11.19434      9.05739         0.008879     -0.004201      0.007561
     10.61208     13.20966     10.19815         0.002673      0.008414     -0.028516
     12.28631     12.42086     11.54125         0.011971      0.019122     -0.009779
      9.14705     11.39542     10.27770        -0.014110      0.000872     -0.010544
     13.19161     10.72270     10.14561        -0.002081      0.035247      0.018751
     10.04050     12.22363     12.25067        -0.007416      0.001645      0.025079
     12.80962     12.89166      9.29699        -0.008869     -0.026199     -0.005860
     11.83013      9.02287      9.51799        -0.010537     -0.005160     -0.016334
     12.38440     14.59447     10.73513         0.002174     -0.016572      0.015962
 -----------------------------------------------------------------------------------
    total drift:                                0.000399     -0.001659     -0.009618


--------------------------------------------------------------------------------------------------------



  FREE ENERGIE OF THE ION-ELECTRON SYSTEM (eV)
  ---------------------------------------------------
  free  energy   TOTEN  =       -36.46059453 eV

  energy  without entropy=      -36.46597927  energy(sigma->0) =      -36.46238944
 
 d Force = 0.6974862E-04[ 0.429E-04, 0.966E-04]  d Energy = 0.1601760E-03-0.904E-04
 d Force =-0.2558087E+01[-0.256E+01,-0.256E+01]  d Ewald  =-0.2558088E+01 0.434E-06


--------------------------------------------------------------------------------------------------------


    POTLOK:  cpu time    2.3493: real time    2.3571


--------------------------------------------------------------------------------------------------------




--------------------------------------------------------------------------------------------------------


  
 reached required accuracy - stopping structural energy minimisation
     LOOP+:  cpu time   56.7705: real time   56.8902
    4ORBIT:  cpu time    0.0000: real time    0.0000

 total amount of memory used by VASP MPI-rank0   142755. kBytes
=======================================================================

   base      :      30000. kBytes
   nonl-proj :       3817. kBytes
   fftplans  :      28427. kBytes
   grid      :      67200. kBytes
   one-center:         31. kBytes
   wavefun   :      13280. kBytes
 
  
  
 General timing and accounting informations for this job:
 ========================================================
  
                  Total CPU time used (sec):     1919.215
                            User time (sec):     1900.380
                          System time (sec):       18.836
                         Elapsed time (sec):     1927.329
  
                   Maximum memory used (kb):      301432.
                   Average memory used (kb):           0.
  
                          Minor page faults:      4879386
                          Major page faults:        74190
                 Voluntary context switches:         4621
