unknown system                          
            1
    22.217600    0.000000    0.000000
     0.000000   23.509503    0.000000
     0.000000    0.000000   21.191495
   Ni
    10
Direct configuration=     1
   0.49965863  0.44099627  0.53326059
   0.50371972  0.47698573  0.42402812
   0.47521523  0.56351472  0.47682803
   0.55613086  0.52757928  0.54604367
   0.41118034  0.47982768  0.48494942
   0.59663461  0.45379210  0.47783806
   0.45177283  0.52489708  0.57859639
   0.57923689  0.55074359  0.43709532
   0.52688155  0.38029898  0.44768232
   0.55442862  0.62419653  0.51196791
Direct configuration=     2
   0.49970881  0.44223511  0.53122918
   0.50433027  0.47644936  0.42638104
   0.47675134  0.56227925  0.47812201
   0.55488370  0.52812769  0.54394825
   0.41300782  0.48056393  0.48555443
   0.59445692  0.45413393  0.47758487
   0.45251784  0.52414411  0.57676861
   0.57793841  0.55040734  0.43902225
   0.52717652  0.38223172  0.44845947
   0.55408767  0.62225952  0.51121973
Direct configuration=     3
   0.49973207  0.44280957  0.53028720
   0.50461339  0.47620064  0.42747211
   0.47746364  0.56170636  0.47872204
   0.55430539  0.52838199  0.54297659
   0.41385523  0.48090534  0.48583498
   0.59344712  0.45429244  0.47746746
   0.45286331  0.52379495  0.57592106
   0.57733630  0.55025142  0.43991578
   0.52731330  0.38312795  0.44881984
   0.55392956  0.62136131  0.51087280
Direct configuration=     4
   0.49970927  0.44301514  0.53022098
   0.50437330  0.47640269  0.42754145
   0.47751858  0.56149875  0.47878411
   0.55414518  0.52816801  0.54307739
   0.41374501  0.48129341  0.48578860
   0.59361747  0.45434627  0.47753770
   0.45281419  0.52338870  0.57601277
   0.57737729  0.55019404  0.43976323
   0.52755482  0.38321777  0.44897351
   0.55400419  0.62130718  0.51059012
Direct configuration=     5
   0.49966004  0.44345893  0.53007805
   0.50385502  0.47683887  0.42769114
   0.47763719  0.56105056  0.47891812
   0.55379934  0.52770608  0.54329499
   0.41350706  0.48213116  0.48568847
   0.59398523  0.45446246  0.47768933
   0.45270815  0.52251172  0.57621075
   0.57746578  0.55007018  0.43943390
   0.52807620  0.38341167  0.44930523
   0.55416529  0.62119033  0.50997988
Direct configuration=     6
   0.49959926  0.44341269  0.52999885
   0.50378729  0.47682172  0.42764667
   0.47767021  0.56110859  0.47903358
   0.55381955  0.52771006  0.54336002
   0.41318404  0.48243741  0.48558805
   0.59409695  0.45455865  0.47770370
   0.45256331  0.52219250  0.57650373
   0.57751845  0.54997423  0.43933643
   0.52835007  0.38355596  0.44943515
   0.55427018  0.62106014  0.50968367
Direct configuration=     7
   0.49941690  0.44327395  0.52976125
   0.50358408  0.47677028  0.42751325
   0.47776928  0.56128269  0.47937997
   0.55388017  0.52772198  0.54355511
   0.41221497  0.48335615  0.48528678
   0.59443213  0.45484723  0.47774683
   0.45212880  0.52123483  0.57738268
   0.57767644  0.54968640  0.43904404
   0.52917169  0.38398885  0.44982491
   0.55458485  0.62066959  0.50879504
Direct configuration=     8
   0.49914331  0.44328011  0.52964422
   0.50359972  0.47662987  0.42754743
   0.47765503  0.56129107  0.47969064
   0.55387457  0.52786861  0.54354705
   0.41213722  0.48354550  0.48527780
   0.59439602  0.45505441  0.47775180
   0.45207497  0.52105050  0.57744102
   0.57765897  0.54947370  0.43902315
   0.52947638  0.38396035  0.44976472
   0.55484312  0.62067784  0.50860204
Direct configuration=     9
   0.49846239  0.44329544  0.52935294
   0.50363865  0.47628041  0.42763250
   0.47737066  0.56131192  0.48046385
   0.55386064  0.52823355  0.54352699
   0.41194370  0.48401675  0.48525545
   0.59430614  0.45557005  0.47776415
   0.45194099  0.52059174  0.57758623
   0.57761550  0.54894431  0.43897115
   0.53023470  0.38388943  0.44961490
   0.55548591  0.62069837  0.50812169
Direct configuration=    10
   0.49827688  0.44318335  0.52916285
   0.50339096  0.47631920  0.42760762
   0.47739801  0.56141992  0.48074816
   0.55369985  0.52824985  0.54372706
   0.41183172  0.48414333  0.48515181
   0.59421718  0.45573206  0.47794026
   0.45190507  0.52048885  0.57778848
   0.57741288  0.54878280  0.43891776
   0.53076862  0.38368979  0.44949737
   0.55595814  0.62082282  0.50774850
Direct configuration=    11
   0.49793506  0.44297682  0.52881257
   0.50293455  0.47639069  0.42756178
   0.47744840  0.56161892  0.48127204
   0.55340357  0.52827988  0.54409572
   0.41162538  0.48437657  0.48496082
   0.59405325  0.45603058  0.47826478
   0.45183888  0.52029926  0.57816115
   0.57703951  0.54848519  0.43881936
   0.53175243  0.38332193  0.44928079
   0.55682827  0.62105213  0.50706084
Direct configuration=    12
   0.49800762  0.44272629  0.52853727
   0.50256557  0.47620939  0.42751808
   0.47766970  0.56190154  0.48141465
   0.55311524  0.52832518  0.54444838
   0.41157111  0.48453955  0.48489597
   0.59375749  0.45597014  0.47853965
   0.45184593  0.52015374  0.57829196
   0.57667977  0.54849898  0.43881685
   0.53236528  0.38361487  0.44925611
   0.55728158  0.62089229  0.50657092
Direct configuration=    13
   0.49800006  0.44275240  0.52856596
   0.50260403  0.47622828  0.42752264
   0.47764663  0.56187209  0.48139979
   0.55314529  0.52832045  0.54441162
   0.41157677  0.48452257  0.48490273
   0.59378831  0.45597644  0.47851101
   0.45184520  0.52016891  0.57827833
   0.57671726  0.54849754  0.43881711
   0.53230141  0.38358434  0.44925869
   0.55723434  0.62090895  0.50662198
Direct configuration=    14
   0.49804272  0.44274572  0.52870689
   0.50242052  0.47617803  0.42743445
   0.47764379  0.56188263  0.48127678
   0.55303390  0.52833053  0.54456793
   0.41167274  0.48466927  0.48497025
   0.59375621  0.45607075  0.47869942
   0.45189929  0.51999822  0.57813791
   0.57659227  0.54839249  0.43873804
   0.53242703  0.38374574  0.44917012
   0.55737081  0.62081859  0.50658807
Direct configuration=    15
   0.49805617  0.44274361  0.52875131
   0.50236269  0.47616219  0.42740666
   0.47764290  0.56188596  0.48123801
   0.55299879  0.52833370  0.54461719
   0.41170299  0.48471551  0.48499154
   0.59374610  0.45610048  0.47875880
   0.45191634  0.51994442  0.57809366
   0.57655287  0.54835938  0.43871311
   0.53246663  0.38379660  0.44914220
   0.55741383  0.62079011  0.50657738
