  10  10   0   0
  0.1039713E+04  0.2190198E-08  0.2171347E-08  0.2186256E-08  0.5000000E-15
   1.0000000000000000E-004
  CAR 
 unknown system                          
      1.93181916    -11.89859067  301     -3.89628813      1.00000000
    -11.899  0.0000E+00  0.0000E+00  0.0000E+00  0.0000E+00
    -11.852  0.0000E+00  0.0000E+00  0.0000E+00  0.0000E+00
    -11.806  0.0000E+00  0.0000E+00  0.0000E+00  0.0000E+00
    -11.760  0.0000E+00  0.0000E+00  0.0000E+00  0.0000E+00
    -11.714  0.0000E+00  0.0000E+00  0.0000E+00  0.0000E+00
    -11.668  0.0000E+00  0.0000E+00  0.0000E+00  0.0000E+00
    -11.622  0.0000E+00  0.0000E+00  0.0000E+00  0.0000E+00
    -11.576  0.0000E+00  0.0000E+00  0.0000E+00  0.0000E+00
    -11.530 -0.3989E-30 -0.6444E-30 -0.1839E-31 -0.2971E-31
    -11.484 -0.1561E-28 -0.2486E-28 -0.7378E-30 -0.1176E-29
    -11.438 -0.5609E-27 -0.8812E-27 -0.2660E-28 -0.4180E-28
    -11.391 -0.1811E-25 -0.2805E-25 -0.8613E-27 -0.1335E-26
    -11.345 -0.5248E-24 -0.8021E-24 -0.2506E-25 -0.3831E-25
    -11.299 -0.1366E-22 -0.2059E-22 -0.6548E-24 -0.9875E-24
    -11.253 -0.3192E-21 -0.4745E-21 -0.1537E-22 -0.2286E-22
    -11.207 -0.6695E-20 -0.9816E-20 -0.3240E-21 -0.4754E-21
    -11.161 -0.1260E-18 -0.1822E-18 -0.6135E-20 -0.8877E-20
    -11.115 -0.2130E-17 -0.3036E-17 -0.1043E-18 -0.1489E-18
    -11.069 -0.3107E-16 -0.4419E-16 -0.1537E-17 -0.2186E-17
    -11.023 -0.4256E-15 -0.5893E-15 -0.2116E-16 -0.2935E-16
    -10.977 -0.5171E-14 -0.7069E-14 -0.2595E-15 -0.3552E-15
    -10.930 -0.5635E-13 -0.7595E-13 -0.2857E-14 -0.3856E-14
    -10.884 -0.5501E-12 -0.7310E-12 -0.2822E-13 -0.3756E-13
    -10.838 -0.4809E-11 -0.6300E-11 -0.2499E-12 -0.3280E-12
    -10.792 -0.3761E-10 -0.4858E-10 -0.1984E-11 -0.2568E-11
    -10.746 -0.2631E-09 -0.3350E-09 -0.1411E-10 -0.1801E-10
    -10.700 -0.1645E-08 -0.2064E-08 -0.8994E-10 -0.1131E-09
    -10.654 -0.9177E-08 -0.1135E-07 -0.5130E-09 -0.6363E-09
    -10.608 -0.4565E-07 -0.5561E-07 -0.2618E-08 -0.3200E-08
    -10.562 -0.2021E-06 -0.2425E-06 -0.1194E-07 -0.1438E-07
    -10.516 -0.7948E-06 -0.9391E-06 -0.4858E-07 -0.5768E-07
    -10.469 -0.2768E-05 -0.3219E-05 -0.1762E-06 -0.2061E-06
    -10.423 -0.8500E-05 -0.9724E-05 -0.5680E-06 -0.6544E-06
    -10.377 -0.2289E-04 -0.2573E-04 -0.1623E-05 -0.1841E-05
    -10.331 -0.5354E-04 -0.5905E-04 -0.4091E-05 -0.4563E-05
    -10.285 -0.1070E-03 -0.1155E-03 -0.9026E-05 -0.9889E-05
    -10.239 -0.1774E-03 -0.1862E-03 -0.1720E-04 -0.1847E-04
    -10.193 -0.2258E-03 -0.2265E-03 -0.2761E-04 -0.2891E-04
    -10.147 -0.1636E-03 -0.1411E-03 -0.3516E-04 -0.3542E-04
    -10.101  0.1383E-03  0.2009E-03 -0.2878E-04 -0.2616E-04
    -10.055  0.7894E-03  0.8997E-03  0.7612E-05  0.1532E-04
    -10.008  0.1781E-02  0.1925E-02  0.8973E-04  0.1041E-03
     -9.962  0.2916E-02  0.3054E-02  0.2241E-03  0.2449E-03
     -9.916  0.3838E-02  0.3922E-02  0.4011E-03  0.4257E-03
     -9.870  0.4200E-02  0.4195E-02  0.5947E-03  0.6191E-03
     -9.824  0.3853E-02  0.3762E-02  0.7724E-03  0.7925E-03
     -9.778  0.2939E-02  0.2798E-02  0.9079E-03  0.9215E-03
     -9.732  0.1806E-02  0.1664E-02  0.9911E-03  0.9982E-03
     -9.686  0.8078E-03  0.7023E-03  0.1028E-02  0.1031E-02
     -9.640  0.1486E-03  0.9092E-04  0.1035E-02  0.1035E-02
     -9.594 -0.1601E-03 -0.1792E-03  0.1028E-02  0.1027E-02
     -9.547 -0.2261E-03 -0.2239E-03  0.1017E-02  0.1016E-02
     -9.501 -0.1789E-03 -0.1699E-03  0.1009E-02  0.1008E-02
     -9.455 -0.1085E-03 -0.1003E-03  0.1004E-02  0.1004E-02
     -9.409 -0.5445E-04 -0.4926E-04  0.1002E-02  0.1001E-02
     -9.363 -0.2335E-04 -0.2073E-04  0.1001E-02  0.1001E-02
     -9.317 -0.8699E-05 -0.7590E-05  0.1000E-02  0.1000E-02
     -9.271 -0.2840E-05 -0.2438E-05  0.1000E-02  0.1000E-02
     -9.225 -0.8178E-06 -0.6910E-06  0.1000E-02  0.1000E-02
     -9.179 -0.2085E-06 -0.1735E-06  0.1000E-02  0.1000E-02
     -9.133 -0.4722E-07 -0.3870E-07  0.1000E-02  0.1000E-02
     -9.086 -0.9517E-08 -0.7685E-08  0.1000E-02  0.1000E-02
     -9.040 -0.1711E-08 -0.1361E-08  0.1000E-02  0.1000E-02
     -8.994 -0.2873E-09 -0.2151E-09  0.1000E-02  0.1000E-02
     -8.948 -0.1359E-09 -0.3038E-10  0.1000E-02  0.1000E-02
     -8.902 -0.6461E-09 -0.3844E-11  0.1000E-02  0.1000E-02
     -8.856 -0.3799E-08 -0.4923E-12  0.1000E-02  0.1000E-02
     -8.810 -0.2009E-07 -0.6123E-12  0.1000E-02  0.1000E-02
     -8.764 -0.9471E-07 -0.4964E-11  0.1000E-02  0.1000E-02
     -8.718 -0.3973E-06 -0.3874E-10  0.1000E-02  0.1000E-02
     -8.671 -0.1481E-05 -0.2706E-09  0.9999E-03  0.1000E-02
     -8.625 -0.4887E-05 -0.1689E-08  0.9997E-03  0.1000E-02
     -8.579 -0.1424E-04 -0.9411E-08  0.9990E-03  0.1000E-02
     -8.533 -0.3643E-04 -0.4676E-07  0.9973E-03  0.1000E-02
     -8.487 -0.8123E-04 -0.2068E-06  0.9936E-03  0.1000E-02
     -8.441 -0.1557E-03 -0.8129E-06  0.9864E-03  0.1000E-02
     -8.395 -0.2506E-03 -0.2832E-05  0.9749E-03  0.9998E-03
     -8.349 -0.3192E-03 -0.8711E-05  0.9602E-03  0.9994E-03
     -8.303 -0.2634E-03 -0.2355E-04  0.9480E-03  0.9983E-03
     -8.257  0.5645E-04 -0.5554E-04  0.9506E-03  0.9958E-03
     -8.210  0.7782E-03 -0.1129E-03  0.9865E-03  0.9906E-03
     -8.164  0.1978E-02 -0.1937E-03  0.1078E-02  0.9816E-03
     -8.118  0.3625E-02 -0.2677E-03  0.1245E-02  0.9693E-03
     -8.072  0.5569E-02 -0.2602E-03  0.1501E-02  0.9573E-03
     -8.026  0.7539E-02 -0.5609E-04  0.1849E-02  0.9547E-03
     -7.980  0.9153E-02  0.4611E-03  0.2271E-02  0.9760E-03
     -7.934  0.9972E-02  0.1349E-02  0.2731E-02  0.1038E-02
     -7.888  0.9649E-02  0.2575E-02  0.3176E-02  0.1157E-02
     -7.842  0.8131E-02  0.4035E-02  0.3550E-02  0.1343E-02
     -7.796  0.5746E-02  0.5615E-02  0.3815E-02  0.1602E-02
     -7.749  0.3101E-02  0.7184E-02  0.3958E-02  0.1933E-02
     -7.703  0.8295E-03  0.8533E-02  0.3997E-02  0.2326E-02
     -7.657 -0.5870E-03  0.9321E-02  0.3969E-02  0.2756E-02
     -7.611 -0.8348E-03  0.9187E-02  0.3931E-02  0.3180E-02
     -7.565  0.2976E-03  0.7977E-02  0.3945E-02  0.3547E-02
     -7.519  0.2874E-02  0.5931E-02  0.4077E-02  0.3821E-02
     -7.473  0.6606E-02  0.3604E-02  0.4382E-02  0.3987E-02
     -7.427  0.1069E-01  0.1592E-02  0.4874E-02  0.4060E-02
     -7.381  0.1396E-01  0.2431E-03  0.5518E-02  0.4072E-02
     -7.335  0.1547E-01 -0.4327E-03  0.6231E-02  0.4052E-02
     -7.288  0.1507E-01 -0.6417E-03  0.6926E-02  0.4022E-02
     -7.242  0.1361E-01 -0.6135E-03  0.7553E-02  0.3994E-02
     -7.196  0.1245E-01 -0.4628E-03  0.8127E-02  0.3972E-02
     -7.150  0.1264E-01 -0.1670E-03  0.8710E-02  0.3965E-02
     -7.104  0.1429E-01  0.3569E-03  0.9369E-02  0.3981E-02
     -7.058  0.1665E-01  0.1136E-02  0.1014E-01  0.4034E-02
     -7.012  0.1867E-01  0.2077E-02  0.1100E-01  0.4129E-02
     -6.966  0.1957E-01  0.3020E-02  0.1190E-01  0.4269E-02
     -6.920  0.1901E-01  0.3911E-02  0.1278E-01  0.4449E-02
     -6.874  0.1700E-01  0.4923E-02  0.1356E-01  0.4676E-02
     -6.827  0.1381E-01  0.6360E-02  0.1420E-01  0.4969E-02
     -6.781  0.9893E-02  0.8318E-02  0.1465E-01  0.5353E-02
     -6.735  0.5895E-02  0.1038E-01  0.1492E-01  0.5831E-02
     -6.689  0.2505E-02  0.1168E-01  0.1504E-01  0.6370E-02
     -6.643  0.2546E-03  0.1147E-01  0.1505E-01  0.6898E-02
     -6.597 -0.6119E-03  0.9687E-02  0.1502E-01  0.7345E-02
     -6.551 -0.1268E-03  0.7245E-02  0.1502E-01  0.7679E-02
     -6.505  0.1453E-02  0.5591E-02  0.1508E-01  0.7937E-02
     -6.459  0.3697E-02  0.5915E-02  0.1526E-01  0.8209E-02
     -6.413  0.6094E-02  0.8489E-02  0.1554E-01  0.8601E-02
     -6.366  0.8245E-02  0.1252E-01  0.1592E-01  0.9178E-02
     -6.320  0.1006E-01  0.1661E-01  0.1638E-01  0.9944E-02
     -6.274  0.1174E-01  0.1941E-01  0.1692E-01  0.1084E-01
     -6.228  0.1357E-01  0.2020E-01  0.1755E-01  0.1177E-01
     -6.182  0.1559E-01  0.1902E-01  0.1827E-01  0.1265E-01
     -6.136  0.1759E-01  0.1640E-01  0.1908E-01  0.1340E-01
     -6.090  0.1922E-01  0.1302E-01  0.1996E-01  0.1400E-01
     -6.044  0.2021E-01  0.9482E-02  0.2089E-01  0.1444E-01
     -5.998  0.2033E-01  0.6188E-02  0.2183E-01  0.1473E-01
     -5.952  0.1937E-01  0.3482E-02  0.2272E-01  0.1489E-01
     -5.905  0.1716E-01  0.1692E-02  0.2352E-01  0.1496E-01
     -5.859  0.1384E-01  0.1099E-02  0.2415E-01  0.1501E-01
     -5.813  0.1008E-01  0.1802E-02  0.2462E-01  0.1510E-01
     -5.767  0.6882E-02  0.3593E-02  0.2494E-01  0.1526E-01
     -5.721  0.5134E-02  0.5977E-02  0.2517E-01  0.1554E-01
     -5.675  0.5154E-02  0.8392E-02  0.2541E-01  0.1593E-01
     -5.629  0.6655E-02  0.1045E-01  0.2572E-01  0.1641E-01
     -5.583  0.9099E-02  0.1200E-01  0.2614E-01  0.1696E-01
     -5.537  0.1208E-01  0.1299E-01  0.2669E-01  0.1756E-01
     -5.491  0.1539E-01  0.1333E-01  0.2740E-01  0.1817E-01
     -5.444  0.1866E-01  0.1292E-01  0.2826E-01  0.1877E-01
     -5.398  0.2119E-01  0.1195E-01  0.2924E-01  0.1932E-01
     -5.352  0.2214E-01  0.1101E-01  0.3026E-01  0.1983E-01
     -5.306  0.2119E-01  0.1083E-01  0.3124E-01  0.2033E-01
     -5.260  0.1899E-01  0.1182E-01  0.3211E-01  0.2087E-01
     -5.214  0.1695E-01  0.1379E-01  0.3290E-01  0.2151E-01
     -5.168  0.1646E-01  0.1602E-01  0.3365E-01  0.2225E-01
     -5.122  0.1810E-01  0.1774E-01  0.3449E-01  0.2306E-01
     -5.076  0.2147E-01  0.1857E-01  0.3548E-01  0.2392E-01
     -5.029  0.2558E-01  0.1859E-01  0.3666E-01  0.2478E-01
     -4.983  0.2944E-01  0.1809E-01  0.3801E-01  0.2561E-01
     -4.937  0.3238E-01  0.1723E-01  0.3951E-01  0.2641E-01
     -4.891  0.3409E-01  0.1591E-01  0.4108E-01  0.2714E-01
     -4.845  0.3466E-01  0.1398E-01  0.4268E-01  0.2778E-01
     -4.799  0.3443E-01  0.1169E-01  0.4426E-01  0.2832E-01
     -4.753  0.3393E-01  0.9764E-02  0.4583E-01  0.2877E-01
     -4.707  0.3351E-01  0.9090E-02  0.4737E-01  0.2919E-01
     -4.661  0.3304E-01  0.1015E-01  0.4890E-01  0.2966E-01
     -4.615  0.3178E-01  0.1265E-01  0.5036E-01  0.3024E-01
     -4.568  0.2880E-01  0.1569E-01  0.5169E-01  0.3097E-01
     -4.522  0.2366E-01  0.1823E-01  0.5278E-01  0.3181E-01
     -4.476  0.1691E-01  0.1959E-01  0.5356E-01  0.3271E-01
     -4.430  0.9941E-02  0.1968E-01  0.5402E-01  0.3362E-01
     -4.384  0.4201E-02  0.1900E-01  0.5421E-01  0.3449E-01
     -4.338  0.5147E-03  0.1838E-01  0.5424E-01  0.3534E-01
     -4.292 -0.1169E-02  0.1861E-01  0.5418E-01  0.3620E-01
     -4.246 -0.1482E-02  0.2003E-01  0.5411E-01  0.3712E-01
     -4.200 -0.1155E-02  0.2231E-01  0.5406E-01  0.3815E-01
     -4.154 -0.7029E-03  0.2462E-01  0.5403E-01  0.3928E-01
     -4.107 -0.3568E-03  0.2614E-01  0.5401E-01  0.4049E-01
     -4.061 -0.1553E-03  0.2659E-01  0.5400E-01  0.4172E-01
     -4.015 -0.5887E-04  0.2631E-01  0.5400E-01  0.4293E-01
     -3.969 -0.1959E-04  0.2592E-01  0.5400E-01  0.4412E-01
     -3.923 -0.5773E-05  0.2577E-01  0.5400E-01  0.4531E-01
     -3.877 -0.1583E-05  0.2572E-01  0.5400E-01  0.4650E-01
     -3.831 -0.7032E-06  0.2536E-01  0.5400E-01  0.4767E-01
     -3.785 -0.1406E-05  0.2443E-01  0.5400E-01  0.4879E-01
     -3.739 -0.4432E-05  0.2294E-01  0.5400E-01  0.4985E-01
     -3.693 -0.1288E-04  0.2112E-01  0.5400E-01  0.5082E-01
     -3.646 -0.3282E-04  0.1909E-01  0.5400E-01  0.5170E-01
     -3.600 -0.7224E-04  0.1672E-01  0.5399E-01  0.5247E-01
     -3.554 -0.1347E-03  0.1383E-01  0.5399E-01  0.5311E-01
     -3.508 -0.2037E-03  0.1039E-01  0.5398E-01  0.5359E-01
     -3.462 -0.2222E-03  0.6773E-02  0.5397E-01  0.5390E-01
     -3.416 -0.8314E-04  0.3526E-02  0.5396E-01  0.5407E-01
     -3.370  0.3404E-03  0.1123E-02  0.5398E-01  0.5412E-01
     -3.324  0.1113E-02 -0.2821E-03  0.5403E-01  0.5410E-01
     -3.278  0.2140E-02 -0.8601E-03  0.5413E-01  0.5406E-01
     -3.232  0.3131E-02 -0.9198E-03  0.5427E-01  0.5402E-01
     -3.185  0.3714E-02 -0.7029E-03  0.5445E-01  0.5399E-01
     -3.139  0.3660E-02 -0.2848E-03  0.5461E-01  0.5398E-01
     -3.093  0.3088E-02  0.3789E-03  0.5476E-01  0.5399E-01
     -3.047  0.2477E-02  0.1310E-02  0.5487E-01  0.5405E-01
     -3.001  0.2430E-02  0.2375E-02  0.5498E-01  0.5416E-01
     -2.955  0.3315E-02  0.3270E-02  0.5514E-01  0.5431E-01
     -2.909  0.5034E-02  0.3670E-02  0.5537E-01  0.5448E-01
     -2.863  0.7103E-02  0.3478E-02  0.5570E-01  0.5464E-01
     -2.817  0.8989E-02  0.2971E-02  0.5611E-01  0.5478E-01
     -2.771  0.1044E-01  0.2721E-02  0.5659E-01  0.5491E-01
     -2.724  0.1151E-01  0.3284E-02  0.5712E-01  0.5506E-01
     -2.678  0.1231E-01  0.4878E-02  0.5769E-01  0.5528E-01
     -2.632  0.1269E-01  0.7272E-02  0.5827E-01  0.5562E-01
     -2.586  0.1226E-01  0.9941E-02  0.5884E-01  0.5608E-01
     -2.540  0.1072E-01  0.1234E-01  0.5933E-01  0.5665E-01
     -2.494  0.8173E-02  0.1404E-01  0.5971E-01  0.5729E-01
     -2.448  0.5202E-02  0.1474E-01  0.5995E-01  0.5797E-01
     -2.402  0.2530E-02  0.1420E-01  0.6007E-01  0.5863E-01
     -2.356  0.6578E-03  0.1236E-01  0.6010E-01  0.5920E-01
     -2.310 -0.3151E-03  0.9468E-02  0.6008E-01  0.5963E-01
     -2.263 -0.6042E-03  0.6150E-02  0.6006E-01  0.5992E-01
     -2.217 -0.5295E-03  0.3136E-02  0.6003E-01  0.6006E-01
     -2.171 -0.3457E-03  0.9625E-03  0.6001E-01  0.6011E-01
     -2.125 -0.1853E-03 -0.2298E-03  0.6001E-01  0.6009E-01
     -2.079 -0.8460E-04 -0.6390E-03  0.6000E-01  0.6007E-01
     -2.033 -0.3350E-04 -0.6026E-03  0.6000E-01  0.6004E-01
     -1.987 -0.1163E-04 -0.4109E-03  0.6000E-01  0.6002E-01
     -1.941 -0.3558E-05 -0.2280E-03  0.6000E-01  0.6001E-01
     -1.895 -0.9643E-06 -0.1073E-03  0.6000E-01  0.6000E-01
     -1.848 -0.2322E-06 -0.4373E-04  0.6000E-01  0.6000E-01
     -1.802 -0.5000E-07 -0.1560E-04  0.6000E-01  0.6000E-01
     -1.756 -0.1112E-07 -0.4901E-05  0.6000E-01  0.6000E-01
     -1.710 -0.1064E-07 -0.1364E-05  0.6000E-01  0.6000E-01
     -1.664 -0.4514E-07 -0.3405E-06  0.6000E-01  0.6000E-01
     -1.618 -0.1991E-06 -0.9444E-07  0.6000E-01  0.6000E-01
     -1.572 -0.7836E-06 -0.1106E-06  0.6000E-01  0.6000E-01
     -1.526 -0.2732E-05 -0.4040E-06  0.6000E-01  0.6000E-01
     -1.480 -0.8404E-05 -0.1488E-05  0.6000E-01  0.6000E-01
     -1.434 -0.2266E-04 -0.4875E-05  0.6000E-01  0.6000E-01
     -1.387 -0.5309E-04 -0.1405E-04  0.6000E-01  0.6000E-01
     -1.341 -0.1064E-03 -0.3536E-04  0.5999E-01  0.6000E-01
     -1.295 -0.1767E-03 -0.7679E-04  0.5998E-01  0.5999E-01
     -1.249 -0.2261E-03 -0.1408E-03  0.5997E-01  0.5999E-01
     -1.203 -0.1670E-03 -0.2082E-03  0.5996E-01  0.5998E-01
     -1.157  0.1276E-03 -0.2169E-03  0.5997E-01  0.5997E-01
     -1.111  0.7629E-03 -0.5496E-04  0.6001E-01  0.5997E-01
     -1.065  0.1722E-02  0.4064E-03  0.6009E-01  0.5998E-01
     -1.019  0.2794E-02  0.1228E-02  0.6021E-01  0.6004E-01
     -0.973  0.3613E-02  0.2303E-02  0.6038E-01  0.6015E-01
     -0.926  0.3842E-02  0.3331E-02  0.6056E-01  0.6030E-01
     -0.880  0.3408E-02  0.3919E-02  0.6071E-01  0.6048E-01
     -0.834  0.2631E-02  0.3797E-02  0.6084E-01  0.6066E-01
     -0.788  0.2112E-02  0.3015E-02  0.6093E-01  0.6080E-01
     -0.742  0.2418E-02  0.1983E-02  0.6104E-01  0.6089E-01
     -0.696  0.3713E-02  0.1316E-02  0.6122E-01  0.6095E-01
     -0.650  0.5581E-02  0.1539E-02  0.6147E-01  0.6102E-01
     -0.604  0.7182E-02  0.2803E-02  0.6180E-01  0.6115E-01
     -0.558  0.7706E-02  0.4742E-02  0.6216E-01  0.6137E-01
     -0.512  0.6887E-02  0.6611E-02  0.6248E-01  0.6167E-01
     -0.465  0.5239E-02  0.7675E-02  0.6272E-01  0.6202E-01
     -0.419  0.3836E-02  0.7674E-02  0.6290E-01  0.6238E-01
     -0.373  0.3733E-02  0.7018E-02  0.6307E-01  0.6270E-01
     -0.327  0.5346E-02  0.6538E-02  0.6331E-01  0.6300E-01
     -0.281  0.8148E-02  0.6905E-02  0.6369E-01  0.6332E-01
     -0.235  0.1088E-01  0.8158E-02  0.6419E-01  0.6370E-01
     -0.189  0.1223E-01  0.9670E-02  0.6476E-01  0.6414E-01
     -0.143  0.1150E-01  0.1056E-01  0.6529E-01  0.6463E-01
     -0.097  0.8971E-02  0.1023E-01  0.6570E-01  0.6510E-01
     -0.051  0.5645E-02  0.8645E-02  0.6596E-01  0.6550E-01
     -0.004  0.2619E-02  0.6291E-02  0.6608E-01  0.6579E-01
      0.042  0.5622E-03  0.3829E-02  0.6611E-01  0.6597E-01
      0.088 -0.4368E-03  0.1801E-02  0.6609E-01  0.6605E-01
      0.134 -0.6788E-03  0.4600E-03  0.6605E-01  0.6607E-01
      0.180 -0.5532E-03 -0.2186E-03  0.6603E-01  0.6606E-01
      0.226 -0.3416E-03 -0.4247E-03  0.6601E-01  0.6604E-01
      0.272 -0.1740E-03 -0.3813E-03  0.6601E-01  0.6602E-01
      0.318 -0.7561E-04 -0.2575E-03  0.6600E-01  0.6601E-01
      0.364 -0.2850E-04 -0.1439E-03  0.6600E-01  0.6601E-01
      0.410 -0.9412E-05 -0.6891E-04  0.6600E-01  0.6600E-01
      0.457 -0.2740E-05 -0.2875E-04  0.6600E-01  0.6600E-01
      0.503 -0.7063E-06 -0.1054E-04  0.6600E-01  0.6600E-01
      0.549 -0.1617E-06 -0.3414E-05  0.6600E-01  0.6600E-01
      0.595 -0.3293E-07 -0.9807E-06  0.6600E-01  0.6600E-01
      0.641 -0.5979E-08 -0.2504E-06  0.6600E-01  0.6600E-01
      0.687 -0.9691E-09 -0.5695E-07  0.6600E-01  0.6600E-01
      0.733 -0.1403E-09 -0.1155E-07  0.6600E-01  0.6600E-01
      0.779 -0.1818E-10 -0.2091E-08  0.6600E-01  0.6600E-01
      0.825 -0.2107E-11 -0.3383E-09  0.6600E-01  0.6600E-01
      0.871 -0.2186E-12 -0.4894E-10  0.6600E-01  0.6600E-01
      0.918 -0.2032E-13 -0.6334E-11  0.6600E-01  0.6600E-01
      0.964 -0.1691E-14 -0.7340E-12  0.6600E-01  0.6600E-01
      1.010 -0.1300E-15 -0.7618E-13  0.6600E-01  0.6600E-01
      1.056 -0.1445E-16 -0.7090E-14  0.6600E-01  0.6600E-01
      1.102  0.0000E+00 -0.5876E-15  0.6600E-01  0.6600E-01
      1.148  0.0000E+00 -0.4335E-16  0.6600E-01  0.6600E-01
      1.194  0.0000E+00 -0.4816E-17  0.6600E-01  0.6600E-01
      1.240  0.0000E+00  0.0000E+00  0.6600E-01  0.6600E-01
      1.286  0.0000E+00  0.0000E+00  0.6600E-01  0.6600E-01
      1.333  0.0000E+00  0.0000E+00  0.6600E-01  0.6600E-01
      1.379  0.0000E+00  0.0000E+00  0.6600E-01  0.6600E-01
      1.425  0.0000E+00  0.0000E+00  0.6600E-01  0.6600E-01
      1.471  0.0000E+00  0.0000E+00  0.6600E-01  0.6600E-01
      1.517  0.0000E+00  0.0000E+00  0.6600E-01  0.6600E-01
      1.563  0.0000E+00  0.0000E+00  0.6600E-01  0.6600E-01
      1.609  0.0000E+00  0.0000E+00  0.6600E-01  0.6600E-01
      1.655  0.0000E+00  0.0000E+00  0.6600E-01  0.6600E-01
      1.701  0.0000E+00  0.0000E+00  0.6600E-01  0.6600E-01
      1.747  0.0000E+00  0.0000E+00  0.6600E-01  0.6600E-01
      1.794  0.0000E+00  0.0000E+00  0.6600E-01  0.6600E-01
      1.840  0.0000E+00  0.0000E+00  0.6600E-01  0.6600E-01
      1.886  0.0000E+00  0.0000E+00  0.6600E-01  0.6600E-01
      1.932  0.0000E+00  0.0000E+00  0.6600E-01  0.6600E-01
