   10   10 1000    2
  0.1039713E+04  0.2190198E-08  0.2171347E-08  0.2186256E-08  0.5000000E-15
   1.0000000000000000E-004
  CAR 
 unknown system                          
    100      1     66
 
  0.1262379E-14  0.1262379E-14  0.1262379E-14  0.1000000E+01
    1       -9.892677     -9.898591   1.000000   1.000000
    2       -8.070628     -7.818791   1.000000   1.000000
    3       -7.907936     -7.629864   1.000000   1.000000
    4       -7.906742     -7.628296   1.000000   1.000000
    5       -7.403757     -6.932107   1.000000   1.000000
    6       -7.366932     -6.699852   1.000000   1.000000
    7       -7.328412     -6.670763   1.000000   1.000000
    8       -7.327842     -6.669531   1.000000   1.000000
    9       -7.127721     -6.346421   1.000000   1.000000
   10       -7.048445     -6.344417   1.000000   1.000000
   11       -7.036834     -6.296577   1.000000   1.000000
   12       -7.036005     -6.264686   1.000000   1.000000
   13       -6.891647     -6.169944   1.000000   1.000000
   14       -6.889624     -6.169457   1.000000   1.000000
   15       -6.845139     -6.038243   1.000000   1.000000
   16       -6.374801     -5.674546   1.000000   1.000000
   17       -6.367899     -5.672855   1.000000   1.000000
   18       -6.168658     -5.499410   1.000000   1.000000
   19       -6.165306     -5.456839   1.000000   1.000000
   20       -6.158123     -5.453987   1.000000   1.000000
   21       -6.036015     -5.237780   1.000000   1.000000
   22       -6.032405     -5.233772   1.000000   1.000000
   23       -5.934547     -5.114753   1.000000   1.000000
   24       -5.902444     -5.099293   1.000000   1.000000
   25       -5.900394     -5.095221   1.000000   1.000000
   26       -5.601854     -4.979655   1.000000   1.000000
   27       -5.599467     -4.891200   1.000000   1.000000
   28       -5.459282     -4.888147   1.000000   1.000000
   29       -5.394931     -4.837393   1.000000   1.000000
   30       -5.363227     -4.610693   1.000000   1.000003
   31       -5.362364     -4.609965   1.000000   1.000003
   32       -5.316925     -4.518232   1.000000   1.000050
   33       -5.315940     -4.515766   1.000000   1.000054
   34       -5.110246     -4.433503   1.000000   1.000485
   35       -5.108988     -4.378487   1.000000   1.001708
   36       -5.084739     -4.375987   1.000000   1.001801
   37       -5.059375     -4.258122   1.000000   1.014081
   38       -4.976815     -4.181261   1.000000   1.030828
   39       -4.931742     -4.180733   1.000000   1.030932
   40       -4.930848     -4.154994   1.000000   1.034795
   41       -4.930730     -4.088579   1.000000   1.020651
   42       -4.886652     -4.086780   1.000000   1.019464
   43       -4.885757     -4.085954   1.000000   1.018900
   44       -4.797706     -3.963541   1.000000   0.767519
   45       -4.765891     -3.932366   1.000000   0.649939
   46       -4.765613     -3.931628   1.000000   0.646976
   47       -4.748889     -3.852717   1.000000   0.320398
   48       -4.748659     -3.851499   1.000000   0.315647
   49       -4.609556     -3.815550   1.000003   0.187280
   50       -4.593379     -3.735801   1.000005   0.009332
   51       -4.593207     -3.734620   1.000005   0.007849
   52       -4.589358     -3.636623   1.000005  -0.034704
   53       -4.571591     -3.572481   1.000010  -0.022188
   54       -4.569931     -3.570955   1.000010  -0.021837
   55       -3.180465     -2.917361  -0.000003  -0.000000
   56       -2.835017     -2.592978  -0.000000  -0.000000
   57       -2.833016     -2.591261  -0.000000  -0.000000
   58       -2.663720     -2.454167  -0.000000  -0.000000
   59       -2.582503     -2.387237  -0.000000  -0.000000
   60       -2.581756     -2.386161  -0.000000  -0.000000
   61       -0.948515     -0.879413  -0.000000  -0.000000
   62       -0.582294     -0.477246  -0.000000  -0.000000
   63       -0.580622     -0.475305  -0.000000  -0.000000
   64       -0.211111     -0.190260  -0.000000  -0.000000
   65       -0.209384     -0.188434  -0.000000  -0.000000
   66       -0.202480     -0.068181  -0.000000  -0.000000
