       N       E                     dE             d eps       ncg     rms          rms(c)
DAV:   1     0.621064315413E+03    0.62106E+03   -0.16963E+04   264   0.706E+02
DAV:   2     0.965253009098E+02   -0.52454E+03   -0.48707E+03   440   0.150E+02
DAV:   3    -0.308005799397E+02   -0.12733E+03   -0.11849E+03   312   0.133E+02
DAV:   4    -0.415719632514E+02   -0.10771E+02   -0.94225E+01   288   0.497E+01
DAV:   5    -0.419068904889E+02   -0.33493E+00   -0.32078E+00   328   0.671E+00    0.185E+01
DAV:   6    -0.423701687332E+02   -0.46328E+00   -0.43510E+01   300   0.833E+01    0.377E+01
DAV:   7    -0.390098159044E+02    0.33604E+01   -0.37631E+01   302   0.944E+01    0.262E+01
DAV:   8    -0.410517065677E+02   -0.20419E+01   -0.27283E+01   350   0.755E+01    0.437E+01
DAV:   9    -0.393339861955E+02    0.17177E+01   -0.32107E+01   326   0.397E+01    0.294E+01
DAV:  10    -0.357320984536E+02    0.36019E+01   -0.61057E+00   374   0.475E+01    0.177E+01
DAV:  11    -0.349342646819E+02    0.79783E+00   -0.33005E+00   292   0.246E+01    0.153E+01
DAV:  12    -0.348114312255E+02    0.12283E+00   -0.26322E+00   292   0.205E+01    0.151E+01
DAV:  13    -0.347307439880E+02    0.80687E-01   -0.11983E+00   374   0.174E+01    0.130E+01
DAV:  14    -0.345950229070E+02    0.13572E+00   -0.10186E+00   310   0.148E+01    0.101E+01
DAV:  15    -0.347044168379E+02   -0.10939E+00   -0.87033E-01   348   0.129E+01    0.946E+00
DAV:  16    -0.347059514501E+02   -0.15346E-02   -0.35462E-01   322   0.934E+00    0.773E+00
DAV:  17    -0.347449675524E+02   -0.39016E-01   -0.67146E-02   292   0.239E+00    0.754E+00
DAV:  18    -0.347510939240E+02   -0.61264E-02   -0.72766E-03   320   0.101E+00    0.748E+00
DAV:  19    -0.347865817202E+02   -0.35488E-01   -0.17094E-02   332   0.198E+00    0.730E+00
DAV:  20    -0.349145572671E+02   -0.12798E+00   -0.90856E-02   322   0.424E+00    0.550E+00
DAV:  21    -0.352697851882E+02   -0.35523E+00   -0.36941E-01   354   0.879E+00    0.612E+00
DAV:  22    -0.353410150479E+02   -0.71230E-01   -0.23827E-01   316   0.771E+00    0.306E+00
DAV:  23    -0.354295350367E+02   -0.88520E-01   -0.58380E-02   296   0.226E+00    0.318E+00
DAV:  24    -0.355059625615E+02   -0.76428E-01   -0.17271E-02   332   0.218E+00    0.179E+00
DAV:  25    -0.357427835257E+02   -0.23682E+00   -0.53783E-02   378   0.298E+00    0.123E+00
DAV:  26    -0.358328906590E+02   -0.90107E-01   -0.15300E-02   306   0.166E+00    0.609E-01
DAV:  27    -0.359403033489E+02   -0.10741E+00   -0.80225E-03   314   0.605E-01    0.356E-01
DAV:  28    -0.360705567381E+02   -0.13025E+00   -0.81796E-03   298   0.696E-01    0.355E-01
DAV:  29    -0.361765730909E+02   -0.10602E+00   -0.62720E-03   298   0.709E-01    0.374E-01
DAV:  30    -0.362547167041E+02   -0.78144E-01   -0.48742E-03   298   0.493E-01    0.298E-01
DAV:  31    -0.363118777742E+02   -0.57161E-01   -0.27842E-03   316   0.402E-01    0.138E-01
DAV:  32    -0.363523833101E+02   -0.40506E-01   -0.16056E-03   276   0.219E-01    0.178E-01
DAV:  33    -0.363762831065E+02   -0.23900E-01   -0.91574E-04   266   0.199E-01    0.983E-02
DAV:  34    -0.363875494691E+02   -0.11266E-01   -0.29457E-04   238   0.927E-02    0.911E-02
DAV:  35    -0.363961886429E+02   -0.86392E-02   -0.21819E-04   202   0.937E-02    0.678E-02
DAV:  36    -0.364017654954E+02   -0.55769E-02   -0.13822E-04   196   0.856E-02    0.299E-02
DAV:  37    -0.364050787111E+02   -0.33132E-02   -0.90584E-05   194   0.626E-02    0.234E-02
DAV:  38    -0.364074790702E+02   -0.24004E-02   -0.75997E-05   196   0.349E-02    0.225E-02
DAV:  39    -0.364088282642E+02   -0.13492E-02   -0.26609E-05   182   0.310E-02    0.134E-02
DAV:  40    -0.364103106134E+02   -0.14823E-02   -0.59112E-05   180   0.197E-02    0.137E-02
DAV:  41    -0.364107770246E+02   -0.46641E-03   -0.18072E-05   190   0.158E-02    0.832E-03
DAV:  42    -0.364109617980E+02   -0.18477E-03   -0.11052E-05   174   0.135E-02    0.905E-03
DAV:  43    -0.364110819250E+02   -0.12013E-03   -0.69794E-06   188   0.117E-02    0.563E-03
DAV:  44    -0.364111895009E+02   -0.10758E-03   -0.87195E-06   170   0.911E-03    0.417E-03
DAV:  45    -0.364112376761E+02   -0.48175E-04   -0.39733E-06   174   0.856E-03
   1 F= -.36411238E+02 E0= -.36396867E+02  d E =-.364112E+02  mag=     8.0013
       N       E                     dE             d eps       ncg     rms          rms(c)
DAV:   1    -0.366041407783E+02   -0.19295E+00   -0.11073E+02   264   0.413E+01    0.317E+00
DAV:   2    -0.368769854525E+02   -0.27284E+00   -0.18039E+00   396   0.143E+01    0.847E+00
DAV:   3    -0.367870431412E+02    0.89942E-01   -0.11184E+00   324   0.199E+01    0.561E+00
DAV:   4    -0.368744542980E+02   -0.87411E-01   -0.43402E-01   376   0.111E+01    0.909E+00
DAV:   5    -0.367199581771E+02    0.15450E+00   -0.48439E-01   324   0.856E+00    0.228E+00
DAV:   6    -0.367625771372E+02   -0.42619E-01   -0.16506E-01   382   0.463E+00    0.276E+00
DAV:   7    -0.367571473734E+02    0.54298E-02   -0.10363E-01   348   0.350E+00    0.161E+00
DAV:   8    -0.367876692734E+02   -0.30522E-01   -0.66458E-02   334   0.494E+00    0.419E+00
DAV:   9    -0.367557045049E+02    0.31965E-01   -0.85160E-02   316   0.469E+00    0.192E+00
DAV:  10    -0.367589958963E+02   -0.32914E-02   -0.17042E-02   348   0.249E+00    0.123E+00
DAV:  11    -0.367598072021E+02   -0.81131E-03   -0.80711E-03   380   0.178E+00    0.817E-01
DAV:  12    -0.367609024519E+02   -0.10952E-02   -0.37643E-03   364   0.995E-01    0.577E-01
DAV:  13    -0.367611980246E+02   -0.29557E-03   -0.17860E-03   314   0.752E-01    0.480E-01
DAV:  14    -0.367611815502E+02    0.16474E-04   -0.82835E-04   284   0.607E-01
   2 F= -.36761182E+02 E0= -.36751004E+02  d E =-.349944E+00  mag=     8.0005
       N       E                     dE             d eps       ncg     rms          rms(c)
DAV:   1    -0.367679152280E+02   -0.67172E-02   -0.27418E+01   264   0.202E+01    0.163E+00
DAV:   2    -0.368582157053E+02   -0.90300E-01   -0.51077E-01   388   0.906E+00    0.513E+00
DAV:   3    -0.367964468825E+02    0.61769E-01   -0.33723E-01   332   0.107E+01    0.214E+00
DAV:   4    -0.368494173112E+02   -0.52970E-01   -0.13407E-01   384   0.583E+00    0.532E+00
DAV:   5    -0.367908821383E+02    0.58535E-01   -0.15870E-01   316   0.497E+00    0.120E+00
DAV:   6    -0.368068736740E+02   -0.15992E-01   -0.33258E-02   390   0.219E+00    0.111E+00
DAV:   7    -0.368153868990E+02   -0.85132E-02   -0.29321E-02   380   0.255E+00    0.210E+00
DAV:   8    -0.368084697085E+02    0.69172E-02   -0.26635E-02   340   0.276E+00    0.124E+00
DAV:   9    -0.368134797054E+02   -0.50100E-02   -0.21097E-02   348   0.272E+00    0.170E+00
DAV:  10    -0.368068027051E+02    0.66770E-02   -0.11926E-02   318   0.226E+00    0.633E-01
DAV:  11    -0.368084492384E+02   -0.16465E-02   -0.25442E-03   372   0.806E-01    0.259E-01
DAV:  12    -0.368090628768E+02   -0.61364E-03   -0.63212E-04   276   0.423E-01    0.206E-01
DAV:  13    -0.368091511334E+02   -0.88257E-04   -0.28441E-04   188   0.319E-01
   3 F= -.36809151E+02 E0= -.36800248E+02  d E =-.397913E+00  mag=     8.0002
       N       E                     dE             d eps       ncg     rms          rms(c)
DAV:   1    -0.368102371897E+02   -0.11743E-02   -0.97582E-01   264   0.380E+00    0.455E-01
DAV:   2    -0.368294403802E+02   -0.19203E-01   -0.59267E-02   388   0.433E+00    0.283E+00
DAV:   3    -0.368061552204E+02    0.23285E-01   -0.30943E-02   308   0.420E+00    0.709E-01
DAV:   4    -0.368116995743E+02   -0.55444E-02   -0.10320E-02   394   0.160E+00    0.807E-01
DAV:   5    -0.368123547518E+02   -0.65518E-03   -0.11713E-02   302   0.125E+00    0.853E-01
DAV:   6    -0.368110637120E+02    0.12910E-02   -0.66505E-03   298   0.897E-01    0.165E-01
DAV:   7    -0.368117748501E+02   -0.71114E-03   -0.86032E-04   244   0.462E-01    0.360E-01
DAV:   8    -0.368118871271E+02   -0.11228E-03   -0.70099E-04   234   0.490E-01    0.254E-01
DAV:   9    -0.368119770503E+02   -0.89923E-04   -0.28615E-04   162   0.382E-01
   4 F= -.36811977E+02 E0= -.36803682E+02  d E =-.282592E-02  mag=     8.0002
       N       E                     dE             d eps       ncg     rms          rms(c)
DAV:   1    -0.368120577919E+02   -0.17066E-03   -0.63216E-03   390   0.499E-01    0.102E-01
DAV:   2    -0.368137740241E+02   -0.17162E-02   -0.37249E-03   366   0.123E+00    0.863E-01
DAV:   3    -0.368113548564E+02    0.24192E-02   -0.28775E-03   306   0.109E+00    0.290E-01
DAV:   4    -0.368120694230E+02   -0.71457E-03   -0.70151E-04   226   0.392E-01    0.749E-02
DAV:   5    -0.368122726868E+02   -0.20326E-03   -0.25191E-04   162   0.152E-01    0.107E-01
DAV:   6    -0.368122961931E+02   -0.23506E-04   -0.14075E-04   174   0.147E-01
   5 F= -.36812296E+02 E0= -.36803749E+02  d E =-.314506E-02  mag=     8.0001
