 vasp.6.1.2 22Jul20 (build Aug  2 2021 21:04:21) gamma-only                      
 executed on             LinuxPGI date 2021.12.25  09:46:27
 running on   16 total cores
 distrk:  each k-point on   16 cores,    1 groups
 distr:  one band on NCORE=   8 cores,    2 groups


--------------------------------------------------------------------------------------------------------


 INCAR:
 POTCAR:    PAW_PBE Ni 02Aug2007                  
 -----------------------------------------------------------------------------
|                                                                             |
|           W    W    AA    RRRRR   N    N  II  N    N   GGGG   !!!           |
|           W    W   A  A   R    R  NN   N  II  NN   N  G    G  !!!           |
|           W    W  A    A  R    R  N N  N  II  N N  N  G       !!!           |
|           W WW W  AAAAAA  RRRRR   N  N N  II  N  N N  G  GGG   !            |
|           WW  WW  A    A  R   R   N   NN  II  N   NN  G    G                |
|           W    W  A    A  R    R  N    N  II  N    N   GGGG   !!!           |
|                                                                             |
|     You use a magnetic or noncollinear calculation, but did not specify     |
|     the initial magnetic moment with the MAGMOM tag. Note that a            |
|     default of 1 will be used for all atoms. This ferromagnetic setup       |
|     may break the symmetry of the crystal, in particular it may rule        |
|     out finding an antiferromagnetic solution. Thence, we recommend         |
|     setting the initial magnetic moment manually or verifying carefully     |
|     that this magnetic setup is desired.                                    |
|                                                                             |
 -----------------------------------------------------------------------------

 POTCAR:    PAW_PBE Ni 02Aug2007                  
   SHA256 =  0534bc51ca8003dfef23f56753fef9fdd3e22eac8d719fccacb59f3e6b7a69c7 Ni/POTCAR             
   COPYR  = (c) Copyright 02Aug2007 Georg Kresse                                                    
   COPYR  = This file is part of the software VASP. Any use, copying, and all other rights are regul
   COPYR  = If you do not have a valid VASP license, you may not use, copy or distribute this file. 
   VRHFIN =Ni:                                                                                      
   LEXCH  = PE                                                                                      
   EATOM  =  1077.6739 eV,   79.2068 Ry                                                             
                                                                                                    
   TITEL  = PAW_PBE Ni 02Aug2007                                                                    
   LULTRA =        F    use ultrasoft PP ?                                                          
   IUNSCR =        1    unscreen: 0-lin 1-nonlin 2-no                                               
   RPACOR =    2.000    partial core radius                                                         
   POMASS =   58.690; ZVAL   =   10.000    mass and valenz                                          
   RCORE  =    2.300    outmost cutoff radius                                                       
   RWIGS  =    2.430; RWIGS  =    1.286    wigner-seitz radius (au A)                               
   ENMAX  =  269.532; ENMIN  =  202.149 eV                                                          
   RCLOC  =    1.201    cutoff for local pot                                                        
   LCOR   =        T    correct aug charges                                                         
   LPAW   =        T    paw PP                                                                      
   EAUG   =  544.565                                                                                
   DEXC   =    0.000                                                                                
   RMAX   =    2.357    core radius for proj-oper                                                   
   RAUG   =    1.300    factor for augmentation sphere                                              
   RDEP   =    2.390    radius for radial grids                                                     
   RDEPT  =    1.838    core radius for aug-charge                                                  
                                                                                                    
   Atomic configuration                                                                             
    9 entries                                                                                       
     n  l   j            E        occ.                                                              
     1  0  0.50     -8206.4253   2.0000                                                             
     2  0  0.50      -976.1748   2.0000                                                             
     2  1  1.50      -839.0571   6.0000                                                             
     3  0  0.50      -105.9991   2.0000                                                             
     3  1  1.50       -66.4603   6.0000                                                             
     3  2  2.50        -4.6458   9.0000                                                             
     4  0  0.50        -4.4926   1.0000                                                             
     4  1  1.50        -4.0817   0.0000                                                             
     4  3  2.50        -1.3606   0.0000                                                             
   Description                                                                                      
     l       E           TYP  RCUT    TYP  RCUT                                                     
     2     -4.6457903     23  2.300                                                                 
     2     -6.0063729     23  2.300                                                                 
     0     -4.4925590     23  2.300                                                                 
     0      5.0102601     23  2.300                                                                 
     1     -2.7211652     23  2.300                                                                 
     1     16.5183231     23  2.300                                                                 
  local pseudopotential read in
  partial core-charges read in
  partial kinetic energy density read in
  atomic valenz-charges read in
  non local Contribution for L=            2  read in
    real space projection operators read in
  non local Contribution for L=            2  read in
    real space projection operators read in
  non local Contribution for L=            0  read in
    real space projection operators read in
  non local Contribution for L=            0  read in
    real space projection operators read in
  non local Contribution for L=            1  read in
    real space projection operators read in
  non local Contribution for L=            1  read in
    real space projection operators read in
    PAW grid and wavefunctions read in
 
   number of l-projection  operators is LMAX  =            6
   number of lm-projection operators is LMMAX =           18
 
  PAW_PBE Ni 02Aug2007                  :
 energy of atom  1       EATOM=-1077.6739
 kinetic energy error for atom=    0.0101 (will be added to EATOM!!)
 
 
 POSCAR: Ni
  positions in cartesian coordinates
  No initial velocities read in
 exchange correlation table for  LEXCH =        8
   RHO(1)=    0.500       N(1)  =     2000
   RHO(2)=  100.500       N(2)  =     4000
 


--------------------------------------------------------------------------------------------------------


 ion  position               nearest neighbor table
   1  0.501  0.467  0.409-   5 2.42   2 2.42   3 2.42   4 2.42
   2  0.464  0.558  0.460-   4 2.41   1 2.42   7 2.42   6 2.42   3 2.42
   3  0.408  0.462  0.469-   5 2.41   6 2.42   1 2.42   2 2.42   8 2.42
   4  0.555  0.508  0.496-  10 2.39   2 2.41   7 2.42   1 2.42   9 2.46   5 2.46
   5  0.499  0.411  0.505-  10 2.39   3 2.41   8 2.42   1 2.42   4 2.46   9 2.46
   6  0.413  0.533  0.554-   9 2.41   7 2.42   3 2.42   8 2.42   2 2.42
   7  0.508  0.588  0.557-   6 2.42   4 2.42   2 2.42   9 2.42
   8  0.412  0.423  0.572-   5 2.42   6 2.42   9 2.42   3 2.42
   9  0.503  0.483  0.592-  10 2.40   6 2.41   8 2.42   7 2.42   4 2.46   5 2.46
  10  0.592  0.427  0.559-   5 2.39   4 2.39   9 2.40
 

IMPORTANT INFORMATION: All symmetrisations will be switched off!
NOSYMM: (Re-)initialisation of all symmetry stuff for point group C_1.


----------------------------------------------------------------------------------------

                                     Primitive cell                                     

  volume of cell :   10397.1316

  direct lattice vectors                    reciprocal lattice vectors
    21.901981960  0.000000000  0.000000000     0.045657968  0.000000000  0.000000000
     0.000000000 21.713466810  0.000000000     0.000000000  0.046054368  0.000000000
     0.000000000  0.000000000 21.862556905     0.000000000  0.000000000  0.045740304

  length of vectors
    21.901981960 21.713466810 21.862556905     0.045657968  0.046054368  0.045740304

  position of ions in fractional coordinates (direct lattice)
     0.500935795  0.466675335  0.408763766
     0.463962533  0.558281713  0.459677505
     0.408143051  0.462366674  0.468667992
     0.555347755  0.508495871  0.495672330
     0.498718169  0.411115650  0.504627644
     0.412505508  0.532667088  0.554334062
     0.508149018  0.588231928  0.556721067
     0.412159135  0.422716311  0.572213607
     0.503230797  0.482594630  0.591852858
     0.591930237  0.426909148  0.559449734

  ion indices of the primitive-cell ions
   primitive index   ion index
                 1           1
                 2           2
                 3           3
                 4           4
                 5           5
                 6           6
                 7           7
                 8           8
                 9           9
                10          10

----------------------------------------------------------------------------------------

 
 
 KPOINTS: KPOINTS created by Atomic Simulation Env

Automatic generation of k-mesh.
Space group operators:
 irot       det(A)        alpha          n_x          n_y          n_z        tau_x        tau_y        tau_z
    1     1.000000     0.000000     1.000000     0.000000     0.000000     0.000000     0.000000     0.000000
 
 Subroutine IBZKPT returns following result:
 ===========================================
 
 Found      1 irreducible k-points:
 
 Following reciprocal coordinates:
            Coordinates               Weight
  0.000000  0.000000  0.000000      1.000000
 
 Following cartesian coordinates:
            Coordinates               Weight
  0.000000  0.000000  0.000000      1.000000
 


--------------------------------------------------------------------------------------------------------




 Dimension of arrays:
   k-points           NKPTS =      1   k-points in BZ     NKDIM =      1   number of bands    NBANDS=     66
   number of dos      NEDOS =    301   number of ions     NIONS =     10
   non local maximal  LDIM  =      6   non local SUM 2l+1 LMDIM =     18
   total plane-waves  NPLWV = ******
   max r-space proj   IRMAX =      1   max aug-charges    IRDMAX=   4126
   dimension x,y,z NGX =   108 NGY =  108 NGZ =  108
   dimension x,y,z NGXF=   216 NGYF=  216 NGZF=  216
   support grid    NGXF=   216 NGYF=  216 NGZF=  216
   ions per type =              10
   NGX,Y,Z   is equivalent  to a cutoff of   8.20,  8.27,  8.21 a.u.
   NGXF,Y,Z  is equivalent  to a cutoff of  16.40, 16.54, 16.42 a.u.

 SYSTEM =  unknown system                          
 POSCAR =  Ni                                      

 Startparameter for this run:
   NWRITE =      2    write-flag & timer
   PREC   = normal    normal or accurate (medium, high low for compatibility)
   ISTART =      0    job   : 0-new  1-cont  2-samecut
   ICHARG =      2    charge: 1-file 2-atom 10-const
   ISPIN  =      2    spin polarized calculation?
   LNONCOLLINEAR =      F non collinear calculations
   LSORBIT =      F    spin-orbit coupling
   INIWAV =      1    electr: 0-lowe 1-rand  2-diag
   LASPH  =      F    aspherical Exc in radial PAW
   METAGGA=      F    non-selfconsistent MetaGGA calc.

 Electronic Relaxation 1
   ENCUT  =  400.0 eV  29.40 Ry    5.42 a.u.  35.72 35.41 35.65*2*pi/ulx,y,z
   ENINI  =  400.0     initial cutoff
   ENAUG  =  544.6 eV  augmentation charge cutoff
   NELM   =     60;   NELMIN=  2; NELMDL=  0     # of ELM steps 
   EDIFF  = 0.1E-03   stopping-criterion for ELM
   LREAL  =      F    real-space projection
   NLSPLINE    = F    spline interpolate recip. space projectors
   LCOMPAT=      F    compatible to vasp.4.4
   GGA_COMPAT  = T    GGA compatible to vasp.4.4-vasp.4.6
   LMAXPAW     = -100 max onsite density
   LMAXMIX     =    2 max onsite mixed and CHGCAR
   VOSKOWN=      0    Vosko Wilk Nusair interpolation
   ROPT   =    0.00000
 Ionic relaxation
   EDIFFG = 0.1E-02   stopping-criterion for IOM
   NSW    =   1000    number of steps for IOM
   NBLOCK =      1;   KBLOCK =   1000    inner block; outer block 
   IBRION =      2    ionic relax: 0-MD 1-quasi-New 2-CG
   NFREE  =      1    steps in history (QN), initial steepest desc. (CG)
   ISIF   =      0    stress and relaxation
   IWAVPR =     11    prediction:  0-non 1-charg 2-wave 3-comb
   ISYM   =      0    0-nonsym 1-usesym 2-fastsym
   LCORR  =      T    Harris-Foulkes like correction to forces

   POTIM  = 0.5000    time-step for ionic-motion
   TEIN   =    0.0    initial temperature
   TEBEG  =    0.0;   TEEND  =   0.0 temperature during run
   SMASS  =  -3.00    Nose mass-parameter (am)
   estimated Nose-frequenzy (Omega)   =  0.10E-29 period in steps = 0.13E+47 mass=  -0.110E-25a.u.
   SCALEE = 1.0000    scale energy and forces
   NPACO  =    256;   APACO  = 16.0  distance and # of slots for P.C.
   PSTRESS=    0.0 pullay stress

  Mass of Ions in am
   POMASS =  58.69
  Ionic Valenz
   ZVAL   =  10.00
  Atomic Wigner-Seitz radii
   RWIGS  =  -1.00
  virtual crystal weights 
   VCA    =   1.00
   NELECT =     100.0000    total number of electrons
   NUPDOWN=      -1.0000    fix difference up-down

 DOS related values:
   EMIN   =  10.00;   EMAX   =-10.00  energy-range for DOS
   EFERMI =   0.00
   ISMEAR =     1;   SIGMA  =   0.20  broadening in eV -4-tet -1-fermi 0-gaus

 Electronic relaxation 2 (details)
   IALGO  =     38    algorithm
   LDIAG  =      T    sub-space diagonalisation (order eigenvalues)
   LSUBROT=      F    optimize rotation matrix (better conditioning)
   TURBO    =      0    0=normal 1=particle mesh
   IRESTART =      0    0=no restart 2=restart with 2 vectors
   NREBOOT  =      0    no. of reboots
   NMIN     =      0    reboot dimension
   EREF     =   0.00    reference energy to select bands
   IMIX   =      4    mixing-type and parameters
     AMIX     =   0.40;   BMIX     =  1.00
     AMIX_MAG =   1.60;   BMIX_MAG =  1.00
     AMIN     =   0.10
     WC   =   100.;   INIMIX=   1;  MIXPRE=   1;  MAXMIX= -45

 Intra band minimization:
   WEIMIN = 0.0010     energy-eigenvalue tresh-hold
   EBREAK =  0.38E-06  absolut break condition
   DEPER  =   0.30     relativ break condition  

   TIME   =   0.40     timestep for ELM

  volume/ion in A,a.u.               =    1039.71      7016.33
  Fermi-wavevector in a.u.,A,eV,Ry     =   0.348153  0.657914  1.649170  0.121211
  Thomas-Fermi vector in A             =   1.258169
 
 Write flags
   LWAVE        =      F    write WAVECAR
   LDOWNSAMPLE  =      F    k-point downsampling of WAVECAR
   LCHARG       =      F    write CHGCAR
   LVTOT        =      F    write LOCPOT, total local potential
   LVHAR        =      F    write LOCPOT, Hartree potential only
   LELF         =      F    write electronic localiz. function (ELF)
   LORBIT       =      0    0 simple, 1 ext, 2 COOP (PROOUT), +10 PAW based schemes


 Dipole corrections
   LMONO  =      F    monopole corrections only (constant potential shift)
   LDIPOL =      F    correct potential (dipole corrections)
   IDIPOL =      0    1-x, 2-y, 3-z, 4-all directions 
   EPSILON=  1.0000000 bulk dielectric constant

 Exchange correlation treatment:
   GGA     =    PE    GGA type
   LEXCH   =     8    internal setting for exchange type
   VOSKOWN=      0    Vosko Wilk Nusair interpolation
   LHFCALC =     F    Hartree Fock is set to
   LHFONE  =     F    Hartree Fock one center treatment
   AEXX    =    0.0000 exact exchange contribution

 Linear response parameters
   LEPSILON=     F    determine dielectric tensor
   LRPA    =     F    only Hartree local field effects (RPA)
   LNABLA  =     F    use nabla operator in PAW spheres
   LVEL    =     F    velocity operator in full k-point grid
   LINTERFAST=   F  fast interpolation
   KINTER  =     0    interpolate to denser k-point grid
   CSHIFT  =0.1000    complex shift for real part using Kramers Kronig
   OMEGAMAX=  -1.0    maximum frequency
   DEG_THRESHOLD= 0.2000000E-02 threshold for treating states as degnerate
   RTIME   =   -0.100 relaxation time in fs
  (WPLASMAI=    0.000 imaginary part of plasma frequency in eV, 0.658/RTIME)
   DFIELD  = 0.0000000 0.0000000 0.0000000 field for delta impulse in time
 
 Orbital magnetization related:
   ORBITALMAG=     F  switch on orbital magnetization
   LCHIMAG   =     F  perturbation theory with respect to B field
   DQ        =  0.001000  dq finite difference perturbation B field
   LLRAUG    =     F  two centre corrections for induced B field



--------------------------------------------------------------------------------------------------------


 conjugate gradient relaxation of ions
 charge density and potential will be updated during run
 spin polarized calculation
 Variant of blocked Davidson
 Davidson routine will perform the subspace rotation
 perform sub-space diagonalisation
    after iterative eigenvector-optimisation
 modified Broyden-mixing scheme, WC =      100.0
 initial mixing is a Kerker type mixing with AMIX =  0.4000 and BMIX =      1.0000
 Hartree-type preconditioning will be used
 using additional bands            16
 reciprocal scheme for non local part
 use partial core corrections
 calculate Harris-corrections to forces 
   (improved forces if not selfconsistent)
 use gradient corrections 
 use of overlap-Matrix (Vanderbilt PP)
 Methfessel and Paxton  Order N= 1 SIGMA  =   0.20


--------------------------------------------------------------------------------------------------------


  energy-cutoff  :      400.00
  volume of cell :    10397.13
      direct lattice vectors                 reciprocal lattice vectors
    21.901981960  0.000000000  0.000000000     0.045657968  0.000000000  0.000000000
     0.000000000 21.713466810  0.000000000     0.000000000  0.046054368  0.000000000
     0.000000000  0.000000000 21.862556905     0.000000000  0.000000000  0.045740304

  length of vectors
    21.901981960 21.713466810 21.862556905     0.045657968  0.046054368  0.045740304


 
 k-points in units of 2pi/SCALE and weight: KPOINTS created by Atomic Simulation Env
   0.00000000  0.00000000  0.00000000       1.000
 
 k-points in reciprocal lattice and weights: KPOINTS created by Atomic Simulation Env
   0.00000000  0.00000000  0.00000000       1.000
 
 position of ions in fractional coordinates (direct lattice) 
   0.50093579  0.46667533  0.40876377
   0.46396253  0.55828171  0.45967751
   0.40814305  0.46236667  0.46866799
   0.55534775  0.50849587  0.49567233
   0.49871817  0.41111565  0.50462764
   0.41250551  0.53266709  0.55433406
   0.50814902  0.58823193  0.55672107
   0.41215913  0.42271631  0.57221361
   0.50323080  0.48259463  0.59185286
   0.59193024  0.42690915  0.55944973
 
 position of ions in cartesian coordinates  (Angst):
  10.97148674 10.13313939  8.93662109
  10.16169904 12.12223146 10.04972561
   8.93914173 10.03958343 10.24628065
  12.16321651 11.04120821 10.83666452
  10.92291634  8.92674603 11.03245058
   9.03468820 11.56604913 12.11915996
  11.12947062 12.77255444 12.17134601
   9.02710194  9.17863658 12.51005255
  11.02175184 10.47880247 12.93941680
  12.96444538  9.26967761 12.23100164
 


--------------------------------------------------------------------------------------------------------


 use parallel FFT for orbitals z direction half grid
 k-point   1 :   0.0000 0.0000 0.0000  plane waves:   94484

 maximum and minimum number of plane-waves per node :     11815    11800

 maximum number of plane-waves:     94484
 maximum index in each direction: 
   IXMAX=   35   IYMAX=   35   IZMAX=   35
   IXMIN=  -35   IYMIN=  -35   IZMIN=    0


 parallel 3D FFT for wavefunctions:
    minimum data exchange during FFTs selected (reduces bandwidth)
 parallel 3D FFT for charge:
    minimum data exchange during FFTs selected (reduces bandwidth)


 total amount of memory used by VASP MPI-rank0   132000. kBytes
=======================================================================

   base      :      30000. kBytes
   nonl-proj :       3592. kBytes
   fftplans  :      25401. kBytes
   grid      :      60480. kBytes
   one-center:         31. kBytes
   wavefun   :      12496. kBytes
 
     INWAV:  cpu time    0.0000: real time    0.0000
 Broyden mixing: mesh for mixing (old mesh)
   NGX = 71   NGY = 71   NGZ = 71
  (NGX  =216   NGY  =216   NGZ  =216)
  gives a total of 357911 points

 initial charge density was supplied:
 charge density of overlapping atoms calculated
 number of electron     100.0000000 magnetization      10.0000000
 keeping initial charge density in first step


--------------------------------------------------------------------------------------------------------


 Maximum index for augmentation-charges           295 (set IRDMAX)


--------------------------------------------------------------------------------------------------------


 First call to EWALD:  gamma=   0.081
 Maximum number of real-space cells 3x 3x 3
 Maximum number of reciprocal cells 3x 3x 3

    FEWALD:  cpu time    0.0012: real time    0.0012


--------------------------------------- Iteration      1(   1)  ---------------------------------------


    POTLOK:  cpu time    2.0831: real time    2.0898
    SETDIJ:  cpu time    0.0203: real time    0.0203
     EDDAV:  cpu time    4.5305: real time    4.5353
       DOS:  cpu time    0.0070: real time    0.0070
    --------------------------------------------
      LOOP:  cpu time    6.6410: real time    6.6524

 eigenvalue-minimisations  :   264
 total energy-change (2. order) : 0.6210643E+03  (-0.1696324E+04)
 number of electron     100.0000000 magnetization      10.0000000
 augmentation part      100.0000000 magnetization      10.0000000

 Free energy of the ion-electron system (eV)
  ---------------------------------------------------
  alpha Z        PSCENC =         4.90514146
  Ewald energy   TEWEN  =     12812.37678530
  -Hartree energ DENC   =    -22665.03399650
  -exchange      EXHF   =         0.00000000
  -V(xc)+E(xc)   XCENC  =       304.95624821
  PAW double counting   =      9628.33173603   -10296.70712275
  entropy T*S    EENTRO =         0.01792216
  eigenvalues    EBANDS =        55.57923021
  atomic energy  EATOM  =     10776.63837129
  Solvation  Ediel_sol  =         0.00000000
  ---------------------------------------------------
  free energy    TOTEN  =       621.06431541 eV

  energy without entropy =      621.04639326  energy(sigma->0) =      621.05834136


--------------------------------------------------------------------------------------------------------




--------------------------------------- Iteration      1(   2)  ---------------------------------------


     EDDAV:  cpu time    6.6707: real time    6.6790
       DOS:  cpu time    0.0078: real time    0.0078
    --------------------------------------------
      LOOP:  cpu time    6.6785: real time    6.6868

 eigenvalue-minimisations  :   440
 total energy-change (2. order) :-0.5245390E+03  (-0.4870725E+03)
 number of electron     100.0000000 magnetization      10.0000000
 augmentation part      100.0000000 magnetization      10.0000000

 Free energy of the ion-electron system (eV)
  ---------------------------------------------------
  alpha Z        PSCENC =         4.90514146
  Ewald energy   TEWEN  =     12812.37678530
  -Hartree energ DENC   =    -22665.03399650
  -exchange      EXHF   =         0.00000000
  -V(xc)+E(xc)   XCENC  =       304.95624821
  PAW double counting   =      9628.33173603   -10296.70712275
  entropy T*S    EENTRO =        -0.01705761
  eigenvalues    EBANDS =      -468.92480452
  atomic energy  EATOM  =     10776.63837129
  Solvation  Ediel_sol  =         0.00000000
  ---------------------------------------------------
  free energy    TOTEN  =        96.52530091 eV

  energy without entropy =       96.54235852  energy(sigma->0) =       96.53098678


--------------------------------------------------------------------------------------------------------




--------------------------------------- Iteration      1(   3)  ---------------------------------------


     EDDAV:  cpu time    5.1006: real time    5.1083
       DOS:  cpu time    0.0064: real time    0.0064
    --------------------------------------------
      LOOP:  cpu time    5.1069: real time    5.1147

 eigenvalue-minimisations  :   312
 total energy-change (2. order) :-0.1273259E+03  (-0.1184872E+03)
 number of electron     100.0000000 magnetization      10.0000000
 augmentation part      100.0000000 magnetization      10.0000000

 Free energy of the ion-electron system (eV)
  ---------------------------------------------------
  alpha Z        PSCENC =         4.90514146
  Ewald energy   TEWEN  =     12812.37678530
  -Hartree energ DENC   =    -22665.03399650
  -exchange      EXHF   =         0.00000000
  -V(xc)+E(xc)   XCENC  =       304.95624821
  PAW double counting   =      9628.33173603   -10296.70712275
  entropy T*S    EENTRO =        -0.02009850
  eigenvalues    EBANDS =      -596.24764448
  atomic energy  EATOM  =     10776.63837129
  Solvation  Ediel_sol  =         0.00000000
  ---------------------------------------------------
  free energy    TOTEN  =       -30.80057994 eV

  energy without entropy =      -30.78048144  energy(sigma->0) =      -30.79388044


--------------------------------------------------------------------------------------------------------




--------------------------------------- Iteration      1(   4)  ---------------------------------------


     EDDAV:  cpu time    4.7693: real time    4.7759
       DOS:  cpu time    0.0070: real time    0.0070
    --------------------------------------------
      LOOP:  cpu time    4.7763: real time    4.7829

 eigenvalue-minimisations  :   288
 total energy-change (2. order) :-0.1077138E+02  (-0.9422548E+01)
 number of electron     100.0000000 magnetization      10.0000000
 augmentation part      100.0000000 magnetization      10.0000000

 Free energy of the ion-electron system (eV)
  ---------------------------------------------------
  alpha Z        PSCENC =         4.90514146
  Ewald energy   TEWEN  =     12812.37678530
  -Hartree energ DENC   =    -22665.03399650
  -exchange      EXHF   =         0.00000000
  -V(xc)+E(xc)   XCENC  =       304.95624821
  PAW double counting   =      9628.33173603   -10296.70712275
  entropy T*S    EENTRO =        -0.06187848
  eigenvalues    EBANDS =      -606.97724782
  atomic energy  EATOM  =     10776.63837129
  Solvation  Ediel_sol  =         0.00000000
  ---------------------------------------------------
  free energy    TOTEN  =       -41.57196325 eV

  energy without entropy =      -41.51008478  energy(sigma->0) =      -41.55133709


--------------------------------------------------------------------------------------------------------




--------------------------------------- Iteration      1(   5)  ---------------------------------------


     EDDAV:  cpu time    5.2826: real time    5.2895
       DOS:  cpu time    0.0068: real time    0.0068
    CHARGE:  cpu time    0.5361: real time    0.5366
    MIXING:  cpu time    0.0329: real time    0.0329
    --------------------------------------------
      LOOP:  cpu time    5.8583: real time    5.8658

 eigenvalue-minimisations  :   328
 total energy-change (2. order) :-0.3349272E+00  (-0.3207818E+00)
 number of electron      99.9999508 magnetization       9.7507601
 augmentation part       59.6781856 magnetization       8.4936894

 Broyden mixing:
  rms(total) = 0.18525E+01    rms(broyden)= 0.18515E+01
  rms(prec ) = 0.19726E+01
  weight for this iteration     100.00

 Free energy of the ion-electron system (eV)
  ---------------------------------------------------
  alpha Z        PSCENC =         4.90514146
  Ewald energy   TEWEN  =     12812.37678530
  -Hartree energ DENC   =    -22665.03399650
  -exchange      EXHF   =         0.00000000
  -V(xc)+E(xc)   XCENC  =       304.95624821
  PAW double counting   =      9628.33173603   -10296.70712275
  entropy T*S    EENTRO =        -0.06123317
  eigenvalues    EBANDS =      -607.31282036
  atomic energy  EATOM  =     10776.63837129
  Solvation  Ediel_sol  =         0.00000000
  ---------------------------------------------------
  free energy    TOTEN  =       -41.90689049 eV

  energy without entropy =      -41.84565732  energy(sigma->0) =      -41.88647943


--------------------------------------------------------------------------------------------------------




--------------------------------------- Iteration      1(   6)  ---------------------------------------


    POTLOK:  cpu time    2.0855: real time    2.0884
    SETDIJ:  cpu time    0.0214: real time    0.0215
     EDDAV:  cpu time    4.9142: real time    4.9209
       DOS:  cpu time    0.0032: real time    0.0032
    CHARGE:  cpu time    0.5214: real time    0.5227
    MIXING:  cpu time    0.0389: real time    0.0390
    --------------------------------------------
      LOOP:  cpu time    7.5847: real time    7.5957

 eigenvalue-minimisations  :   300
 total energy-change (2. order) :-0.4632782E+00  (-0.4351007E+01)
 number of electron      99.9999508 magnetization       9.7047825
 augmentation part       63.9262211 magnetization       7.9886168

 Broyden mixing:
  rms(total) = 0.37657E+01    rms(broyden)= 0.37653E+01
  rms(prec ) = 0.39614E+01
  weight for this iteration     100.00

 eigenvalues of (default mixing * dielectric matrix)
  average eigenvalue GAMMA=   0.1943
  0.1943

 Free energy of the ion-electron system (eV)
  ---------------------------------------------------
  alpha Z        PSCENC =         4.90514146
  Ewald energy   TEWEN  =     12812.37678530
  -Hartree energ DENC   =    -22576.01057261
  -exchange      EXHF   =         0.00000000
  -V(xc)+E(xc)   XCENC  =       298.57679469
  PAW double counting   =      9967.69305525   -10612.80623034
  entropy T*S    EENTRO =         0.00229620
  eigenvalues    EBANDS =      -713.74580998
  atomic energy  EATOM  =     10776.63837129
  Solvation  Ediel_sol  =         0.00000000
  ---------------------------------------------------
  free energy    TOTEN  =       -42.37016873 eV

  energy without entropy =      -42.37246494  energy(sigma->0) =      -42.37093413


--------------------------------------------------------------------------------------------------------




--------------------------------------- Iteration      1(   7)  ---------------------------------------


    POTLOK:  cpu time    2.0771: real time    2.0826
    SETDIJ:  cpu time    0.0211: real time    0.0211
     EDDAV:  cpu time    4.9487: real time    4.9543
       DOS:  cpu time    0.0031: real time    0.0031
    CHARGE:  cpu time    0.5019: real time    0.5024
    MIXING:  cpu time    0.0378: real time    0.0379
    --------------------------------------------
      LOOP:  cpu time    7.5897: real time    7.6015

 eigenvalue-minimisations  :   302
 total energy-change (2. order) : 0.3360353E+01  (-0.3763138E+01)
 number of electron      99.9999458 magnetization       9.6287679
 augmentation part       64.1292886 magnetization       8.1665261

 Broyden mixing:
  rms(total) = 0.26176E+01    rms(broyden)= 0.26166E+01
  rms(prec ) = 0.28028E+01
  weight for this iteration     100.00

 eigenvalues of (default mixing * dielectric matrix)
  average eigenvalue GAMMA=   0.2637
  0.3535  0.1739

 Free energy of the ion-electron system (eV)
  ---------------------------------------------------
  alpha Z        PSCENC =         4.90514146
  Ewald energy   TEWEN  =     12812.37678530
  -Hartree energ DENC   =    -22597.05015055
  -exchange      EXHF   =         0.00000000
  -V(xc)+E(xc)   XCENC  =       299.42294406
  PAW double counting   =     10060.82452081   -10712.98406384
  entropy T*S    EENTRO =         0.02180255
  eigenvalues    EBANDS =      -683.16516698
  atomic energy  EATOM  =     10776.63837129
  Solvation  Ediel_sol  =         0.00000000
  ---------------------------------------------------
  free energy    TOTEN  =       -39.00981590 eV

  energy without entropy =      -39.03161846  energy(sigma->0) =      -39.01708342


--------------------------------------------------------------------------------------------------------




--------------------------------------- Iteration      1(   8)  ---------------------------------------


    POTLOK:  cpu time    2.0774: real time    2.0845
    SETDIJ:  cpu time    0.0208: real time    0.0208
     EDDAV:  cpu time    5.5112: real time    5.5188
       DOS:  cpu time    0.0029: real time    0.0029
    CHARGE:  cpu time    0.5057: real time    0.5062
    MIXING:  cpu time    0.0399: real time    0.0400
    --------------------------------------------
      LOOP:  cpu time    8.1580: real time    8.1732

 eigenvalue-minimisations  :   350
 total energy-change (2. order) :-0.2041891E+01  (-0.2728283E+01)
 number of electron      99.9999522 magnetization       9.5483748
 augmentation part       63.1173103 magnetization       8.7230991

 Broyden mixing:
  rms(total) = 0.43745E+01    rms(broyden)= 0.43737E+01
  rms(prec ) = 0.48491E+01
  weight for this iteration     100.00

 eigenvalues of (default mixing * dielectric matrix)
  average eigenvalue GAMMA=   0.2579
  0.4869  0.1622  0.1246

 Free energy of the ion-electron system (eV)
  ---------------------------------------------------
  alpha Z        PSCENC =         4.90514146
  Ewald energy   TEWEN  =     12812.37678530
  -Hartree energ DENC   =    -22637.91256993
  -exchange      EXHF   =         0.00000000
  -V(xc)+E(xc)   XCENC  =       300.70714502
  PAW double counting   =     10189.99741843   -10852.69202564
  entropy T*S    EENTRO =        -0.12372806
  eigenvalues    EBANDS =      -634.94824445
  atomic energy  EATOM  =     10776.63837129
  Solvation  Ediel_sol  =         0.00000000
  ---------------------------------------------------
  free energy    TOTEN  =       -41.05170657 eV

  energy without entropy =      -40.92797851  energy(sigma->0) =      -41.01046388


--------------------------------------------------------------------------------------------------------




--------------------------------------- Iteration      1(   9)  ---------------------------------------


    POTLOK:  cpu time    2.0877: real time    2.0908
    SETDIJ:  cpu time    0.0215: real time    0.0215
     EDDAV:  cpu time    5.5583: real time    5.5716
       DOS:  cpu time    0.0034: real time    0.0034
    CHARGE:  cpu time    0.5552: real time    0.5558
    MIXING:  cpu time    0.0417: real time    0.0417
    --------------------------------------------
      LOOP:  cpu time    8.2678: real time    8.2848

 eigenvalue-minimisations  :   326
 total energy-change (2. order) : 0.1717720E+01  (-0.3210679E+01)
 number of electron      99.9999478 magnetization       9.4702313
 augmentation part       62.5069756 magnetization       8.0101198

 Broyden mixing:
  rms(total) = 0.29412E+01    rms(broyden)= 0.29408E+01
  rms(prec ) = 0.31462E+01
  weight for this iteration     100.00

 eigenvalues of (default mixing * dielectric matrix)
  average eigenvalue GAMMA=   0.2855
  0.7390  0.1577  0.1577  0.0875

 Free energy of the ion-electron system (eV)
  ---------------------------------------------------
  alpha Z        PSCENC =         4.90514146
  Ewald energy   TEWEN  =     12812.37678530
  -Hartree energ DENC   =    -22655.53830399
  -exchange      EXHF   =         0.00000000
  -V(xc)+E(xc)   XCENC  =       301.09631908
  PAW double counting   =     10250.09984931   -10917.28202533
  entropy T*S    EENTRO =         0.05943599
  eigenvalues    EBANDS =      -611.68955930
  atomic energy  EATOM  =     10776.63837129
  Solvation  Ediel_sol  =         0.00000000
  ---------------------------------------------------
  free energy    TOTEN  =       -39.33398620 eV

  energy without entropy =      -39.39342218  energy(sigma->0) =      -39.35379819


--------------------------------------------------------------------------------------------------------




--------------------------------------- Iteration      1(  10)  ---------------------------------------


    POTLOK:  cpu time    2.0647: real time    2.0683
    SETDIJ:  cpu time    0.0212: real time    0.0212
     EDDAV:  cpu time    5.8036: real time    5.8099
       DOS:  cpu time    0.0034: real time    0.0034
    CHARGE:  cpu time    0.5559: real time    0.5565
    MIXING:  cpu time    0.0456: real time    0.0456
    --------------------------------------------
      LOOP:  cpu time    8.4944: real time    8.5049

 eigenvalue-minimisations  :   374
 total energy-change (2. order) : 0.3601888E+01  (-0.6105671E+00)
 number of electron      99.9999496 magnetization       9.2561856
 augmentation part       62.3744379 magnetization       7.8999082

 Broyden mixing:
  rms(total) = 0.17739E+01    rms(broyden)= 0.17728E+01
  rms(prec ) = 0.19120E+01
  weight for this iteration     100.00

 eigenvalues of (default mixing * dielectric matrix)
  average eigenvalue GAMMA=   0.3909
  1.0141  0.5844  0.1429  0.1067  0.1067

 Free energy of the ion-electron system (eV)
  ---------------------------------------------------
  alpha Z        PSCENC =         4.90514146
  Ewald energy   TEWEN  =     12812.37678530
  -Hartree energ DENC   =    -22673.86424902
  -exchange      EXHF   =         0.00000000
  -V(xc)+E(xc)   XCENC  =       301.62953814
  PAW double counting   =     10336.76993424   -11009.26848326
  entropy T*S    EENTRO =        -0.03718465
  eigenvalues    EBANDS =      -584.88195196
  atomic energy  EATOM  =     10776.63837129
  Solvation  Ediel_sol  =         0.00000000
  ---------------------------------------------------
  free energy    TOTEN  =       -35.73209845 eV

  energy without entropy =      -35.69491380  energy(sigma->0) =      -35.71970357


--------------------------------------------------------------------------------------------------------




--------------------------------------- Iteration      1(  11)  ---------------------------------------


    POTLOK:  cpu time    2.0783: real time    2.0832
    SETDIJ:  cpu time    0.0211: real time    0.0211
     EDDAV:  cpu time    4.8759: real time    4.8823
       DOS:  cpu time    0.0078: real time    0.0078
    CHARGE:  cpu time    0.5056: real time    0.5069
    MIXING:  cpu time    0.0491: real time    0.0492
    --------------------------------------------
      LOOP:  cpu time    7.5378: real time    7.5505

 eigenvalue-minimisations  :   292
 total energy-change (2. order) : 0.7978338E+00  (-0.3300452E+00)
 number of electron      99.9999483 magnetization       9.2225205
 augmentation part       62.4001106 magnetization       7.8480422

 Broyden mixing:
  rms(total) = 0.15320E+01    rms(broyden)= 0.15314E+01
  rms(prec ) = 0.16488E+01
  weight for this iteration     100.00

 eigenvalues of (default mixing * dielectric matrix)
  average eigenvalue GAMMA=   0.3607
  1.1027  0.5813  0.1191  0.1191  0.1211  0.1211

 Free energy of the ion-electron system (eV)
  ---------------------------------------------------
  alpha Z        PSCENC =         4.90514146
  Ewald energy   TEWEN  =     12812.37678530
  -Hartree energ DENC   =    -22678.84038364
  -exchange      EXHF   =         0.00000000
  -V(xc)+E(xc)   XCENC  =       302.05548271
  PAW double counting   =     10456.84315448   -11132.55146356
  entropy T*S    EENTRO =        -0.02496383
  eigenvalues    EBANDS =      -576.33638890
  atomic energy  EATOM  =     10776.63837129
  Solvation  Ediel_sol  =         0.00000000
  ---------------------------------------------------
  free energy    TOTEN  =       -34.93426468 eV

  energy without entropy =      -34.90930086  energy(sigma->0) =      -34.92594341


--------------------------------------------------------------------------------------------------------




--------------------------------------- Iteration      1(  12)  ---------------------------------------


    POTLOK:  cpu time    2.0687: real time    2.0735
    SETDIJ:  cpu time    0.0209: real time    0.0209
     EDDAV:  cpu time    4.8906: real time    4.8980
       DOS:  cpu time    0.0074: real time    0.0075
    CHARGE:  cpu time    0.5088: real time    0.5095
    MIXING:  cpu time    0.0643: real time    0.0643
    --------------------------------------------
      LOOP:  cpu time    7.5607: real time    7.5737

 eigenvalue-minimisations  :   292
 total energy-change (2. order) : 0.1228335E+00  (-0.2632161E+00)
 number of electron      99.9999487 magnetization       9.1596964
 augmentation part       62.3762471 magnetization       7.8193475

 Broyden mixing:
  rms(total) = 0.15056E+01    rms(broyden)= 0.15051E+01
  rms(prec ) = 0.16158E+01
  weight for this iteration     100.00

 eigenvalues of (default mixing * dielectric matrix)
  average eigenvalue GAMMA=   0.3625
  1.2483  0.4615  0.3949  0.1544  0.1060  0.1060  0.0661

 Free energy of the ion-electron system (eV)
  ---------------------------------------------------
  alpha Z        PSCENC =         4.90514146
  Ewald energy   TEWEN  =     12812.37678530
  -Hartree energ DENC   =    -22680.33812893
  -exchange      EXHF   =         0.00000000
  -V(xc)+E(xc)   XCENC  =       302.07386685
  PAW double counting   =     10472.38563470   -11148.53011126
  entropy T*S    EENTRO =        -0.01612174
  eigenvalues    EBANDS =      -574.30686890
  atomic energy  EATOM  =     10776.63837129
  Solvation  Ediel_sol  =         0.00000000
  ---------------------------------------------------
  free energy    TOTEN  =       -34.81143123 eV

  energy without entropy =      -34.79530949  energy(sigma->0) =      -34.80605731


--------------------------------------------------------------------------------------------------------




--------------------------------------- Iteration      1(  13)  ---------------------------------------


    POTLOK:  cpu time    2.0656: real time    2.0678
    SETDIJ:  cpu time    0.0208: real time    0.0208
     EDDAV:  cpu time    5.8438: real time    5.8500
       DOS:  cpu time    0.0078: real time    0.0078
    CHARGE:  cpu time    0.5411: real time    0.5417
    MIXING:  cpu time    0.0628: real time    0.0629
    --------------------------------------------
      LOOP:  cpu time    8.5419: real time    8.5511

 eigenvalue-minimisations  :   374
 total energy-change (2. order) : 0.8068724E-01  (-0.1198269E+00)
 number of electron      99.9999486 magnetization       9.0971861
 augmentation part       62.3454869 magnetization       7.8067767

 Broyden mixing:
  rms(total) = 0.13000E+01    rms(broyden)= 0.12995E+01
  rms(prec ) = 0.13842E+01
  weight for this iteration     100.00

 eigenvalues of (default mixing * dielectric matrix)
  average eigenvalue GAMMA=   0.3666
  1.3773  0.5068  0.5068  0.1476  0.1064  0.1064  0.1209  0.0609

 Free energy of the ion-electron system (eV)
  ---------------------------------------------------
  alpha Z        PSCENC =         4.90514146
  Ewald energy   TEWEN  =     12812.37678530
  -Hartree energ DENC   =    -22683.74914074
  -exchange      EXHF   =         0.00000000
  -V(xc)+E(xc)   XCENC  =       302.13153172
  PAW double counting   =     10499.30579093   -11176.22719787
  entropy T*S    EENTRO =        -0.03821160
  eigenvalues    EBANDS =      -570.07381449
  atomic energy  EATOM  =     10776.63837129
  Solvation  Ediel_sol  =         0.00000000
  ---------------------------------------------------
  free energy    TOTEN  =       -34.73074399 eV

  energy without entropy =      -34.69253239  energy(sigma->0) =      -34.71800679


--------------------------------------------------------------------------------------------------------




--------------------------------------- Iteration      1(  14)  ---------------------------------------


    POTLOK:  cpu time    2.0684: real time    2.0730
    SETDIJ:  cpu time    0.0212: real time    0.0212
     EDDAV:  cpu time    5.0684: real time    5.0758
       DOS:  cpu time    0.0066: real time    0.0066
    CHARGE:  cpu time    0.4894: real time    0.4907
    MIXING:  cpu time    0.0723: real time    0.0724
    --------------------------------------------
      LOOP:  cpu time    7.7264: real time    7.7398

 eigenvalue-minimisations  :   310
 total energy-change (2. order) : 0.1357211E+00  (-0.1018645E+00)
 number of electron      99.9999478 magnetization       9.0381643
 augmentation part       62.3193467 magnetization       7.8131186

 Broyden mixing:
  rms(total) = 0.10080E+01    rms(broyden)= 0.10076E+01
  rms(prec ) = 0.10717E+01
  weight for this iteration     100.00

 eigenvalues of (default mixing * dielectric matrix)
  average eigenvalue GAMMA=   0.3860
  1.4635  0.5270  0.5270  0.4207  0.1469  0.1069  0.1069  0.1148  0.0604

 Free energy of the ion-electron system (eV)
  ---------------------------------------------------
  alpha Z        PSCENC =         4.90514146
  Ewald energy   TEWEN  =     12812.37678530
  -Hartree energ DENC   =    -22686.72588665
  -exchange      EXHF   =         0.00000000
  -V(xc)+E(xc)   XCENC  =       302.14302733
  PAW double counting   =     10523.10968180   -11200.59999273
  entropy T*S    EENTRO =        -0.07199678
  eigenvalues    EBANDS =      -566.37015394
  atomic energy  EATOM  =     10776.63837129
  Solvation  Ediel_sol  =         0.00000000
  ---------------------------------------------------
  free energy    TOTEN  =       -34.59502291 eV

  energy without entropy =      -34.52302613  energy(sigma->0) =      -34.57102398


--------------------------------------------------------------------------------------------------------




--------------------------------------- Iteration      1(  15)  ---------------------------------------


    POTLOK:  cpu time    2.0630: real time    2.0689
    SETDIJ:  cpu time    0.0223: real time    0.0223
     EDDAV:  cpu time    5.5418: real time    5.5484
       DOS:  cpu time    0.0075: real time    0.0075
    CHARGE:  cpu time    0.4871: real time    0.4884
    MIXING:  cpu time    0.0705: real time    0.0705
    --------------------------------------------
      LOOP:  cpu time    8.1922: real time    8.2061

 eigenvalue-minimisations  :   348
 total energy-change (2. order) :-0.1093939E+00  (-0.8703339E-01)
 number of electron      99.9999483 magnetization       9.0171058
 augmentation part       62.3881625 magnetization       7.8459912

 Broyden mixing:
  rms(total) = 0.94564E+00    rms(broyden)= 0.94529E+00
  rms(prec ) = 0.10051E+01
  weight for this iteration     100.00

 eigenvalues of (default mixing * dielectric matrix)
  average eigenvalue GAMMA=   0.3711
  1.4848  0.5773  0.5773  0.4454  0.1432  0.1052  0.1052  0.1104  0.1015  0.0603

 Free energy of the ion-electron system (eV)
  ---------------------------------------------------
  alpha Z        PSCENC =         4.90514146
  Ewald energy   TEWEN  =     12812.37678530
  -Hartree energ DENC   =    -22687.77075425
  -exchange      EXHF   =         0.00000000
  -V(xc)+E(xc)   XCENC  =       301.94268169
  PAW double counting   =     10539.32628623   -11216.67432100
  entropy T*S    EENTRO =        -0.06729548
  eigenvalues    EBANDS =      -565.38131208
  atomic energy  EATOM  =     10776.63837129
  Solvation  Ediel_sol  =         0.00000000
  ---------------------------------------------------
  free energy    TOTEN  =       -34.70441684 eV

  energy without entropy =      -34.63712136  energy(sigma->0) =      -34.68198501


--------------------------------------------------------------------------------------------------------




--------------------------------------- Iteration      1(  16)  ---------------------------------------


    POTLOK:  cpu time    2.0695: real time    2.0745
    SETDIJ:  cpu time    0.0210: real time    0.0210
     EDDAV:  cpu time    5.2276: real time    5.2331
       DOS:  cpu time    0.0098: real time    0.0099
    CHARGE:  cpu time    0.5049: real time    0.5084
    MIXING:  cpu time    0.0760: real time    0.0760
    --------------------------------------------
      LOOP:  cpu time    7.9088: real time    7.9230

 eigenvalue-minimisations  :   322
 total energy-change (2. order) :-0.1534612E-02  (-0.3546174E-01)
 number of electron      99.9999490 magnetization       9.0168341
 augmentation part       62.4290094 magnetization       7.8918518

 Broyden mixing:
  rms(total) = 0.77338E+00    rms(broyden)= 0.77316E+00
  rms(prec ) = 0.82665E+00
  weight for this iteration     100.00

 eigenvalues of (default mixing * dielectric matrix)
  average eigenvalue GAMMA=   0.3392
  1.4814  0.5740  0.5740  0.4415  0.1420  0.1043  0.1043  0.1118  0.0995  0.0604
  0.0382

 Free energy of the ion-electron system (eV)
  ---------------------------------------------------
  alpha Z        PSCENC =         4.90514146
  Ewald energy   TEWEN  =     12812.37678530
  -Hartree energ DENC   =    -22688.10761917
  -exchange      EXHF   =         0.00000000
  -V(xc)+E(xc)   XCENC  =       301.85475703
  PAW double counting   =     10543.85072933   -11221.06590086
  entropy T*S    EENTRO =        -0.07062515
  eigenvalues    EBANDS =      -565.08759069
  atomic energy  EATOM  =     10776.63837129
  Solvation  Ediel_sol  =         0.00000000
  ---------------------------------------------------
  free energy    TOTEN  =       -34.70595145 eV

  energy without entropy =      -34.63532630  energy(sigma->0) =      -34.68240973


--------------------------------------------------------------------------------------------------------




--------------------------------------- Iteration      1(  17)  ---------------------------------------


    POTLOK:  cpu time    2.0677: real time    2.0728
    SETDIJ:  cpu time    0.0208: real time    0.0209
     EDDAV:  cpu time    4.8430: real time    4.8492
       DOS:  cpu time    0.0093: real time    0.0093
    CHARGE:  cpu time    0.4981: real time    0.4986
    MIXING:  cpu time    0.0847: real time    0.0848
    --------------------------------------------
      LOOP:  cpu time    7.5237: real time    7.5355

 eigenvalue-minimisations  :   292
 total energy-change (2. order) :-0.3901610E-01  (-0.6714631E-02)
 number of electron      99.9999490 magnetization       9.0164239
 augmentation part       62.4423436 magnetization       7.9128835

 Broyden mixing:
  rms(total) = 0.75371E+00    rms(broyden)= 0.75369E+00
  rms(prec ) = 0.80707E+00
  weight for this iteration     100.00

 eigenvalues of (default mixing * dielectric matrix)
  average eigenvalue GAMMA=   0.3192
  1.4820  0.5766  0.5766  0.4427  0.1411  0.1042  0.1042  0.1091  0.1047  0.0603
  0.0766  0.0525

 Free energy of the ion-electron system (eV)
  ---------------------------------------------------
  alpha Z        PSCENC =         4.90514146
  Ewald energy   TEWEN  =     12812.37678530
  -Hartree energ DENC   =    -22688.17106777
  -exchange      EXHF   =         0.00000000
  -V(xc)+E(xc)   XCENC  =       301.83271128
  PAW double counting   =     10543.21105688   -11220.38815052
  entropy T*S    EENTRO =        -0.07124758
  eigenvalues    EBANDS =      -565.07856791
  atomic energy  EATOM  =     10776.63837129
  Solvation  Ediel_sol  =         0.00000000
  ---------------------------------------------------
  free energy    TOTEN  =       -34.74496755 eV

  energy without entropy =      -34.67371998  energy(sigma->0) =      -34.72121836


--------------------------------------------------------------------------------------------------------




--------------------------------------- Iteration      1(  18)  ---------------------------------------


    POTLOK:  cpu time    2.0715: real time    2.0750
    SETDIJ:  cpu time    0.0265: real time    0.0265
     EDDAV:  cpu time    5.2276: real time    5.2340
       DOS:  cpu time    0.0035: real time    0.0035
    CHARGE:  cpu time    0.5018: real time    0.5022
    MIXING:  cpu time    0.0896: real time    0.0897
    --------------------------------------------
      LOOP:  cpu time    7.9205: real time    7.9310

 eigenvalue-minimisations  :   320
 total energy-change (2. order) :-0.6126372E-02  (-0.7276601E-03)
 number of electron      99.9999490 magnetization       9.0109098
 augmentation part       62.4434664 magnetization       7.9141132

 Broyden mixing:
  rms(total) = 0.74841E+00    rms(broyden)= 0.74841E+00
  rms(prec ) = 0.80156E+00
  weight for this iteration     100.00

 eigenvalues of (default mixing * dielectric matrix)
  average eigenvalue GAMMA=   0.3107
  1.4839  0.5714  0.5714  0.4433  0.1320  0.1320  0.1431  0.1053  0.1053  0.1112
  0.1009  0.0603  0.0795

 Free energy of the ion-electron system (eV)
  ---------------------------------------------------
  alpha Z        PSCENC =         4.90514146
  Ewald energy   TEWEN  =     12812.37678530
  -Hartree energ DENC   =    -22688.22337736
  -exchange      EXHF   =         0.00000000
  -V(xc)+E(xc)   XCENC  =       301.83075046
  PAW double counting   =     10543.19093197   -11220.36989526
  entropy T*S    EENTRO =        -0.07124506
  eigenvalues    EBANDS =      -565.02855673
  atomic energy  EATOM  =     10776.63837129
  Solvation  Ediel_sol  =         0.00000000
  ---------------------------------------------------
  free energy    TOTEN  =       -34.75109392 eV

  energy without entropy =      -34.67984886  energy(sigma->0) =      -34.72734557


--------------------------------------------------------------------------------------------------------




--------------------------------------- Iteration      1(  19)  ---------------------------------------


    POTLOK:  cpu time    2.0713: real time    2.0770
    SETDIJ:  cpu time    0.0208: real time    0.0208
     EDDAV:  cpu time    5.3661: real time    5.3722
       DOS:  cpu time    0.0035: real time    0.0035
    CHARGE:  cpu time    0.5021: real time    0.5026
    MIXING:  cpu time    0.0992: real time    0.0994
    --------------------------------------------
      LOOP:  cpu time    8.0630: real time    8.0754

 eigenvalue-minimisations  :   332
 total energy-change (2. order) :-0.3548780E-01  (-0.1709397E-02)
 number of electron      99.9999490 magnetization       8.9773069
 augmentation part       62.4380335 magnetization       7.8932326

 Broyden mixing:
  rms(total) = 0.72978E+00    rms(broyden)= 0.72976E+00
  rms(prec ) = 0.78255E+00
  weight for this iteration     100.00

 eigenvalues of (default mixing * dielectric matrix)
  average eigenvalue GAMMA=   0.3453
  1.5112  0.4890  0.4890  0.5449  0.5449  0.4530  0.1457  0.1065  0.1065  0.1129
  0.1031  0.1031  0.0603  0.0648

 Free energy of the ion-electron system (eV)
  ---------------------------------------------------
  alpha Z        PSCENC =         4.90514146
  Ewald energy   TEWEN  =     12812.37678530
  -Hartree energ DENC   =    -22688.61157300
  -exchange      EXHF   =         0.00000000
  -V(xc)+E(xc)   XCENC  =       301.81419226
  PAW double counting   =     10543.41144607   -11220.66455734
  entropy T*S    EENTRO =        -0.07169056
  eigenvalues    EBANDS =      -564.58469721
  atomic energy  EATOM  =     10776.63837129
  Solvation  Ediel_sol  =         0.00000000
  ---------------------------------------------------
  free energy    TOTEN  =       -34.78658172 eV

  energy without entropy =      -34.71489116  energy(sigma->0) =      -34.76268487


--------------------------------------------------------------------------------------------------------




--------------------------------------- Iteration      1(  20)  ---------------------------------------


    POTLOK:  cpu time    2.0610: real time    2.0651
    SETDIJ:  cpu time    0.0212: real time    0.0212
     EDDAV:  cpu time    5.2266: real time    5.2352
       DOS:  cpu time    0.0038: real time    0.0038
    CHARGE:  cpu time    0.4922: real time    0.4928
    MIXING:  cpu time    0.1036: real time    0.1037
    --------------------------------------------
      LOOP:  cpu time    7.9084: real time    7.9218

 eigenvalue-minimisations  :   322
 total energy-change (2. order) :-0.1279755E+00  (-0.9085613E-02)
 number of electron      99.9999487 magnetization       8.8828902
 augmentation part       62.4177698 magnetization       7.8572525

 Broyden mixing:
  rms(total) = 0.54977E+00    rms(broyden)= 0.54969E+00
  rms(prec ) = 0.59112E+00
  weight for this iteration     100.00

 eigenvalues of (default mixing * dielectric matrix)
  average eigenvalue GAMMA=   0.4188
  1.6976  0.8411  0.8411  0.6207  0.6207  0.4336  0.4336  0.1476  0.1068  0.1068
  0.1139  0.1009  0.0956  0.0603  0.0623

 Free energy of the ion-electron system (eV)
  ---------------------------------------------------
  alpha Z        PSCENC =         4.90514146
  Ewald energy   TEWEN  =     12812.37678530
  -Hartree energ DENC   =    -22690.42729179
  -exchange      EXHF   =         0.00000000
  -V(xc)+E(xc)   XCENC  =       301.73010484
  PAW double counting   =     10544.94191855   -11222.52359719
  entropy T*S    EENTRO =        -0.06680881
  eigenvalues    EBANDS =      -562.48918092
  atomic energy  EATOM  =     10776.63837129
  Solvation  Ediel_sol  =         0.00000000
  ---------------------------------------------------
  free energy    TOTEN  =       -34.91455727 eV

  energy without entropy =      -34.84774846  energy(sigma->0) =      -34.89228767


--------------------------------------------------------------------------------------------------------




--------------------------------------- Iteration      1(  21)  ---------------------------------------


    POTLOK:  cpu time    2.0735: real time    2.0839
    SETDIJ:  cpu time    0.0208: real time    0.0209
     EDDAV:  cpu time    5.6362: real time    5.6420
       DOS:  cpu time    0.0026: real time    0.0027
    CHARGE:  cpu time    0.5324: real time    0.5329
    MIXING:  cpu time    0.1158: real time    0.1159
    --------------------------------------------
      LOOP:  cpu time    8.3813: real time    8.3982

 eigenvalue-minimisations  :   354
 total energy-change (2. order) :-0.3552279E+00  (-0.3694089E-01)
 number of electron      99.9999493 magnetization       8.8289209
 augmentation part       62.4534973 magnetization       7.8984643

 Broyden mixing:
  rms(total) = 0.61164E+00    rms(broyden)= 0.61124E+00
  rms(prec ) = 0.64787E+00
  weight for this iteration     100.00

 eigenvalues of (default mixing * dielectric matrix)
  average eigenvalue GAMMA=   0.4190
  1.9318  0.7566  0.7566  0.7069  0.7069  0.4783  0.4783  0.1473  0.1068  0.1068
  0.1166  0.0988  0.0988  0.0906  0.0603  0.0625

 Free energy of the ion-electron system (eV)
  ---------------------------------------------------
  alpha Z        PSCENC =         4.90514146
  Ewald energy   TEWEN  =     12812.37678530
  -Hartree energ DENC   =    -22692.84403358
  -exchange      EXHF   =         0.00000000
  -V(xc)+E(xc)   XCENC  =       301.45354489
  PAW double counting   =     10548.94304814   -11226.48062586
  entropy T*S    EENTRO =        -0.04837842
  eigenvalues    EBANDS =      -560.21363842
  atomic energy  EATOM  =     10776.63837129
  Solvation  Ediel_sol  =         0.00000000
  ---------------------------------------------------
  free energy    TOTEN  =       -35.26978519 eV

  energy without entropy =      -35.22140677  energy(sigma->0) =      -35.25365905


--------------------------------------------------------------------------------------------------------




--------------------------------------- Iteration      1(  22)  ---------------------------------------


    POTLOK:  cpu time    2.0454: real time    2.0503
    SETDIJ:  cpu time    0.0209: real time    0.0210
     EDDAV:  cpu time    5.1230: real time    5.1290
       DOS:  cpu time    0.0047: real time    0.0047
    CHARGE:  cpu time    0.5367: real time    0.5373
    MIXING:  cpu time    0.1154: real time    0.1155
    --------------------------------------------
      LOOP:  cpu time    7.8462: real time    7.8578

 eigenvalue-minimisations  :   316
 total energy-change (2. order) :-0.7122986E-01  (-0.2382698E-01)
 number of electron      99.9999486 magnetization       8.7755969
 augmentation part       62.4904481 magnetization       7.8975419

 Broyden mixing:
  rms(total) = 0.30614E+00    rms(broyden)= 0.30565E+00
  rms(prec ) = 0.32119E+00
  weight for this iteration     100.00

 eigenvalues of (default mixing * dielectric matrix)
  average eigenvalue GAMMA=   0.4308
  2.0121  0.7798  0.7798  0.6990  0.6990  0.4984  0.4984  0.4729  0.1474  0.1068
  0.1068  0.1162  0.0989  0.0989  0.0872  0.0603  0.0623

 Free energy of the ion-electron system (eV)
  ---------------------------------------------------
  alpha Z        PSCENC =         4.90514146
  Ewald energy   TEWEN  =     12812.37678530
  -Hartree energ DENC   =    -22693.89926814
  -exchange      EXHF   =         0.00000000
  -V(xc)+E(xc)   XCENC  =       301.32411176
  PAW double counting   =     10552.38362210   -11229.78171882
  entropy T*S    EENTRO =        -0.04197276
  eigenvalues    EBANDS =      -559.24608723
  atomic energy  EATOM  =     10776.63837129
  Solvation  Ediel_sol  =         0.00000000
  ---------------------------------------------------
  free energy    TOTEN  =       -35.34101505 eV

  energy without entropy =      -35.29904229  energy(sigma->0) =      -35.32702413


--------------------------------------------------------------------------------------------------------




--------------------------------------- Iteration      1(  23)  ---------------------------------------


    POTLOK:  cpu time    2.0553: real time    2.0597
    SETDIJ:  cpu time    0.0211: real time    0.0211
     EDDAV:  cpu time    4.8742: real time    4.8793
       DOS:  cpu time    0.0045: real time    0.0045
    CHARGE:  cpu time    0.5339: real time    0.5344
    MIXING:  cpu time    0.1283: real time    0.1284
    --------------------------------------------
      LOOP:  cpu time    7.6172: real time    7.6274

 eigenvalue-minimisations  :   296
 total energy-change (2. order) :-0.8851999E-01  (-0.5838039E-02)
 number of electron      99.9999485 magnetization       8.6956803
 augmentation part       62.5372634 magnetization       7.8056320

 Broyden mixing:
  rms(total) = 0.31828E+00    rms(broyden)= 0.31821E+00
  rms(prec ) = 0.33920E+00
  weight for this iteration     100.00

 eigenvalues of (default mixing * dielectric matrix)
  average eigenvalue GAMMA=   0.4551
  2.1406  0.7451  0.7451  0.7763  0.7763  0.5803  0.5803  0.4807  0.4807  0.1474
  0.1068  0.1068  0.1165  0.0991  0.0991  0.0877  0.0603  0.0623

 Free energy of the ion-electron system (eV)
  ---------------------------------------------------
  alpha Z        PSCENC =         4.90514146
  Ewald energy   TEWEN  =     12812.37678530
  -Hartree energ DENC   =    -22694.77623336
  -exchange      EXHF   =         0.00000000
  -V(xc)+E(xc)   XCENC  =       301.20955663
  PAW double counting   =     10560.20346575   -11237.41294964
  entropy T*S    EENTRO =        -0.03672559
  eigenvalues    EBANDS =      -558.53694688
  atomic energy  EATOM  =     10776.63837129
  Solvation  Ediel_sol  =         0.00000000
  ---------------------------------------------------
  free energy    TOTEN  =       -35.42953504 eV

  energy without entropy =      -35.39280944  energy(sigma->0) =      -35.41729317


--------------------------------------------------------------------------------------------------------




--------------------------------------- Iteration      1(  24)  ---------------------------------------


    POTLOK:  cpu time    2.0537: real time    2.0577
    SETDIJ:  cpu time    0.0211: real time    0.0211
     EDDAV:  cpu time    5.3071: real time    5.3135
       DOS:  cpu time    0.0048: real time    0.0048
    CHARGE:  cpu time    0.5275: real time    0.5280
    MIXING:  cpu time    0.1375: real time    0.1376
    --------------------------------------------
      LOOP:  cpu time    8.0517: real time    8.0627

 eigenvalue-minimisations  :   332
 total energy-change (2. order) :-0.7642752E-01  (-0.1727122E-02)
 number of electron      99.9999487 magnetization       8.5346760
 augmentation part       62.5322813 magnetization       7.6557105

 Broyden mixing:
  rms(total) = 0.17901E+00    rms(broyden)= 0.17894E+00
  rms(prec ) = 0.19104E+00
  weight for this iteration     100.00

 eigenvalues of (default mixing * dielectric matrix)
  average eigenvalue GAMMA=   0.5200
  2.5021  1.2776  0.8183  0.8183  0.6551  0.6551  0.5893  0.5893  0.5439  0.5439
  0.1474  0.1068  0.1068  0.1165  0.0992  0.0992  0.0878  0.0603  0.0623

 Free energy of the ion-electron system (eV)
  ---------------------------------------------------
  alpha Z        PSCENC =         4.90514146
  Ewald energy   TEWEN  =     12812.37678530
  -Hartree energ DENC   =    -22697.10890451
  -exchange      EXHF   =         0.00000000
  -V(xc)+E(xc)   XCENC  =       301.14605132
  PAW double counting   =     10567.73388397   -11245.07720866
  entropy T*S    EENTRO =        -0.04023842
  eigenvalues    EBANDS =      -556.07984430
  atomic energy  EATOM  =     10776.63837129
  Solvation  Ediel_sol  =         0.00000000
  ---------------------------------------------------
  free energy    TOTEN  =       -35.50596256 eV

  energy without entropy =      -35.46572414  energy(sigma->0) =      -35.49254975


--------------------------------------------------------------------------------------------------------




--------------------------------------- Iteration      1(  25)  ---------------------------------------


    POTLOK:  cpu time    2.0515: real time    2.0613
    SETDIJ:  cpu time    0.0209: real time    0.0209
     EDDAV:  cpu time    5.9039: real time    5.9102
       DOS:  cpu time    0.0030: real time    0.0030
    CHARGE:  cpu time    0.5306: real time    0.5312
    MIXING:  cpu time    0.1558: real time    0.1559
    --------------------------------------------
      LOOP:  cpu time    8.6657: real time    8.6826

 eigenvalue-minimisations  :   378
 total energy-change (2. order) :-0.2368210E+00  (-0.5378257E-02)
 number of electron      99.9999486 magnetization       8.5010576
 augmentation part       62.5283641 magnetization       7.6566799

 Broyden mixing:
  rms(total) = 0.12298E+00    rms(broyden)= 0.12278E+00
  rms(prec ) = 0.13029E+00
  weight for this iteration     100.00

 eigenvalues of (default mixing * dielectric matrix)
  average eigenvalue GAMMA=   0.5265
  2.4806  1.2060  0.8093  0.8093  0.6602  0.6602  0.7026  0.7026  0.5592  0.5271
  0.5271  0.1474  0.1068  0.1068  0.1165  0.0992  0.0992  0.0878  0.0603  0.0623

 Free energy of the ion-electron system (eV)
  ---------------------------------------------------
  alpha Z        PSCENC =         4.90514146
  Ewald energy   TEWEN  =     12812.37678530
  -Hartree energ DENC   =    -22701.00054295
  -exchange      EXHF   =         0.00000000
  -V(xc)+E(xc)   XCENC  =       300.97295069
  PAW double counting   =     10569.47187493   -11246.78125877
  entropy T*S    EENTRO =        -0.05631836
  eigenvalues    EBANDS =      -552.26978712
  atomic energy  EATOM  =     10776.63837129
  Solvation  Ediel_sol  =         0.00000000
  ---------------------------------------------------
  free energy    TOTEN  =       -35.74278353 eV

  energy without entropy =      -35.68646517  energy(sigma->0) =      -35.72401074


--------------------------------------------------------------------------------------------------------




--------------------------------------- Iteration      1(  26)  ---------------------------------------


    POTLOK:  cpu time    2.0555: real time    2.0603
    SETDIJ:  cpu time    0.0212: real time    0.0212
     EDDAV:  cpu time    5.0243: real time    5.0295
       DOS:  cpu time    0.0018: real time    0.0019
    CHARGE:  cpu time    0.5289: real time    0.5302
    MIXING:  cpu time    0.1575: real time    0.1577
    --------------------------------------------
      LOOP:  cpu time    7.7892: real time    7.8007

 eigenvalue-minimisations  :   306
 total energy-change (2. order) :-0.9010713E-01  (-0.1530007E-02)
 number of electron      99.9999487 magnetization       8.4461544
 augmentation part       62.5378077 magnetization       7.6063925

 Broyden mixing:
  rms(total) = 0.60908E-01    rms(broyden)= 0.60854E-01
  rms(prec ) = 0.65407E-01
  weight for this iteration     100.00

 eigenvalues of (default mixing * dielectric matrix)
  average eigenvalue GAMMA=   0.5529
  2.5656  1.3064  0.8119  0.8119  0.8079  0.8079  0.6849  0.6849  0.6217  0.6217
  0.5004  0.5004  0.1474  0.1068  0.1068  0.1165  0.0992  0.0992  0.0878  0.0603
  0.0623

 Free energy of the ion-electron system (eV)
  ---------------------------------------------------
  alpha Z        PSCENC =         4.90514146
  Ewald energy   TEWEN  =     12812.37678530
  -Hartree energ DENC   =    -22701.38048680
  -exchange      EXHF   =         0.00000000
  -V(xc)+E(xc)   XCENC  =       300.87540123
  PAW double counting   =     10566.10302985   -11243.33544493
  entropy T*S    EENTRO =        -0.05348038
  eigenvalues    EBANDS =      -551.96220769
  atomic energy  EATOM  =     10776.63837129
  Solvation  Ediel_sol  =         0.00000000
  ---------------------------------------------------
  free energy    TOTEN  =       -35.83289066 eV

  energy without entropy =      -35.77941028  energy(sigma->0) =      -35.81506387


--------------------------------------------------------------------------------------------------------




--------------------------------------- Iteration      1(  27)  ---------------------------------------


    POTLOK:  cpu time    2.0533: real time    2.0611
    SETDIJ:  cpu time    0.0211: real time    0.0224
     EDDAV:  cpu time    5.1139: real time    5.1192
       DOS:  cpu time    0.0058: real time    0.0058
    CHARGE:  cpu time    0.5256: real time    0.5261
    MIXING:  cpu time    0.1666: real time    0.1667
    --------------------------------------------
      LOOP:  cpu time    7.8863: real time    7.9014

 eigenvalue-minimisations  :   314
 total energy-change (2. order) :-0.1074127E+00  (-0.8022542E-03)
 number of electron      99.9999486 magnetization       8.3603640
 augmentation part       62.5289313 magnetization       7.5420002

 Broyden mixing:
  rms(total) = 0.35584E-01    rms(broyden)= 0.35536E-01
  rms(prec ) = 0.38326E-01
  weight for this iteration     100.00

 eigenvalues of (default mixing * dielectric matrix)
  average eigenvalue GAMMA=   0.5960
  2.9460  1.5771  0.8077  0.8077  0.9496  0.9496  0.6409  0.6409  0.6252  0.6252
  0.6337  0.5113  0.5113  0.1474  0.1068  0.1068  0.1165  0.0992  0.0992  0.0878
  0.0603  0.0623

 Free energy of the ion-electron system (eV)
  ---------------------------------------------------
  alpha Z        PSCENC =         4.90514146
  Ewald energy   TEWEN  =     12812.37678530
  -Hartree energ DENC   =    -22702.53474457
  -exchange      EXHF   =         0.00000000
  -V(xc)+E(xc)   XCENC  =       300.79683830
  PAW double counting   =     10562.48481269   -11239.73806790
  entropy T*S    EENTRO =        -0.04900006
  eigenvalues    EBANDS =      -550.82043987
  atomic energy  EATOM  =     10776.63837129
  Solvation  Ediel_sol  =         0.00000000
  ---------------------------------------------------
  free energy    TOTEN  =       -35.94030335 eV

  energy without entropy =      -35.89130329  energy(sigma->0) =      -35.92396999


--------------------------------------------------------------------------------------------------------




--------------------------------------- Iteration      1(  28)  ---------------------------------------


    POTLOK:  cpu time    2.0625: real time    2.0662
    SETDIJ:  cpu time    0.0207: real time    0.0207
     EDDAV:  cpu time    4.9128: real time    4.9195
       DOS:  cpu time    0.0033: real time    0.0033
    CHARGE:  cpu time    0.5507: real time    0.5512
    MIXING:  cpu time    0.1773: real time    0.1775
    --------------------------------------------
      LOOP:  cpu time    7.7274: real time    7.7386

 eigenvalue-minimisations  :   298
 total energy-change (2. order) :-0.1302534E+00  (-0.8179604E-03)
 number of electron      99.9999486 magnetization       8.2796648
 augmentation part       62.5191481 magnetization       7.4855185

 Broyden mixing:
  rms(total) = 0.35541E-01    rms(broyden)= 0.35495E-01
  rms(prec ) = 0.37947E-01
  weight for this iteration     100.00

 eigenvalues of (default mixing * dielectric matrix)
  average eigenvalue GAMMA=   0.6297
  3.2438  1.6652  0.8083  0.8083  0.9623  0.9623  0.6534  0.6534  0.7570  0.7570
  0.6240  0.6240  0.5386  0.5386  0.1474  0.1068  0.1068  0.1165  0.0992  0.0992
  0.0878  0.0603  0.0623

 Free energy of the ion-electron system (eV)
  ---------------------------------------------------
  alpha Z        PSCENC =         4.90514146
  Ewald energy   TEWEN  =     12812.37678530
  -Hartree energ DENC   =    -22703.93162368
  -exchange      EXHF   =         0.00000000
  -V(xc)+E(xc)   XCENC  =       300.69500848
  PAW double counting   =     10558.58812816   -11235.89350747
  entropy T*S    EENTRO =        -0.04747921
  eigenvalues    EBANDS =      -549.40138107
  atomic energy  EATOM  =     10776.63837129
  Solvation  Ediel_sol  =         0.00000000
  ---------------------------------------------------
  free energy    TOTEN  =       -36.07055674 eV

  energy without entropy =      -36.02307753  energy(sigma->0) =      -36.05473034


--------------------------------------------------------------------------------------------------------




--------------------------------------- Iteration      1(  29)  ---------------------------------------


    POTLOK:  cpu time    2.0494: real time    2.0553
    SETDIJ:  cpu time    0.0209: real time    0.0209
     EDDAV:  cpu time    4.9129: real time    4.9180
       DOS:  cpu time    0.0034: real time    0.0034
    CHARGE:  cpu time    0.5309: real time    0.5315
    MIXING:  cpu time    0.1837: real time    0.1839
    --------------------------------------------
      LOOP:  cpu time    7.7011: real time    7.7129

 eigenvalue-minimisations  :   298
 total energy-change (2. order) :-0.1060164E+00  (-0.6271987E-03)
 number of electron      99.9999487 magnetization       8.2157508
 augmentation part       62.5163033 magnetization       7.4364360

 Broyden mixing:
  rms(total) = 0.37377E-01    rms(broyden)= 0.37331E-01
  rms(prec ) = 0.39663E-01
  weight for this iteration     100.00

 eigenvalues of (default mixing * dielectric matrix)
  average eigenvalue GAMMA=   0.6665
  3.7918  1.8097  0.8079  0.8079  1.0118  1.0118  0.8370  0.8370  0.6588  0.6588
  0.6100  0.6100  0.5793  0.5394  0.5394  0.1474  0.1068  0.1068  0.1165  0.0992
  0.0992  0.0878  0.0603  0.0623

 Free energy of the ion-electron system (eV)
  ---------------------------------------------------
  alpha Z        PSCENC =         4.90514146
  Ewald energy   TEWEN  =     12812.37678530
  -Hartree energ DENC   =    -22704.76760760
  -exchange      EXHF   =         0.00000000
  -V(xc)+E(xc)   XCENC  =       300.59571953
  PAW double counting   =     10554.72624170   -11232.06870516
  entropy T*S    EENTRO =        -0.04583520
  eigenvalues    EBANDS =      -548.53668442
  atomic energy  EATOM  =     10776.63837129
  Solvation  Ediel_sol  =         0.00000000
  ---------------------------------------------------
  free energy    TOTEN  =       -36.17657309 eV

  energy without entropy =      -36.13073789  energy(sigma->0) =      -36.16129469


--------------------------------------------------------------------------------------------------------




--------------------------------------- Iteration      1(  30)  ---------------------------------------


    POTLOK:  cpu time    2.0507: real time    2.0563
    SETDIJ:  cpu time    0.0207: real time    0.0208
     EDDAV:  cpu time    4.8925: real time    4.8991
       DOS:  cpu time    0.0034: real time    0.0034
    CHARGE:  cpu time    0.5278: real time    0.5283
    MIXING:  cpu time    0.1950: real time    0.1953
    --------------------------------------------
      LOOP:  cpu time    7.6903: real time    7.7032

 eigenvalue-minimisations  :   298
 total energy-change (2. order) :-0.7814361E-01  (-0.4874155E-03)
 number of electron      99.9999486 magnetization       8.1666442
 augmentation part       62.5139141 magnetization       7.4072058

 Broyden mixing:
  rms(total) = 0.29835E-01    rms(broyden)= 0.29808E-01
  rms(prec ) = 0.31777E-01
  weight for this iteration     100.00

 eigenvalues of (default mixing * dielectric matrix)
  average eigenvalue GAMMA=   0.7059
  4.0690  1.7764  1.7764  0.8070  0.8070  0.9497  0.9497  0.6609  0.6609  0.7092
  0.7092  0.6687  0.5587  0.5587  0.5500  0.5500  0.1474  0.1068  0.1068  0.1165
  0.0992  0.0992  0.0878  0.0603  0.0623

 Free energy of the ion-electron system (eV)
  ---------------------------------------------------
  alpha Z        PSCENC =         4.90514146
  Ewald energy   TEWEN  =     12812.37678530
  -Hartree energ DENC   =    -22705.29641146
  -exchange      EXHF   =         0.00000000
  -V(xc)+E(xc)   XCENC  =       300.53393398
  PAW double counting   =     10550.27336863   -11227.64909475
  entropy T*S    EENTRO =        -0.04636893
  eigenvalues    EBANDS =      -547.99044223
  atomic energy  EATOM  =     10776.63837129
  Solvation  Ediel_sol  =         0.00000000
  ---------------------------------------------------
  free energy    TOTEN  =       -36.25471670 eV

  energy without entropy =      -36.20834777  energy(sigma->0) =      -36.23926039


--------------------------------------------------------------------------------------------------------




--------------------------------------- Iteration      1(  31)  ---------------------------------------


    POTLOK:  cpu time    2.0635: real time    2.0695
    SETDIJ:  cpu time    0.0217: real time    0.0217
     EDDAV:  cpu time    5.1814: real time    5.1877
       DOS:  cpu time    0.0065: real time    0.0065
    CHARGE:  cpu time    0.5382: real time    0.5387
    MIXING:  cpu time    0.2164: real time    0.2167
    --------------------------------------------
      LOOP:  cpu time    8.0276: real time    8.0408

 eigenvalue-minimisations  :   316
 total energy-change (2. order) :-0.5716107E-01  (-0.2784163E-03)
 number of electron      99.9999486 magnetization       8.1215232
 augmentation part       62.5124868 magnetization       7.3746706

 Broyden mixing:
  rms(total) = 0.13804E-01    rms(broyden)= 0.13784E-01
  rms(prec ) = 0.14785E-01
  weight for this iteration     100.00

 eigenvalues of (default mixing * dielectric matrix)
  average eigenvalue GAMMA=   0.7449
  4.2369  2.3729  1.8333  0.8069  0.8069  1.0013  1.0013  0.8312  0.8312  0.6610
[...]
 total energy-change (2. order) :-0.2350621E-04  (-0.1407477E-04)
 number of electron     100.0000121 magnetization       8.0001364
 augmentation part       62.3481866 magnetization       7.2760743

 Free energy of the ion-electron system (eV)
  ---------------------------------------------------
  alpha Z        PSCENC =         4.90514146
  Ewald energy   TEWEN  =     13584.77903396
  -Hartree energ DENC   =    -23456.76873569
  -exchange      EXHF   =         0.00000000
  -V(xc)+E(xc)   XCENC  =       301.62742553
  PAW double counting   =     10840.92659695   -11522.09934878
  entropy T*S    EENTRO =        -0.02564287
  eigenvalues    EBANDS =      -566.79513804
  atomic energy  EATOM  =     10776.63837129
  Solvation  Ediel_sol  =         0.00000000
  ---------------------------------------------------
  free energy    TOTEN  =       -36.81229619 eV

  energy without entropy =      -36.78665332  energy(sigma->0) =      -36.80374857


--------------------------------------------------------------------------------------------------------




 average (electrostatic) potential at core
  the test charge radii are     0.9791
  (the norm of the test charge is              1.0000)
       1 -94.8751       2 -94.9900       3 -94.9920       4 -95.1498       5 -95.1525
       6 -94.9957       7 -94.8742       8 -94.8752       9 -95.1491      10 -94.5865
 
 
 
 E-fermi :  -3.8963     XC(G=0):  -0.3277     alpha+bet : -0.1723


 spin component 1

 k-point     1 :       0.0000    0.0000    0.0000
  band No.  band energies     occupation 
      1      -9.8927      1.00000
      2      -8.0706      1.00000
      3      -7.9079      1.00000
      4      -7.9067      1.00000
      5      -7.4038      1.00000
      6      -7.3669      1.00000
      7      -7.3284      1.00000
      8      -7.3278      1.00000
      9      -7.1277      1.00000
     10      -7.0484      1.00000
     11      -7.0368      1.00000
     12      -7.0360      1.00000
     13      -6.8916      1.00000
     14      -6.8896      1.00000
     15      -6.8451      1.00000
     16      -6.3748      1.00000
     17      -6.3679      1.00000
     18      -6.1687      1.00000
     19      -6.1653      1.00000
     20      -6.1581      1.00000
     21      -6.0360      1.00000
     22      -6.0324      1.00000
     23      -5.9345      1.00000
     24      -5.9024      1.00000
     25      -5.9004      1.00000
     26      -5.6019      1.00000
     27      -5.5995      1.00000
     28      -5.4593      1.00000
     29      -5.3949      1.00000
     30      -5.3632      1.00000
     31      -5.3624      1.00000
     32      -5.3169      1.00000
     33      -5.3159      1.00000
     34      -5.1102      1.00000
     35      -5.1090      1.00000
     36      -5.0847      1.00000
     37      -5.0594      1.00000
     38      -4.9768      1.00000
     39      -4.9317      1.00000
     40      -4.9308      1.00000
     41      -4.9307      1.00000
     42      -4.8867      1.00000
     43      -4.8858      1.00000
     44      -4.7977      1.00000
     45      -4.7659      1.00000
     46      -4.7656      1.00000
     47      -4.7489      1.00000
     48      -4.7487      1.00000
     49      -4.6096      1.00000
     50      -4.5934      1.00000
     51      -4.5932      1.00000
     52      -4.5894      1.00001
     53      -4.5716      1.00001
     54      -4.5699      1.00001
     55      -3.1805     -0.00000
     56      -2.8350     -0.00000
     57      -2.8330     -0.00000
     58      -2.6637     -0.00000
     59      -2.5825     -0.00000
     60      -2.5818     -0.00000
     61      -0.9485     -0.00000
     62      -0.5823     -0.00000
     63      -0.5806     -0.00000
     64      -0.2111     -0.00000
     65      -0.2094     -0.00000
     66      -0.2025     -0.00000

 spin component 2

 k-point     1 :       0.0000    0.0000    0.0000
  band No.  band energies     occupation 
      1      -9.8986      1.00000
      2      -7.8188      1.00000
      3      -7.6299      1.00000
      4      -7.6283      1.00000
      5      -6.9321      1.00000
      6      -6.6999      1.00000
      7      -6.6708      1.00000
      8      -6.6695      1.00000
      9      -6.3464      1.00000
     10      -6.3444      1.00000
     11      -6.2966      1.00000
     12      -6.2647      1.00000
     13      -6.1699      1.00000
     14      -6.1695      1.00000
     15      -6.0382      1.00000
     16      -5.6745      1.00000
     17      -5.6729      1.00000
     18      -5.4994      1.00000
     19      -5.4568      1.00000
     20      -5.4540      1.00000
     21      -5.2378      1.00000
     22      -5.2338      1.00000
     23      -5.1148      1.00000
     24      -5.0993      1.00000
     25      -5.0952      1.00000
     26      -4.9797      1.00000
     27      -4.8912      1.00000
     28      -4.8881      1.00000
     29      -4.8374      1.00000
     30      -4.6107      1.00000
     31      -4.6100      1.00000
     32      -4.5182      1.00005
     33      -4.5158      1.00005
     34      -4.4335      1.00048
     35      -4.3785      1.00171
     36      -4.3760      1.00180
     37      -4.2581      1.01408
     38      -4.1813      1.03083
     39      -4.1807      1.03093
     40      -4.1550      1.03479
     41      -4.0886      1.02065
     42      -4.0868      1.01946
     43      -4.0860      1.01890
     44      -3.9635      0.76752
     45      -3.9324      0.64994
     46      -3.9316      0.64698
     47      -3.8527      0.32040
     48      -3.8515      0.31565
     49      -3.8156      0.18728
     50      -3.7358      0.00933
     51      -3.7346      0.00785
     52      -3.6366     -0.03470
     53      -3.5725     -0.02219
     54      -3.5710     -0.02184
     55      -2.9174     -0.00000
     56      -2.5930     -0.00000
     57      -2.5913     -0.00000
     58      -2.4542     -0.00000
     59      -2.3872     -0.00000
     60      -2.3862     -0.00000
     61      -0.8794     -0.00000
     62      -0.4772     -0.00000
     63      -0.4753     -0.00000
     64      -0.1903     -0.00000
     65      -0.1884     -0.00000
     66      -0.0682     -0.00000


--------------------------------------------------------------------------------------------------------


 soft charge-density along one line, spin component            1
         0         1         2         3         4         5         6         7         8         9
 total charge-density along one line
 
 soft charge-density along one line, spin component            2
         0         1         2         3         4         5         6         7         8         9
 total charge-density along one line
 
 pseudopotential strength for first ion, spin component:            1
 -9.717   0.025  -0.026  -0.042  -0.051 -10.013   0.024  -0.025
  0.025  -9.897   0.049  -0.063   0.029   0.024 -10.186   0.047
 -0.026   0.049  -9.771  -0.032   0.002  -0.025   0.047 -10.065
 -0.042  -0.063  -0.032  -9.840   0.049  -0.040  -0.060  -0.031
 -0.051   0.029   0.002   0.049  -9.778  -0.049   0.028   0.002
-10.013   0.024  -0.025  -0.040  -0.049 -10.254   0.023  -0.024
  0.024 -10.186   0.047  -0.060   0.028   0.023 -10.420   0.045
 -0.025   0.047 -10.065  -0.031   0.002  -0.024   0.045 -10.305
 -0.040  -0.060  -0.031 -10.132   0.047  -0.039  -0.058  -0.029
 -0.049   0.028   0.002   0.047 -10.072  -0.047   0.026   0.002
  0.004   0.004   0.007  -0.005  -0.003   0.004   0.004   0.008
  0.007   0.006   0.012  -0.008  -0.005   0.006   0.006   0.013
  0.001  -0.005  -0.001   0.001   0.001   0.001  -0.005  -0.001
  0.001  -0.004  -0.012   0.004  -0.000   0.001  -0.004  -0.012
 -0.001   0.001   0.001  -0.005   0.001  -0.001   0.001   0.001
 -0.001   0.001  -0.003   0.001  -0.001  -0.001   0.001  -0.003
  0.001  -0.003  -0.007   0.003  -0.000   0.001  -0.003  -0.007
  0.000   0.001   0.003   0.001  -0.001   0.000   0.001   0.003
 pseudopotential strength for first ion, spin component:            2
 -9.116   0.019   0.026  -0.003   0.026  -9.442   0.018   0.025
  0.019  -9.099  -0.030   0.013   0.007   0.018  -9.425  -0.029
  0.026  -0.030  -9.160   0.025  -0.014   0.025  -0.029  -9.484
 -0.003   0.013   0.025  -9.101   0.008  -0.003   0.012   0.024
  0.026   0.007  -0.014   0.008  -9.085   0.025   0.007  -0.013
 -9.442   0.018   0.025  -0.003   0.025  -9.710   0.017   0.024
  0.018  -9.425  -0.029   0.012   0.007   0.017  -9.694  -0.028
  0.025  -0.029  -9.484   0.024  -0.013   0.024  -0.028  -9.751
 -0.003   0.012   0.024  -9.427   0.007  -0.003   0.012   0.024
  0.025   0.007  -0.013   0.007  -9.412   0.024   0.007  -0.013
  0.002   0.002   0.002  -0.003  -0.001   0.002   0.002   0.002
  0.003   0.004   0.003  -0.006  -0.002   0.003   0.004   0.004
  0.004  -0.018   0.002   0.000   0.005   0.004  -0.017   0.002
  0.000  -0.005  -0.021   0.005  -0.000   0.000  -0.004  -0.020
 -0.004   0.000  -0.002  -0.018   0.004  -0.004   0.000  -0.002
  0.004  -0.017   0.002   0.000   0.004   0.004  -0.016   0.002
  0.000  -0.004  -0.020   0.004  -0.000   0.000  -0.004  -0.019
 -0.003   0.000  -0.002  -0.017   0.004  -0.003   0.000  -0.002
 total augmentation occupancy for first ion, spin component:            1
  2.304  -0.059  -0.071  -0.029  -0.184  -0.497   0.093  -0.017  -0.052   0.074   0.040  -0.006   0.025   0.003  -0.026   0.007
 -0.059   2.375   0.176  -0.152  -0.088   0.093  -0.820  -0.043   0.042   0.120  -0.131   0.034  -0.143  -0.051   0.012  -0.018
 -0.071   0.176   2.777  -0.144   0.035  -0.017  -0.043  -0.946   0.033  -0.010  -0.252   0.076   0.011  -0.204  -0.015   0.004
 -0.029  -0.152  -0.144   2.496   0.011  -0.053   0.042   0.032  -0.863   0.074   0.148  -0.036   0.014   0.052  -0.154  -0.001
 -0.184  -0.088   0.035   0.011   2.098   0.074   0.120  -0.010   0.075  -0.419  -0.003  -0.001   0.030   0.002   0.023   0.006
 -0.497   0.093  -0.017  -0.053   0.074   0.517  -0.118   0.066   0.106  -0.005  -0.029   0.006  -0.066   0.009   0.063   0.007
  0.093  -0.820  -0.043   0.042   0.120  -0.118   0.970  -0.030   0.007  -0.134   0.121  -0.030   0.270   0.048   0.003  -0.026
 -0.017  -0.043  -0.946   0.032  -0.010   0.066  -0.030   0.959   0.034  -0.003   0.232  -0.068  -0.052   0.274   0.057   0.004
 -0.052   0.042   0.033  -0.863   0.075   0.106   0.007   0.034   0.981  -0.127  -0.137   0.032   0.001  -0.051   0.274   0.000
  0.074   0.120  -0.010   0.074  -0.419  -0.005  -0.134  -0.003  -0.127   0.517  -0.001   0.001  -0.068  -0.003  -0.067   0.007
  0.040  -0.131  -0.252   0.148  -0.003  -0.029   0.121   0.232  -0.137  -0.001   1.931  -0.176   0.096   0.363  -0.105  -0.015
 -0.006   0.034   0.076  -0.036  -0.001   0.006  -0.030  -0.068   0.032   0.001  -0.176   0.024  -0.012  -0.051   0.013   0.002
  0.025  -0.143   0.011   0.014   0.030  -0.066   0.270  -0.052   0.001  -0.068   0.096  -0.012   0.109   0.008  -0.004  -0.012
  0.003  -0.051  -0.204   0.052   0.002   0.009   0.048   0.274  -0.051  -0.003   0.363  -0.051   0.008   0.143  -0.009  -0.002
 -0.026   0.012  -0.015  -0.154   0.023   0.063   0.003   0.057   0.274  -0.067  -0.105   0.013  -0.004  -0.009   0.111   0.001
  0.007  -0.018   0.004  -0.001   0.006   0.007  -0.026   0.004   0.000   0.007  -0.015   0.002  -0.012  -0.002   0.001   0.002
 -0.000  -0.005  -0.019   0.006   0.000  -0.000  -0.006  -0.028   0.006   0.000  -0.059   0.007  -0.002  -0.020   0.002   0.000
 -0.006  -0.001  -0.005  -0.017   0.008  -0.006   0.000  -0.004  -0.026   0.007   0.017  -0.002   0.001   0.002  -0.012  -0.000
 total augmentation occupancy for first ion, spin component:            2
  0.556  -0.009   0.110   0.097   0.227  -0.234  -0.000  -0.042  -0.040  -0.109   0.005   0.002   0.008  -0.004  -0.003   0.004
 -0.009   0.975  -0.183   0.147  -0.025   0.002  -0.391   0.075  -0.051   0.002   0.004   0.002  -0.035   0.007  -0.003  -0.014
  0.110  -0.183   0.558   0.145  -0.034  -0.043   0.075  -0.225  -0.063   0.014   0.023   0.007   0.014  -0.007  -0.014   0.004
  0.097   0.147   0.145   0.868  -0.092  -0.042  -0.051  -0.063  -0.356   0.036  -0.001  -0.001  -0.003  -0.007  -0.036  -0.001
  0.227  -0.025  -0.034  -0.092   0.825  -0.110   0.001   0.014   0.034  -0.362  -0.003  -0.001   0.014  -0.000   0.009   0.004
 -0.234   0.002  -0.043  -0.042  -0.110   0.020   0.003   0.011   0.014   0.048  -0.004  -0.001   0.001  -0.001  -0.004  -0.002
 -0.000  -0.391   0.075  -0.051   0.001   0.003   0.062  -0.024   0.010   0.007   0.001   0.001  -0.006  -0.003  -0.002   0.007
 -0.042   0.075  -0.225  -0.063   0.014   0.011  -0.024   0.013   0.022  -0.004  -0.006   0.000   0.000  -0.010   0.000  -0.002
 -0.040  -0.051  -0.063  -0.356   0.034   0.014   0.010   0.022   0.057  -0.009  -0.003  -0.001  -0.002   0.004  -0.003   0.001
 -0.109   0.002   0.014   0.036  -0.362   0.048   0.007  -0.004  -0.009   0.075   0.002   0.000  -0.001   0.001   0.002  -0.002
  0.005   0.004   0.023  -0.001  -0.003  -0.004   0.001  -0.006  -0.003   0.002  -0.124   0.040  -0.005  -0.025   0.004   0.001
  0.002   0.002   0.007  -0.001  -0.001  -0.001   0.001   0.000  -0.001   0.000   0.040  -0.005   0.002   0.007  -0.002  -0.000
  0.008  -0.035   0.014  -0.003   0.014   0.001  -0.006   0.000  -0.002  -0.001  -0.005   0.002  -0.007  -0.000  -0.001   0.001
 -0.004   0.007  -0.007  -0.007  -0.000  -0.001  -0.003  -0.010   0.004   0.001  -0.025   0.007  -0.000  -0.008   0.000   0.000
 -0.003  -0.003  -0.014  -0.036   0.009  -0.004  -0.002   0.000  -0.003   0.002   0.004  -0.002  -0.001   0.000  -0.006   0.000
  0.004  -0.014   0.004  -0.001   0.004  -0.002   0.007  -0.002   0.001  -0.002   0.001  -0.000   0.001   0.000   0.000   0.000
 -0.001  -0.001  -0.009   0.001   0.000   0.001   0.001   0.006  -0.001  -0.000   0.003  -0.001   0.000   0.001  -0.000  -0.000
 -0.003  -0.001  -0.004  -0.013   0.004   0.002   0.001   0.002   0.007  -0.002  -0.001   0.000   0.000  -0.000   0.001   0.000


------------------------ aborting loop because EDIFF is reached ----------------------------------------


    CHARGE:  cpu time    0.5507: real time    0.5513
    FORLOC:  cpu time    0.0579: real time    0.0580
    FORNL :  cpu time    2.3639: real time    2.3661
    FORCOR:  cpu time    2.0044: real time    2.0065
    FORHAR:  cpu time    0.2610: real time    0.2621
    MIXING:  cpu time    0.0443: real time    0.0443
    OFIELD:  cpu time    0.0000: real time    0.0000

 VOLUME and BASIS-vectors are now :
 -----------------------------------------------------------------------------
  energy-cutoff  :      400.00
  volume of cell :    10397.13
      direct lattice vectors                 reciprocal lattice vectors
    21.901981960  0.000000000  0.000000000     0.045657968  0.000000000  0.000000000
     0.000000000 21.713466810  0.000000000     0.000000000  0.046054368  0.000000000
     0.000000000  0.000000000 21.862556905     0.000000000  0.000000000  0.045740304

  length of vectors
    21.901981960 21.713466810 21.862556905     0.045657968  0.046054368  0.045740304


 FORCES acting on ions
    electron-ion (+dipol)            ewald-force                    non-local-force                 convergence-correction
 -----------------------------------------------------------------------------------------------
   -.217E+03 0.229E+03 0.109E+04   0.214E+03 -.227E+03 -.108E+04   0.253E+01 -.219E+01 -.746E+01   -.321E-01 0.108E+00 -.535E-01
   0.235E+03 -.850E+03 0.682E+03   -.234E+03 0.846E+03 -.679E+03   -.124E+01 0.365E+01 -.292E+01   0.828E-02 0.132E-01 -.450E-01
   0.909E+03 0.296E+03 0.575E+03   -.905E+03 -.296E+03 -.572E+03   -.401E+01 -.107E+01 -.248E+01   -.489E-02 0.126E+00 -.119E+00
   -.935E+03 -.332E+03 0.316E+03   0.934E+03 0.331E+03 -.314E+03   0.170E+01 0.153E+01 -.133E+01   -.128E-01 0.141E+00 -.153E+00
   -.146E+03 0.101E+04 0.191E+03   0.146E+03 -.101E+04 -.190E+03   -.604E+00 -.239E+01 -.962E+00   -.411E-03 0.387E-01 -.161E+00
   0.857E+03 -.545E+03 -.458E+03   -.854E+03 0.543E+03 0.456E+03   -.378E+01 0.237E+01 0.176E+01   -.305E-01 0.125E+00 -.123E+00
   -.290E+03 -.101E+04 -.429E+03   0.287E+03 0.100E+04 0.426E+03   0.305E+01 0.674E+01 0.347E+01   -.298E-01 0.821E-01 -.110E+00
   0.699E+03 0.677E+03 -.588E+03   -.695E+03 -.671E+03 0.583E+03   -.405E+01 -.540E+01 0.462E+01   -.114E+00 0.219E-01 -.358E-01
   -.208E+03 0.250E+02 -.102E+04   0.208E+03 -.257E+02 0.102E+04   -.424E+00 0.495E+00 0.260E+01   0.829E-02 0.128E+00 -.282E-01
   -.905E+03 0.498E+03 -.359E+03   0.897E+03 -.494E+03 0.356E+03   0.751E+01 -.413E+01 0.296E+01   0.118E+00 0.827E-02 -.332E-01
 -----------------------------------------------------------------------------------------------
   -.586E+00 -.435E+00 0.603E+00   0.114E-12 0.000E+00 -.682E-12   0.676E+00 -.376E+00 0.264E+00   -.908E-01 0.792E+00 -.863E+00
 
 
 POSITION                                       TOTAL-FORCE (eV/Angst)
 -----------------------------------------------------------------------------------
     10.95121     10.15085      9.00188         0.001661      0.000171      0.006551
     10.17931     12.06664     10.09423         0.002153      0.015568     -0.010062
      8.99967     10.05680     10.28396        -0.020523     -0.010236     -0.013769
     12.10031     11.00594     10.86781         0.042615      0.009007     -0.004771
     10.92504      9.00203     11.05433         0.014068     -0.036545      0.001476
      9.09141     11.53045     12.09108        -0.018603      0.008395      0.021741
     11.10460     12.71441     12.14232        -0.000452     -0.018331     -0.010966
      9.06248      9.22415     12.47039         0.009812      0.006884     -0.008413
     11.01801     10.47369     12.85965         0.010992     -0.001544      0.033522
     12.90386      9.30367     12.20707        -0.041722      0.026631     -0.015307
 -----------------------------------------------------------------------------------
    total drift:                               -0.001366     -0.018868      0.005305


--------------------------------------------------------------------------------------------------------



  FREE ENERGIE OF THE ION-ELECTRON SYSTEM (eV)
  ---------------------------------------------------
  free  energy   TOTEN  =       -36.81229619 eV

  energy  without entropy=      -36.78665332  energy(sigma->0) =      -36.80374857
 
 d Force = 0.4670995E-04[ 0.522E-04, 0.412E-04]  d Energy = 0.3191428E-03-0.272E-03
 d Force =-0.1023112E+01[-0.102E+01,-0.102E+01]  d Ewald  =-0.1023112E+01-0.401E-06


--------------------------------------------------------------------------------------------------------


    POTLOK:  cpu time    2.0694: real time    2.0746


--------------------------------------------------------------------------------------------------------




--------------------------------------------------------------------------------------------------------


  
 reached required accuracy - stopping structural energy minimisation
     LOOP+:  cpu time   49.9712: real time   50.0666
    4ORBIT:  cpu time    0.0000: real time    0.0000

 total amount of memory used by VASP MPI-rank0   132000. kBytes
=======================================================================

   base      :      30000. kBytes
   nonl-proj :       3592. kBytes
   fftplans  :      25401. kBytes
   grid      :      60480. kBytes
   one-center:         31. kBytes
   wavefun   :      12496. kBytes
 
  
  
 General timing and accounting informations for this job:
 ========================================================
  
                  Total CPU time used (sec):      696.383
                            User time (sec):      689.345
                          System time (sec):        7.038
                         Elapsed time (sec):      701.579
  
                   Maximum memory used (kb):      288444.
                   Average memory used (kb):           0.
  
                          Minor page faults:      1923713
                          Major page faults:        27439
                 Voluntary context switches:         4283
