unknown system                          
            1
    21.901982    0.000000    0.000000
     0.000000   21.713467    0.000000
     0.000000    0.000000   21.862557
   Ni
    10
Direct configuration=     1
   0.50093579  0.46667533  0.40876377
   0.46396253  0.55828171  0.45967751
   0.40814305  0.46236667  0.46866799
   0.55534775  0.50849587  0.49567233
   0.49871817  0.41111565  0.50462764
   0.41250551  0.53266709  0.55433406
   0.50814902  0.58823193  0.55672107
   0.41215913  0.42271631  0.57221361
   0.50323080  0.48259463  0.59185286
   0.59193024  0.42690915  0.55944973
Direct configuration=     2
   0.50038032  0.46716928  0.41057980
   0.46441502  0.55661952  0.46101379
   0.40990858  0.46293014  0.46979877
   0.55335684  0.50725660  0.49675245
   0.49886467  0.41356913  0.50536821
   0.41416925  0.53161873  0.55343081
   0.50744468  0.58658700  0.55591769
   0.41316150  0.42402188  0.57109658
   0.50321014  0.48237361  0.58926929
   0.59017099  0.42790845  0.55875319
Direct configuration=     3
   0.50010258  0.46741627  0.41148785
   0.46464128  0.55578840  0.46168195
   0.41079137  0.46321188  0.47036418
   0.55236134  0.50663694  0.49729253
   0.49893793  0.41479593  0.50573851
   0.41500116  0.53109453  0.55297917
   0.50709250  0.58576450  0.55551598
   0.41366271  0.42467469  0.57053804
   0.50319981  0.48226309  0.58797745
   0.58929133  0.42840812  0.55840490
Direct configuration=     4
   0.50001665  0.46748584  0.41173024
   0.46475763  0.55572618  0.46171071
   0.41089853  0.46316330  0.47038965
   0.55246744  0.50685472  0.49711103
   0.49882407  0.41459802  0.50563641
   0.41508868  0.53103234  0.55304466
   0.50701934  0.58556929  0.55540219
   0.41376659  0.42480245  0.57040928
   0.50306977  0.48235248  0.58818787
   0.58917330  0.42846971  0.55835853
Direct configuration=     5
   0.50001003  0.46749120  0.41174891
   0.46476659  0.55572138  0.46171292
   0.41090679  0.46315956  0.47039162
   0.55247561  0.50687150  0.49709705
   0.49881530  0.41458278  0.50562854
   0.41509542  0.53102755  0.55304970
   0.50701370  0.58555425  0.55539342
   0.41377460  0.42481230  0.57039936
   0.50305975  0.48235937  0.58820408
   0.58916420  0.42847446  0.55835496
