   8   8   0   0
  0.1447177E+04  0.2138459E-08  0.2273816E-08  0.2380978E-08  0.5000000E-15
   1.0000000000000000E-004
  CAR 
 unknown system                          
      1.97535559    -12.80746039  301     -5.22639567      1.00000000
    -12.807  0.0000E+00  0.0000E+00  0.0000E+00  0.0000E+00
    -12.758  0.0000E+00  0.0000E+00  0.0000E+00  0.0000E+00
    -12.709  0.0000E+00  0.0000E+00  0.0000E+00  0.0000E+00
    -12.660  0.0000E+00  0.0000E+00  0.0000E+00  0.0000E+00
    -12.610  0.0000E+00  0.0000E+00  0.0000E+00  0.0000E+00
    -12.561  0.0000E+00  0.0000E+00  0.0000E+00  0.0000E+00
    -12.512  0.0000E+00  0.0000E+00  0.0000E+00  0.0000E+00
    -12.463  0.0000E+00  0.0000E+00  0.0000E+00  0.0000E+00
    -12.413 -0.4634E-29 -0.4634E-29 -0.2284E-30 -0.2284E-30
    -12.364 -0.2163E-27 -0.2163E-27 -0.1089E-28 -0.1089E-28
    -12.315 -0.9100E-26 -0.9100E-26 -0.4593E-27 -0.4593E-27
    -12.265 -0.3386E-24 -0.3386E-24 -0.1714E-25 -0.1714E-25
    -12.216 -0.1114E-22 -0.1114E-22 -0.5660E-24 -0.5660E-24
    -12.167 -0.3240E-21 -0.3240E-21 -0.1653E-22 -0.1653E-22
    -12.118 -0.8332E-20 -0.8332E-20 -0.4271E-21 -0.4271E-21
    -12.068 -0.1894E-18 -0.1894E-18 -0.9758E-20 -0.9758E-20
    -12.019 -0.3803E-17 -0.3803E-17 -0.1972E-18 -0.1972E-18
    -11.970 -0.6523E-16 -0.6523E-16 -0.3411E-17 -0.3411E-17
    -11.920 -0.1024E-14 -0.1024E-14 -0.5386E-16 -0.5386E-16
    -11.871 -0.1412E-13 -0.1412E-13 -0.7498E-15 -0.7498E-15
    -11.822 -0.1719E-12 -0.1719E-12 -0.9219E-14 -0.9219E-14
    -11.773 -0.1844E-11 -0.1844E-11 -0.1001E-12 -0.1001E-12
    -11.723 -0.1744E-10 -0.1744E-10 -0.9594E-12 -0.9594E-12
    -11.674 -0.1452E-09 -0.1452E-09 -0.8114E-11 -0.8114E-11
    -11.625 -0.1064E-08 -0.1064E-08 -0.6052E-10 -0.6052E-10
    -11.576 -0.6845E-08 -0.6845E-08 -0.3978E-09 -0.3978E-09
    -11.526 -0.3865E-07 -0.3865E-07 -0.2303E-08 -0.2302E-08
    -11.477 -0.1911E-06 -0.1911E-06 -0.1172E-07 -0.1172E-07
    -11.428 -0.8256E-06 -0.8256E-06 -0.5240E-07 -0.5240E-07
    -11.378 -0.3104E-05 -0.3104E-05 -0.2053E-06 -0.2053E-06
    -11.329 -0.1010E-04 -0.1010E-04 -0.7032E-06 -0.7032E-06
    -11.280 -0.2826E-04 -0.2826E-04 -0.2096E-05 -0.2096E-05
    -11.231 -0.6709E-04 -0.6709E-04 -0.5402E-05 -0.5402E-05
    -11.181 -0.1320E-03 -0.1320E-03 -0.1191E-04 -0.1191E-04
    -11.132 -0.2048E-03 -0.2048E-03 -0.2200E-04 -0.2200E-04
    -11.083 -0.2149E-03 -0.2149E-03 -0.3259E-04 -0.3259E-04
    -11.034 -0.2660E-04 -0.2660E-04 -0.3390E-04 -0.3390E-04
    -10.984  0.5152E-03  0.5152E-03 -0.8515E-05 -0.8515E-05
    -10.935  0.1468E-02  0.1468E-02  0.6385E-04  0.6385E-04
    -10.886  0.2669E-02  0.2669E-02  0.1954E-03  0.1954E-03
    -10.836  0.3724E-02  0.3724E-02  0.3789E-03  0.3789E-03
    -10.787  0.4193E-02  0.4193E-02  0.5855E-03  0.5855E-03
    -10.738  0.3859E-02  0.3859E-02  0.7756E-03  0.7756E-03
    -10.689  0.2878E-02  0.2878E-02  0.9175E-03  0.9175E-03
    -10.639  0.1670E-02  0.1670E-02  0.9997E-03  0.9997E-03
    -10.590  0.6536E-03  0.6536E-03  0.1032E-02  0.1032E-02
    -10.541  0.3796E-04  0.3796E-04  0.1034E-02  0.1034E-02
    -10.491 -0.2050E-03 -0.2050E-03  0.1024E-02  0.1024E-02
    -10.442 -0.2275E-03 -0.2275E-03  0.1013E-02  0.1013E-02
    -10.393 -0.1812E-03 -0.1812E-03  0.1004E-02  0.1004E-02
    -10.344 -0.1587E-03 -0.1587E-03  0.9958E-03  0.9958E-03
    -10.294 -0.1889E-03 -0.1889E-03  0.9864E-03  0.9864E-03
    -10.245 -0.2447E-03 -0.2447E-03  0.9744E-03  0.9744E-03
    -10.196 -0.2380E-03 -0.2380E-03  0.9627E-03  0.9627E-03
    -10.147 -0.2663E-04 -0.2663E-04  0.9613E-03  0.9613E-03
    -10.097  0.5308E-03  0.5308E-03  0.9875E-03  0.9875E-03
    -10.048  0.1471E-02  0.1471E-02  0.1060E-02  0.1060E-02
     -9.999  0.2654E-02  0.2654E-02  0.1191E-02  0.1191E-02
     -9.949  0.3815E-02  0.3815E-02  0.1379E-02  0.1379E-02
     -9.900  0.4749E-02  0.4749E-02  0.1613E-02  0.1613E-02
     -9.851  0.5451E-02  0.5451E-02  0.1881E-02  0.1881E-02
     -9.802  0.6069E-02  0.6069E-02  0.2180E-02  0.2180E-02
     -9.752  0.6690E-02  0.6690E-02  0.2510E-02  0.2510E-02
     -9.703  0.7159E-02  0.7159E-02  0.2863E-02  0.2863E-02
     -9.654  0.7146E-02  0.7146E-02  0.3215E-02  0.3215E-02
     -9.605  0.6386E-02  0.6386E-02  0.3530E-02  0.3530E-02
     -9.555  0.4911E-02  0.4911E-02  0.3772E-02  0.3772E-02
     -9.506  0.3072E-02  0.3072E-02  0.3923E-02  0.3923E-02
     -9.457  0.1377E-02  0.1377E-02  0.3991E-02  0.3991E-02
     -9.407  0.2681E-03  0.2681E-03  0.4004E-02  0.4004E-02
     -9.358 -0.1678E-04 -0.1677E-04  0.4003E-02  0.4003E-02
     -9.309  0.5322E-03  0.5322E-03  0.4029E-02  0.4029E-02
     -9.260  0.1740E-02  0.1740E-02  0.4115E-02  0.4115E-02
     -9.210  0.3332E-02  0.3332E-02  0.4279E-02  0.4279E-02
     -9.161  0.5037E-02  0.5037E-02  0.4528E-02  0.4528E-02
     -9.112  0.6672E-02  0.6672E-02  0.4856E-02  0.4856E-02
     -9.062  0.8113E-02  0.8113E-02  0.5256E-02  0.5256E-02
     -9.013  0.9212E-02  0.9212E-02  0.5710E-02  0.5710E-02
     -8.964  0.9755E-02  0.9755E-02  0.6191E-02  0.6191E-02
     -8.915  0.9563E-02  0.9563E-02  0.6662E-02  0.6662E-02
     -8.865  0.8651E-02  0.8651E-02  0.7088E-02  0.7088E-02
     -8.816  0.7319E-02  0.7319E-02  0.7449E-02  0.7449E-02
     -8.767  0.6065E-02  0.6065E-02  0.7748E-02  0.7748E-02
     -8.718  0.5362E-02  0.5362E-02  0.8012E-02  0.8012E-02
     -8.668  0.5406E-02  0.5406E-02  0.8278E-02  0.8278E-02
     -8.619  0.6009E-02  0.6009E-02  0.8574E-02  0.8574E-02
     -8.570  0.6767E-02  0.6767E-02  0.8908E-02  0.8908E-02
     -8.520  0.7414E-02  0.7414E-02  0.9273E-02  0.9273E-02
     -8.471  0.8066E-02  0.8066E-02  0.9671E-02  0.9671E-02
     -8.422  0.9076E-02  0.9076E-02  0.1012E-01  0.1012E-01
     -8.373  0.1060E-01  0.1060E-01  0.1064E-01  0.1064E-01
     -8.323  0.1230E-01  0.1230E-01  0.1125E-01  0.1125E-01
     -8.274  0.1351E-01  0.1351E-01  0.1191E-01  0.1191E-01
     -8.225  0.1374E-01  0.1374E-01  0.1259E-01  0.1259E-01
     -8.176  0.1302E-01  0.1302E-01  0.1323E-01  0.1323E-01
     -8.126  0.1184E-01  0.1184E-01  0.1381E-01  0.1381E-01
     -8.077  0.1066E-01  0.1066E-01  0.1434E-01  0.1434E-01
     -8.028  0.9598E-02  0.9598E-02  0.1481E-01  0.1481E-01
     -7.978  0.8585E-02  0.8585E-02  0.1524E-01  0.1524E-01
     -7.929  0.7646E-02  0.7646E-02  0.1561E-01  0.1561E-01
     -7.880  0.7037E-02  0.7037E-02  0.1596E-01  0.1596E-01
     -7.831  0.6984E-02  0.6984E-02  0.1630E-01  0.1630E-01
     -7.781  0.7354E-02  0.7354E-02  0.1667E-01  0.1667E-01
     -7.732  0.7702E-02  0.7702E-02  0.1705E-01  0.1705E-01
     -7.683  0.7707E-02  0.7707E-02  0.1743E-01  0.1743E-01
     -7.633  0.7560E-02  0.7560E-02  0.1780E-01  0.1780E-01
     -7.584  0.7817E-02  0.7817E-02  0.1818E-01  0.1818E-01
     -7.535  0.8852E-02  0.8852E-02  0.1862E-01  0.1862E-01
     -7.486  0.1046E-01  0.1046E-01  0.1913E-01  0.1913E-01
     -7.436  0.1201E-01  0.1201E-01  0.1973E-01  0.1973E-01
     -7.387  0.1292E-01  0.1292E-01  0.2036E-01  0.2036E-01
     -7.338  0.1310E-01  0.1310E-01  0.2101E-01  0.2101E-01
     -7.289  0.1283E-01  0.1283E-01  0.2164E-01  0.2164E-01
     -7.239  0.1252E-01  0.1252E-01  0.2226E-01  0.2226E-01
     -7.190  0.1232E-01  0.1232E-01  0.2286E-01  0.2286E-01
     -7.141  0.1214E-01  0.1214E-01  0.2346E-01  0.2346E-01
     -7.091  0.1169E-01  0.1169E-01  0.2404E-01  0.2404E-01
     -7.042  0.1081E-01  0.1081E-01  0.2457E-01  0.2457E-01
     -6.993  0.9747E-02  0.9747E-02  0.2505E-01  0.2505E-01
     -6.944  0.9187E-02  0.9187E-02  0.2550E-01  0.2550E-01
     -6.894  0.9978E-02  0.9978E-02  0.2600E-01  0.2600E-01
     -6.845  0.1257E-01  0.1257E-01  0.2662E-01  0.2662E-01
     -6.796  0.1659E-01  0.1659E-01  0.2743E-01  0.2743E-01
     -6.747  0.2086E-01  0.2086E-01  0.2846E-01  0.2846E-01
     -6.697  0.2402E-01  0.2402E-01  0.2964E-01  0.2964E-01
     -6.648  0.2525E-01  0.2525E-01  0.3089E-01  0.3089E-01
     -6.599  0.2468E-01  0.2468E-01  0.3210E-01  0.3210E-01
     -6.549  0.2307E-01  0.2307E-01  0.3324E-01  0.3324E-01
     -6.500  0.2122E-01  0.2122E-01  0.3429E-01  0.3429E-01
     -6.451  0.1940E-01  0.1940E-01  0.3524E-01  0.3524E-01
     -6.402  0.1736E-01  0.1736E-01  0.3610E-01  0.3610E-01
     -6.352  0.1477E-01  0.1477E-01  0.3683E-01  0.3683E-01
     -6.303  0.1169E-01  0.1169E-01  0.3740E-01  0.3740E-01
     -6.254  0.8725E-02  0.8725E-02  0.3783E-01  0.3783E-01
     -6.204  0.6749E-02  0.6749E-02  0.3816E-01  0.3816E-01
     -6.155  0.6422E-02  0.6422E-02  0.3848E-01  0.3848E-01
     -6.106  0.7858E-02  0.7858E-02  0.3887E-01  0.3887E-01
     -6.057  0.1054E-01  0.1054E-01  0.3939E-01  0.3939E-01
     -6.007  0.1343E-01  0.1343E-01  0.4005E-01  0.4005E-01
     -5.958  0.1534E-01  0.1534E-01  0.4081E-01  0.4081E-01
     -5.909  0.1534E-01  0.1534E-01  0.4156E-01  0.4156E-01
     -5.860  0.1321E-01  0.1321E-01  0.4221E-01  0.4221E-01
     -5.810  0.9580E-02  0.9580E-02  0.4268E-01  0.4268E-01
     -5.761  0.5561E-02  0.5561E-02  0.4296E-01  0.4296E-01
     -5.712  0.2227E-02  0.2227E-02  0.4307E-01  0.4307E-01
     -5.662  0.1814E-03  0.1814E-03  0.4308E-01  0.4308E-01
     -5.613 -0.4938E-03 -0.4938E-03  0.4305E-01  0.4305E-01
     -5.564 -0.4626E-04 -0.4626E-04  0.4305E-01  0.4305E-01
     -5.515  0.1130E-02  0.1130E-02  0.4311E-01  0.4311E-01
     -5.465  0.2555E-02  0.2555E-02  0.4323E-01  0.4323E-01
     -5.416  0.3702E-02  0.3702E-02  0.4341E-01  0.4341E-01
     -5.367  0.4136E-02  0.4136E-02  0.4362E-01  0.4362E-01
     -5.318  0.3720E-02  0.3720E-02  0.4380E-01  0.4380E-01
     -5.268  0.2687E-02  0.2687E-02  0.4393E-01  0.4393E-01
     -5.219  0.1490E-02  0.1490E-02  0.4401E-01  0.4401E-01
     -5.170  0.5300E-03  0.5300E-03  0.4403E-01  0.4403E-01
     -5.120 -0.1974E-04 -0.1974E-04  0.4403E-01  0.4403E-01
     -5.071 -0.2136E-03 -0.2136E-03  0.4402E-01  0.4402E-01
     -5.022 -0.2060E-03 -0.2060E-03  0.4401E-01  0.4401E-01
     -4.973 -0.1336E-03 -0.1336E-03  0.4401E-01  0.4401E-01
     -4.923 -0.6814E-04 -0.6814E-04  0.4400E-01  0.4400E-01
     -4.874 -0.2881E-04 -0.2881E-04  0.4400E-01  0.4400E-01
     -4.825 -0.1033E-04 -0.1033E-04  0.4400E-01  0.4400E-01
     -4.775 -0.3182E-05 -0.3183E-05  0.4400E-01  0.4400E-01
     -4.726 -0.8495E-06 -0.8495E-06  0.4400E-01  0.4400E-01
     -4.677 -0.2009E-06 -0.2009E-06  0.4400E-01  0.4400E-01
     -4.628 -0.6235E-07 -0.6235E-07  0.4400E-01  0.4400E-01
     -4.578 -0.1227E-06 -0.1227E-06  0.4400E-01  0.4400E-01
     -4.529 -0.5232E-06 -0.5232E-06  0.4400E-01  0.4400E-01
     -4.480 -0.2055E-05 -0.2055E-05  0.4400E-01  0.4400E-01
     -4.431 -0.7023E-05 -0.7023E-05  0.4400E-01  0.4400E-01
     -4.381 -0.2070E-04 -0.2070E-04  0.4400E-01  0.4400E-01
     -4.332 -0.5212E-04 -0.5212E-04  0.4400E-01  0.4400E-01
     -4.283 -0.1102E-03 -0.1102E-03  0.4399E-01  0.4399E-01
     -4.233 -0.1896E-03 -0.1896E-03  0.4398E-01  0.4398E-01
     -4.184 -0.2446E-03 -0.2446E-03  0.4397E-01  0.4397E-01
     -4.135 -0.1689E-03 -0.1689E-03  0.4396E-01  0.4396E-01
     -4.086  0.1841E-03  0.1841E-03  0.4397E-01  0.4397E-01
     -4.036  0.9175E-03  0.9175E-03  0.4402E-01  0.4402E-01
     -3.987  0.1982E-02  0.1982E-02  0.4411E-01  0.4411E-01
     -3.938  0.3149E-02  0.3149E-02  0.4427E-01  0.4427E-01
     -3.888  0.4136E-02  0.4136E-02  0.4447E-01  0.4447E-01
     -3.839  0.4813E-02  0.4813E-02  0.4471E-01  0.4471E-01
     -3.790  0.5285E-02  0.5285E-02  0.4497E-01  0.4497E-01
     -3.741  0.5758E-02  0.5758E-02  0.4525E-01  0.4525E-01
     -3.691  0.6295E-02  0.6295E-02  0.4556E-01  0.4556E-01
     -3.642  0.6717E-02  0.6717E-02  0.4589E-01  0.4589E-01
     -3.593  0.6764E-02  0.6764E-02  0.4623E-01  0.4623E-01
     -3.544  0.6352E-02  0.6352E-02  0.4654E-01  0.4654E-01
     -3.494  0.5685E-02  0.5685E-02  0.4682E-01  0.4682E-01
     -3.445  0.5088E-02  0.5088E-02  0.4707E-01  0.4707E-01
     -3.396  0.4728E-02  0.4728E-02  0.4730E-01  0.4730E-01
     -3.346  0.4466E-02  0.4466E-02  0.4752E-01  0.4752E-01
     -3.297  0.4000E-02  0.4000E-02  0.4772E-01  0.4772E-01
     -3.248  0.3156E-02  0.3156E-02  0.4788E-01  0.4788E-01
     -3.199  0.2050E-02  0.2050E-02  0.4798E-01  0.4798E-01
     -3.149  0.9876E-03  0.9876E-03  0.4803E-01  0.4803E-01
     -3.100  0.2304E-03  0.2304E-03  0.4804E-01  0.4804E-01
     -3.051 -0.1472E-03 -0.1472E-03  0.4803E-01  0.4803E-01
     -3.002 -0.2383E-03 -0.2383E-03  0.4802E-01  0.4802E-01
     -2.952 -0.1899E-03 -0.1899E-03  0.4801E-01  0.4801E-01
     -2.903 -0.1120E-03 -0.1120E-03  0.4800E-01  0.4800E-01
     -2.854 -0.5343E-04 -0.5343E-04  0.4800E-01  0.4800E-01
     -2.804 -0.2137E-04 -0.2137E-04  0.4800E-01  0.4800E-01
     -2.755 -0.7296E-05 -0.7296E-05  0.4800E-01  0.4800E-01
     -2.706 -0.2147E-05 -0.2147E-05  0.4800E-01  0.4800E-01
     -2.657 -0.5494E-06 -0.5494E-06  0.4800E-01  0.4800E-01
     -2.607 -0.1300E-06 -0.1300E-06  0.4800E-01  0.4800E-01
     -2.558 -0.6846E-07 -0.6846E-07  0.4800E-01  0.4800E-01
     -2.509 -0.2226E-06 -0.2226E-06  0.4800E-01  0.4800E-01
     -2.459 -0.9334E-06 -0.9335E-06  0.4800E-01  0.4800E-01
     -2.410 -0.3464E-05 -0.3464E-05  0.4800E-01  0.4800E-01
     -2.361 -0.1113E-04 -0.1113E-04  0.4800E-01  0.4800E-01
     -2.312 -0.3072E-04 -0.3072E-04  0.4800E-01  0.4800E-01
     -2.262 -0.7184E-04 -0.7184E-04  0.4799E-01  0.4799E-01
     -2.213 -0.1390E-03 -0.1390E-03  0.4799E-01  0.4799E-01
     -2.164 -0.2110E-03 -0.2110E-03  0.4798E-01  0.4798E-01
     -2.115 -0.2131E-03 -0.2131E-03  0.4797E-01  0.4797E-01
     -2.065 -0.9012E-05 -0.9009E-05  0.4797E-01  0.4797E-01
     -2.016  0.5459E-03  0.5459E-03  0.4799E-01  0.4799E-01
     -1.967  0.1485E-02  0.1485E-02  0.4807E-01  0.4807E-01
     -1.917  0.2619E-02  0.2619E-02  0.4820E-01  0.4820E-01
     -1.868  0.3572E-02  0.3572E-02  0.4837E-01  0.4837E-01
     -1.819  0.4000E-02  0.4000E-02  0.4857E-01  0.4857E-01
     -1.770  0.3860E-02  0.3860E-02  0.4876E-01  0.4876E-01
     -1.720  0.3465E-02  0.3465E-02  0.4893E-01  0.4893E-01
     -1.671  0.3237E-02  0.3237E-02  0.4909E-01  0.4909E-01
     -1.622  0.3342E-02  0.3342E-02  0.4925E-01  0.4925E-01
     -1.573  0.3586E-02  0.3586E-02  0.4943E-01  0.4943E-01
     -1.523  0.3667E-02  0.3667E-02  0.4961E-01  0.4961E-01
     -1.474  0.3557E-02  0.3557E-02  0.4979E-01  0.4979E-01
     -1.425  0.3599E-02  0.3599E-02  0.4996E-01  0.4996E-01
     -1.375  0.4212E-02  0.4212E-02  0.5017E-01  0.5017E-01
     -1.326  0.5438E-02  0.5438E-02  0.5044E-01  0.5044E-01
     -1.277  0.6776E-02  0.6776E-02  0.5077E-01  0.5077E-01
     -1.228  0.7461E-02  0.7461E-02  0.5114E-01  0.5114E-01
     -1.178  0.6977E-02  0.6977E-02  0.5148E-01  0.5148E-01
     -1.129  0.5412E-02  0.5413E-02  0.5175E-01  0.5175E-01
     -1.080  0.3409E-02  0.3409E-02  0.5192E-01  0.5192E-01
     -1.030  0.1794E-02  0.1794E-02  0.5201E-01  0.5201E-01
     -0.981  0.1145E-02  0.1145E-02  0.5206E-01  0.5206E-01
     -0.932  0.1541E-02  0.1541E-02  0.5214E-01  0.5214E-01
     -0.883  0.2561E-02  0.2561E-02  0.5227E-01  0.5227E-01
     -0.833  0.3522E-02  0.3522E-02  0.5244E-01  0.5244E-01
     -0.784  0.3836E-02  0.3836E-02  0.5263E-01  0.5263E-01
     -0.735  0.3328E-02  0.3328E-02  0.5279E-01  0.5279E-01
     -0.686  0.2314E-02  0.2314E-02  0.5291E-01  0.5291E-01
     -0.636  0.1393E-02  0.1393E-02  0.5298E-01  0.5298E-01
     -0.587  0.1098E-02  0.1098E-02  0.5303E-01  0.5303E-01
     -0.538  0.1608E-02  0.1608E-02  0.5311E-01  0.5311E-01
     -0.488  0.2695E-02  0.2695E-02  0.5324E-01  0.5324E-01
     -0.439  0.3912E-02  0.3912E-02  0.5343E-01  0.5343E-01
     -0.390  0.4859E-02  0.4859E-02  0.5367E-01  0.5367E-01
     -0.341  0.5364E-02  0.5364E-02  0.5394E-01  0.5394E-01
     -0.291  0.5477E-02  0.5478E-02  0.5421E-01  0.5421E-01
     -0.242  0.5351E-02  0.5351E-02  0.5447E-01  0.5447E-01
     -0.193  0.5146E-02  0.5146E-02  0.5472E-01  0.5472E-01
     -0.144  0.4986E-02  0.4986E-02  0.5497E-01  0.5497E-01
     -0.094  0.4898E-02  0.4899E-02  0.5521E-01  0.5521E-01
     -0.045  0.4761E-02  0.4761E-02  0.5545E-01  0.5545E-01
      0.004  0.4354E-02  0.4354E-02  0.5566E-01  0.5566E-01
      0.054  0.3541E-02  0.3541E-02  0.5584E-01  0.5584E-01
      0.103  0.2420E-02  0.2420E-02  0.5595E-01  0.5595E-01
      0.152  0.1279E-02  0.1279E-02  0.5602E-01  0.5602E-01
      0.201  0.4060E-03  0.4058E-03  0.5604E-01  0.5604E-01
      0.251 -0.7787E-04 -0.7793E-04  0.5603E-01  0.5603E-01
      0.300 -0.2351E-03 -0.2351E-03  0.5602E-01  0.5602E-01
      0.349 -0.2117E-03 -0.2117E-03  0.5601E-01  0.5601E-01
      0.399 -0.1340E-03 -0.1340E-03  0.5601E-01  0.5601E-01
      0.448 -0.6760E-04 -0.6759E-04  0.5600E-01  0.5600E-01
      0.497 -0.2838E-04 -0.2837E-04  0.5600E-01  0.5600E-01
      0.546 -0.1012E-04 -0.1012E-04  0.5600E-01  0.5600E-01
      0.596 -0.3107E-05 -0.3106E-05  0.5600E-01  0.5600E-01
      0.645 -0.8261E-06 -0.8259E-06  0.5600E-01  0.5600E-01
      0.694 -0.1912E-06 -0.1912E-06  0.5600E-01  0.5600E-01
      0.743 -0.3866E-07 -0.3865E-07  0.5600E-01  0.5600E-01
      0.793 -0.6846E-08 -0.6844E-08  0.5600E-01  0.5600E-01
      0.842 -0.1064E-08 -0.1063E-08  0.5600E-01  0.5600E-01
      0.891 -0.1452E-09 -0.1452E-09  0.5600E-01  0.5600E-01
      0.941 -0.1744E-10 -0.1743E-10  0.5600E-01  0.5600E-01
      0.990 -0.1844E-11 -0.1844E-11  0.5600E-01  0.5600E-01
      1.039 -0.1719E-12 -0.1718E-12  0.5600E-01  0.5600E-01
      1.088 -0.1412E-13 -0.1412E-13  0.5600E-01  0.5600E-01
      1.138 -0.1027E-14 -0.1023E-14  0.5600E-01  0.5600E-01
      1.187 -0.6309E-16 -0.6309E-16  0.5600E-01  0.5600E-01
      1.236 -0.4506E-17 -0.4506E-17  0.5600E-01  0.5600E-01
      1.285  0.0000E+00  0.0000E+00  0.5600E-01  0.5600E-01
      1.335  0.0000E+00  0.0000E+00  0.5600E-01  0.5600E-01
      1.384  0.0000E+00  0.0000E+00  0.5600E-01  0.5600E-01
      1.433  0.0000E+00  0.0000E+00  0.5600E-01  0.5600E-01
      1.483  0.0000E+00  0.0000E+00  0.5600E-01  0.5600E-01
      1.532  0.0000E+00  0.0000E+00  0.5600E-01  0.5600E-01
      1.581  0.0000E+00  0.0000E+00  0.5600E-01  0.5600E-01
      1.630  0.0000E+00  0.0000E+00  0.5600E-01  0.5600E-01
      1.680  0.0000E+00  0.0000E+00  0.5600E-01  0.5600E-01
      1.729  0.0000E+00  0.0000E+00  0.5600E-01  0.5600E-01
      1.778  0.0000E+00  0.0000E+00  0.5600E-01  0.5600E-01
      1.828  0.0000E+00  0.0000E+00  0.5600E-01  0.5600E-01
      1.877  0.0000E+00  0.0000E+00  0.5600E-01  0.5600E-01
      1.926  0.0000E+00  0.0000E+00  0.5600E-01  0.5600E-01
      1.975  0.0000E+00  0.0000E+00  0.5600E-01  0.5600E-01
