    8    8 1000    2
  0.1447177E+04  0.2138459E-08  0.2273816E-08  0.2380978E-08  0.5000000E-15
   1.0000000000000000E-004
  CAR 
 unknown system                          
     88      1     56
 
  0.1262379E-14  0.1262379E-14  0.1262379E-14  0.1000000E+01
    1      -10.807460    -10.807460   1.000000   1.000000
    2       -9.932617     -9.932617   1.000000   1.000000
    3       -9.739507     -9.739507   1.000000   1.000000
    4       -9.619273     -9.619272   1.000000   1.000000
    5       -9.171290     -9.171290   1.000000   1.000000
    6       -9.015281     -9.015281   1.000000   1.000000
    7       -8.949012     -8.949012   1.000000   1.000000
    8       -8.820921     -8.820921   1.000000   1.000000
    9       -8.611524     -8.611524   1.000000   1.000000
   10       -8.516577     -8.516577   1.000000   1.000000
   11       -8.350486     -8.350486   1.000000   1.000000
   12       -8.285508     -8.285507   1.000000   1.000000
   13       -8.268545     -8.268545   1.000000   1.000000
   14       -8.161337     -8.161337   1.000000   1.000000
   15       -8.041464     -8.041464   1.000000   1.000000
   16       -7.971635     -7.971634   1.000000   1.000000
   17       -7.758818     -7.758817   1.000000   1.000000
   18       -7.721591     -7.721590   1.000000   1.000000
   19       -7.513258     -7.513257   1.000000   1.000000
   20       -7.448172     -7.448172   1.000000   1.000000
   21       -7.404483     -7.404482   1.000000   1.000000
   22       -7.282690     -7.282689   1.000000   1.000000
   23       -7.237541     -7.237541   1.000000   1.000000
   24       -7.107608     -7.107608   1.000000   1.000000
   25       -7.080746     -7.080746   1.000000   1.000000
   26       -6.967344     -6.967344   1.000000   1.000000
   27       -6.812687     -6.812687   1.000000   1.000000
   28       -6.776720     -6.776719   1.000000   1.000000
   29       -6.731635     -6.731635   1.000000   1.000000
   30       -6.691672     -6.691671   1.000000   1.000000
   31       -6.679483     -6.679482   1.000000   1.000000
   32       -6.653616     -6.653616   1.000000   1.000000
   33       -6.586040     -6.586039   1.000000   1.000000
   34       -6.540439     -6.540439   1.000000   1.000000
   35       -6.469814     -6.469814   1.000000   1.000000
   36       -6.441403     -6.441402   1.000000   1.000000
   37       -6.372774     -6.372774   1.000000   1.000000
   38       -6.331698     -6.331698   1.000000   1.000000
   39       -6.137614     -6.137614   1.000000   1.000000
   40       -6.001996     -6.001996   1.000000   1.000000
   41       -5.977881     -5.977880   1.000001   1.000001
   42       -5.915522     -5.915522   1.000006   1.000006
   43       -5.876696     -5.876695   1.000021   1.000021
   44       -5.394746     -5.394746   0.999971   0.999971
   45       -3.892848     -3.892848  -0.000000  -0.000000
   46       -3.689506     -3.689506  -0.000000  -0.000000
   47       -3.562752     -3.562752  -0.000000  -0.000000
   48       -3.340422     -3.340422  -0.000000  -0.000000
   49       -1.843554     -1.843554  -0.000000  -0.000000
   50       -1.558226     -1.558224  -0.000000  -0.000000
   51       -1.286282     -1.286280  -0.000000  -0.000000
   52       -1.201232     -1.201233  -0.000000  -0.000000
   53       -0.816962     -0.816960  -0.000000  -0.000000
   54       -0.428351     -0.428349  -0.000000  -0.000000
   55       -0.238914     -0.238915  -0.000000  -0.000000
   56       -0.024644     -0.024653  -0.000000  -0.000000
