       N       E                     dE             d eps       ncg     rms          rms(c)
DAV:   1     0.749461695993E+03    0.74946E+03   -0.13346E+04   224   0.707E+02
DAV:   2     0.456502610596E+03   -0.29296E+03   -0.27240E+03   416   0.752E+01
DAV:   3     0.141548328632E+03   -0.31495E+03   -0.29683E+03   392   0.687E+01
DAV:   4     0.124433610331E+02   -0.12910E+03   -0.12276E+03   320   0.539E+01
DAV:   5    -0.132489471552E+02   -0.25692E+02   -0.22585E+02   296   0.211E+01    0.217E+01
DAV:   6    -0.522268923691E+01    0.80263E+01   -0.69423E+01   248   0.194E+01    0.155E+01
DAV:   7    -0.136142650826E+01    0.38613E+01   -0.34534E+00   256   0.715E+00    0.714E+00
DAV:   8    -0.645587771618E+01   -0.50945E+01   -0.19380E+00   256   0.411E+00    0.259E+00
DAV:   9    -0.924804560521E+01   -0.27922E+01   -0.75467E-01   256   0.264E+00    0.158E+00
DAV:  10    -0.120056372581E+02   -0.27576E+01   -0.94316E-01   240   0.263E+00    0.106E+00
DAV:  11    -0.137256837756E+02   -0.17200E+01   -0.54926E-01   224   0.176E+00    0.778E-01
DAV:  12    -0.148368392634E+02   -0.11112E+01   -0.34991E-01   240   0.141E+00    0.523E-01
DAV:  13    -0.155900271233E+02   -0.75319E+00   -0.23823E-01   240   0.111E+00    0.334E-01
DAV:  14    -0.157879386517E+02   -0.19791E+00   -0.17878E-02   264   0.396E-01    0.261E-01
DAV:  15    -0.161323835649E+02   -0.34444E+00   -0.20421E-02   248   0.356E-01    0.145E-01
DAV:  16    -0.163375456332E+02   -0.20516E+00   -0.61180E-03   256   0.242E-01    0.821E-02
DAV:  17    -0.164015002993E+02   -0.63955E-01   -0.20975E-03   240   0.120E-01    0.473E-02
DAV:  18    -0.164325996770E+02   -0.31099E-01   -0.77225E-04   208   0.588E-02    0.285E-02
DAV:  19    -0.164465378620E+02   -0.13938E-01   -0.23045E-04   184   0.327E-02    0.176E-02
DAV:  20    -0.164541625692E+02   -0.76247E-02   -0.75066E-05   152   0.190E-02    0.111E-02
DAV:  21    -0.164604898218E+02   -0.63273E-02   -0.33433E-05   168   0.129E-02    0.780E-03
DAV:  22    -0.164657930357E+02   -0.53032E-02   -0.26359E-05   160   0.120E-02    0.479E-03
DAV:  23    -0.164685102506E+02   -0.27172E-02   -0.19106E-05   160   0.967E-03    0.271E-03
DAV:  24    -0.164696074972E+02   -0.10972E-02   -0.69380E-06   168   0.631E-03    0.167E-03
DAV:  25    -0.164701252910E+02   -0.51779E-03   -0.35150E-06   152   0.453E-03    0.781E-04
DAV:  26    -0.164702576905E+02   -0.13240E-03   -0.17169E-06   160   0.283E-03    0.466E-04
DAV:  27    -0.164703221034E+02   -0.64413E-04   -0.69391E-07   152   0.194E-03
   1 F= -.16470322E+02 E0= -.16474211E+02  d E =-.164703E+02  mag=     0.0004
       N       E                     dE             d eps       ncg     rms          rms(c)
DAV:   1    -0.166799575321E+02   -0.20970E+00   -0.36492E+02   224   0.672E+01    0.413E+00
DAV:   2    -0.170179181770E+02   -0.33796E+00   -0.37027E+00   224   0.919E+00    0.274E+00
DAV:   3    -0.169996229090E+02    0.18295E-01   -0.22446E-01   232   0.186E+00    0.147E+00
DAV:   4    -0.170015583589E+02   -0.19354E-02   -0.25795E-02   256   0.756E-01    0.249E-01
DAV:   5    -0.169980679672E+02    0.34904E-02   -0.13368E-02   240   0.403E-01    0.117E-01
DAV:   6    -0.169979826712E+02    0.85296E-04   -0.15179E-03   256   0.124E-01    0.401E-02
DAV:   7    -0.169980404897E+02   -0.57818E-04   -0.33572E-05   160   0.250E-02
   2 F= -.16998040E+02 E0= -.17001946E+02  d E =-.527718E+00  mag=     0.0001
       N       E                     dE             d eps       ncg     rms          rms(c)
DAV:   1    -0.169983660098E+02   -0.38334E-03   -0.13416E+00   240   0.401E+00    0.216E-01
DAV:   2    -0.169997527026E+02   -0.13867E-02   -0.15298E-02   256   0.585E-01    0.129E-01
DAV:   3    -0.169997077140E+02    0.44989E-04   -0.83594E-04   248   0.120E-01
   3 F= -.16999708E+02 E0= -.17003618E+02  d E =-.529386E+00  mag=     0.0001
       N       E                     dE             d eps       ncg     rms          rms(c)
DAV:   1    -0.170133185919E+02   -0.13566E-01   -0.21645E+01   224   0.158E+01    0.944E-01
DAV:   2    -0.170347232357E+02   -0.21405E-01   -0.23862E-01   248   0.226E+00    0.587E-01
DAV:   3    -0.170336991146E+02    0.10241E-02   -0.13796E-02   248   0.441E-01    0.300E-01
DAV:   4    -0.170338166183E+02   -0.11750E-03   -0.13019E-03   256   0.165E-01    0.551E-02
DAV:   5    -0.170336823634E+02    0.13425E-03   -0.53153E-04   256   0.950E-02    0.300E-02
DAV:   6    -0.170336844886E+02   -0.21252E-05   -0.86069E-05   160   0.325E-02
   4 F= -.17033684E+02 E0= -.17037563E+02  d E =-.339768E-01  mag=     0.0000
       N       E                     dE             d eps       ncg     rms          rms(c)
DAV:   1    -0.170338774463E+02   -0.19508E-03   -0.27683E-01   224   0.178E+00    0.965E-02
DAV:   2    -0.170341592560E+02   -0.28181E-03   -0.30745E-03   256   0.257E-01    0.608E-02
DAV:   3    -0.170341506924E+02    0.85636E-05   -0.15734E-04   144   0.489E-02
   5 F= -.17034151E+02 E0= -.17038028E+02  d E =-.344430E-01  mag=     0.0000
       N       E                     dE             d eps       ncg     rms          rms(c)
DAV:   1    -0.170361769683E+02   -0.20177E-02   -0.15007E+00   224   0.423E+00    0.129E-01
DAV:   2    -0.170377774346E+02   -0.16005E-02   -0.17393E-02   256   0.624E-01    0.892E-02
DAV:   3    -0.170377315895E+02    0.45845E-04   -0.56669E-04   256   0.105E-01
   6 F= -.17037732E+02 E0= -.17041608E+02  d E =-.358090E-02  mag=     0.0000
       N       E                     dE             d eps       ncg     rms          rms(c)
DAV:   1    -0.170358284440E+02    0.19490E-02   -0.43440E+00   224   0.721E+00    0.234E-01
DAV:   2    -0.170404293379E+02   -0.46009E-02   -0.50308E-02   256   0.106E+00    0.159E-01
DAV:   3    -0.170402799049E+02    0.14943E-03   -0.16860E-03   256   0.180E-01    0.101E-01
DAV:   4    -0.170402266776E+02    0.53227E-04   -0.44089E-04   240   0.796E-02
   7 F= -.17040227E+02 E0= -.17044102E+02  d E =-.607599E-02  mag=     0.0000
       N       E                     dE             d eps       ncg     rms          rms(c)
DAV:   1    -0.170395974049E+02    0.68250E-03   -0.23482E+00   224   0.533E+00    0.170E-01
DAV:   2    -0.170420612249E+02   -0.24638E-02   -0.27444E-02   256   0.775E-01    0.955E-02
DAV:   3    -0.170419921496E+02    0.69075E-04   -0.93710E-04   256   0.131E-01
   8 F= -.17041992E+02 E0= -.17045867E+02  d E =-.176547E-02  mag=     0.0000
       N       E                     dE             d eps       ncg     rms          rms(c)
DAV:   1    -0.170419740560E+02    0.87169E-04   -0.11498E-03   240   0.123E-01    0.210E-02
DAV:   2    -0.170419762920E+02   -0.22361E-05   -0.15486E-05   144   0.197E-02
   9 F= -.17041976E+02 E0= -.17045852E+02  d E =-.174961E-02  mag=     0.0000
