 vasp.6.1.2 22Jul20 (build Aug  2 2021 21:04:21) gamma-only                      
 executed on             LinuxPGI date 2021.12.30  15:40:17
 running on    8 total cores
 distrk:  each k-point on    8 cores,    1 groups
 distr:  one band on NCORE=   8 cores,    1 groups


--------------------------------------------------------------------------------------------------------


 INCAR:
 POTCAR:    PAW_PBE Au 04Oct2007                  
 -----------------------------------------------------------------------------
|                                                                             |
|           W    W    AA    RRRRR   N    N  II  N    N   GGGG   !!!           |
|           W    W   A  A   R    R  NN   N  II  NN   N  G    G  !!!           |
|           W    W  A    A  R    R  N N  N  II  N N  N  G       !!!           |
|           W WW W  AAAAAA  RRRRR   N  N N  II  N  N N  G  GGG   !            |
|           WW  WW  A    A  R   R   N   NN  II  N   NN  G    G                |
|           W    W  A    A  R    R  N    N  II  N    N   GGGG   !!!           |
|                                                                             |
|     You use a magnetic or noncollinear calculation, but did not specify     |
|     the initial magnetic moment with the MAGMOM tag. Note that a            |
|     default of 1 will be used for all atoms. This ferromagnetic setup       |
|     may break the symmetry of the crystal, in particular it may rule        |
|     out finding an antiferromagnetic solution. Thence, we recommend         |
|     setting the initial magnetic moment manually or verifying carefully     |
|     that this magnetic setup is desired.                                    |
|                                                                             |
 -----------------------------------------------------------------------------

 -----------------------------------------------------------------------------
|                                                                             |
|           W    W    AA    RRRRR   N    N  II  N    N   GGGG   !!!           |
|           W    W   A  A   R    R  NN   N  II  NN   N  G    G  !!!           |
|           W    W  A    A  R    R  N N  N  II  N N  N  G       !!!           |
|           W WW W  AAAAAA  RRRRR   N  N N  II  N  N N  G  GGG   !            |
|           WW  WW  A    A  R   R   N   NN  II  N   NN  G    G                |
|           W    W  A    A  R    R  N    N  II  N    N   GGGG   !!!           |
|                                                                             |
|     For optimal performance we recommend to set                             |
|       NCORE = 4 - approx SQRT(number of cores).                             |
|     NCORE specifies how many cores store one orbital (NPAR=cpu/NCORE).      |
|     This setting can greatly improve the performance of VASP for DFT.       |
|     The default, NCORE=1 might be grossly inefficient on modern             |
|     multi-core architectures or massively parallel machines. Do your        |
|     own testing!!!!                                                         |
|     Unfortunately you need to use the default for GW and RPA                |
|     calculations (for HF NCORE is supported but not extensively tested      |
|     yet).                                                                   |
|                                                                             |
 -----------------------------------------------------------------------------

 POTCAR:    PAW_PBE Au 04Oct2007                  
   SHA256 =  d0044ae04e2bdce24051b198fc5c053d722a5bc6fe3c3b100514a13fc5d2db88 Au/POTCAR             
   COPYR  = (c) Copyright 04Oct2007 Georg Kresse                                                    
   COPYR  = This file is part of the software VASP. Any use, copying, and all other rights are regul
   COPYR  = If you do not have a valid VASP license, you may not use, copy or distribute this file. 
   VRHFIN =Au: s1d10                                                                                
   LEXCH  = PE                                                                                      
   EATOM  =   926.0867 eV,   68.0654 Ry                                                             
                                                                                                    
   TITEL  = PAW_PBE Au 04Oct2007                                                                    
   LULTRA =        F    use ultrasoft PP ?                                                          
   IUNSCR =        1    unscreen: 0-lin 1-nonlin 2-no                                               
   RPACOR =    2.330    partial core radius                                                         
   POMASS =  196.966; ZVAL   =   11.000    mass and valenz                                          
   RCORE  =    2.500    outmost cutoff radius                                                       
   RWIGS  =    2.840; RWIGS  =    1.503    wigner-seitz radius (au A)                               
   ENMAX  =  229.943; ENMIN  =  172.457 eV                                                          
   ICORE  =        3    local potential                                                             
   LCOR   =        T    correct aug charges                                                         
   LPAW   =        T    paw PP                                                                      
   EAUG   =  356.670                                                                                
   DEXC   =    0.000                                                                                
   RMAX   =    2.562    core radius for proj-oper                                                   
   RAUG   =    1.300    factor for augmentation sphere                                              
   RDEP   =    2.598    radius for radial grids                                                     
   RDEPT  =    2.193    core radius for aug-charge                                                  
                                                                                                    
   Atomic configuration                                                                             
   16 entries                                                                                       
     n  l   j            E        occ.                                                              
     1  0  0.50    -80748.5001   2.0000                                                             
     2  0  0.50    -14244.7466   2.0000                                                             
     2  1  1.50    -12310.9591   6.0000                                                             
     3  0  0.50     -3362.1768   2.0000                                                             
     3  1  1.50     -2801.5463   6.0000                                                             
     3  2  2.50     -2203.8206  10.0000                                                             
     4  0  0.50      -729.8168   2.0000                                                             
     4  1  1.50      -546.0527   6.0000                                                             
     4  2  2.50      -325.7302  10.0000                                                             
     4  3  3.50       -81.1472  14.0000                                                             
     5  0  0.50      -108.3201   2.0000                                                             
     5  1  1.50       -59.7479   6.0000                                                             
     5  2  2.50        -6.8783  10.0000                                                             
     6  0  0.50        -5.7602   1.0000                                                             
     6  1  1.50        -6.8029   0.0000                                                             
     5  3  2.50        -1.3606   0.0000                                                             
   Description                                                                                      
     l       E           TYP  RCUT    TYP  RCUT                                                     
     2     -6.8782861     23  2.500                                                                 
     2     -8.2388687     23  2.500                                                                 
     0     -5.7601759     23  2.500                                                                 
     0     -0.8493231     23  2.500                                                                 
     1     -2.7211652     23  2.500                                                                 
     1     27.2116520     23  2.500                                                                 
     3     -1.3605826     23  2.500                                                                 
  local pseudopotential read in
  partial core-charges read in
  partial kinetic energy density read in
  atomic valenz-charges read in
  non local Contribution for L=            2  read in
    real space projection operators read in
  non local Contribution for L=            2  read in
    real space projection operators read in
  non local Contribution for L=            0  read in
    real space projection operators read in
  non local Contribution for L=            0  read in
    real space projection operators read in
  non local Contribution for L=            1  read in
    real space projection operators read in
  non local Contribution for L=            1  read in
    real space projection operators read in
    PAW grid and wavefunctions read in
 
   number of l-projection  operators is LMAX  =            6
   number of lm-projection operators is LMMAX =           18
 
  PAW_PBE Au 04Oct2007                  :
 energy of atom  1       EATOM= -926.0867
 kinetic energy error for atom=    0.0062 (will be added to EATOM!!)
 
 
 POSCAR: Au
  positions in cartesian coordinates
  No initial velocities read in
 exchange correlation table for  LEXCH =        8
   RHO(1)=    0.500       N(1)  =     2000
   RHO(2)=  100.500       N(2)  =     4000
 


--------------------------------------------------------------------------------------------------------


 ion  position               nearest neighbor table
   1  0.499  0.400  0.381-   3 2.50   2 2.55
   2  0.545  0.495  0.420-   1 2.55   4 2.61   3 2.69   5 2.73   6 2.74
   3  0.425  0.463  0.435-   1 2.50   7 2.65   5 2.69   2 2.69
   4  0.575  0.603  0.443-   5 2.59   2 2.61   6 2.62
   5  0.458  0.575  0.454-   4 2.59   7 2.69   3 2.69   6 2.72   2 2.73
   6  0.546  0.535  0.528-   8 2.54   4 2.62   7 2.69   5 2.72   2 2.74
   7  0.426  0.504  0.540-   8 2.50   3 2.65   5 2.69   6 2.69
   8  0.502  0.490  0.618-   7 2.50   6 2.54
 

IMPORTANT INFORMATION: All symmetrisations will be switched off!
NOSYMM: (Re-)initialisation of all symmetry stuff for point group C_1.


----------------------------------------------------------------------------------------

                                     Primitive cell                                     

  volume of cell :   11577.4185

  direct lattice vectors                    reciprocal lattice vectors
    21.384594048  0.000000000  0.000000000     0.046762637  0.000000000  0.000000000
     0.000000000 22.738163680  0.000000000     0.000000000  0.043978925  0.000000000
     0.000000000  0.000000000 23.809777277     0.000000000  0.000000000  0.041999553

  length of vectors
    21.384594048 22.738163680 23.809777277     0.046762637  0.043978925  0.041999553

  position of ions in fractional coordinates (direct lattice)
     0.499240886  0.399702855  0.380973667
     0.545069518  0.494661538  0.419893219
     0.425251821  0.462504305  0.435480797
     0.574729077  0.603394719  0.443497463
     0.458270281  0.574799392  0.454466323
     0.546115549  0.535447109  0.528339242
     0.425636881  0.503619171  0.539652127
     0.502272793  0.489638487  0.617562298

  ion indices of the primitive-cell ions
   primitive index   ion index
                 1           1
                 2           2
                 3           3
                 4           4
                 5           5
                 6           6
                 7           7
                 8           8

----------------------------------------------------------------------------------------

 
 
 KPOINTS: KPOINTS created by Atomic Simulation Env

Automatic generation of k-mesh.
Space group operators:
 irot       det(A)        alpha          n_x          n_y          n_z        tau_x        tau_y        tau_z
    1     1.000000     0.000000     1.000000     0.000000     0.000000     0.000000     0.000000     0.000000
 
 Subroutine IBZKPT returns following result:
 ===========================================
 
 Found      1 irreducible k-points:
 
 Following reciprocal coordinates:
            Coordinates               Weight
  0.000000  0.000000  0.000000      1.000000
 
 Following cartesian coordinates:
            Coordinates               Weight
  0.000000  0.000000  0.000000      1.000000
 


--------------------------------------------------------------------------------------------------------




 Dimension of arrays:
   k-points           NKPTS =      1   k-points in BZ     NKDIM =      1   number of bands    NBANDS=     56
   number of dos      NEDOS =    301   number of ions     NIONS =      8
   non local maximal  LDIM  =      6   non local SUM 2l+1 LMDIM =     18
   total plane-waves  NPLWV = ******
   max r-space proj   IRMAX =      1   max aug-charges    IRDMAX=   7866
   dimension x,y,z NGX =   108 NGY =  112 NGZ =  120
   dimension x,y,z NGXF=   216 NGYF=  224 NGZF=  240
   support grid    NGXF=   216 NGYF=  224 NGZF=  240
   ions per type =               8
   NGX,Y,Z   is equivalent  to a cutoff of   8.40,  8.19,  8.38 a.u.
   NGXF,Y,Z  is equivalent  to a cutoff of  16.79, 16.38, 16.76 a.u.

 SYSTEM =  unknown system                          
 POSCAR =  Au                                      

 Startparameter for this run:
   NWRITE =      2    write-flag & timer
   PREC   = normal    normal or accurate (medium, high low for compatibility)
   ISTART =      0    job   : 0-new  1-cont  2-samecut
   ICHARG =      2    charge: 1-file 2-atom 10-const
   ISPIN  =      2    spin polarized calculation?
   LNONCOLLINEAR =      F non collinear calculations
   LSORBIT =      F    spin-orbit coupling
   INIWAV =      1    electr: 0-lowe 1-rand  2-diag
   LASPH  =      F    aspherical Exc in radial PAW
   METAGGA=      F    non-selfconsistent MetaGGA calc.

 Electronic Relaxation 1
   ENCUT  =  400.0 eV  29.40 Ry    5.42 a.u.  34.87 37.08 38.83*2*pi/ulx,y,z
   ENINI  =  400.0     initial cutoff
   ENAUG  =  356.7 eV  augmentation charge cutoff
   NELM   =     60;   NELMIN=  2; NELMDL=  0     # of ELM steps 
   EDIFF  = 0.1E-03   stopping-criterion for ELM
   LREAL  =      F    real-space projection
   NLSPLINE    = F    spline interpolate recip. space projectors
   LCOMPAT=      F    compatible to vasp.4.4
   GGA_COMPAT  = T    GGA compatible to vasp.4.4-vasp.4.6
   LMAXPAW     = -100 max onsite density
   LMAXMIX     =    2 max onsite mixed and CHGCAR
   VOSKOWN=      0    Vosko Wilk Nusair interpolation
   ROPT   =    0.00000
 Ionic relaxation
   EDIFFG = 0.1E-02   stopping-criterion for IOM
   NSW    =   1000    number of steps for IOM
   NBLOCK =      1;   KBLOCK =   1000    inner block; outer block 
   IBRION =      2    ionic relax: 0-MD 1-quasi-New 2-CG
   NFREE  =      1    steps in history (QN), initial steepest desc. (CG)
   ISIF   =      0    stress and relaxation
   IWAVPR =     11    prediction:  0-non 1-charg 2-wave 3-comb
   ISYM   =      0    0-nonsym 1-usesym 2-fastsym
   LCORR  =      T    Harris-Foulkes like correction to forces

   POTIM  = 0.5000    time-step for ionic-motion
   TEIN   =    0.0    initial temperature
   TEBEG  =    0.0;   TEEND  =   0.0 temperature during run
   SMASS  =  -3.00    Nose mass-parameter (am)
   estimated Nose-frequenzy (Omega)   =  0.10E-29 period in steps = 0.13E+47 mass=  -0.105E-25a.u.
   SCALEE = 1.0000    scale energy and forces
   NPACO  =    256;   APACO  = 16.0  distance and # of slots for P.C.
   PSTRESS=    0.0 pullay stress

  Mass of Ions in am
   POMASS = 196.97
  Ionic Valenz
   ZVAL   =  11.00
  Atomic Wigner-Seitz radii
   RWIGS  =  -1.00
  virtual crystal weights 
   VCA    =   1.00
   NELECT =      88.0000    total number of electrons
   NUPDOWN=      -1.0000    fix difference up-down

 DOS related values:
   EMIN   =  10.00;   EMAX   =-10.00  energy-range for DOS
   EFERMI =   0.00
   ISMEAR =     1;   SIGMA  =   0.20  broadening in eV -4-tet -1-fermi 0-gaus

 Electronic relaxation 2 (details)
   IALGO  =     38    algorithm
   LDIAG  =      T    sub-space diagonalisation (order eigenvalues)
   LSUBROT=      F    optimize rotation matrix (better conditioning)
   TURBO    =      0    0=normal 1=particle mesh
   IRESTART =      0    0=no restart 2=restart with 2 vectors
   NREBOOT  =      0    no. of reboots
   NMIN     =      0    reboot dimension
   EREF     =   0.00    reference energy to select bands
   IMIX   =      4    mixing-type and parameters
     AMIX     =   0.40;   BMIX     =  1.00
     AMIX_MAG =   1.60;   BMIX_MAG =  1.00
     AMIN     =   0.10
     WC   =   100.;   INIMIX=   1;  MIXPRE=   1;  MAXMIX= -45

 Intra band minimization:
   WEIMIN = 0.0010     energy-eigenvalue tresh-hold
   EBREAK =  0.45E-06  absolut break condition
   DEPER  =   0.30     relativ break condition  

   TIME   =   0.40     timestep for ELM

  volume/ion in A,a.u.               =    1447.18      9766.03
  Fermi-wavevector in a.u.,A,eV,Ry     =   0.321883  0.608271  1.409684  0.103609
  Thomas-Fermi vector in A             =   1.209771
 
 Write flags
   LWAVE        =      F    write WAVECAR
   LDOWNSAMPLE  =      F    k-point downsampling of WAVECAR
   LCHARG       =      F    write CHGCAR
   LVTOT        =      F    write LOCPOT, total local potential
   LVHAR        =      F    write LOCPOT, Hartree potential only
   LELF         =      F    write electronic localiz. function (ELF)
   LORBIT       =      0    0 simple, 1 ext, 2 COOP (PROOUT), +10 PAW based schemes


 Dipole corrections
   LMONO  =      F    monopole corrections only (constant potential shift)
   LDIPOL =      F    correct potential (dipole corrections)
   IDIPOL =      0    1-x, 2-y, 3-z, 4-all directions 
   EPSILON=  1.0000000 bulk dielectric constant

 Exchange correlation treatment:
   GGA     =    PE    GGA type
   LEXCH   =     8    internal setting for exchange type
   VOSKOWN=      0    Vosko Wilk Nusair interpolation
   LHFCALC =     F    Hartree Fock is set to
   LHFONE  =     F    Hartree Fock one center treatment
   AEXX    =    0.0000 exact exchange contribution

 Linear response parameters
   LEPSILON=     F    determine dielectric tensor
   LRPA    =     F    only Hartree local field effects (RPA)
   LNABLA  =     F    use nabla operator in PAW spheres
   LVEL    =     F    velocity operator in full k-point grid
   LINTERFAST=   F  fast interpolation
   KINTER  =     0    interpolate to denser k-point grid
   CSHIFT  =0.1000    complex shift for real part using Kramers Kronig
   OMEGAMAX=  -1.0    maximum frequency
   DEG_THRESHOLD= 0.2000000E-02 threshold for treating states as degnerate
   RTIME   =   -0.100 relaxation time in fs
  (WPLASMAI=    0.000 imaginary part of plasma frequency in eV, 0.658/RTIME)
   DFIELD  = 0.0000000 0.0000000 0.0000000 field for delta impulse in time
 
 Orbital magnetization related:
   ORBITALMAG=     F  switch on orbital magnetization
   LCHIMAG   =     F  perturbation theory with respect to B field
   DQ        =  0.001000  dq finite difference perturbation B field
   LLRAUG    =     F  two centre corrections for induced B field



--------------------------------------------------------------------------------------------------------


 conjugate gradient relaxation of ions
 charge density and potential will be updated during run
 spin polarized calculation
 Variant of blocked Davidson
 Davidson routine will perform the subspace rotation
 perform sub-space diagonalisation
    after iterative eigenvector-optimisation
 modified Broyden-mixing scheme, WC =      100.0
 initial mixing is a Kerker type mixing with AMIX =  0.4000 and BMIX =      1.0000
 Hartree-type preconditioning will be used
 using additional bands            12
 reciprocal scheme for non local part
 use partial core corrections
 calculate Harris-corrections to forces 
   (improved forces if not selfconsistent)
 use gradient corrections 
 use of overlap-Matrix (Vanderbilt PP)
 Methfessel and Paxton  Order N= 1 SIGMA  =   0.20


--------------------------------------------------------------------------------------------------------


  energy-cutoff  :      400.00
  volume of cell :    11577.42
      direct lattice vectors                 reciprocal lattice vectors
    21.384594048  0.000000000  0.000000000     0.046762637  0.000000000  0.000000000
     0.000000000 22.738163680  0.000000000     0.000000000  0.043978925  0.000000000
     0.000000000  0.000000000 23.809777277     0.000000000  0.000000000  0.041999553

  length of vectors
    21.384594048 22.738163680 23.809777277     0.046762637  0.043978925  0.041999553


 
 k-points in units of 2pi/SCALE and weight: KPOINTS created by Atomic Simulation Env
   0.00000000  0.00000000  0.00000000       1.000
 
 k-points in reciprocal lattice and weights: KPOINTS created by Atomic Simulation Env
   0.00000000  0.00000000  0.00000000       1.000
 
 position of ions in fractional coordinates (direct lattice) 
   0.49924089  0.39970286  0.38097367
   0.54506952  0.49466154  0.41989322
   0.42525182  0.46250431  0.43548080
   0.57472908  0.60339472  0.44349746
   0.45827028  0.57479939  0.45446632
   0.54611555  0.53544711  0.52833924
   0.42563688  0.50361917  0.53965213
   0.50227279  0.48963849  0.61756230
 
 position of ions in cartesian coordinates  (Angst):
  10.67606369  9.08850894  9.07089816
  11.65609037 11.24769501  9.99756402
   9.09383756 10.51649860 10.36870078
  12.29034800 13.72008788 10.55957582
   9.79992392 13.06988266 10.82074192
  11.67845933 12.17508401 12.57963968
   9.10207192 11.45137514 12.84899696
  10.74089978 11.13348007 14.70402078
 


--------------------------------------------------------------------------------------------------------


 use parallel FFT for orbitals z direction half grid
 k-point   1 :   0.0000 0.0000 0.0000  plane waves:  105090

 maximum and minimum number of plane-waves per node :     13144    13131

 maximum number of plane-waves:    105090
 maximum index in each direction: 
   IXMAX=   34   IYMAX=   37   IZMAX=   38
   IXMIN=  -34   IYMIN=  -37   IZMIN=    0


 parallel 3D FFT for wavefunctions:
    minimum data exchange during FFTs selected (reduces bandwidth)
 parallel 3D FFT for charge:
    minimum data exchange during FFTs selected (reduces bandwidth)


 total amount of memory used by VASP MPI-rank0   230570. kBytes
=======================================================================

   base      :      30000. kBytes
   nonl-proj :       3572. kBytes
   fftplans  :      53144. kBytes
   grid      :     120289. kBytes
   one-center:         15. kBytes
   wavefun   :      23550. kBytes
 
     INWAV:  cpu time    0.0001: real time    0.0001
 Broyden mixing: mesh for mixing (old mesh)
   NGX = 69   NGY = 75   NGZ = 77
  (NGX  =216   NGY  =224   NGZ  =240)
  gives a total of 398475 points

 initial charge density was supplied:
 charge density of overlapping atoms calculated
 number of electron      88.0000000 magnetization       8.0000000
 keeping initial charge density in first step


--------------------------------------------------------------------------------------------------------


 Maximum index for augmentation-charges           941 (set IRDMAX)


--------------------------------------------------------------------------------------------------------


 First call to EWALD:  gamma=   0.078
 Maximum number of real-space cells 3x 3x 3
 Maximum number of reciprocal cells 3x 3x 3

    FEWALD:  cpu time    0.0011: real time    0.0011


--------------------------------------- Iteration      1(   1)  ---------------------------------------


    POTLOK:  cpu time    3.8738: real time    3.9257
    SETDIJ:  cpu time    0.0251: real time    0.0251
     EDDAV:  cpu time    6.1733: real time    6.2009
       DOS:  cpu time    0.0026: real time    0.0026
    --------------------------------------------
      LOOP:  cpu time   10.0748: real time   10.1543

 eigenvalue-minimisations  :   224
 total energy-change (2. order) : 0.7494617E+03  (-0.1334582E+04)
 number of electron      88.0000000 magnetization       8.0000000
 augmentation part       88.0000000 magnetization       8.0000000

 Free energy of the ion-electron system (eV)
  ---------------------------------------------------
  alpha Z        PSCENC =         6.43899565
  Ewald energy   TEWEN  =      7986.71067778
  -Hartree energ DENC   =    -15065.47547188
  -exchange      EXHF   =         0.00000000
  -V(xc)+E(xc)   XCENC  =       118.44979361
  PAW double counting   =      6992.17180065    -6807.49900724
  entropy T*S    EENTRO =        -0.03317442
  eigenvalues    EBANDS =       110.05393171
  atomic energy  EATOM  =      7408.64415014
  Solvation  Ediel_sol  =         0.00000000
  ---------------------------------------------------
  free energy    TOTEN  =       749.46169599 eV

  energy without entropy =      749.49487042  energy(sigma->0) =      749.47275413


--------------------------------------------------------------------------------------------------------




--------------------------------------- Iteration      1(   2)  ---------------------------------------


     EDDAV:  cpu time    9.7966: real time    9.8069
       DOS:  cpu time    0.0124: real time    0.0124
    --------------------------------------------
      LOOP:  cpu time    9.8090: real time    9.8193

 eigenvalue-minimisations  :   416
 total energy-change (2. order) :-0.2929591E+03  (-0.2724001E+03)
 number of electron      88.0000000 magnetization       8.0000000
 augmentation part       88.0000000 magnetization       8.0000000

 Free energy of the ion-electron system (eV)
  ---------------------------------------------------
  alpha Z        PSCENC =         6.43899565
  Ewald energy   TEWEN  =      7986.71067778
  -Hartree energ DENC   =    -15065.47547188
  -exchange      EXHF   =         0.00000000
  -V(xc)+E(xc)   XCENC  =       118.44979361
  PAW double counting   =      6992.17180065    -6807.49900724
  entropy T*S    EENTRO =        -0.03633598
  eigenvalues    EBANDS =      -182.90199213
  atomic energy  EATOM  =      7408.64415014
  Solvation  Ediel_sol  =         0.00000000
  ---------------------------------------------------
  free energy    TOTEN  =       456.50261060 eV

  energy without entropy =      456.53894657  energy(sigma->0) =      456.51472259


--------------------------------------------------------------------------------------------------------




--------------------------------------- Iteration      1(   3)  ---------------------------------------


     EDDAV:  cpu time    9.3227: real time    9.3367
       DOS:  cpu time    0.0027: real time    0.0027
    --------------------------------------------
      LOOP:  cpu time    9.3254: real time    9.3394

 eigenvalue-minimisations  :   392
 total energy-change (2. order) :-0.3149543E+03  (-0.2968310E+03)
 number of electron      88.0000000 magnetization       8.0000000
 augmentation part       88.0000000 magnetization       8.0000000

 Free energy of the ion-electron system (eV)
  ---------------------------------------------------
  alpha Z        PSCENC =         6.43899565
  Ewald energy   TEWEN  =      7986.71067778
  -Hartree energ DENC   =    -15065.47547188
  -exchange      EXHF   =         0.00000000
  -V(xc)+E(xc)   XCENC  =       118.44979361
  PAW double counting   =      6992.17180065    -6807.49900724
  entropy T*S    EENTRO =        -0.00377133
  eigenvalues    EBANDS =      -497.88883874
  atomic energy  EATOM  =      7408.64415014
  Solvation  Ediel_sol  =         0.00000000
  ---------------------------------------------------
  free energy    TOTEN  =       141.54832863 eV

  energy without entropy =      141.55209996  energy(sigma->0) =      141.54958574


--------------------------------------------------------------------------------------------------------




--------------------------------------- Iteration      1(   4)  ---------------------------------------


     EDDAV:  cpu time    7.8714: real time    7.8796
       DOS:  cpu time    0.0025: real time    0.0025
    --------------------------------------------
      LOOP:  cpu time    7.8739: real time    7.8821

 eigenvalue-minimisations  :   320
 total energy-change (2. order) :-0.1291050E+03  (-0.1227595E+03)
 number of electron      88.0000000 magnetization       8.0000000
 augmentation part       88.0000000 magnetization       8.0000000

 Free energy of the ion-electron system (eV)
  ---------------------------------------------------
  alpha Z        PSCENC =         6.43899565
  Ewald energy   TEWEN  =      7986.71067778
  -Hartree energ DENC   =    -15065.47547188
  -exchange      EXHF   =         0.00000000
  -V(xc)+E(xc)   XCENC  =       118.44979361
  PAW double counting   =      6992.17180065    -6807.49900724
  entropy T*S    EENTRO =        -0.02794592
  eigenvalues    EBANDS =      -626.96963175
  atomic energy  EATOM  =      7408.64415014
  Solvation  Ediel_sol  =         0.00000000
  ---------------------------------------------------
  free energy    TOTEN  =        12.44336103 eV

  energy without entropy =       12.47130695  energy(sigma->0) =       12.45267634


--------------------------------------------------------------------------------------------------------




--------------------------------------- Iteration      1(   5)  ---------------------------------------


     EDDAV:  cpu time    7.4896: real time    7.4975
       DOS:  cpu time    0.0021: real time    0.0021
    CHARGE:  cpu time    0.7868: real time    0.7899
    MIXING:  cpu time    0.0680: real time    0.0680
    --------------------------------------------
      LOOP:  cpu time    8.3465: real time    8.3575

 eigenvalue-minimisations  :   296
 total energy-change (2. order) :-0.2569231E+02  (-0.2258530E+02)
 number of electron      88.0000021 magnetization       7.2708528
 augmentation part       30.9047866 magnetization       6.6284458

 Broyden mixing:
  rms(total) = 0.21714E+01    rms(broyden)= 0.21714E+01
  rms(prec ) = 0.21941E+01
  weight for this iteration     100.00

 Free energy of the ion-electron system (eV)
  ---------------------------------------------------
  alpha Z        PSCENC =         6.43899565
  Ewald energy   TEWEN  =      7986.71067778
  -Hartree energ DENC   =    -15065.47547188
  -exchange      EXHF   =         0.00000000
  -V(xc)+E(xc)   XCENC  =       118.44979361
  PAW double counting   =      6992.17180065    -6807.49900724
  entropy T*S    EENTRO =        -0.02411301
  eigenvalues    EBANDS =      -652.66577285
  atomic energy  EATOM  =      7408.64415014
  Solvation  Ediel_sol  =         0.00000000
  ---------------------------------------------------
  free energy    TOTEN  =       -13.24894716 eV

  energy without entropy =      -13.22483415  energy(sigma->0) =      -13.24090949


--------------------------------------------------------------------------------------------------------




--------------------------------------- Iteration      1(   6)  ---------------------------------------


    POTLOK:  cpu time    3.9364: real time    3.9402
    SETDIJ:  cpu time    0.0271: real time    0.0271
     EDDAV:  cpu time    6.5130: real time    6.5239
       DOS:  cpu time    0.0074: real time    0.0074
    CHARGE:  cpu time    0.7533: real time    0.7541
    MIXING:  cpu time    0.0669: real time    0.0669
    --------------------------------------------
      LOOP:  cpu time   11.3041: real time   11.3197

 eigenvalue-minimisations  :   248
 total energy-change (2. order) : 0.8026258E+01  (-0.6942308E+01)
 number of electron      88.0000019 magnetization       6.4188487
 augmentation part       32.4047121 magnetization       5.9864162

 Broyden mixing:
  rms(total) = 0.15549E+01    rms(broyden)= 0.15549E+01
  rms(prec ) = 0.15609E+01
  weight for this iteration     100.00

 eigenvalues of (default mixing * dielectric matrix)
  average eigenvalue GAMMA=   0.9499
  0.9499

 Free energy of the ion-electron system (eV)
  ---------------------------------------------------
  alpha Z        PSCENC =         6.43899565
  Ewald energy   TEWEN  =      7986.71067778
  -Hartree energ DENC   =    -15000.46674465
  -exchange      EXHF   =         0.00000000
  -V(xc)+E(xc)   XCENC  =       123.78096146
  PAW double counting   =      7385.76098384    -7209.84252553
  entropy T*S    EENTRO =         0.00813367
  eigenvalues    EBANDS =      -706.25732160
  atomic energy  EATOM  =      7408.64415014
  Solvation  Ediel_sol  =         0.00000000
  ---------------------------------------------------
  free energy    TOTEN  =        -5.22268924 eV

  energy without entropy =       -5.23082291  energy(sigma->0) =       -5.22540046


--------------------------------------------------------------------------------------------------------




--------------------------------------- Iteration      1(   7)  ---------------------------------------


    POTLOK:  cpu time    3.8793: real time    3.9022
    SETDIJ:  cpu time    0.0265: real time    0.0265
     EDDAV:  cpu time    6.6208: real time    6.6291
       DOS:  cpu time    0.0075: real time    0.0075
    CHARGE:  cpu time    0.7652: real time    0.7661
    MIXING:  cpu time    0.0704: real time    0.0705
    --------------------------------------------
      LOOP:  cpu time   11.3698: real time   11.4020

 eigenvalue-minimisations  :   256
 total energy-change (2. order) : 0.3861263E+01  (-0.3453437E+00)
 number of electron      88.0000019 magnetization       5.3656738
 augmentation part       32.2399718 magnetization       4.9070051

 Broyden mixing:
  rms(total) = 0.71444E+00    rms(broyden)= 0.71444E+00
  rms(prec ) = 0.71697E+00
  weight for this iteration     100.00

 eigenvalues of (default mixing * dielectric matrix)
  average eigenvalue GAMMA=   1.1549
  1.6329  0.6769

 Free energy of the ion-electron system (eV)
  ---------------------------------------------------
  alpha Z        PSCENC =         6.43899565
  Ewald energy   TEWEN  =      7986.71067778
  -Hartree energ DENC   =    -15029.36653633
  -exchange      EXHF   =         0.00000000
  -V(xc)+E(xc)   XCENC  =       127.65421007
  PAW double counting   =      7760.16503833    -7587.98035292
  entropy T*S    EENTRO =         0.00855462
  eigenvalues    EBANDS =      -673.63616384
  atomic energy  EATOM  =      7408.64415014
  Solvation  Ediel_sol  =         0.00000000
  ---------------------------------------------------
  free energy    TOTEN  =        -1.36142651 eV

  energy without entropy =       -1.36998112  energy(sigma->0) =       -1.36427805


--------------------------------------------------------------------------------------------------------




--------------------------------------- Iteration      1(   8)  ---------------------------------------


    POTLOK:  cpu time    3.9063: real time    3.9129
    SETDIJ:  cpu time    0.0258: real time    0.0258
     EDDAV:  cpu time    6.5415: real time    6.5481
       DOS:  cpu time    0.0055: real time    0.0055
    CHARGE:  cpu time    0.7670: real time    0.7678
    MIXING:  cpu time    0.0762: real time    0.0763
    --------------------------------------------
      LOOP:  cpu time   11.3223: real time   11.3364

 eigenvalue-minimisations  :   256
 total energy-change (2. order) :-0.5094451E+01  (-0.1937978E+00)
 number of electron      88.0000019 magnetization       4.8141244
 augmentation part       32.0829903 magnetization       4.4522770

 Broyden mixing:
  rms(total) = 0.25877E+00    rms(broyden)= 0.25877E+00
  rms(prec ) = 0.26186E+00
  weight for this iteration     100.00

 eigenvalues of (default mixing * dielectric matrix)
  average eigenvalue GAMMA=   1.1901
  1.9179  1.0174  0.6350

 Free energy of the ion-electron system (eV)
  ---------------------------------------------------
  alpha Z        PSCENC =         6.43899565
  Ewald energy   TEWEN  =      7986.71067778
  -Hartree energ DENC   =    -15049.34030132
  -exchange      EXHF   =         0.00000000
  -V(xc)+E(xc)   XCENC  =       124.06784701
  PAW double counting   =      8083.91890380    -7914.86279140
  entropy T*S    EENTRO =         0.00592569
  eigenvalues    EBANDS =      -652.03928506
  atomic energy  EATOM  =      7408.64415014
  Solvation  Ediel_sol  =         0.00000000
  ---------------------------------------------------
  free energy    TOTEN  =        -6.45587772 eV

  energy without entropy =       -6.46180340  energy(sigma->0) =       -6.45785295


--------------------------------------------------------------------------------------------------------




--------------------------------------- Iteration      1(   9)  ---------------------------------------


    POTLOK:  cpu time    3.8790: real time    3.8882
    SETDIJ:  cpu time    0.0253: real time    0.0254
     EDDAV:  cpu time    6.6601: real time    6.6670
       DOS:  cpu time    0.0095: real time    0.0095
    CHARGE:  cpu time    0.7688: real time    0.7695
    MIXING:  cpu time    0.0803: real time    0.0803
    --------------------------------------------
      LOOP:  cpu time   11.4229: real time   11.4398

 eigenvalue-minimisations  :   256
 total energy-change (2. order) :-0.2792168E+01  (-0.7546671E-01)
 number of electron      88.0000019 magnetization       4.0044913
 augmentation part       32.1072056 magnetization       3.7289916

 Broyden mixing:
  rms(total) = 0.15771E+00    rms(broyden)= 0.15771E+00
  rms(prec ) = 0.15998E+00
  weight for this iteration     100.00

 eigenvalues of (default mixing * dielectric matrix)
  average eigenvalue GAMMA=   1.2460
  2.1683  1.3350  0.8601  0.6206

 Free energy of the ion-electron system (eV)
  ---------------------------------------------------
  alpha Z        PSCENC =         6.43899565
  Ewald energy   TEWEN  =      7986.71067778
  -Hartree energ DENC   =    -15047.07173906
  -exchange      EXHF   =         0.00000000
  -V(xc)+E(xc)   XCENC  =       121.88103467
  PAW double counting   =      8127.83232816    -7959.44975460
  entropy T*S    EENTRO =         0.00582787
  eigenvalues    EBANDS =      -654.23956621
  atomic energy  EATOM  =      7408.64415014
  Solvation  Ediel_sol  =         0.00000000
  ---------------------------------------------------
  free energy    TOTEN  =        -9.24804561 eV

  energy without entropy =       -9.25387347  energy(sigma->0) =       -9.24998823


--------------------------------------------------------------------------------------------------------




--------------------------------------- Iteration      1(  10)  ---------------------------------------


    POTLOK:  cpu time    3.8901: real time    3.8970
    SETDIJ:  cpu time    0.0353: real time    0.0353
     EDDAV:  cpu time    6.2483: real time    6.2609
       DOS:  cpu time    0.0094: real time    0.0095
    CHARGE:  cpu time    0.7761: real time    0.7774
    MIXING:  cpu time    0.0926: real time    0.0927
    --------------------------------------------
      LOOP:  cpu time   11.0519: real time   11.0728

 eigenvalue-minimisations  :   240
 total energy-change (2. order) :-0.2757592E+01  (-0.9431586E-01)
 number of electron      88.0000019 magnetization       3.2356462
 augmentation part       32.1573559 magnetization       3.0614303

 Broyden mixing:
  rms(total) = 0.10596E+00    rms(broyden)= 0.10595E+00
  rms(prec ) = 0.10694E+00
  weight for this iteration     100.00

 eigenvalues of (default mixing * dielectric matrix)
  average eigenvalue GAMMA=   1.2949
  2.5575  1.5163  0.8826  0.8826  0.6355

 Free energy of the ion-electron system (eV)
  ---------------------------------------------------
  alpha Z        PSCENC =         6.43899565
  Ewald energy   TEWEN  =      7986.71067778
  -Hartree energ DENC   =    -15043.03127423
  -exchange      EXHF   =         0.00000000
  -V(xc)+E(xc)   XCENC  =       119.64943625
  PAW double counting   =      8139.26984449    -7971.41692728
  entropy T*S    EENTRO =         0.00670574
  eigenvalues    EBANDS =      -658.27724581
  atomic energy  EATOM  =      7408.64415014
  Solvation  Ediel_sol  =         0.00000000
  ---------------------------------------------------
  free energy    TOTEN  =       -12.00563726 eV

  energy without entropy =      -12.01234300  energy(sigma->0) =      -12.00787251


--------------------------------------------------------------------------------------------------------




--------------------------------------- Iteration      1(  11)  ---------------------------------------


    POTLOK:  cpu time    3.9057: real time    3.9305
    SETDIJ:  cpu time    0.0256: real time    0.0256
     EDDAV:  cpu time    5.9278: real time    5.9343
       DOS:  cpu time    0.0039: real time    0.0039
    CHARGE:  cpu time    0.7631: real time    0.7638
    MIXING:  cpu time    0.0971: real time    0.0972
    --------------------------------------------
      LOOP:  cpu time   10.7231: real time   10.7552

 eigenvalue-minimisations  :   224
 total energy-change (2. order) :-0.1720047E+01  (-0.5492598E-01)
 number of electron      88.0000019 magnetization       2.3766742
 augmentation part       32.1726444 magnetization       2.2348086

 Broyden mixing:
  rms(total) = 0.77791E-01    rms(broyden)= 0.77791E-01
  rms(prec ) = 0.78751E-01
  weight for this iteration     100.00

 eigenvalues of (default mixing * dielectric matrix)
  average eigenvalue GAMMA=   1.3522
  2.6953  1.8745  1.1023  1.1023  0.6934  0.6455

 Free energy of the ion-electron system (eV)
  ---------------------------------------------------
  alpha Z        PSCENC =         6.43899565
  Ewald energy   TEWEN  =      7986.71067778
  -Hartree energ DENC   =    -15040.75074930
  -exchange      EXHF   =         0.00000000
  -V(xc)+E(xc)   XCENC  =       118.24246458
  PAW double counting   =      8124.26205451    -7956.47805991
  entropy T*S    EENTRO =         0.01040040
  eigenvalues    EBANDS =      -660.80561761
  atomic energy  EATOM  =      7408.64415014
  Solvation  Ediel_sol  =         0.00000000
  ---------------------------------------------------
  free energy    TOTEN  =       -13.72568378 eV

  energy without entropy =      -13.73608417  energy(sigma->0) =      -13.72915057


--------------------------------------------------------------------------------------------------------




--------------------------------------- Iteration      1(  12)  ---------------------------------------


    POTLOK:  cpu time    3.8980: real time    3.9045
    SETDIJ:  cpu time    0.0257: real time    0.0258
     EDDAV:  cpu time    6.2227: real time    6.2316
       DOS:  cpu time    0.0036: real time    0.0036
    CHARGE:  cpu time    0.7673: real time    0.7723
    MIXING:  cpu time    0.1017: real time    0.1018
    --------------------------------------------
      LOOP:  cpu time   11.0191: real time   11.0395

 eigenvalue-minimisations  :   240
 total energy-change (2. order) :-0.1111155E+01  (-0.3499121E-01)
 number of electron      88.0000019 magnetization       1.4344210
 augmentation part       32.1840404 magnetization       1.3100266

 Broyden mixing:
  rms(total) = 0.52289E-01    rms(broyden)= 0.52288E-01
  rms(prec ) = 0.53056E-01
  weight for this iteration     100.00

 eigenvalues of (default mixing * dielectric matrix)
  average eigenvalue GAMMA=   1.5588
  3.9626  2.4196  1.2018  1.2018  0.8335  0.6379  0.6546

 Free energy of the ion-electron system (eV)
  ---------------------------------------------------
  alpha Z        PSCENC =         6.43899565
  Ewald energy   TEWEN  =      7986.71067778
  -Hartree energ DENC   =    -15037.33226982
  -exchange      EXHF   =         0.00000000
  -V(xc)+E(xc)   XCENC  =       117.25422235
  PAW double counting   =      8090.92110729    -7922.89576773
  entropy T*S    EENTRO =         0.01288325
  eigenvalues    EBANDS =      -664.59083817
  atomic energy  EATOM  =      7408.64415014
  Solvation  Ediel_sol  =         0.00000000
  ---------------------------------------------------
  free energy    TOTEN  =       -14.83683926 eV

  energy without entropy =      -14.84972252  energy(sigma->0) =      -14.84113368


--------------------------------------------------------------------------------------------------------




--------------------------------------- Iteration      1(  13)  ---------------------------------------


    POTLOK:  cpu time    3.8703: real time    3.8750
    SETDIJ:  cpu time    0.0253: real time    0.0253
     EDDAV:  cpu time    6.2241: real time    6.2324
       DOS:  cpu time    0.0039: real time    0.0039
    CHARGE:  cpu time    0.8124: real time    0.8132
    MIXING:  cpu time    0.1028: real time    0.1029
    --------------------------------------------
      LOOP:  cpu time   11.0388: real time   11.0527

 eigenvalue-minimisations  :   240
 total energy-change (2. order) :-0.7531879E+00  (-0.2382315E-01)
 number of electron      88.0000019 magnetization       1.0838121
 augmentation part       32.2003956 magnetization       1.0147082

 Broyden mixing:
  rms(total) = 0.33385E-01    rms(broyden)= 0.33384E-01
  rms(prec ) = 0.34141E-01
  weight for this iteration     100.00

 eigenvalues of (default mixing * dielectric matrix)
  average eigenvalue GAMMA=   1.5671
  4.6134  2.3821  1.5521  0.9935  0.9935  0.7235  0.6393  0.6393

 Free energy of the ion-electron system (eV)
  ---------------------------------------------------
  alpha Z        PSCENC =         6.43899565
  Ewald energy   TEWEN  =      7986.71067778
  -Hartree energ DENC   =    -15033.26731123
  -exchange      EXHF   =         0.00000000
  -V(xc)+E(xc)   XCENC  =       116.51077862
  PAW double counting   =      8066.76419154    -7898.52085678
  entropy T*S    EENTRO =         0.01224510
  eigenvalues    EBANDS =      -668.88289794
  atomic energy  EATOM  =      7408.64415014
  Solvation  Ediel_sol  =         0.00000000
  ---------------------------------------------------
  free energy    TOTEN  =       -15.59002712 eV

  energy without entropy =      -15.60227222  energy(sigma->0) =      -15.59410882


--------------------------------------------------------------------------------------------------------




--------------------------------------- Iteration      1(  14)  ---------------------------------------


    POTLOK:  cpu time    3.8769: real time    3.8860
    SETDIJ:  cpu time    0.0264: real time    0.0264
     EDDAV:  cpu time    6.6681: real time    6.6790
       DOS:  cpu time    0.0036: real time    0.0036
    CHARGE:  cpu time    0.7908: real time    0.7914
    MIXING:  cpu time    0.1167: real time    0.1168
    --------------------------------------------
      LOOP:  cpu time   11.4824: real time   11.5033

 eigenvalue-minimisations  :   264
 total energy-change (2. order) :-0.1979115E+00  (-0.1787814E-02)
 number of electron      88.0000019 magnetization       0.6211353
 augmentation part       32.1889987 magnetization       0.5731817

 Broyden mixing:
  rms(total) = 0.26064E-01    rms(broyden)= 0.26063E-01
  rms(prec ) = 0.26702E-01
  weight for this iteration     100.00

 eigenvalues of (default mixing * dielectric matrix)
  average eigenvalue GAMMA=   1.6343
  5.6286  2.3899  1.4271  1.3774  1.1081  0.8547  0.7090  0.6070  0.6070

 Free energy of the ion-electron system (eV)
  ---------------------------------------------------
  alpha Z        PSCENC =         6.43899565
  Ewald energy   TEWEN  =      7986.71067778
  -Hartree energ DENC   =    -15032.41194025
  -exchange      EXHF   =         0.00000000
  -V(xc)+E(xc)   XCENC  =       116.31668951
  PAW double counting   =      8073.62391202    -7905.36127194
  entropy T*S    EENTRO =         0.01197335
  eigenvalues    EBANDS =      -669.76112490
  atomic energy  EATOM  =      7408.64415014
  Solvation  Ediel_sol  =         0.00000000
  ---------------------------------------------------
  free energy    TOTEN  =       -15.78793865 eV

  energy without entropy =      -15.79991200  energy(sigma->0) =      -15.79192977


--------------------------------------------------------------------------------------------------------




--------------------------------------- Iteration      1(  15)  ---------------------------------------


    POTLOK:  cpu time    3.8967: real time    3.9085
    SETDIJ:  cpu time    0.0258: real time    0.0258
     EDDAV:  cpu time    6.4013: real time    6.4076
       DOS:  cpu time    0.0010: real time    0.0255
    CHARGE:  cpu time    0.7626: real time    0.7633
    MIXING:  cpu time    0.1255: real time    0.1257
    --------------------------------------------
      LOOP:  cpu time   11.2129: real time   11.2564

 eigenvalue-minimisations  :   248
 total energy-change (2. order) :-0.3444449E+00  (-0.2042103E-02)
 number of electron      88.0000019 magnetization       0.3209052
 augmentation part       32.1979864 magnetization       0.3064976

 Broyden mixing:
  rms(total) = 0.14485E-01    rms(broyden)= 0.14484E-01
  rms(prec ) = 0.15031E-01
  weight for this iteration     100.00

 eigenvalues of (default mixing * dielectric matrix)
  average eigenvalue GAMMA=   1.7905
  6.8791  2.4961  2.4961  1.4355  1.0635  0.8172  0.8172  0.6952  0.6167  0.5887

 Free energy of the ion-electron system (eV)
  ---------------------------------------------------
  alpha Z        PSCENC =         6.43899565
  Ewald energy   TEWEN  =      7986.71067778
  -Hartree energ DENC   =    -15029.78539236
  -exchange      EXHF   =         0.00000000
  -V(xc)+E(xc)   XCENC  =       115.93684485
  PAW double counting   =      8080.80605040    -7912.52972604
  entropy T*S    EENTRO =         0.01169294
  eigenvalues    EBANDS =      -672.36567691
  atomic energy  EATOM  =      7408.64415014
  Solvation  Ediel_sol  =         0.00000000
  ---------------------------------------------------
  free energy    TOTEN  =       -16.13238356 eV

  energy without entropy =      -16.14407651  energy(sigma->0) =      -16.13628121


--------------------------------------------------------------------------------------------------------




--------------------------------------- Iteration      1(  16)  ---------------------------------------


    POTLOK:  cpu time    3.9285: real time    3.9324
    SETDIJ:  cpu time    0.0255: real time    0.0255
     EDDAV:  cpu time    6.5405: real time    6.5468
       DOS:  cpu time    0.0049: real time    0.0049
    CHARGE:  cpu time    0.8020: real time    0.8027
    MIXING:  cpu time    0.1279: real time    0.1280
    --------------------------------------------
      LOOP:  cpu time   11.4294: real time   11.4403

 eigenvalue-minimisations  :   256
 total energy-change (2. order) :-0.2051621E+00  (-0.6117987E-03)
 number of electron      88.0000019 magnetization       0.1945368
 augmentation part       32.1957256 magnetization       0.1917961

 Broyden mixing:
  rms(total) = 0.82063E-02    rms(broyden)= 0.82052E-02
  rms(prec ) = 0.86627E-02
  weight for this iteration     100.00

 eigenvalues of (default mixing * dielectric matrix)
  average eigenvalue GAMMA=   1.8542
  7.8017  2.9782  2.3775  1.6136  1.0293  1.0293  1.0082  0.7154  0.6520  0.6243
  0.5668

 Free energy of the ion-electron system (eV)
  ---------------------------------------------------
  alpha Z        PSCENC =         6.43899565
  Ewald energy   TEWEN  =      7986.71067778
  -Hartree energ DENC   =    -15028.35082915
  -exchange      EXHF   =         0.00000000
  -V(xc)+E(xc)   XCENC  =       115.71786409
  PAW double counting   =      8088.97533683    -7920.70333264
  entropy T*S    EENTRO =         0.01166858
  eigenvalues    EBANDS =      -673.78207691
  atomic energy  EATOM  =      7408.64415014
  Solvation  Ediel_sol  =         0.00000000
  ---------------------------------------------------
  free energy    TOTEN  =       -16.33754563 eV

  energy without entropy =      -16.34921422  energy(sigma->0) =      -16.34143516


--------------------------------------------------------------------------------------------------------




--------------------------------------- Iteration      1(  17)  ---------------------------------------


    POTLOK:  cpu time    3.8442: real time    3.8538
    SETDIJ:  cpu time    0.0258: real time    0.0258
     EDDAV:  cpu time    6.2893: real time    6.2975
       DOS:  cpu time    0.0052: real time    0.0052
    CHARGE:  cpu time    0.7514: real time    0.7521
    MIXING:  cpu time    0.1434: real time    0.1436
    --------------------------------------------
      LOOP:  cpu time   11.0594: real time   11.0782

 eigenvalue-minimisations  :   240
 total energy-change (2. order) :-0.6395467E-01  (-0.2097467E-03)
 number of electron      88.0000019 magnetization       0.1133532
 augmentation part       32.1963743 magnetization       0.1117229

 Broyden mixing:
  rms(total) = 0.47267E-02    rms(broyden)= 0.47261E-02
  rms(prec ) = 0.51493E-02
  weight for this iteration     100.00

 eigenvalues of (default mixing * dielectric matrix)
  average eigenvalue GAMMA=   1.8936
  8.4498  3.4352  2.3207  1.8337  1.2773  1.0256  0.9295  0.9295  0.7044  0.6307
  0.6307  0.5562

 Free energy of the ion-electron system (eV)
  ---------------------------------------------------
  alpha Z        PSCENC =         6.43899565
  Ewald energy   TEWEN  =      7986.71067778
  -Hartree energ DENC   =    -15027.60286649
  -exchange      EXHF   =         0.00000000
  -V(xc)+E(xc)   XCENC  =       115.65022315
  PAW double counting   =      8090.02350568    -7921.75387347
  entropy T*S    EENTRO =         0.01166838
  eigenvalues    EBANDS =      -674.52398112
  atomic energy  EATOM  =      7408.64415014
  Solvation  Ediel_sol  =         0.00000000
  ---------------------------------------------------
  free energy    TOTEN  =       -16.40150030 eV

  energy without entropy =      -16.41316868  energy(sigma->0) =      -16.40538976


--------------------------------------------------------------------------------------------------------




--------------------------------------- Iteration      1(  18)  ---------------------------------------


    POTLOK:  cpu time    3.8433: real time    3.8489
    SETDIJ:  cpu time    0.0253: real time    0.0253
     EDDAV:  cpu time    5.6718: real time    5.6797
       DOS:  cpu time    0.0052: real time    0.0052
    CHARGE:  cpu time    0.7896: real time    0.7902
    MIXING:  cpu time    0.1554: real time    0.1555
    --------------------------------------------
      LOOP:  cpu time   10.4905: real time   10.5048

 eigenvalue-minimisations  :   208
 total energy-change (2. order) :-0.3109938E-01  (-0.7722521E-04)
 number of electron      88.0000019 magnetization       0.0649045
 augmentation part       32.1964359 magnetization       0.0644284

 Broyden mixing:
  rms(total) = 0.28517E-02    rms(broyden)= 0.28516E-02
  rms(prec ) = 0.32072E-02
  weight for this iteration     100.00

 eigenvalues of (default mixing * dielectric matrix)
  average eigenvalue GAMMA=   1.9253
  8.8214  3.8942  2.2646  2.1229  1.5872  1.0096  1.0096  1.0115  0.8092  0.6766
  0.6326  0.6326  0.5567

 Free energy of the ion-electron system (eV)
  ---------------------------------------------------
  alpha Z        PSCENC =         6.43899565
  Ewald energy   TEWEN  =      7986.71067778
  -Hartree energ DENC   =    -15027.03283665
  -exchange      EXHF   =         0.00000000
  -V(xc)+E(xc)   XCENC  =       115.61702468
  PAW double counting   =      8089.73958552    -7921.47338160
  entropy T*S    EENTRO =         0.01166838
  eigenvalues    EBANDS =      -675.08848357
  atomic energy  EATOM  =      7408.64415014
  Solvation  Ediel_sol  =         0.00000000
  ---------------------------------------------------
  free energy    TOTEN  =       -16.43259968 eV

  energy without entropy =      -16.44426805  energy(sigma->0) =      -16.43648914


--------------------------------------------------------------------------------------------------------




--------------------------------------- Iteration      1(  19)  ---------------------------------------


    POTLOK:  cpu time    3.8394: real time    3.8483
    SETDIJ:  cpu time    0.0253: real time    0.0253
     EDDAV:  cpu time    5.2040: real time    5.2089
       DOS:  cpu time    0.0051: real time    0.0051
    CHARGE:  cpu time    0.7931: real time    0.7938
    MIXING:  cpu time    0.1664: real time    0.1666
    --------------------------------------------
      LOOP:  cpu time   10.0334: real time   10.0480

 eigenvalue-minimisations  :   184
 total energy-change (2. order) :-0.1393818E-01  (-0.2304542E-04)
 number of electron      88.0000019 magnetization       0.0423363
 augmentation part       32.1967688 magnetization       0.0419981

 Broyden mixing:
  rms(total) = 0.17587E-02    rms(broyden)= 0.17586E-02
  rms(prec ) = 0.20271E-02
  weight for this iteration     100.00

 eigenvalues of (default mixing * dielectric matrix)
  average eigenvalue GAMMA=   1.9366
  9.0314  4.2339  2.5610  2.3506  1.6858  1.0482  1.0482  1.0774  0.8677  0.7381
  0.6470  0.6470  0.6167  0.5588

 Free energy of the ion-electron system (eV)
  ---------------------------------------------------
  alpha Z        PSCENC =         6.43899565
  Ewald energy   TEWEN  =      7986.71067778
  -Hartree energ DENC   =    -15026.58507534
  -exchange      EXHF   =         0.00000000
  -V(xc)+E(xc)   XCENC  =       115.60149499
  PAW double counting   =      8088.84298609    -7920.57817731
  entropy T*S    EENTRO =         0.01166803
  eigenvalues    EBANDS =      -675.53325789
  atomic energy  EATOM  =      7408.64415014
  Solvation  Ediel_sol  =         0.00000000
  ---------------------------------------------------
  free energy    TOTEN  =       -16.44653786 eV

  energy without entropy =      -16.45820589  energy(sigma->0) =      -16.45042721


--------------------------------------------------------------------------------------------------------




--------------------------------------- Iteration      1(  20)  ---------------------------------------


    POTLOK:  cpu time    3.8882: real time    3.9141
    SETDIJ:  cpu time    0.0255: real time    0.0256
     EDDAV:  cpu time    4.6521: real time    4.6573
       DOS:  cpu time    0.0053: real time    0.0053
    CHARGE:  cpu time    0.7870: real time    0.7879
    MIXING:  cpu time    0.1743: real time    0.1744
    --------------------------------------------
      LOOP:  cpu time    9.5325: real time    9.5645

 eigenvalue-minimisations  :   152
 total energy-change (2. order) :-0.7624707E-02  (-0.7506580E-05)
 number of electron      88.0000019 magnetization       0.0275790
 augmentation part       32.1969238 magnetization       0.0270516

 Broyden mixing:
  rms(total) = 0.11105E-02    rms(broyden)= 0.11105E-02
  rms(prec ) = 0.13197E-02
  weight for this iteration     100.00

 eigenvalues of (default mixing * dielectric matrix)
  average eigenvalue GAMMA=   1.9442
  9.1809  4.5997  2.8328  2.3002  1.8655  1.3346  1.0570  1.0570  0.8953  0.8953
  0.6885  0.5606  0.6614  0.6170  0.6170

 Free energy of the ion-electron system (eV)
  ---------------------------------------------------
  alpha Z        PSCENC =         6.43899565
  Ewald energy   TEWEN  =      7986.71067778
  -Hartree energ DENC   =    -15026.29929498
  -exchange      EXHF   =         0.00000000
  -V(xc)+E(xc)   XCENC  =       115.59272812
  PAW double counting   =      8088.12905162    -7919.86334862
  entropy T*S    EENTRO =         0.01166774
  eigenvalues    EBANDS =      -675.81879001
  atomic energy  EATOM  =      7408.64415014
  Solvation  Ediel_sol  =         0.00000000
  ---------------------------------------------------
  free energy    TOTEN  =       -16.45416257 eV

  energy without entropy =      -16.46583031  energy(sigma->0) =      -16.45805182


--------------------------------------------------------------------------------------------------------




--------------------------------------- Iteration      1(  21)  ---------------------------------------


    POTLOK:  cpu time    3.8368: real time    3.8450
    SETDIJ:  cpu time    0.0254: real time    0.0254
     EDDAV:  cpu time    4.8982: real time    4.9030
       DOS:  cpu time    0.0039: real time    0.0039
    CHARGE:  cpu time    0.8028: real time    0.8038
    MIXING:  cpu time    0.1853: real time    0.1878
    --------------------------------------------
      LOOP:  cpu time    9.7524: real time    9.7688

 eigenvalue-minimisations  :   168
 total energy-change (2. order) :-0.6327253E-02  (-0.3343255E-05)
 number of electron      88.0000019 magnetization       0.0153627
 augmentation part       32.1970701 magnetization       0.0149131

 Broyden mixing:
  rms(total) = 0.78030E-03    rms(broyden)= 0.78030E-03
  rms(prec ) = 0.92102E-03
  weight for this iteration     100.00

 eigenvalues of (default mixing * dielectric matrix)
  average eigenvalue GAMMA=   1.9510
  9.2454  4.8998  2.9951  2.3578  2.0818  1.5644  1.0688  1.0688  0.9714  0.9542
  0.8724  0.6977  0.5618  0.6337  0.6337  0.6088

 Free energy of the ion-electron system (eV)
  ---------------------------------------------------
  alpha Z        PSCENC =         6.43899565
  Ewald energy   TEWEN  =      7986.71067778
  -Hartree energ DENC   =    -15026.05733372
  -exchange      EXHF   =         0.00000000
  -V(xc)+E(xc)   XCENC  =       115.58456989
  PAW double counting   =      8087.96364977    -7919.69603636
  entropy T*S    EENTRO =         0.01166749
  eigenvalues    EBANDS =      -676.06083047
  atomic energy  EATOM  =      7408.64415014
  Solvation  Ediel_sol  =         0.00000000
  ---------------------------------------------------
  free energy    TOTEN  =       -16.46048982 eV

  energy without entropy =      -16.47215732  energy(sigma->0) =      -16.46437899


--------------------------------------------------------------------------------------------------------




--------------------------------------- Iteration      1(  22)  ---------------------------------------


    POTLOK:  cpu time    3.8445: real time    4.0038
    SETDIJ:  cpu time    0.0258: real time    0.0258
     EDDAV:  cpu time    4.7579: real time    4.7626
       DOS:  cpu time    0.0062: real time    0.0062
    CHARGE:  cpu time    0.7892: real time    0.7901
    MIXING:  cpu time    0.1928: real time    0.1931
    --------------------------------------------
      LOOP:  cpu time    9.6164: real time    9.7815

 eigenvalue-minimisations  :   160
 total energy-change (2. order) :-0.5303214E-02  (-0.2635914E-05)
 number of electron      88.0000019 magnetization       0.0071052
 augmentation part       32.1972174 magnetization       0.0066316

 Broyden mixing:
  rms(total) = 0.47930E-03    rms(broyden)= 0.47929E-03
  rms(prec ) = 0.54956E-03
  weight for this iteration     100.00

 eigenvalues of (default mixing * dielectric matrix)
  average eigenvalue GAMMA=   2.0186
  9.2896  5.5834  3.5658  2.5799  2.3495  1.7776  1.3192  1.0571  1.0571  0.9229
  0.9229  0.7539  0.7018  0.5613  0.6312  0.6312  0.6110

 Free energy of the ion-electron system (eV)
  ---------------------------------------------------
  alpha Z        PSCENC =         6.43899565
  Ewald energy   TEWEN  =      7986.71067778
  -Hartree energ DENC   =    -15025.81410827
  -exchange      EXHF   =         0.00000000
  -V(xc)+E(xc)   XCENC  =       115.57695028
  PAW double counting   =      8088.05953797    -7919.79028568
  entropy T*S    EENTRO =         0.01166722
  eigenvalues    EBANDS =      -676.30337812
  atomic energy  EATOM  =      7408.64415014
  Solvation  Ediel_sol  =         0.00000000
  ---------------------------------------------------
  free energy    TOTEN  =       -16.46579304 eV

  energy without entropy =      -16.47746026  energy(sigma->0) =      -16.46968211


--------------------------------------------------------------------------------------------------------




--------------------------------------- Iteration      1(  23)  ---------------------------------------


    POTLOK:  cpu time    3.8213: real time    3.8280
    SETDIJ:  cpu time    0.0254: real time    0.0255
     EDDAV:  cpu time    4.8083: real time    4.8151
       DOS:  cpu time    0.0063: real time    0.0063
    CHARGE:  cpu time    0.7785: real time    0.7792
    MIXING:  cpu time    0.2167: real time    0.2169
    --------------------------------------------
      LOOP:  cpu time    9.6565: real time    9.6710

 eigenvalue-minimisations  :   160
 total energy-change (2. order) :-0.2717215E-02  (-0.1910645E-05)
 number of electron      88.0000019 magnetization       0.0038540
 augmentation part       32.1973593 magnetization       0.0035575

 Broyden mixing:
  rms(total) = 0.27137E-03    rms(broyden)= 0.27135E-03
  rms(prec ) = 0.30404E-03
  weight for this iteration     100.00

 eigenvalues of (default mixing * dielectric matrix)
  average eigenvalue GAMMA=   2.0474
  9.3291  6.3878  3.9787  2.6959  2.3700  1.9391  1.3696  1.1338  1.0359  1.0359
  0.9112  0.7873  0.7719  0.5604  0.6574  0.6574  0.6163  0.6163

 Free energy of the ion-electron system (eV)
  ---------------------------------------------------
  alpha Z        PSCENC =         6.43899565
  Ewald energy   TEWEN  =      7986.71067778
  -Hartree energ DENC   =    -15025.64717462
  -exchange      EXHF   =         0.00000000
  -V(xc)+E(xc)   XCENC  =       115.57265222
  PAW double counting   =      8088.29461478    -7920.02559503
  entropy T*S    EENTRO =         0.01166696
  eigenvalues    EBANDS =      -676.46849812
  atomic energy  EATOM  =      7408.64415014
  Solvation  Ediel_sol  =         0.00000000
  ---------------------------------------------------
  free energy    TOTEN  =       -16.46851025 eV

  energy without entropy =      -16.48017721  energy(sigma->0) =      -16.47239924


--------------------------------------------------------------------------------------------------------




--------------------------------------- Iteration      1(  24)  ---------------------------------------


    POTLOK:  cpu time    3.8337: real time    3.8578
    SETDIJ:  cpu time    0.0257: real time    0.0257
     EDDAV:  cpu time    4.8980: real time    4.9026
       DOS:  cpu time    0.0039: real time    0.0039
    CHARGE:  cpu time    0.7843: real time    0.7850
    MIXING:  cpu time    0.2196: real time    0.2221
    --------------------------------------------
      LOOP:  cpu time    9.7652: real time    9.7971

 eigenvalue-minimisations  :   168
 total energy-change (2. order) :-0.1097247E-02  (-0.6938014E-06)
 number of electron      88.0000019 magnetization       0.0019042
 augmentation part       32.1973692 magnetization       0.0017622

 Broyden mixing:
  rms(total) = 0.16670E-03    rms(broyden)= 0.16669E-03
  rms(prec ) = 0.18897E-03
  weight for this iteration     100.00

 eigenvalues of (default mixing * dielectric matrix)
  average eigenvalue GAMMA=   2.0920
  9.4260  7.2187  4.2778  2.7939  2.5065  2.0851  1.6070  1.3170  1.0448  1.0448
  0.9239  0.9239  0.7877  0.7125  0.5613  0.6479  0.6479  0.6180  0.6035

 Free energy of the ion-electron system (eV)
  ---------------------------------------------------
  alpha Z        PSCENC =         6.43899565
  Ewald energy   TEWEN  =      7986.71067778
  -Hartree energ DENC   =    -15025.59208619
  -exchange      EXHF   =         0.00000000
  -V(xc)+E(xc)   XCENC  =       115.57126999
  PAW double counting   =      8088.42948350    -7920.16095401
  entropy T*S    EENTRO =         0.01166691
  eigenvalues    EBANDS =      -676.52281125
  atomic energy  EATOM  =      7408.64415014
  Solvation  Ediel_sol  =         0.00000000
  ---------------------------------------------------
  free energy    TOTEN  =       -16.46960750 eV

  energy without entropy =      -16.48127441  energy(sigma->0) =      -16.47349647


--------------------------------------------------------------------------------------------------------




--------------------------------------- Iteration      1(  25)  ---------------------------------------


    POTLOK:  cpu time    3.8160: real time    3.8243
    SETDIJ:  cpu time    0.0256: real time    0.0256
     EDDAV:  cpu time    4.6669: real time    4.6714
       DOS:  cpu time    0.0039: real time    0.0039
    CHARGE:  cpu time    0.8121: real time    0.8129
    MIXING:  cpu time    0.2320: real time    0.2322
    --------------------------------------------
      LOOP:  cpu time    9.5564: real time    9.5702

 eigenvalue-minimisations  :   152
 total energy-change (2. order) :-0.5177938E-03  (-0.3515007E-06)
 number of electron      88.0000019 magnetization       0.0010678
 augmentation part       32.1973032 magnetization       0.0010102

 Broyden mixing:
  rms(total) = 0.78111E-04    rms(broyden)= 0.78099E-04
  rms(prec ) = 0.95609E-04
  weight for this iteration     100.00

 eigenvalues of (default mixing * dielectric matrix)
  average eigenvalue GAMMA=   2.1047
  9.5445  7.7434  4.4925  2.8795  2.5831  2.2841  1.7249  1.4040  1.0653  1.0653
  1.0205  0.8839  0.8839  0.7564  0.6965  0.5612  0.6434  0.6331  0.6267  0.6023

 Free energy of the ion-electron system (eV)
  ---------------------------------------------------
  alpha Z        PSCENC =         6.43899565
  Ewald energy   TEWEN  =      7986.71067778
  -Hartree energ DENC   =    -15025.57011264
  -exchange      EXHF   =         0.00000000
  -V(xc)+E(xc)   XCENC  =       115.57084695
  PAW double counting   =      8088.49925422    -7920.23096115
  entropy T*S    EENTRO =         0.01166697
  eigenvalues    EBANDS =      -676.54464321
  atomic energy  EATOM  =      7408.64415014
  Solvation  Ediel_sol  =         0.00000000
  ---------------------------------------------------
  free energy    TOTEN  =       -16.47012529 eV

  energy without entropy =      -16.48179226  energy(sigma->0) =      -16.47401428


--------------------------------------------------------------------------------------------------------




--------------------------------------- Iteration      1(  26)  ---------------------------------------


    POTLOK:  cpu time    3.8327: real time    3.8403
    SETDIJ:  cpu time    0.0253: real time    0.0253
     EDDAV:  cpu time    4.7555: real time    4.7624
       DOS:  cpu time    0.0016: real time    0.0016
    CHARGE:  cpu time    0.7586: real time    0.7594
    MIXING:  cpu time    0.2419: real time    0.2421
    --------------------------------------------
      LOOP:  cpu time    9.6156: real time    9.6311

 eigenvalue-minimisations  :   160
 total energy-change (2. order) :-0.1323995E-03  (-0.1716894E-06)
 number of electron      88.0000019 magnetization       0.0006574
 augmentation part       32.1972875 magnetization       0.0006386

 Broyden mixing:
  rms(total) = 0.46614E-04    rms(broyden)= 0.46608E-04
  rms(prec ) = 0.61531E-04
  weight for this iteration     100.00

 eigenvalues of (default mixing * dielectric matrix)
  average eigenvalue GAMMA=   2.0829
  9.5907  7.8821  4.5761  2.7865  2.7865  2.3776  1.7655  1.5136  1.0880  1.0880
  1.0248  0.9738  0.8975  0.8975  0.7530  0.5612  0.6779  0.6488  0.6050  0.6231
  0.6231

 Free energy of the ion-electron system (eV)
  ---------------------------------------------------
  alpha Z        PSCENC =         6.43899565
  Ewald energy   TEWEN  =      7986.71067778
  -Hartree energ DENC   =    -15025.56186672
  -exchange      EXHF   =         0.00000000
  -V(xc)+E(xc)   XCENC  =       115.57076519
  PAW double counting   =      8088.46934645    -7920.20094144
  entropy T*S    EENTRO =         0.01166699
  eigenvalues    EBANDS =      -676.55305172
  atomic energy  EATOM  =      7408.64415014
  Solvation  Ediel_sol  =         0.00000000
  ---------------------------------------------------
  free energy    TOTEN  =       -16.47025769 eV

  energy without entropy =      -16.48192468  energy(sigma->0) =      -16.47414669


--------------------------------------------------------------------------------------------------------




--------------------------------------- Iteration      1(  27)  ---------------------------------------


    POTLOK:  cpu time    3.8118: real time    3.8201
    SETDIJ:  cpu time    0.0249: real time    0.0249
     EDDAV:  cpu time    4.6500: real time    4.6549
       DOS:  cpu time    0.0040: real time    0.0040
    --------------------------------------------
      LOOP:  cpu time    8.4907: real time    8.5039

 eigenvalue-minimisations  :   152
 total energy-change (2. order) :-0.6441293E-04  (-0.6939058E-07)
 number of electron      88.0000019 magnetization       0.0006574
 augmentation part       32.1972875 magnetization       0.0006386

 Free energy of the ion-electron system (eV)
  ---------------------------------------------------
  alpha Z        PSCENC =         6.43899565
  Ewald energy   TEWEN  =      7986.71067778
  -Hartree energ DENC   =    -15025.55829805
  -exchange      EXHF   =         0.00000000
  -V(xc)+E(xc)   XCENC  =       115.57073984
  PAW double counting   =      8088.43632416    -7920.16790653
  entropy T*S    EENTRO =         0.01166699
  eigenvalues    EBANDS =      -676.55667206
  atomic energy  EATOM  =      7408.64415014
  Solvation  Ediel_sol  =         0.00000000
  ---------------------------------------------------
  free energy    TOTEN  =       -16.47032210 eV

  energy without entropy =      -16.48198909  energy(sigma->0) =      -16.47421110


--------------------------------------------------------------------------------------------------------




 average (electrostatic) potential at core
  the test charge radii are     1.2098
  (the norm of the test charge is              1.0000)
       1 -76.9388       2 -77.2997       3 -77.0109       4 -77.5122       5 -77.1915
       6 -77.2935       7 -77.0193       8 -76.9310
 
 
 
 E-fermi :  -5.0973     XC(G=0):  -0.3330     alpha+bet : -0.1641


 spin component 1

 k-point     1 :       0.0000    0.0000    0.0000
  band No.  band energies     occupation 
      1     -11.4267      1.00000
      2     -10.3969      1.00000
      3     -10.2721      1.00000
      4     -10.2486      1.00000
      5      -9.7441      1.00000
      6      -9.5141      1.00000
      7      -9.3663      1.00000
      8      -9.2878      1.00000
      9      -8.9331      1.00000
     10      -8.8752      1.00000
     11      -8.8157      1.00000
     12      -8.6551      1.00000
     13      -8.5955      1.00000
     14      -8.5588      1.00000
     15      -8.3800      1.00000
     16      -8.2468      1.00000
     17      -8.0265      1.00000
     18      -7.8959      1.00000
     19      -7.6642      1.00000
     20      -7.6212      1.00000
     21      -7.5094      1.00000
     22      -7.4636      1.00000
     23      -7.3558      1.00000
     24      -7.2355      1.00000
     25      -7.1719      1.00000
     26      -7.1061      1.00000
     27      -6.8953      1.00000
     28      -6.8702      1.00000
     29      -6.8076      1.00000
     30      -6.7388      1.00000
     31      -6.7198      1.00000
     32      -6.6767      1.00000
     33      -6.6047      1.00000
     34      -6.5316      1.00000
     35      -6.4362      1.00000
     36      -6.3790      1.00000
     37      -6.3023      1.00000
     38      -6.2617      1.00000
     39      -6.0915      1.00000
     40      -5.9010      1.00000
     41      -5.8832      1.00000
     42      -5.8404      1.00000
     43      -5.7058      1.00007
     44      -5.2656      0.99992
     45      -3.8748     -0.00000
     46      -3.5141     -0.00000
     47      -3.5002     -0.00000
     48      -3.1220     -0.00000
     49      -1.7827     -0.00000
     50      -1.5425     -0.00000
     51      -1.2806     -0.00000
     52      -1.1876     -0.00000
     53      -0.7001     -0.00000
     54      -0.3584     -0.00000
     55      -0.1051     -0.00000
     56       0.0668     -0.00000

 spin component 2

 k-point     1 :       0.0000    0.0000    0.0000
  band No.  band energies     occupation 
      1     -11.4267      1.00000
      2     -10.3969      1.00000
      3     -10.2721      1.00000
      4     -10.2486      1.00000
      5      -9.7441      1.00000
      6      -9.5141      1.00000
      7      -9.3663      1.00000
      8      -9.2878      1.00000
      9      -8.9331      1.00000
     10      -8.8752      1.00000
     11      -8.8157      1.00000
     12      -8.6551      1.00000
     13      -8.5955      1.00000
     14      -8.5588      1.00000
     15      -8.3800      1.00000
     16      -8.2468      1.00000
     17      -8.0265      1.00000
     18      -7.8959      1.00000
     19      -7.6642      1.00000
     20      -7.6212      1.00000
     21      -7.5094      1.00000
     22      -7.4637      1.00000
     23      -7.3558      1.00000
     24      -7.2355      1.00000
     25      -7.1719      1.00000
     26      -7.1061      1.00000
     27      -6.8953      1.00000
     28      -6.8702      1.00000
     29      -6.8076      1.00000
     30      -6.7388      1.00000
     31      -6.7198      1.00000
     32      -6.6767      1.00000
     33      -6.6047      1.00000
     34      -6.5316      1.00000
     35      -6.4362      1.00000
     36      -6.3790      1.00000
     37      -6.3023      1.00000
     38      -6.2617      1.00000
     39      -6.0915      1.00000
     40      -5.9010      1.00000
     41      -5.8832      1.00000
     42      -5.8404      1.00000
     43      -5.7058      1.00007
     44      -5.2656      0.99993
     45      -3.8748     -0.00000
     46      -3.5141     -0.00000
     47      -3.5002     -0.00000
     48      -3.1221     -0.00000
     49      -1.7828     -0.00000
     50      -1.5424     -0.00000
     51      -1.2803     -0.00000
     52      -1.1879     -0.00000
     53      -0.6995     -0.00000
     54      -0.3583     -0.00000
     55      -0.1052     -0.00000
     56       0.1208     -0.00000


--------------------------------------------------------------------------------------------------------


 soft charge-density along one line, spin component            1
         0         1         2         3         4         5         6         7         8         9
 total charge-density along one line
 
 soft charge-density along one line, spin component            2
         0         1         2         3         4         5         6         7         8         9
 total charge-density along one line
 
 pseudopotential strength for first ion, spin component:            1
 -9.343   0.012   0.010  -0.056   0.013  -9.462   0.012   0.009
  0.012  -9.294  -0.019  -0.005   0.043   0.012  -9.414  -0.019
  0.010  -0.019  -9.266   0.009  -0.014   0.009  -0.019  -9.386
 -0.056  -0.005   0.009  -9.280   0.022  -0.055  -0.005   0.008
  0.013   0.043  -0.014   0.022  -9.326   0.012   0.042  -0.014
 -9.462   0.012   0.009  -0.055   0.012  -9.566   0.011   0.009
  0.012  -9.414  -0.019  -0.005   0.042   0.011  -9.518  -0.018
  0.009  -0.019  -9.386   0.008  -0.014   0.009  -0.018  -9.491
 -0.055  -0.005   0.008  -9.400   0.022  -0.054  -0.005   0.008
  0.012   0.042  -0.014   0.022  -9.445   0.012   0.041  -0.014
  0.004   0.029  -0.017  -0.010  -0.006   0.004   0.029  -0.017
  0.006   0.041  -0.024  -0.014  -0.008   0.006   0.041  -0.024
 -0.002  -0.009   0.012  -0.001   0.020  -0.002  -0.008   0.012
[...]
  -Hartree energ DENC   =    -14527.50381351
  -exchange      EXHF   =         0.00000000
  -V(xc)+E(xc)   XCENC  =       114.19345853
  PAW double counting   =      7780.48050201    -7609.11083707
  entropy T*S    EENTRO =         0.01162589
  eigenvalues    EBANDS =      -660.35903446
  atomic energy  EATOM  =      7408.64415014
  Solvation  Ediel_sol  =         0.00000000
  ---------------------------------------------------
  free energy    TOTEN  =       -17.04197406 eV

  energy without entropy =      -17.05359994  energy(sigma->0) =      -17.04584935


--------------------------------------------------------------------------------------------------------




--------------------------------------- Iteration      9(   2)  ---------------------------------------


    POTLOK:  cpu time    3.7145: real time    3.7455
    SETDIJ:  cpu time    0.0255: real time    0.0255
     EDDAV:  cpu time    4.5317: real time    4.5365
       DOS:  cpu time    0.0106: real time    0.0106
    --------------------------------------------
      LOOP:  cpu time    8.2824: real time    8.3181

 eigenvalue-minimisations  :   144
 total energy-change (2. order) :-0.2236053E-05  (-0.1548552E-05)
 number of electron      88.0000013 magnetization       0.0000028
 augmentation part       32.3502605 magnetization       0.0000028

 Free energy of the ion-electron system (eV)
  ---------------------------------------------------
  alpha Z        PSCENC =         6.43899565
  Ewald energy   TEWEN  =      7470.16297877
  -Hartree energ DENC   =    -14527.50815316
  -exchange      EXHF   =         0.00000000
  -V(xc)+E(xc)   XCENC  =       114.19350838
  PAW double counting   =      7780.50780192    -7609.13862373
  entropy T*S    EENTRO =         0.01162586
  eigenvalues    EBANDS =      -660.35426011
  atomic energy  EATOM  =      7408.64415014
  Solvation  Ediel_sol  =         0.00000000
  ---------------------------------------------------
  free energy    TOTEN  =       -17.04197629 eV

  energy without entropy =      -17.05360215  energy(sigma->0) =      -17.04585158


--------------------------------------------------------------------------------------------------------




 average (electrostatic) potential at core
  the test charge radii are     1.2098
  (the norm of the test charge is              1.0000)
       1 -76.7864       2 -77.1532       3 -76.9157       4 -77.3639       5 -77.0490
       6 -77.1444       7 -76.9210       8 -76.7762
 
 
 
 E-fermi :  -5.2264     XC(G=0):  -0.3552     alpha+bet : -0.1641


 spin component 1

 k-point     1 :       0.0000    0.0000    0.0000
  band No.  band energies     occupation 
      1     -10.8075      1.00000
      2      -9.9326      1.00000
      3      -9.7395      1.00000
      4      -9.6193      1.00000
      5      -9.1713      1.00000
      6      -9.0153      1.00000
      7      -8.9490      1.00000
      8      -8.8209      1.00000
      9      -8.6115      1.00000
     10      -8.5166      1.00000
     11      -8.3505      1.00000
     12      -8.2855      1.00000
     13      -8.2685      1.00000
     14      -8.1613      1.00000
     15      -8.0415      1.00000
     16      -7.9716      1.00000
     17      -7.7588      1.00000
     18      -7.7216      1.00000
     19      -7.5133      1.00000
     20      -7.4482      1.00000
     21      -7.4045      1.00000
     22      -7.2827      1.00000
     23      -7.2375      1.00000
     24      -7.1076      1.00000
     25      -7.0807      1.00000
     26      -6.9673      1.00000
     27      -6.8127      1.00000
     28      -6.7767      1.00000
     29      -6.7316      1.00000
     30      -6.6917      1.00000
     31      -6.6795      1.00000
     32      -6.6536      1.00000
     33      -6.5860      1.00000
     34      -6.5404      1.00000
     35      -6.4698      1.00000
     36      -6.4414      1.00000
     37      -6.3728      1.00000
     38      -6.3317      1.00000
     39      -6.1376      1.00000
     40      -6.0020      1.00000
     41      -5.9779      1.00000
     42      -5.9155      1.00001
     43      -5.8767      1.00002
     44      -5.3947      0.99997
     45      -3.8928     -0.00000
     46      -3.6895     -0.00000
     47      -3.5628     -0.00000
     48      -3.3404     -0.00000
     49      -1.8436     -0.00000
     50      -1.5582     -0.00000
     51      -1.2863     -0.00000
     52      -1.2012     -0.00000
     53      -0.8170     -0.00000
     54      -0.4284     -0.00000
     55      -0.2389     -0.00000
     56      -0.0246     -0.00000

 spin component 2

 k-point     1 :       0.0000    0.0000    0.0000
  band No.  band energies     occupation 
      1     -10.8075      1.00000
      2      -9.9326      1.00000
      3      -9.7395      1.00000
      4      -9.6193      1.00000
      5      -9.1713      1.00000
      6      -9.0153      1.00000
      7      -8.9490      1.00000
      8      -8.8209      1.00000
      9      -8.6115      1.00000
     10      -8.5166      1.00000
     11      -8.3505      1.00000
     12      -8.2855      1.00000
     13      -8.2685      1.00000
     14      -8.1613      1.00000
     15      -8.0415      1.00000
     16      -7.9716      1.00000
     17      -7.7588      1.00000
     18      -7.7216      1.00000
     19      -7.5133      1.00000
     20      -7.4482      1.00000
     21      -7.4045      1.00000
     22      -7.2827      1.00000
     23      -7.2375      1.00000
     24      -7.1076      1.00000
     25      -7.0807      1.00000
     26      -6.9673      1.00000
     27      -6.8127      1.00000
     28      -6.7767      1.00000
     29      -6.7316      1.00000
     30      -6.6917      1.00000
     31      -6.6795      1.00000
     32      -6.6536      1.00000
     33      -6.5860      1.00000
     34      -6.5404      1.00000
     35      -6.4698      1.00000
     36      -6.4414      1.00000
     37      -6.3728      1.00000
     38      -6.3317      1.00000
     39      -6.1376      1.00000
     40      -6.0020      1.00000
     41      -5.9779      1.00000
     42      -5.9155      1.00001
     43      -5.8767      1.00002
     44      -5.3947      0.99997
     45      -3.8928     -0.00000
     46      -3.6895     -0.00000
     47      -3.5628     -0.00000
     48      -3.3404     -0.00000
     49      -1.8436     -0.00000
     50      -1.5582     -0.00000
     51      -1.2863     -0.00000
     52      -1.2012     -0.00000
     53      -0.8170     -0.00000
     54      -0.4283     -0.00000
     55      -0.2389     -0.00000
     56      -0.0247     -0.00000


--------------------------------------------------------------------------------------------------------


 soft charge-density along one line, spin component            1
         0         1         2         3         4         5         6         7         8         9
 total charge-density along one line
 
 soft charge-density along one line, spin component            2
         0         1         2         3         4         5         6         7         8         9
 total charge-density along one line
 
 pseudopotential strength for first ion, spin component:            1
 -9.279   0.006   0.013  -0.048   0.012  -9.399   0.006   0.012
  0.006  -9.235  -0.017  -0.010   0.039   0.006  -9.356  -0.017
  0.013  -0.017  -9.207   0.006  -0.014   0.012  -0.017  -9.329
 -0.048  -0.010   0.006  -9.218   0.017  -0.048  -0.009   0.006
  0.012   0.039  -0.014   0.017  -9.267   0.012   0.038  -0.014
 -9.399   0.006   0.012  -0.048   0.012  -9.504   0.005   0.012
  0.006  -9.356  -0.017  -0.009   0.038   0.005  -9.462  -0.016
  0.012  -0.017  -9.329   0.006  -0.014   0.012  -0.016  -9.435
 -0.048  -0.009   0.006  -9.339   0.017  -0.047  -0.009   0.006
  0.012   0.038  -0.014   0.017  -9.387   0.012   0.037  -0.014
  0.006   0.026  -0.016  -0.006  -0.006   0.006   0.026  -0.016
  0.009   0.037  -0.023  -0.009  -0.009   0.009   0.037  -0.023
  0.000  -0.013   0.015  -0.000   0.024   0.000  -0.013   0.014
 -0.000  -0.025  -0.017   0.001  -0.001  -0.000  -0.024  -0.016
 -0.026  -0.000  -0.001  -0.015   0.001  -0.026  -0.000  -0.001
 -0.000  -0.015   0.017  -0.000   0.028  -0.000  -0.015   0.017
 -0.000  -0.028  -0.019   0.001  -0.001  -0.000  -0.028  -0.019
 -0.030  -0.000  -0.001  -0.017   0.002  -0.030  -0.000  -0.001
 pseudopotential strength for first ion, spin component:            2
 -9.279   0.006   0.013  -0.048   0.012  -9.399   0.006   0.012
  0.006  -9.235  -0.017  -0.010   0.039   0.006  -9.356  -0.017
  0.013  -0.017  -9.207   0.006  -0.014   0.012  -0.017  -9.329
 -0.048  -0.010   0.006  -9.218   0.017  -0.048  -0.009   0.006
  0.012   0.039  -0.014   0.017  -9.267   0.012   0.038  -0.014
 -9.399   0.006   0.012  -0.048   0.012  -9.504   0.005   0.012
  0.006  -9.356  -0.017  -0.009   0.038   0.005  -9.462  -0.016
  0.012  -0.017  -9.329   0.006  -0.014   0.012  -0.016  -9.435
 -0.048  -0.009   0.006  -9.339   0.017  -0.047  -0.009   0.006
  0.012   0.038  -0.014   0.017  -9.387   0.012   0.037  -0.014
  0.006   0.026  -0.016  -0.006  -0.006   0.006   0.026  -0.016
  0.009   0.037  -0.023  -0.009  -0.009   0.009   0.037  -0.023
  0.000  -0.013   0.015  -0.000   0.024   0.000  -0.013   0.014
 -0.000  -0.025  -0.017   0.001  -0.001  -0.000  -0.024  -0.016
 -0.026  -0.000  -0.001  -0.015   0.001  -0.026  -0.000  -0.001
 -0.000  -0.015   0.017  -0.000   0.028  -0.000  -0.015   0.017
 -0.000  -0.028  -0.019   0.001  -0.001  -0.000  -0.028  -0.019
 -0.030  -0.000  -0.001  -0.017   0.002  -0.030  -0.000  -0.001
 total augmentation occupancy for first ion, spin component:            1
  2.782  -0.174  -0.006   0.121   0.169  -0.948   0.133   0.039  -0.328  -0.000  -0.120  -0.028   0.023   0.027  -0.090   0.003
 -0.174   3.179   0.025  -0.158  -0.317   0.131  -1.139   0.001   0.143   0.386  -1.054   0.243  -0.144  -0.122   0.034  -0.004
 -0.006   0.025   2.770  -0.012   0.119   0.041   0.000  -0.659   0.024  -0.179   0.548  -0.088   0.059  -0.016   0.001   0.011
  0.121  -0.158  -0.012   2.706   0.116  -0.328   0.144   0.024  -0.675   0.002   0.267  -0.079   0.034   0.040  -0.067  -0.001
  0.169  -0.317   0.119   0.116   2.901  -0.001   0.387  -0.180   0.002  -0.896   0.361  -0.116   0.111   0.039   0.001   0.020
 -0.948   0.131   0.041  -0.328  -0.001   1.037  -0.100  -0.068   0.489  -0.128   0.078   0.036  -0.001  -0.023   0.162  -0.003
  0.133  -1.139   0.000   0.144   0.387  -0.100   1.072  -0.021  -0.133  -0.444   0.906  -0.217   0.179   0.160  -0.027  -0.010
  0.039   0.001  -0.659   0.024  -0.180  -0.068  -0.021   0.533  -0.033   0.229  -0.450   0.068  -0.094   0.026  -0.002   0.005
 -0.328   0.143   0.024  -0.675   0.002   0.489  -0.133  -0.033   0.611  -0.090  -0.229   0.069  -0.027  -0.045   0.112   0.000
 -0.000   0.386  -0.179   0.002  -0.896  -0.128  -0.444   0.229  -0.090   0.853  -0.337   0.113  -0.150  -0.035  -0.033   0.006
 -0.120  -1.054   0.548   0.267   0.361   0.078   0.906  -0.450  -0.229  -0.337   1.976  -0.249   0.235   0.137  -0.029  -0.014
 -0.028   0.243  -0.088  -0.079  -0.116   0.036  -0.217   0.068   0.069   0.113  -0.249   0.064  -0.051  -0.032   0.013   0.002
  0.023  -0.144   0.059   0.034   0.111  -0.001   0.179  -0.094  -0.027  -0.150   0.235  -0.051   0.054   0.023  -0.003  -0.004
  0.027  -0.122  -0.016   0.040   0.039  -0.023   0.160   0.026  -0.045  -0.035   0.137  -0.032   0.023   0.030  -0.008  -0.001
 -0.090   0.034   0.001  -0.067   0.001   0.162  -0.027  -0.002   0.112  -0.033  -0.029   0.013  -0.003  -0.008   0.035  -0.000
  0.003  -0.004   0.011  -0.001   0.020  -0.003  -0.010   0.005   0.000   0.006  -0.014   0.002  -0.004  -0.001  -0.000   0.001
 -0.000  -0.021  -0.019  -0.000  -0.003   0.000  -0.006   0.002   0.002   0.002  -0.008   0.001  -0.001  -0.002   0.000   0.000
 -0.021  -0.001  -0.001  -0.011  -0.001  -0.007   0.000   0.000  -0.005   0.003   0.002  -0.000  -0.000   0.000  -0.002   0.000
 total augmentation occupancy for first ion, spin component:            2
 -0.000   0.000   0.000   0.000  -0.000   0.000  -0.000  -0.000  -0.000   0.000  -0.000   0.000   0.000  -0.000  -0.000  -0.000
  0.000  -0.000  -0.000  -0.000   0.000  -0.000   0.000   0.000  -0.000  -0.000  -0.000   0.000  -0.000  -0.000  -0.000   0.000
  0.000  -0.000  -0.000   0.000   0.000  -0.000   0.000   0.000  -0.000  -0.000  -0.000   0.000   0.000  -0.000  -0.000  -0.000
  0.000  -0.000   0.000  -0.000   0.000  -0.000  -0.000  -0.000   0.000  -0.000   0.000  -0.000  -0.000  -0.000  -0.000   0.000
 -0.000   0.000   0.000   0.000  -0.000   0.000  -0.000  -0.000  -0.000   0.000  -0.000   0.000   0.000  -0.000   0.000  -0.000
  0.000  -0.000  -0.000  -0.000   0.000  -0.000   0.000  -0.000   0.000  -0.000  -0.000  -0.000  -0.000   0.000  -0.000   0.000
 -0.000   0.000   0.000  -0.000  -0.000   0.000  -0.000  -0.000   0.000   0.000   0.000  -0.000  -0.000  -0.000   0.000  -0.000
 -0.000   0.000   0.000  -0.000  -0.000  -0.000  -0.000  -0.000   0.000   0.000  -0.000   0.000  -0.000   0.000   0.000   0.000
 -0.000  -0.000  -0.000   0.000  -0.000   0.000   0.000   0.000  -0.000  -0.000  -0.000   0.000   0.000   0.000  -0.000  -0.000
  0.000  -0.000  -0.000  -0.000   0.000  -0.000   0.000   0.000  -0.000  -0.000  -0.000   0.000  -0.000   0.000   0.000   0.000
 -0.000  -0.000  -0.000   0.000  -0.000  -0.000   0.000  -0.000  -0.000  -0.000   0.000  -0.000   0.000   0.000  -0.000  -0.000
  0.000   0.000   0.000  -0.000   0.000  -0.000  -0.000   0.000   0.000   0.000  -0.000   0.000  -0.000  -0.000  -0.000   0.000
  0.000  -0.000   0.000  -0.000   0.000  -0.000  -0.000  -0.000   0.000  -0.000   0.000  -0.000  -0.000  -0.000   0.000   0.000
 -0.000  -0.000  -0.000  -0.000  -0.000   0.000  -0.000   0.000   0.000   0.000   0.000  -0.000  -0.000  -0.000   0.000   0.000
 -0.000  -0.000  -0.000  -0.000   0.000  -0.000   0.000   0.000  -0.000   0.000  -0.000  -0.000   0.000   0.000  -0.000   0.000
 -0.000   0.000  -0.000   0.000  -0.000   0.000  -0.000   0.000  -0.000   0.000  -0.000   0.000   0.000   0.000   0.000  -0.000
  0.000   0.000   0.000  -0.000  -0.000   0.000  -0.000  -0.000   0.000   0.000   0.000  -0.000   0.000   0.000   0.000  -0.000
  0.000   0.000   0.000   0.000  -0.000  -0.000   0.000  -0.000  -0.000  -0.000  -0.000  -0.000   0.000  -0.000   0.000   0.000


------------------------ aborting loop because EDIFF is reached ----------------------------------------


    CHARGE:  cpu time    0.7611: real time    0.7620
    FORLOC:  cpu time    0.1102: real time    0.1103
    FORNL :  cpu time    3.5483: real time    3.5525
    FORCOR:  cpu time    3.6912: real time    3.6983
    FORHAR:  cpu time    0.4856: real time    0.4860
    MIXING:  cpu time    0.0726: real time    0.0727
    OFIELD:  cpu time    0.0000: real time    0.0000

 VOLUME and BASIS-vectors are now :
 -----------------------------------------------------------------------------
  energy-cutoff  :      400.00
  volume of cell :    11577.42
      direct lattice vectors                 reciprocal lattice vectors
    21.384594048  0.000000000  0.000000000     0.046762637  0.000000000  0.000000000
     0.000000000 22.738163680  0.000000000     0.000000000  0.043978925  0.000000000
     0.000000000  0.000000000 23.809777277     0.000000000  0.000000000  0.041999553

  length of vectors
    21.384594048 22.738163680 23.809777277     0.046762637  0.043978925  0.041999553


 FORCES acting on ions
    electron-ion (+dipol)            ewald-force                    non-local-force                 convergence-correction
 -----------------------------------------------------------------------------------------------
   -.733E+02 0.580E+03 0.414E+03   0.729E+02 -.574E+03 -.411E+03   0.353E+00 -.582E+01 -.319E+01   -.672E-02 -.729E-02 0.375E-02
   -.470E+03 0.170E+03 0.402E+03   0.469E+03 -.171E+03 -.402E+03   0.680E+00 0.658E+00 -.387E-01   0.224E-03 -.333E-02 0.550E-02
   0.585E+03 0.336E+03 0.248E+03   -.583E+03 -.334E+03 -.246E+03   -.168E+01 -.198E+01 -.137E+01   -.185E-02 -.776E-02 0.774E-02
   -.486E+03 -.602E+03 0.224E+03   0.483E+03 0.597E+03 -.222E+03   0.314E+01 0.552E+01 -.199E+01   -.918E-02 -.890E-03 0.227E-04
   0.428E+03 -.624E+03 0.226E+03   -.428E+03 0.621E+03 -.225E+03   0.165E+00 0.333E+01 -.126E+01   0.111E-02 -.169E-03 -.107E-03
   -.480E+03 -.117E+03 -.406E+03   0.480E+03 0.117E+03 0.406E+03   0.636E+00 0.490E+00 -.479E+00   -.477E-04 -.698E-02 -.223E-02
   0.583E+03 0.758E+02 -.421E+03   -.581E+03 -.754E+02 0.419E+03   -.168E+01 -.478E+00 0.250E+01   -.268E-02 -.986E-02 -.497E-03
   -.884E+02 0.183E+03 -.688E+03   0.880E+02 -.181E+03 0.682E+03   0.448E+00 -.247E+01 0.612E+01   -.640E-02 -.880E-02 0.147E-02
 -----------------------------------------------------------------------------------------------
   -.203E+01 0.802E+00 -.315E+00   -.284E-13 0.853E-13 0.227E-12   0.205E+01 -.754E+00 0.296E+00   -.255E-01 -.451E-01 0.156E-01
 
 
 POSITION                                       TOTAL-FORCE (eV/Angst)
 -----------------------------------------------------------------------------------
     10.73776      9.00686      9.00155         0.005643     -0.009858     -0.019370
     11.70219     11.23221      9.95912        -0.016473      0.010813      0.001678
      8.99673     10.52655     10.34575         0.003179     -0.009739      0.009283
     12.37437     13.74990     10.54747         0.007999     -0.032321      0.010184
      9.68791     13.10918     10.80813        -0.003693      0.043291     -0.013645
     11.72784     12.18837     12.61891        -0.013840      0.012752     -0.007175
      9.00485     11.47421     12.86130         0.010525     -0.024217     -0.005844
     10.80603     11.11533     14.80791         0.006661      0.009278      0.024890
 -----------------------------------------------------------------------------------
    total drift:                                0.001101      0.003043     -0.003766


--------------------------------------------------------------------------------------------------------



  FREE ENERGIE OF THE ION-ELECTRON SYSTEM (eV)
  ---------------------------------------------------
  free  energy   TOTEN  =       -17.04197629 eV

  energy  without entropy=      -17.05360215  energy(sigma->0) =      -17.04585158
 
 d Force = 0.1698928E-05[ 0.225E-05, 0.114E-05]  d Energy =-0.1585762E-04 0.176E-04
 d Force = 0.1898667E-01[ 0.190E-01, 0.190E-01]  d Ewald  = 0.1898667E-01 0.198E-09


--------------------------------------------------------------------------------------------------------


    POTLOK:  cpu time    3.7268: real time    3.7581


--------------------------------------------------------------------------------------------------------




--------------------------------------------------------------------------------------------------------


  
 reached required accuracy - stopping structural energy minimisation
     LOOP+:  cpu time   31.5894: real time   31.8100
    4ORBIT:  cpu time    0.0000: real time    0.0000

 total amount of memory used by VASP MPI-rank0   230570. kBytes
=======================================================================

   base      :      30000. kBytes
   nonl-proj :       3572. kBytes
   fftplans  :      53144. kBytes
   grid      :     120289. kBytes
   one-center:         15. kBytes
   wavefun   :      23550. kBytes
 
  
  
 General timing and accounting informations for this job:
 ========================================================
  
                  Total CPU time used (sec):      725.998
                            User time (sec):      717.409
                          System time (sec):        8.588
                         Elapsed time (sec):      732.022
  
                   Maximum memory used (kb):      452404.
                   Average memory used (kb):           0.
  
                          Minor page faults:      3245742
                          Major page faults:        18205
                 Voluntary context switches:         2034
