<?xml version="1.0" encoding="ISO-8859-1"?>
<modeling>
 <generator>
  <i name="program" type="string">vasp </i>
  <i name="version" type="string">6.1.2  </i>
  <i name="subversion" type="string">22Jul20 (build Aug  2 2021 21:04:21) gamma-only                       parallel </i>
  <i name="platform" type="string">LinuxPGI </i>
  <i name="date" type="string">2021 12 30 </i>
  <i name="time" type="string">15:40:17 </i>
 </generator>
 <incar>
  <i type="int" name="ISPIN">     2</i>
  <i type="int" name="IBRION">     2</i>
  <i type="int" name="NSW">  1000</i>
  <i type="int" name="ISIF">     0</i>
  <i type="int" name="ISYM">     0</i>
  <i name="ENCUT">    400.00000000</i>
  <i type="logical" name="LREAL"> F  </i>
  <i type="int" name="ISMEAR">     1</i>
  <i name="SIGMA">      0.20000000</i>
  <i type="logical" name="LWAVE"> F  </i>
  <i type="logical" name="LCHARG"> F  </i>
  <i type="int" name="KPAR">     1</i>
  <i type="int" name="NCORE">     8</i>
  <i type="string" name="GGA"> PE</i>
  <i type="int" name="ISPIN">     2</i>
 </incar>
 <structure name="primitive_cell" >
  <crystal>
   <varray name="basis" >
    <v>      21.38459405       0.00000000       0.00000000 </v>
    <v>       0.00000000      22.73816368       0.00000000 </v>
    <v>       0.00000000       0.00000000      23.80977728 </v>
   </varray>
   <i name="volume">  11577.41847862 </i>
   <varray name="rec_basis" >
    <v>       0.04676264       0.00000000       0.00000000 </v>
    <v>       0.00000000       0.04397893       0.00000000 </v>
    <v>       0.00000000       0.00000000       0.04199955 </v>
   </varray>
  </crystal>
  <varray name="positions" >
   <v>       0.49924089       0.39970286       0.38097367 </v>
   <v>       0.54506952       0.49466154       0.41989322 </v>
   <v>       0.42525182       0.46250431       0.43548080 </v>
   <v>       0.57472908       0.60339472       0.44349746 </v>
   <v>       0.45827028       0.57479939       0.45446632 </v>
   <v>       0.54611555       0.53544711       0.52833924 </v>
   <v>       0.42563688       0.50361917       0.53965213 </v>
   <v>       0.50227279       0.48963849       0.61756230 </v>
  </varray>
 </structure>
 <varray name="primitive_index" >
  <v type="int" >        1 </v>
  <v type="int" >        2 </v>
  <v type="int" >        3 </v>
  <v type="int" >        4 </v>
  <v type="int" >        5 </v>
  <v type="int" >        6 </v>
  <v type="int" >        7 </v>
  <v type="int" >        8 </v>
 </varray>
 <kpoints>
  <generation param="Gamma">
   <v type="int" name="divisions">       1        1        1 </v>
   <v name="usershift">      0.00000000       0.00000000       0.00000000 </v>
   <v name="genvec1">      1.00000000       0.00000000       0.00000000 </v>
   <v name="genvec2">      0.00000000       1.00000000       0.00000000 </v>
   <v name="genvec3">      0.00000000       0.00000000       1.00000000 </v>
   <v name="shift">      0.00000000       0.00000000       0.00000000 </v>
  </generation>
  <varray name="kpointlist" >
   <v>       0.00000000       0.00000000       0.00000000 </v>
  </varray>
  <varray name="weights" >
   <v>       1.00000000 </v>
  </varray>
 </kpoints>
 <parameters>
  <separator name="general" >
   <i type="string" name="SYSTEM">unknown system</i>
   <i type="logical" name="LCOMPAT"> F  </i>
  </separator>
  <separator name="electronic" >
   <i type="string" name="PREC">normal</i>
   <i name="ENMAX">    400.00000000</i>
   <i name="ENAUG">    356.67000000</i>
   <i name="EDIFF">      0.00010000</i>
   <i type="int" name="IALGO">    38</i>
   <i type="int" name="IWAVPR">    11</i>
   <i type="int" name="NBANDS">    56</i>
   <i type="int" name="NBANDSLOW">    -1</i>
   <i type="int" name="NBANDSHIGH">    -1</i>
   <i name="NELECT">     88.00000000</i>
   <i type="int" name="TURBO">     0</i>
   <i type="int" name="IRESTART">     0</i>
   <i type="int" name="NREBOOT">     0</i>
   <i type="int" name="NMIN">     0</i>
   <i name="EREF">      0.00000000</i>
   <separator name="electronic smearing" >
    <i type="int" name="ISMEAR">     1</i>
    <i name="SIGMA">      0.20000000</i>
    <i name="KSPACING">      0.50000000</i>
    <i type="logical" name="KGAMMA"> T  </i>
    <i type="logical" name="KBLOWUP"> T  </i>
   </separator>
   <separator name="electronic projectors" >
    <i type="logical" name="LREAL"> F  </i>
    <v name="ROPT">      0.00000000</v>
    <i type="int" name="LMAXPAW">  -100</i>
    <i type="int" name="LMAXMIX">     2</i>
    <i type="logical" name="NLSPLINE"> F  </i>
   </separator>
   <separator name="electronic startup" >
    <i type="int" name="ISTART">     0</i>
    <i type="int" name="ICHARG">     2</i>
    <i type="int" name="INIWAV">     1</i>
   </separator>
   <separator name="electronic spin" >
    <i type="int" name="ISPIN">     2</i>
    <i type="logical" name="LNONCOLLINEAR"> F  </i>
    <v name="MAGMOM">      1.00000000      1.00000000      1.00000000      1.00000000      1.00000000      1.00000000      1.00000000      1.00000000</v>
    <i name="NUPDOWN">     -1.00000000</i>
    <i type="logical" name="LSORBIT"> F  </i>
    <v name="SAXIS">      0.00000000      0.00000000      1.00000000</v>
    <i type="logical" name="LSPIRAL"> F  </i>
    <v name="QSPIRAL">      0.00000000      0.00000000      0.00000000</v>
    <i type="logical" name="LZEROZ"> F  </i>
   </separator>
   <separator name="electronic exchange-correlation" >
    <i type="logical" name="LASPH"> F  </i>
    <i type="logical" name="LMETAGGA"> F  </i>
   </separator>
   <separator name="electronic convergence" >
    <i type="int" name="NELM">    60</i>
    <i type="int" name="NELMDL">     0</i>
    <i type="int" name="NELMIN">     2</i>
    <i name="ENINI">    400.00000000</i>
    <separator name="electronic convergence detail" >
     <i type="logical" name="LDIAG"> T  </i>
     <i type="logical" name="LSUBROT"> F  </i>
     <i name="WEIMIN">      0.00100000</i>
     <i name="EBREAK">      0.00000045</i>
     <i name="DEPER">      0.30000000</i>
     <i type="int" name="NRMM">     4</i>
     <i name="TIME">      0.40000000</i>
    </separator>
   </separator>
   <separator name="electronic mixer" >
    <i name="AMIX">      0.40000000</i>
    <i name="BMIX">      1.00000000</i>
    <i name="AMIN">      0.10000000</i>
    <i name="AMIX_MAG">      1.60000000</i>
    <i name="BMIX_MAG">      1.00000000</i>
    <separator name="electronic mixer details" >
     <i type="int" name="IMIX">     4</i>
     <i type="logical" name="MIXFIRST"> F  </i>
     <i type="int" name="MAXMIX">   -45</i>
     <i name="WC">    100.00000000</i>
     <i type="int" name="INIMIX">     1</i>
     <i type="int" name="MIXPRE">     1</i>
     <i type="int" name="MREMOVE">     5</i>
    </separator>
   </separator>
   <separator name="electronic dipolcorrection" >
    <i type="logical" name="LDIPOL"> F  </i>
    <i type="logical" name="LMONO"> F  </i>
    <i type="int" name="IDIPOL">     0</i>
    <i name="EPSILON">      1.00000000</i>
    <v name="DIPOL">   -100.00000000   -100.00000000   -100.00000000</v>
    <i name="EFIELD">      0.00000000</i>
   </separator>
  </separator>
  <separator name="grids" >
   <i type="int" name="NGX">   108</i>
   <i type="int" name="NGY">   112</i>
   <i type="int" name="NGZ">   120</i>
   <i type="int" name="NGXF">   216</i>
   <i type="int" name="NGYF">   224</i>
   <i type="int" name="NGZF">   240</i>
   <i type="logical" name="ADDGRID"> F  </i>
  </separator>
  <separator name="ionic" >
   <i type="int" name="NSW">  1000</i>
   <i type="int" name="IBRION">     2</i>
   <i type="int" name="MDALGO">     0</i>
   <i type="int" name="ISIF">     0</i>
   <i name="PSTRESS">      0.00000000</i>
   <i name="EDIFFG">      0.00100000</i>
   <i type="int" name="NFREE">     1</i>
   <i name="POTIM">      0.50000000</i>
   <i name="SMASS">     -3.00000000</i>
   <i name="SCALEE">      1.00000000</i>
  </separator>
  <separator name="ionic md" >
   <i name="TEBEG">      0.00010000</i>
   <i name="TEEND">      0.00010000</i>
   <i type="int" name="NBLOCK">     1</i>
   <i type="int" name="KBLOCK">  1000</i>
   <i type="int" name="NPACO">   256</i>
   <i name="APACO">     16.00000000</i>
  </separator>
  <separator name="symmetry" >
   <i type="int" name="ISYM">     0</i>
   <i name="SYMPREC">      0.00001000</i>
  </separator>
  <separator name="dos" >
   <i type="int" name="LORBIT">     0</i>
   <v name="RWIGS">     -1.00000000</v>
   <i type="int" name="NEDOS">   301</i>
   <i name="EMIN">     10.00000000</i>
   <i name="EMAX">    -10.00000000</i>
   <i name="EFERMI">      0.00000000</i>
  </separator>
  <separator name="writing" >
   <i type="int" name="NWRITE">     2</i>
   <i type="logical" name="LWAVE"> F  </i>
   <i type="logical" name="LDOWNSAMPLE"> F  </i>
   <i type="logical" name="LCHARG"> F  </i>
   <i type="logical" name="LPARD"> F  </i>
   <i type="logical" name="LVTOT"> F  </i>
   <i type="logical" name="LVHAR"> F  </i>
   <i type="logical" name="LELF"> F  </i>
   <i type="logical" name="LOPTICS"> F  </i>
   <v name="STM">      0.00000000      0.00000000      0.00000000      0.00000000      0.00000000      0.00000000      0.00000000</v>
  </separator>
  <separator name="performance" >
   <i type="int" name="NPAR">     1</i>
   <i type="int" name="NSIM">     4</i>
   <i type="int" name="NBLK">    -1</i>
   <i type="logical" name="LPLANE"> T  </i>
   <i type="logical" name="LSCALAPACK"> T  </i>
   <i type="logical" name="LSCAAWARE"> F  </i>
   <i type="logical" name="LSCALU"> F  </i>
   <i type="logical" name="LASYNC"> F  </i>
   <i type="logical" name="LORBITALREAL"> F  </i>
  </separator>
  <separator name="miscellaneous" >
   <i type="int" name="IDIOT">     3</i>
   <i type="int" name="PHON_NSTRUCT">    -1</i>
   <i type="logical" name="LMUSIC"> F  </i>
   <v name="POMASS">    196.96600000</v>
   <v name="DARWINR">      0.00000000</v>
   <v name="DARWINV">      1.00000000</v>
   <i type="logical" name="LCORR"> T  </i>
  </separator>
  <i type="logical" name="GGA_COMPAT"> T  </i>
  <i type="logical" name="LBERRY"> F  </i>
  <i type="int" name="ICORELEVEL">     0</i>
  <i type="logical" name="LDAU"> F  </i>
  <i type="int" name="I_CONSTRAINED_M">     0</i>
  <separator name="electronic exchange-correlation" >
   <i type="string" name="GGA">PE</i>
   <i type="int" name="VOSKOWN">     0</i>
   <i type="logical" name="LHFCALC"> F  </i>
   <i type="string" name="PRECFOCK"></i>
   <i type="logical" name="LSYMGRAD"> F  </i>
   <i type="logical" name="LHFONE"> F  </i>
   <i type="logical" name="LRHFCALC"> F  </i>
   <i type="logical" name="LTHOMAS"> F  </i>
   <i type="logical" name="LMODELHF"> F  </i>
   <i type="logical" name="LFOCKACE"> F  </i>
   <i name="ENCUT4O">     -1.00000000</i>
   <i type="int" name="EXXOEP">     0</i>
   <i type="int" name="FOURORBIT">     0</i>
   <i name="AEXX">      0.00000000</i>
   <i name="HFALPHA">      0.00000000</i>
   <i name="MCALPHA">      0.00000000</i>
   <i name="ALDAX">      1.00000000</i>
   <i name="AGGAX">      1.00000000</i>
   <i name="ALDAC">      1.00000000</i>
   <i name="AGGAC">      1.00000000</i>
   <i type="int" name="NKREDX">     1</i>
   <i type="int" name="NKREDY">     1</i>
   <i type="int" name="NKREDZ">     1</i>
   <i type="logical" name="SHIFTRED"> F  </i>
   <i type="logical" name="ODDONLY"> F  </i>
   <i type="logical" name="EVENONLY"> F  </i>
   <i type="int" name="LMAXFOCK">     0</i>
   <i type="int" name="NMAXFOCKAE">     0</i>
   <i type="logical" name="LFOCKAEDFT"> F  </i>
   <i name="HFSCREEN">      0.00000000</i>
   <i name="HFSCREENC">      0.00000000</i>
   <i type="int" name="NBANDSGWLOW">     0</i>
  </separator>
  <separator name="vdW DFT" >
   <i type="logical" name="LUSE_VDW"> F  </i>
   <i name="Zab_VDW">     -0.84910000</i>
   <i name="PARAM1">      0.12340000</i>
   <i name="PARAM2">      1.00000000</i>
   <i name="PARAM3">      0.00000000</i>
  </separator>
  <separator name="model GW" >
   <i type="int" name="MODEL_GW">     0</i>
   <i name="MODEL_EPS0">    868.30638590</i>
   <i name="MODEL_ALPHA">      1.00000000</i>
  </separator>
  <separator name="linear response parameters" >
   <i type="logical" name="LEPSILON"> F  </i>
   <i type="logical" name="LRPA"> F  </i>
   <i type="logical" name="LNABLA"> F  </i>
   <i type="logical" name="LVEL"> F  </i>
   <i type="int" name="KINTER">     0</i>
   <i name="CSHIFT">      0.10000000</i>
   <i name="OMEGAMAX">     -1.00000000</i>
   <i name="DEG_THRESHOLD">      0.00200000</i>
   <i name="RTIME">     -0.10000000</i>
   <i name="WPLASMAI">      0.00000000</i>
   <v name="DFIELD">      0.00000000      0.00000000      0.00000000</v>
   <v name="WPLASMA">      0.00000000      0.00000000      0.00000000      0.00000000      0.00000000      0.00000000      0.00000000      0.00000000      0.00000000</v>
  </separator>
  <separator name="orbital magnetization" >
   <i type="logical" name="NUCIND"> F  </i>
   <v name="MAGPOS">      0.00000000      0.00000000      0.00000000</v>
   <i type="logical" name="LNICSALL"> T  </i>
   <i type="logical" name="ORBITALMAG"> F  </i>
   <i type="logical" name="LMAGBLOCH"> F  </i>
   <i type="logical" name="LCHIMAG"> F  </i>
   <i type="logical" name="LGAUGE"> T  </i>
   <i type="int" name="MAGATOM">     0</i>
   <v name="MAGDIPOL">      0.00000000      0.00000000      0.00000000</v>
   <v name="AVECCONST">      0.00000000      0.00000000      0.00000000</v>
  </separator>
  <separator name="response functions" >
   <i type="logical" name="LFINITE_TEMPERATURE"> F  </i>
   <i type="logical" name="LADDER"> F  </i>
   <i type="logical" name="LRPAFORCE"> F  </i>
   <i type="logical" name="LFXC"> F  </i>
   <i type="logical" name="LHARTREE"> T  </i>
   <i type="int" name="IBSE">     0</i>
   <v type="int" name="KPOINT">    -1     0     0     0</v>
   <i type="logical" name="LTCTC"> F  </i>
   <i type="logical" name="LTCTE"> F  </i>
   <i type="logical" name="LTETE"> F  </i>
   <i type="logical" name="LTRIPLET"> F  </i>
   <i type="logical" name="LFXCEPS"> F  </i>
   <i type="logical" name="LFXHEG"> F  </i>
   <i type="int" name="NATURALO">     2</i>
   <i type="logical" name="LHOLEGF"> F  </i>
   <i type="logical" name="L2ORDER"> F  </i>
   <i type="logical" name="LDMP1"> F  </i>
   <i type="logical" name="LMP2LT"> F  </i>
   <i type="logical" name="LSMP2LT"> F  </i>
   <i type="logical" name="LGWLF"> F  </i>
   <i name="ENCUTGW">     -2.00000000</i>
   <i name="ENCUTGWSOFT">     -2.00000000</i>
   <i name="ENCUTLF">     -1.00000000</i>
   <i type="logical" name="LESF_SPLINES"> F  </i>
   <i type="int" name="LMAXMP2">    -1</i>
   <i name="SCISSOR">      0.00000000</i>
   <i type="int" name="NOMEGA">     0</i>
   <i type="int" name="NOMEGAR">     0</i>
   <i type="int" name="NBANDSGW">    -1</i>
   <i type="int" name="NBANDSO">    -1</i>
   <i type="int" name="NBANDSV">    -1</i>
   <i type="int" name="NELM">     1</i>
   <i type="int" name="NELMHF">     1</i>
   <i type="int" name="DIM">     3</i>
   <i type="int" name="IESPILON">     4</i>
   <i type="int" name="ANTIRES">     0</i>
   <i name="OMEGAMAX">    -30.00000000</i>
   <i name="OMEGAMIN">    -30.00000000</i>
   <i name="OMEGATL">   -200.00000000</i>
   <i type="int" name="OMEGAGRID">     0</i>
   <i name="CSHIFT">     -0.10000000</i>
   <i type="logical" name="LSELFENERGY"> F  </i>
   <i type="logical" name="LSPECTRAL"> F  </i>
   <i type="logical" name="LSPECTRALGW"> F  </i>
   <i type="logical" name="LSINGLES"> F  </i>
   <i type="logical" name="LFERMIGW"> F  </i>
   <i type="logical" name="ODDONLYGW"> F  </i>
   <i type="logical" name="EVENONLYGW"> F  </i>
   <i type="int" name="NKREDLFX">     1</i>
   <i type="int" name="NKREDLFY">     1</i>
   <i type="int" name="NKREDLFZ">     1</i>
   <i type="int" name="MAXMEM">  2800</i>
   <i type="int" name="TELESCOPE">     0</i>
   <i type="int" name="NTAUPAR">    -1</i>
   <i type="int" name="NOMEGAPAR">    -1</i>
   <i name="LAMBDA">      1.00000000</i>
  </separator>
  <separator name="External order field" >
   <i name="OFIELD_KAPPA">      0.00000000</i>
   <v name="OFIELD_K">      0.00000000      0.00000000      0.00000000</v>
   <i name="OFIELD_Q6_NEAR">      0.00000000</i>
   <i name="OFIELD_Q6_FAR">      0.00000000</i>
   <i name="OFIELD_A">      0.00000000</i>
  </separator>
 </parameters>
 <atominfo>
  <atoms>       8 </atoms>
  <types>       1 </types>
  <array name="atoms" >
   <dimension dim="1">ion</dimension>
   <field type="string">element</field>
   <field type="int">atomtype</field>
   <set>
    <rc><c>Au</c><c>   1</c></rc>
    <rc><c>Au</c><c>   1</c></rc>
    <rc><c>Au</c><c>   1</c></rc>
    <rc><c>Au</c><c>   1</c></rc>
    <rc><c>Au</c><c>   1</c></rc>
    <rc><c>Au</c><c>   1</c></rc>
    <rc><c>Au</c><c>   1</c></rc>
    <rc><c>Au</c><c>   1</c></rc>
   </set>
  </array>
  <array name="atomtypes" >
   <dimension dim="1">type</dimension>
   <field type="int">atomspertype</field>
   <field type="string">element</field>
   <field>mass</field>
   <field>valence</field>
   <field type="string">pseudopotential</field>
   <set>
    <rc><c>   8</c><c>Au</c><c>    196.96600000</c><c>     11.00000000</c><c>  PAW_PBE Au 04Oct2007                  </c></rc>
   </set>
  </array>
 </atominfo>
 <structure name="initialpos" >
  <crystal>
   <varray name="basis" >
    <v>      21.38459405       0.00000000       0.00000000 </v>
    <v>       0.00000000      22.73816368       0.00000000 </v>
    <v>       0.00000000       0.00000000      23.80977728 </v>
   </varray>
   <i name="volume">  11577.41847862 </i>
   <varray name="rec_basis" >
    <v>       0.04676264       0.00000000       0.00000000 </v>
    <v>       0.00000000       0.04397893       0.00000000 </v>
    <v>       0.00000000       0.00000000       0.04199955 </v>
   </varray>
  </crystal>
  <varray name="positions" >
   <v>       0.49924089       0.39970286       0.38097367 </v>
   <v>       0.54506952       0.49466154       0.41989322 </v>
   <v>       0.42525182       0.46250431       0.43548080 </v>
   <v>       0.57472908       0.60339472       0.44349746 </v>
   <v>       0.45827028       0.57479939       0.45446632 </v>
   <v>       0.54611555       0.53544711       0.52833924 </v>
   <v>       0.42563688       0.50361917       0.53965213 </v>
   <v>       0.50227279       0.48963849       0.61756230 </v>
  </varray>
 </structure>
 <calculation>
  <scstep>
   <time name="dav">    6.17    6.20</time>
   <time name="total">   10.07   10.15</time>
   <energy>
    <i name="alphaZ">      6.43899565 </i>
    <i name="ewald">   7986.71067778 </i>
    <i name="hartreedc"> -15065.47547188 </i>
    <i name="XCdc">    118.44979361 </i>
    <i name="pawpsdc">   6992.17180065 </i>
    <i name="pawaedc">  -6807.49900724 </i>
    <i name="eentropy">     -0.03317442 </i>
    <i name="bandstr">    110.05393171 </i>
    <i name="atom">   7408.64415014 </i>
    <i name="e_fr_energy">    749.46169599 </i>
    <i name="e_wo_entrp">    749.49487042 </i>
    <i name="e_0_energy">    749.47275413 </i>
   </energy>
  </scstep>
  <scstep>
   <time name="dav">    9.80    9.81</time>
   <time name="total">    9.81    9.82</time>
   <energy>
    <i name="e_fr_energy">    456.50261060 </i>
    <i name="e_wo_entrp">    456.53894657 </i>
    <i name="e_0_energy">    456.51472259 </i>
   </energy>
  </scstep>
  <scstep>
   <time name="dav">    9.32    9.34</time>
   <time name="total">    9.33    9.34</time>
   <energy>
    <i name="e_fr_energy">    141.54832863 </i>
    <i name="e_wo_entrp">    141.55209996 </i>
    <i name="e_0_energy">    141.54958574 </i>
   </energy>
  </scstep>
  <scstep>
   <time name="dav">    7.87    7.88</time>
   <time name="total">    7.87    7.88</time>
   <energy>
    <i name="e_fr_energy">     12.44336103 </i>
    <i name="e_wo_entrp">     12.47130695 </i>
    <i name="e_0_energy">     12.45267634 </i>
   </energy>
  </scstep>
  <scstep>
   <time name="dav">    7.49    7.50</time>
   <time name="total">    8.35    8.36</time>
   <energy>
    <i name="e_fr_energy">    -13.24894716 </i>
    <i name="e_wo_entrp">    -13.22483415 </i>
    <i name="e_0_energy">    -13.24090949 </i>
   </energy>
  </scstep>
  <scstep>
   <time name="dav">    6.51    6.52</time>
   <time name="total">   11.30   11.32</time>
   <energy>
    <i name="e_fr_energy">     -5.22268924 </i>
    <i name="e_wo_entrp">     -5.23082291 </i>
    <i name="e_0_energy">     -5.22540046 </i>
   </energy>
  </scstep>
  <scstep>
   <time name="dav">    6.62    6.63</time>
   <time name="total">   11.37   11.40</time>
   <energy>
    <i name="e_fr_energy">     -1.36142651 </i>
    <i name="e_wo_entrp">     -1.36998112 </i>
    <i name="e_0_energy">     -1.36427805 </i>
   </energy>
  </scstep>
  <scstep>
   <time name="dav">    6.54    6.55</time>
   <time name="total">   11.32   11.34</time>
   <energy>
    <i name="e_fr_energy">     -6.45587772 </i>
    <i name="e_wo_entrp">     -6.46180340 </i>
    <i name="e_0_energy">     -6.45785295 </i>
   </energy>
  </scstep>
  <scstep>
   <time name="dav">    6.66    6.67</time>
   <time name="total">   11.42   11.44</time>
   <energy>
    <i name="e_fr_energy">     -9.24804561 </i>
    <i name="e_wo_entrp">     -9.25387347 </i>
    <i name="e_0_energy">     -9.24998823 </i>
   </energy>
  </scstep>
  <scstep>
   <time name="dav">    6.25    6.26</time>
   <time name="total">   11.05   11.07</time>
   <energy>
    <i name="e_fr_energy">    -12.00563726 </i>
    <i name="e_wo_entrp">    -12.01234300 </i>
    <i name="e_0_energy">    -12.00787251 </i>
   </energy>
  </scstep>
  <scstep>
   <time name="dav">    5.93    5.93</time>
   <time name="total">   10.72   10.76</time>
   <energy>
    <i name="e_fr_energy">    -13.72568378 </i>
    <i name="e_wo_entrp">    -13.73608417 </i>
    <i name="e_0_energy">    -13.72915057 </i>
   </energy>
  </scstep>
  <scstep>
   <time name="dav">    6.22    6.23</time>
   <time name="total">   11.02   11.04</time>
   <energy>
    <i name="e_fr_energy">    -14.83683926 </i>
    <i name="e_wo_entrp">    -14.84972252 </i>
    <i name="e_0_energy">    -14.84113368 </i>
   </energy>
  </scstep>
  <scstep>
   <time name="dav">    6.22    6.23</time>
   <time name="total">   11.04   11.05</time>
   <energy>
    <i name="e_fr_energy">    -15.59002712 </i>
    <i name="e_wo_entrp">    -15.60227222 </i>
    <i name="e_0_energy">    -15.59410882 </i>
   </energy>
  </scstep>
  <scstep>
   <time name="dav">    6.67    6.68</time>
   <time name="total">   11.48   11.50</time>
   <energy>
    <i name="e_fr_energy">    -15.78793865 </i>
    <i name="e_wo_entrp">    -15.79991200 </i>
    <i name="e_0_energy">    -15.79192977 </i>
   </energy>
  </scstep>
  <scstep>
   <time name="dav">    6.40    6.41</time>
   <time name="total">   11.21   11.26</time>
   <energy>
    <i name="e_fr_energy">    -16.13238356 </i>
    <i name="e_wo_entrp">    -16.14407651 </i>
    <i name="e_0_energy">    -16.13628121 </i>
   </energy>
  </scstep>
  <scstep>
   <time name="dav">    6.54    6.55</time>
   <time name="total">   11.43   11.44</time>
   <energy>
    <i name="e_fr_energy">    -16.33754563 </i>
    <i name="e_wo_entrp">    -16.34921422 </i>
    <i name="e_0_energy">    -16.34143516 </i>
   </energy>
  </scstep>
  <scstep>
   <time name="dav">    6.29    6.30</time>
   <time name="total">   11.06   11.08</time>
   <energy>
    <i name="e_fr_energy">    -16.40150030 </i>
    <i name="e_wo_entrp">    -16.41316868 </i>
    <i name="e_0_energy">    -16.40538976 </i>
   </energy>
  </scstep>
  <scstep>
   <time name="dav">    5.67    5.68</time>
   <time name="total">   10.49   10.50</time>
   <energy>
    <i name="e_fr_energy">    -16.43259968 </i>
    <i name="e_wo_entrp">    -16.44426805 </i>
    <i name="e_0_energy">    -16.43648914 </i>
   </energy>
  </scstep>
  <scstep>
   <time name="dav">    5.20    5.21</time>
   <time name="total">   10.03   10.05</time>
   <energy>
    <i name="e_fr_energy">    -16.44653786 </i>
    <i name="e_wo_entrp">    -16.45820589 </i>
    <i name="e_0_energy">    -16.45042721 </i>
   </energy>
  </scstep>
  <scstep>
   <time name="dav">    4.65    4.66</time>
   <time name="total">    9.53    9.56</time>
   <energy>
    <i name="e_fr_energy">    -16.45416257 </i>
    <i name="e_wo_entrp">    -16.46583031 </i>
    <i name="e_0_energy">    -16.45805182 </i>
   </energy>
  </scstep>
  <scstep>
   <time name="dav">    4.90    4.90</time>
   <time name="total">    9.75    9.77</time>
   <energy>
    <i name="e_fr_energy">    -16.46048982 </i>
    <i name="e_wo_entrp">    -16.47215732 </i>
    <i name="e_0_energy">    -16.46437899 </i>
   </energy>
  </scstep>
  <scstep>
   <time name="dav">    4.76    4.76</time>
   <time name="total">    9.62    9.78</time>
   <energy>
    <i name="e_fr_energy">    -16.46579304 </i>
    <i name="e_wo_entrp">    -16.47746026 </i>
    <i name="e_0_energy">    -16.46968211 </i>
   </energy>
  </scstep>
  <scstep>
   <time name="dav">    4.81    4.82</time>
   <time name="total">    9.66    9.67</time>
   <energy>
    <i name="e_fr_energy">    -16.46851025 </i>
    <i name="e_wo_entrp">    -16.48017721 </i>
    <i name="e_0_energy">    -16.47239924 </i>
   </energy>
  </scstep>
  <scstep>
   <time name="dav">    4.90    4.90</time>
   <time name="total">    9.77    9.80</time>
   <energy>
    <i name="e_fr_energy">    -16.46960750 </i>
    <i name="e_wo_entrp">    -16.48127441 </i>
    <i name="e_0_energy">    -16.47349647 </i>
   </energy>
  </scstep>
  <scstep>
   <time name="dav">    4.67    4.67</time>
   <time name="total">    9.56    9.57</time>
   <energy>
    <i name="e_fr_energy">    -16.47012529 </i>
    <i name="e_wo_entrp">    -16.48179226 </i>
    <i name="e_0_energy">    -16.47401428 </i>
   </energy>
  </scstep>
  <scstep>
   <time name="dav">    4.76    4.76</time>
   <time name="total">    9.62    9.63</time>
   <energy>
    <i name="e_fr_energy">    -16.47025769 </i>
    <i name="e_wo_entrp">    -16.48192468 </i>
    <i name="e_0_energy">    -16.47414669 </i>
   </energy>
  </scstep>
  <scstep>
   <time name="dav">    4.65    4.65</time>
   <time name="total">    8.49    8.50</time>
   <energy>
    <i name="alphaZ">      6.43899565 </i>
    <i name="ewald">   7986.71067778 </i>
    <i name="hartreedc"> -15025.55829805 </i>
    <i name="XCdc">    115.57073984 </i>
    <i name="pawpsdc">   8088.43632416 </i>
    <i name="pawaedc">  -7920.16790653 </i>
    <i name="eentropy">      0.01166699 </i>
    <i name="bandstr">   -676.55667206 </i>
    <i name="atom">   7408.64415014 </i>
    <i name="e_fr_energy">    -16.47032210 </i>
    <i name="e_wo_entrp">    -16.48198909 </i>
    <i name="e_0_energy">    -16.47421110 </i>
   </energy>
  </scstep>
  <structure>
   <crystal>
    <varray name="basis" >
     <v>      21.38459405       0.00000000       0.00000000 </v>
     <v>       0.00000000      22.73816368       0.00000000 </v>
     <v>       0.00000000       0.00000000      23.80977728 </v>
    </varray>
    <i name="volume">  11577.41847862 </i>
    <varray name="rec_basis" >
     <v>       0.04676264       0.00000000       0.00000000 </v>
     <v>       0.00000000       0.04397893       0.00000000 </v>
     <v>       0.00000000       0.00000000       0.04199955 </v>
    </varray>
   </crystal>
   <varray name="positions" >
    <v>       0.49924089       0.39970286       0.38097367 </v>
    <v>       0.54506952       0.49466154       0.41989322 </v>
    <v>       0.42525182       0.46250431       0.43548080 </v>
    <v>       0.57472908       0.60339472       0.44349746 </v>
    <v>       0.45827028       0.57479939       0.45446632 </v>
    <v>       0.54611555       0.53544711       0.52833924 </v>
    <v>       0.42563688       0.50361917       0.53965213 </v>
    <v>       0.50227279       0.48963849       0.61756230 </v>
   </varray>
  </structure>
  <varray name="forces" >
   <v>       0.78310265      -1.48619291      -1.09788449 </v>
   <v>       1.00673023      -0.20928591      -0.45999284 </v>
   <v>      -1.64206145       0.39596851       0.58983688 </v>
   <v>       1.31044117       0.98398109      -0.36782557 </v>
   <v>      -1.64650375       0.69545131      -0.24194686 </v>
   <v>       1.03378862       0.11264391       0.46070216 </v>
   <v>      -1.68410311      -0.02745213      -0.66784963 </v>
   <v>       0.83860565      -0.46511386       1.78496033 </v>
  </varray>
  <energy>
   <i name="e_fr_energy">    -16.47032210 </i>
   <i name="e_wo_entrp">    -16.48198909 </i>
   <i name="e_0_energy">    -16.47421110 </i>
  </energy>
  <time name="totalsc">  289.59  290.77</time>
 </calculation>
 <calculation>
  <scstep>
   <time name="dav">    5.97    5.98</time>
   <time name="total">   10.71   10.72</time>
   <energy>
    <i name="alphaZ">      6.43899565 </i>
    <i name="ewald">   7580.97260723 </i>
    <i name="hartreedc"> -14626.54552029 </i>
    <i name="XCdc">    114.23524124 </i>
    <i name="pawpsdc">   8088.42515959 </i>
    <i name="pawaedc">  -7920.15678058 </i>
    <i name="eentropy">      0.01171814 </i>
    <i name="bandstr">   -668.70552864 </i>
    <i name="atom">   7408.64415014 </i>
    <i name="e_fr_energy">    -16.67995753 </i>
    <i name="e_wo_entrp">    -16.69167567 </i>
    <i name="e_0_energy">    -16.68386358 </i>
   </energy>
  </scstep>
  <scstep>
   <time name="dav">    6.01    6.02</time>
   <time name="total">   10.70   10.71</time>
   <energy>
    <i name="e_fr_energy">    -17.01791818 </i>
    <i name="e_wo_entrp">    -17.02956878 </i>
    <i name="e_0_energy">    -17.02180171 </i>
   </energy>
  </scstep>
  <scstep>
   <time name="dav">    6.15    6.16</time>
   <time name="total">   10.77   10.79</time>
   <energy>
    <i name="e_fr_energy">    -16.99962291 </i>
    <i name="e_wo_entrp">    -17.01137184 </i>
    <i name="e_0_energy">    -17.00353922 </i>
   </energy>
  </scstep>
  <scstep>
   <time name="dav">    6.57    6.58</time>
   <time name="total">   11.15   11.16</time>
   <energy>
    <i name="e_fr_energy">    -17.00155836 </i>
    <i name="e_wo_entrp">    -17.01332168 </i>
    <i name="e_0_energy">    -17.00547947 </i>
   </energy>
  </scstep>
  <scstep>
   <time name="dav">    6.31    6.32</time>
   <time name="total">   10.89   10.93</time>
   <energy>
    <i name="e_fr_energy">    -16.99806797 </i>
    <i name="e_wo_entrp">    -17.00979061 </i>
    <i name="e_0_energy">    -17.00197551 </i>
   </energy>
  </scstep>
  <scstep>
   <time name="dav">    6.58    6.59</time>
   <time name="total">   11.18   11.19</time>
   <energy>
    <i name="e_fr_energy">    -16.99798267 </i>
    <i name="e_wo_entrp">    -17.00969760 </i>
    <i name="e_0_energy">    -17.00188765 </i>
   </energy>
  </scstep>
  <scstep>
   <time name="dav">    4.86    4.87</time>
   <time name="total">    8.63    8.64</time>
   <energy>
    <i name="alphaZ">      6.43899565 </i>
    <i name="ewald">   7580.97260723 </i>
    <i name="hartreedc"> -14634.13431025 </i>
    <i name="XCdc">    114.44573405 </i>
    <i name="pawpsdc">   7834.53218384 </i>
    <i name="pawaedc">  -7663.73427576 </i>
    <i name="eentropy">      0.01171553 </i>
    <i name="bandstr">   -664.17484092 </i>
    <i name="atom">   7408.64415014 </i>
    <i name="e_fr_energy">    -16.99804049 </i>
    <i name="e_wo_entrp">    -17.00975602 </i>
    <i name="e_0_energy">    -17.00194567 </i>
   </energy>
  </scstep>
  <structure>
   <crystal>
    <varray name="basis" >
     <v>      21.38459405       0.00000000       0.00000000 </v>
     <v>       0.00000000      22.73816368       0.00000000 </v>
     <v>       0.00000000       0.00000000      23.80977728 </v>
    </varray>
    <i name="volume">  11577.41847862 </i>
    <varray name="rec_basis" >
     <v>       0.04676264       0.00000000       0.00000000 </v>
     <v>       0.00000000       0.04397893       0.00000000 </v>
     <v>       0.00000000       0.00000000       0.04199955 </v>
    </varray>
   </crystal>
   <varray name="positions" >
    <v>       0.50100753       0.39654966       0.37874917 </v>
    <v>       0.54734065       0.49421750       0.41896120 </v>
    <v>       0.42154741       0.46334442       0.43667591 </v>
    <v>       0.57768537       0.60548239       0.44275219 </v>
    <v>       0.45455584       0.57627490       0.45397610 </v>
    <v>       0.54844773       0.53568610       0.52927270 </v>
    <v>       0.42183762       0.50356093       0.53829895 </v>
    <v>       0.50416465       0.48865167       0.62117893 </v>
   </varray>
  </structure>
  <varray name="forces" >
   <v>       0.06941036      -0.01762635      -0.04485107 </v>
   <v>       0.06621838      -0.12030027      -0.15729077 </v>
   <v>      -0.14281211      -0.34475187      -0.58426715 </v>
   <v>       0.16107800       0.04842907      -0.02107828 </v>
   <v>      -0.16768085       0.28632564      -0.10441693 </v>
   <v>       0.07792035       0.00954694       0.20351759 </v>
   <v>      -0.14187830       0.11807882       0.66324227 </v>
   <v>       0.07774417       0.02029800       0.04514433 </v>
  </varray>
  <energy>
   <i name="e_fr_energy">    -16.99804049 </i>
   <i name="e_wo_entrp">    -17.00975602 </i>
   <i name="e_0_energy">    -17.00194567 </i>
  </energy>
  <time name="totalsc">   87.05   87.82</time>
 </calculation>
 <calculation>
  <scstep>
   <time name="dav">    6.30    6.30</time>
   <time name="total">   10.93   10.94</time>
   <energy>
    <i name="alphaZ">      6.43899565 </i>
    <i name="ewald">   7557.17714198 </i>
    <i name="hartreedc"> -14610.73690315 </i>
    <i name="XCdc">    114.37412250 </i>
    <i name="pawpsdc">   7833.87706377 </i>
    <i name="pawaedc">  -7663.07580913 </i>
    <i name="eentropy">      0.01172799 </i>
    <i name="bandstr">   -663.70885575 </i>
    <i name="atom">   7408.64415014 </i>
    <i name="e_fr_energy">    -16.99836601 </i>
    <i name="e_wo_entrp">    -17.01009400 </i>
    <i name="e_0_energy">    -17.00227534 </i>
   </energy>
  </scstep>
  <scstep>
   <time name="dav">    6.57    6.58</time>
   <time name="total">   11.24   11.27</time>
   <energy>
    <i name="e_fr_energy">    -16.99975270 </i>
    <i name="e_wo_entrp">    -17.01147671 </i>
    <i name="e_0_energy">    -17.00366071 </i>
   </energy>
  </scstep>
  <scstep>
   <time name="dav">    6.44    6.45</time>
   <time name="total">   10.21   10.22</time>
   <energy>
    <i name="alphaZ">      6.43899565 </i>
    <i name="ewald">   7557.17714198 </i>
    <i name="hartreedc"> -14611.21965603 </i>
    <i name="XCdc">    114.38512607 </i>
    <i name="pawpsdc">   7825.73981998 </i>
    <i name="pawaedc">  -7654.84794174 </i>
    <i name="eentropy">      0.01172992 </i>
    <i name="bandstr">   -663.32907369 </i>
    <i name="atom">   7408.64415014 </i>
    <i name="e_fr_energy">    -16.99970771 </i>
    <i name="e_wo_entrp">    -17.01143764 </i>
    <i name="e_0_energy">    -17.00361769 </i>
   </energy>
  </scstep>
  <structure>
   <crystal>
    <varray name="basis" >
     <v>      21.38459405       0.00000000       0.00000000 </v>
     <v>       0.00000000      22.73816368       0.00000000 </v>
     <v>       0.00000000       0.00000000      23.80977728 </v>
    </varray>
    <i name="volume">  11577.41847862 </i>
    <varray name="rec_basis" >
     <v>       0.04676264       0.00000000       0.00000000 </v>
     <v>       0.00000000       0.04397893       0.00000000 </v>
     <v>       0.00000000       0.00000000       0.04199955 </v>
    </varray>
   </crystal>
   <varray name="positions" >
    <v>       0.50111553       0.39635690       0.37861318 </v>
    <v>       0.54747949       0.49419036       0.41890422 </v>
    <v>       0.42132095       0.46339577       0.43674897 </v>
    <v>       0.57786610       0.60561002       0.44270663 </v>
    <v>       0.45432877       0.57636510       0.45394613 </v>
    <v>       0.54859030       0.53570071       0.52932977 </v>
    <v>       0.42160537       0.50355737       0.53821623 </v>
    <v>       0.50428030       0.48859135       0.62140002 </v>
   </varray>
  </structure>
  <varray name="forces" >
   <v>       0.04771265       0.04295664      -0.00387186 </v>
   <v>       0.02704529      -0.11639956      -0.14403297 </v>
   <v>      -0.08658644      -0.37480635      -0.64189627 </v>
   <v>       0.11385143       0.00274119      -0.00439324 </v>
   <v>      -0.10978087       0.26766173      -0.09800224 </v>
   <v>       0.03837669       0.00507698       0.19236689 </v>
   <v>      -0.08470107       0.13105157       0.72460159 </v>
   <v>       0.05408232       0.04171780      -0.02477189 </v>
  </varray>
  <energy>
   <i name="e_fr_energy">    -16.99970771 </i>
   <i name="e_wo_entrp">    -17.01143764 </i>
   <i name="e_0_energy">    -17.00361769 </i>
  </energy>
  <time name="totalsc">   45.33   45.74</time>
 </calculation>
 <calculation>
  <scstep>
   <time name="dav">    6.00    6.01</time>
   <time name="total">   10.59   10.61</time>
   <energy>
    <i name="alphaZ">      6.43899565 </i>
    <i name="ewald">   7480.30137818 </i>
    <i name="hartreedc"> -14535.51022905 </i>
    <i name="XCdc">    114.16507632 </i>
    <i name="pawpsdc">   7821.34899928 </i>
    <i name="pawaedc">  -7650.41311513 </i>
    <i name="eentropy">      0.01162914 </i>
    <i name="bandstr">   -662.00020312 </i>
    <i name="atom">   7408.64415014 </i>
    <i name="e_fr_energy">    -17.01331859 </i>
    <i name="e_wo_entrp">    -17.02494773 </i>
    <i name="e_0_energy">    -17.01719497 </i>
   </energy>
  </scstep>
  <scstep>
   <time name="dav">    6.45    6.46</time>
   <time name="total">   11.04   11.05</time>
   <energy>
    <i name="e_fr_energy">    -17.03472324 </i>
    <i name="e_wo_entrp">    -17.04635721 </i>
    <i name="e_0_energy">    -17.03860123 </i>
   </energy>
  </scstep>
  <scstep>
   <time name="dav">    6.43    6.44</time>
   <time name="total">   11.04   11.07</time>
   <energy>
    <i name="e_fr_energy">    -17.03369911 </i>
    <i name="e_wo_entrp">    -17.04533556 </i>
    <i name="e_0_energy">    -17.03757793 </i>
   </energy>
  </scstep>
  <scstep>
   <time name="dav">    6.58    6.59</time>
   <time name="total">   11.19   11.23</time>
   <energy>
    <i name="e_fr_energy">    -17.03381662 </i>
    <i name="e_wo_entrp">    -17.04545387 </i>
    <i name="e_0_energy">    -17.03769570 </i>
   </energy>
  </scstep>
  <scstep>
   <time name="dav">    6.66    6.66</time>
   <time name="total">   11.23   11.25</time>
   <energy>
    <i name="e_fr_energy">    -17.03368236 </i>
    <i name="e_wo_entrp">    -17.04531907 </i>
    <i name="e_0_energy">    -17.03756126 </i>
   </energy>
  </scstep>
  <scstep>
   <time name="dav">    4.83    4.83</time>
   <time name="total">    8.57    8.58</time>
   <energy>
    <i name="alphaZ">      6.43899565 </i>
    <i name="ewald">   7480.30137818 </i>
    <i name="hartreedc"> -14537.11469681 </i>
    <i name="XCdc">    114.19966809 </i>
    <i name="pawpsdc">   7782.35851224 </i>
    <i name="pawaedc">  -7611.02672420 </i>
    <i name="eentropy">      0.01163664 </i>
    <i name="bandstr">   -660.84660441 </i>
    <i name="atom">   7408.64415014 </i>
    <i name="e_fr_energy">    -17.03368449 </i>
    <i name="e_wo_entrp">    -17.04532113 </i>
    <i name="e_0_energy">    -17.03756337 </i>
   </energy>
  </scstep>
  <structure>
   <crystal>
    <varray name="basis" >
     <v>      21.38459405       0.00000000       0.00000000 </v>
     <v>       0.00000000      22.73816368       0.00000000 </v>
     <v>       0.00000000       0.00000000      23.80977728 </v>
    </varray>
    <i name="volume">  11577.41847862 </i>
    <varray name="rec_basis" >
     <v>       0.04676264       0.00000000       0.00000000 </v>
     <v>       0.00000000       0.04397893       0.00000000 </v>
     <v>       0.00000000       0.00000000       0.04199955 </v>
    </varray>
   </crystal>
   <varray name="positions" >
    <v>       0.50132276       0.39627373       0.37848148 </v>
    <v>       0.54766760       0.49391568       0.41855696 </v>
    <v>       0.42091714       0.46263758       0.43549896 </v>
    <v>       0.57829054       0.60573204       0.44265615 </v>
    <v>       0.45387144       0.57702202       0.45371786 </v>
    <v>       0.54880768       0.53572491       0.52977623 </v>
    <v>       0.42120059       0.50383557       0.53962706 </v>
    <v>       0.50450905       0.48862604       0.62155042 </v>
   </varray>
  </structure>
  <varray name="forces" >
   <v>       0.07040467      -0.02836584      -0.04810114 </v>
   <v>      -0.03138800       0.04187479      -0.01393480 </v>
   <v>      -0.02013017       0.03078835      -0.11644488 </v>
   <v>       0.01849924      -0.12900899       0.04404562 </v>
   <v>      -0.06896176      -0.06536955       0.02827644 </v>
   <v>      -0.02800854       0.04554575      -0.00979507 </v>
   <v>      -0.01170461       0.08949897       0.06878595 </v>
   <v>       0.07128916       0.01503652       0.04716789 </v>
  </varray>
  <energy>
   <i name="e_fr_energy">    -17.03368449 </i>
   <i name="e_wo_entrp">    -17.04532113 </i>
   <i name="e_0_energy">    -17.03756337 </i>
  </energy>
  <time name="totalsc">   76.63   77.10</time>
 </calculation>
 <calculation>
  <scstep>
   <time name="dav">    5.98    5.99</time>
   <time name="total">   10.60   10.62</time>
   <energy>
    <i name="alphaZ">      6.43899565 </i>
    <i name="ewald">   7471.70787543 </i>
    <i name="hartreedc"> -14528.65429210 </i>
    <i name="XCdc">    114.17584522 </i>
    <i name="pawpsdc">   7782.13253094 </i>
    <i name="pawaedc">  -7610.79947706 </i>
    <i name="eentropy">      0.01163095 </i>
    <i name="bandstr">   -660.69113660 </i>
    <i name="atom">   7408.64415014 </i>
    <i name="e_fr_energy">    -17.03387745 </i>
    <i name="e_wo_entrp">    -17.04550840 </i>
    <i name="e_0_energy">    -17.03775443 </i>
   </energy>
  </scstep>
  <scstep>
   <time name="dav">    6.56    6.58</time>
   <time name="total">   11.17   11.20</time>
   <energy>
    <i name="e_fr_energy">    -17.03415926 </i>
    <i name="e_wo_entrp">    -17.04579100 </i>
    <i name="e_0_energy">    -17.03803650 </i>
   </energy>
  </scstep>
  <scstep>
   <time name="dav">    4.53    4.53</time>
   <time name="total">    8.25    8.26</time>
   <energy>
    <i name="alphaZ">      6.43899565 </i>
    <i name="ewald">   7471.70787543 </i>
    <i name="hartreedc"> -14528.86463524 </i>
    <i name="XCdc">    114.17919053 </i>
    <i name="pawpsdc">   7779.42954040 </i>
    <i name="pawaedc">  -7608.06701413 </i>
    <i name="eentropy">      0.01163193 </i>
    <i name="bandstr">   -660.51388541 </i>
    <i name="atom">   7408.64415014 </i>
    <i name="e_fr_energy">    -17.03415069 </i>
    <i name="e_wo_entrp">    -17.04578262 </i>
    <i name="e_0_energy">    -17.03802800 </i>
   </energy>
  </scstep>
  <structure>
   <crystal>
    <varray name="basis" >
     <v>      21.38459405       0.00000000       0.00000000 </v>
     <v>       0.00000000      22.73816368       0.00000000 </v>
     <v>       0.00000000       0.00000000      23.80977728 </v>
    </varray>
    <i name="volume">  11577.41847862 </i>
    <varray name="rec_basis" >
     <v>       0.04676264       0.00000000       0.00000000 </v>
     <v>       0.00000000       0.04397893       0.00000000 </v>
     <v>       0.00000000       0.00000000       0.04199955 </v>
    </varray>
   </crystal>
   <varray name="positions" >
    <v>       0.50134621       0.39626432       0.37846658 </v>
    <v>       0.54768888       0.49388460       0.41851768 </v>
    <v>       0.42087145       0.46255180       0.43535754 </v>
    <v>       0.57833857       0.60574585       0.44265044 </v>
    <v>       0.45381970       0.57709634       0.45369203 </v>
    <v>       0.54883227       0.53572765       0.52982674 </v>
    <v>       0.42115479       0.50386705       0.53978668 </v>
    <v>       0.50453493       0.48862997       0.62156743 </v>
   </varray>
  </structure>
  <varray name="forces" >
   <v>       0.07336184      -0.03647967      -0.05226274 </v>
   <v>      -0.03713361       0.06022834       0.00126262 </v>
   <v>      -0.01442818       0.07434720      -0.06365638 </v>
   <v>       0.00687131      -0.14534129       0.05004730 </v>
   <v>      -0.06265520      -0.10152840       0.04186687 </v>
   <v>      -0.03453545       0.05010558      -0.03324484 </v>
   <v>      -0.00502045       0.08720581       0.00131644 </v>
   <v>       0.07353975       0.01146243       0.05467073 </v>
  </varray>
  <energy>
   <i name="e_fr_energy">    -17.03415069 </i>
   <i name="e_wo_entrp">    -17.04578262 </i>
   <i name="e_0_energy">    -17.03802800 </i>
  </energy>
  <time name="totalsc">   43.01   43.29</time>
 </calculation>
 <calculation>
  <scstep>
   <time name="dav">    6.00    6.01</time>
   <time name="total">   10.57   10.59</time>
   <energy>
    <i name="alphaZ">      6.43899565 </i>
    <i name="ewald">   7471.52072858 </i>
    <i name="hartreedc"> -14528.76524101 </i>
    <i name="XCdc">    114.18267576 </i>
    <i name="pawpsdc">   7778.06010582 </i>
    <i name="pawaedc">  -7606.68410190 </i>
    <i name="eentropy">      0.01162853 </i>
    <i name="bandstr">   -660.44511854 </i>
    <i name="atom">   7408.64415014 </i>
    <i name="e_fr_energy">    -17.03617697 </i>
    <i name="e_wo_entrp">    -17.04780550 </i>
    <i name="e_0_energy">    -17.04005315 </i>
   </energy>
  </scstep>
  <scstep>
   <time name="dav">    6.59    6.60</time>
   <time name="total">   11.14   11.16</time>
   <energy>
    <i name="e_fr_energy">    -17.03777743 </i>
    <i name="e_wo_entrp">    -17.04940620 </i>
    <i name="e_0_energy">    -17.04165369 </i>
   </energy>
  </scstep>
  <scstep>
   <time name="dav">    6.58    6.59</time>
   <time name="total">   10.33   10.36</time>
   <energy>
    <i name="alphaZ">      6.43899565 </i>
    <i name="ewald">   7471.52072858 </i>
    <i name="hartreedc"> -14528.76135754 </i>
    <i name="XCdc">    114.18314761 </i>
    <i name="pawpsdc">   7778.11194743 </i>
    <i name="pawaedc">  -7606.73476870 </i>
    <i name="eentropy">      0.01162898 </i>
    <i name="bandstr">   -660.45220374 </i>
    <i name="atom">   7408.64415014 </i>
    <i name="e_fr_energy">    -17.03773159 </i>
    <i name="e_wo_entrp">    -17.04936057 </i>
    <i name="e_0_energy">    -17.04160792 </i>
   </energy>
  </scstep>
  <structure>
   <crystal>
    <varray name="basis" >
     <v>      21.38459405       0.00000000       0.00000000 </v>
     <v>       0.00000000      22.73816368       0.00000000 </v>
     <v>       0.00000000       0.00000000      23.80977728 </v>
    </varray>
    <i name="volume">  11577.41847862 </i>
    <varray name="rec_basis" >
     <v>       0.04676264       0.00000000       0.00000000 </v>
     <v>       0.00000000       0.04397893       0.00000000 </v>
     <v>       0.00000000       0.00000000       0.04199955 </v>
    </varray>
   </crystal>
   <varray name="positions" >
    <v>       0.50153262       0.39617815       0.37834738 </v>
    <v>       0.54761587       0.49399687       0.41849504 </v>
    <v>       0.42080835       0.46265986       0.43513299 </v>
    <v>       0.57838552       0.60543554       0.44275174 </v>
    <v>       0.45364008       0.57692121       0.45376322 </v>
    <v>       0.54876746       0.53583945       0.52978953 </v>
    <v>       0.42111359       0.50407883       0.53989219 </v>
    <v>       0.50472332       0.48865767       0.62169305 </v>
   </varray>
  </structure>
  <varray name="forces" >
   <v>       0.06098388      -0.00452063      -0.03095495 </v>
   <v>      -0.04730794      -0.00132197      -0.02131740 </v>
   <v>      -0.00340786       0.04508973      -0.05098516 </v>
   <v>       0.02328043      -0.08250853       0.02818323 </v>
   <v>      -0.05691840      -0.05403347       0.02416791 </v>
   <v>      -0.04235031       0.01990135       0.01940507 </v>
   <v>       0.00493570       0.05633526       0.00752507 </v>
   <v>       0.06078450       0.02105827       0.02397625 </v>
  </varray>
  <energy>
   <i name="e_fr_energy">    -17.03773159 </i>
   <i name="e_wo_entrp">    -17.04936057 </i>
   <i name="e_0_energy">    -17.04160792 </i>
  </energy>
  <time name="totalsc">   45.01   45.27</time>
 </calculation>
 <calculation>
  <scstep>
   <time name="dav">    5.97    5.98</time>
   <time name="total">   10.59   10.61</time>
   <energy>
    <i name="alphaZ">      6.43899565 </i>
    <i name="ewald">   7471.23052991 </i>
    <i name="hartreedc"> -14528.47891804 </i>
    <i name="XCdc">    114.18866759 </i>
    <i name="pawpsdc">   7778.24347056 </i>
    <i name="pawaedc">  -7606.86547519 </i>
    <i name="eentropy">      0.01162442 </i>
    <i name="bandstr">   -660.44887349 </i>
    <i name="atom">   7408.64415014 </i>
    <i name="e_fr_energy">    -17.03582844 </i>
    <i name="e_wo_entrp">    -17.04745287 </i>
    <i name="e_0_energy">    -17.03970325 </i>
   </energy>
  </scstep>
  <scstep>
   <time name="dav">    6.59    6.60</time>
   <time name="total">   11.16   11.18</time>
   <energy>
    <i name="e_fr_energy">    -17.04042934 </i>
    <i name="e_wo_entrp">    -17.05205398 </i>
    <i name="e_0_energy">    -17.04430422 </i>
   </energy>
  </scstep>
  <scstep>
   <time name="dav">    6.55    6.55</time>
   <time name="total">   11.15   11.17</time>
   <energy>
    <i name="e_fr_energy">    -17.04027990 </i>
    <i name="e_wo_entrp">    -17.05190489 </i>
    <i name="e_0_energy">    -17.04415490 </i>
   </energy>
  </scstep>
  <scstep>
   <time name="dav">    6.32    6.33</time>
   <time name="total">   10.08   10.09</time>
   <energy>
    <i name="alphaZ">      6.43899565 </i>
    <i name="ewald">   7471.23052991 </i>
    <i name="hartreedc"> -14528.49812523 </i>
    <i name="XCdc">    114.18922209 </i>
    <i name="pawpsdc">   7779.17214628 </i>
    <i name="pawaedc">  -7607.79295757 </i>
    <i name="eentropy">      0.01162522 </i>
    <i name="bandstr">   -660.43581315 </i>
    <i name="atom">   7408.64415014 </i>
    <i name="e_fr_energy">    -17.04022668 </i>
    <i name="e_wo_entrp">    -17.05185189 </i>
    <i name="e_0_energy">    -17.04410175 </i>
   </energy>
  </scstep>
  <structure>
   <crystal>
    <varray name="basis" >
     <v>      21.38459405       0.00000000       0.00000000 </v>
     <v>       0.00000000      22.73816368       0.00000000 </v>
     <v>       0.00000000       0.00000000      23.80977728 </v>
    </varray>
    <i name="volume">  11577.41847862 </i>
    <varray name="rec_basis" >
     <v>       0.04676264       0.00000000       0.00000000 </v>
     <v>       0.00000000       0.04397893       0.00000000 </v>
     <v>       0.00000000       0.00000000       0.04199955 </v>
    </varray>
   </crystal>
   <varray name="positions" >
    <v>       0.50184947       0.39603168       0.37814476 </v>
    <v>       0.54749176       0.49418770       0.41845655 </v>
    <v>       0.42070110       0.46284355       0.43475132 </v>
    <v>       0.57846534       0.60490808       0.44292391 </v>
    <v>       0.45333477       0.57662352       0.45388422 </v>
    <v>       0.54865728       0.53602949       0.52972628 </v>
    <v>       0.42104356       0.50443881       0.54007153 </v>
    <v>       0.50504354       0.48870475       0.62190657 </v>
   </varray>
  </structure>
  <varray name="forces" >
   <v>       0.04507515       0.04737704       0.00052639 </v>
   <v>      -0.06726859      -0.09586630      -0.05658214 </v>
   <v>       0.01713605       0.00853176      -0.02599003 </v>
   <v>       0.05003918       0.00641851      -0.00255335 </v>
   <v>      -0.05468701       0.00962820       0.00059335 </v>
   <v>      -0.05841821      -0.02589948       0.10087795 </v>
   <v>       0.02401017       0.01124732       0.00777722 </v>
   <v>       0.04411325       0.03856296      -0.02464940 </v>
  </varray>
  <energy>
   <i name="e_fr_energy">    -17.04022668 </i>
   <i name="e_wo_entrp">    -17.05185189 </i>
   <i name="e_0_energy">    -17.04410175 </i>
  </energy>
  <time name="totalsc">   55.94   56.21</time>
 </calculation>
 <calculation>
  <scstep>
   <time name="dav">    5.96    5.97</time>
   <time name="total">   10.54   10.56</time>
   <energy>
    <i name="alphaZ">      6.43899565 </i>
    <i name="ewald">   7470.18196543 </i>
    <i name="hartreedc"> -14527.46097265 </i>
    <i name="XCdc">    114.19300784 </i>
    <i name="pawpsdc">   7779.26575664 </i>
    <i name="pawaedc">  -7607.88630349 </i>
    <i name="eentropy">      0.01162621 </i>
    <i name="bandstr">   -660.42782317 </i>
    <i name="atom">   7408.64415014 </i>
    <i name="e_fr_energy">    -17.03959740 </i>
    <i name="e_wo_entrp">    -17.05122362 </i>
    <i name="e_0_energy">    -17.04347281 </i>
   </energy>
  </scstep>
  <scstep>
   <time name="dav">    6.62    6.63</time>
   <time name="total">   11.23   11.24</time>
   <energy>
    <i name="e_fr_energy">    -17.04206122 </i>
    <i name="e_wo_entrp">    -17.05368663 </i>
    <i name="e_0_energy">    -17.04593636 </i>
   </energy>
  </scstep>
  <scstep>
   <time name="dav">    6.57    6.59</time>
   <time name="total">   10.30   10.33</time>
   <energy>
    <i name="alphaZ">      6.43899565 </i>
    <i name="ewald">   7470.18196543 </i>
    <i name="hartreedc"> -14527.50144985 </i>
    <i name="XCdc">    114.19299830 </i>
    <i name="pawpsdc">   7780.35137901 </i>
    <i name="pawaedc">  -7608.97879301 </i>
    <i name="eentropy">      0.01162578 </i>
    <i name="bandstr">   -660.38286359 </i>
    <i name="atom">   7408.64415014 </i>
    <i name="e_fr_energy">    -17.04199215 </i>
    <i name="e_wo_entrp">    -17.05361793 </i>
    <i name="e_0_energy">    -17.04586741 </i>
   </energy>
  </scstep>
  <structure>
   <crystal>
    <varray name="basis" >
     <v>      21.38459405       0.00000000       0.00000000 </v>
     <v>       0.00000000      22.73816368       0.00000000 </v>
     <v>       0.00000000       0.00000000      23.80977728 </v>
    </varray>
    <i name="volume">  11577.41847862 </i>
    <varray name="rec_basis" >
     <v>       0.04676264       0.00000000       0.00000000 </v>
     <v>       0.00000000       0.04397893       0.00000000 </v>
     <v>       0.00000000       0.00000000       0.04199955 </v>
    </varray>
   </crystal>
   <varray name="positions" >
    <v>       0.50212105       0.39611075       0.37806276 </v>
    <v>       0.54723014       0.49398421       0.41828168 </v>
    <v>       0.42071053       0.46294433       0.43452103 </v>
    <v>       0.57865480       0.60470965       0.44298767 </v>
    <v>       0.45303786       0.57652920       0.45393574 </v>
    <v>       0.54842909       0.53603157       0.52998372 </v>
    <v>       0.42108983       0.50462022       0.54016727 </v>
    <v>       0.50531350       0.48883763       0.62192527 </v>
   </varray>
  </structure>
  <varray name="forces" >
   <v>       0.00517518      -0.00991241      -0.01846438 </v>
   <v>      -0.01652756       0.01109150       0.00358616 </v>
   <v>       0.00309457      -0.01066628       0.00968624 </v>
   <v>       0.00812377      -0.02951556       0.00915762 </v>
   <v>      -0.00273705       0.04410178      -0.01388421 </v>
   <v>      -0.01380452       0.01168312      -0.00871530 </v>
   <v>       0.01061828      -0.02557002      -0.00583850 </v>
   <v>       0.00605733       0.00878788       0.02447238 </v>
  </varray>
  <energy>
   <i name="e_fr_energy">    -17.04199215 </i>
   <i name="e_wo_entrp">    -17.05361793 </i>
   <i name="e_0_energy">    -17.04586741 </i>
  </energy>
  <time name="totalsc">   45.00   45.24</time>
 </calculation>
 <calculation>
  <scstep>
   <time name="dav">    6.31    6.32</time>
   <time name="total">   10.91   10.92</time>
   <energy>
    <i name="alphaZ">      6.43899565 </i>
    <i name="ewald">   7470.16297877 </i>
    <i name="hartreedc"> -14527.50381351 </i>
    <i name="XCdc">    114.19345853 </i>
    <i name="pawpsdc">   7780.48050201 </i>
    <i name="pawaedc">  -7609.11083707 </i>
    <i name="eentropy">      0.01162589 </i>
    <i name="bandstr">   -660.35903446 </i>
    <i name="atom">   7408.64415014 </i>
    <i name="e_fr_energy">    -17.04197406 </i>
    <i name="e_wo_entrp">    -17.05359994 </i>
    <i name="e_0_energy">    -17.04584935 </i>
   </energy>
  </scstep>
  <scstep>
   <time name="dav">    4.53    4.54</time>
   <time name="total">    8.28    8.32</time>
   <energy>
    <i name="alphaZ">      6.43899565 </i>
    <i name="ewald">   7470.16297877 </i>
    <i name="hartreedc"> -14527.50815316 </i>
    <i name="XCdc">    114.19350838 </i>
    <i name="pawpsdc">   7780.50780192 </i>
    <i name="pawaedc">  -7609.13862373 </i>
    <i name="eentropy">      0.01162586 </i>
    <i name="bandstr">   -660.35426011 </i>
    <i name="atom">   7408.64415014 </i>
    <i name="e_fr_energy">    -17.04197629 </i>
    <i name="e_wo_entrp">    -17.05360215 </i>
    <i name="e_0_energy">    -17.04585158 </i>
   </energy>
  </scstep>
  <structure>
   <crystal>
    <varray name="basis" >
     <v>      21.38459405       0.00000000       0.00000000 </v>
     <v>       0.00000000      22.73816368       0.00000000 </v>
     <v>       0.00000000       0.00000000      23.80977728 </v>
    </varray>
    <i name="volume">  11577.41847862 </i>
    <varray name="rec_basis" >
     <v>       0.04676264       0.00000000       0.00000000 </v>
     <v>       0.00000000       0.04397893       0.00000000 </v>
     <v>       0.00000000       0.00000000       0.04199955 </v>
    </varray>
   </crystal>
   <varray name="positions" >
    <v>       0.50212607       0.39611221       0.37806124 </v>
    <v>       0.54722530       0.49398045       0.41827845 </v>
    <v>       0.42071070       0.46294620       0.43451678 </v>
    <v>       0.57865830       0.60470599       0.44298885 </v>
    <v>       0.45303238       0.57652746       0.45393669 </v>
    <v>       0.54842488       0.53603161       0.52998848 </v>
    <v>       0.42109069       0.50462358       0.54016904 </v>
    <v>       0.50531849       0.48884009       0.62192561 </v>
   </varray>
  </structure>
  <varray name="forces" >
   <v>       0.00564252      -0.00985809      -0.01936994 </v>
   <v>      -0.01647266       0.01081302       0.00167750 </v>
   <v>       0.00317898      -0.00973903       0.00928336 </v>
   <v>       0.00799900      -0.03232065       0.01018428 </v>
   <v>      -0.00369326       0.04329120      -0.01364547 </v>
   <v>      -0.01384006       0.01275213      -0.00717523 </v>
   <v>       0.01052457      -0.02421698      -0.00584402 </v>
   <v>       0.00666090       0.00927840       0.02488950 </v>
  </varray>
  <energy>
   <i name="e_fr_energy">    -17.04197629 </i>
   <i name="e_wo_entrp">    -17.05360215 </i>
   <i name="e_0_energy">    -17.04585158 </i>
  </energy>
  <time name="totalsc">   31.59   31.81</time>
  <eigenvalues>
   <array>
    <dimension dim="1">band</dimension>
    <dimension dim="2">kpoint</dimension>
    <dimension dim="3">spin</dimension>
    <field>eigene</field>
    <field>occ</field>
    <set>
     <set comment="spin 1">
      <set comment="kpoint 1">
       <r>  -10.8075    1.0000 </r>
       <r>   -9.9326    1.0000 </r>
       <r>   -9.7395    1.0000 </r>
       <r>   -9.6193    1.0000 </r>
       <r>   -9.1713    1.0000 </r>
       <r>   -9.0153    1.0000 </r>
       <r>   -8.9490    1.0000 </r>
       <r>   -8.8209    1.0000 </r>
       <r>   -8.6115    1.0000 </r>
       <r>   -8.5166    1.0000 </r>
       <r>   -8.3505    1.0000 </r>
       <r>   -8.2855    1.0000 </r>
       <r>   -8.2685    1.0000 </r>
       <r>   -8.1613    1.0000 </r>
       <r>   -8.0415    1.0000 </r>
       <r>   -7.9716    1.0000 </r>
       <r>   -7.7588    1.0000 </r>
       <r>   -7.7216    1.0000 </r>
       <r>   -7.5133    1.0000 </r>
       <r>   -7.4482    1.0000 </r>
       <r>   -7.4045    1.0000 </r>
       <r>   -7.2827    1.0000 </r>
       <r>   -7.2375    1.0000 </r>
       <r>   -7.1076    1.0000 </r>
       <r>   -7.0807    1.0000 </r>
       <r>   -6.9673    1.0000 </r>
       <r>   -6.8127    1.0000 </r>
       <r>   -6.7767    1.0000 </r>
       <r>   -6.7316    1.0000 </r>
       <r>   -6.6917    1.0000 </r>
       <r>   -6.6795    1.0000 </r>
       <r>   -6.6536    1.0000 </r>
       <r>   -6.5860    1.0000 </r>
       <r>   -6.5404    1.0000 </r>
       <r>   -6.4698    1.0000 </r>
       <r>   -6.4414    1.0000 </r>
       <r>   -6.3728    1.0000 </r>
       <r>   -6.3317    1.0000 </r>
       <r>   -6.1376    1.0000 </r>
       <r>   -6.0020    1.0000 </r>
       <r>   -5.9779    1.0000 </r>
       <r>   -5.9155    1.0000 </r>
       <r>   -5.8767    1.0000 </r>
       <r>   -5.3947    1.0000 </r>
       <r>   -3.8928   -0.0000 </r>
       <r>   -3.6895   -0.0000 </r>
       <r>   -3.5628   -0.0000 </r>
       <r>   -3.3404   -0.0000 </r>
       <r>   -1.8436   -0.0000 </r>
       <r>   -1.5582   -0.0000 </r>
       <r>   -1.2863   -0.0000 </r>
       <r>   -1.2012   -0.0000 </r>
       <r>   -0.8170   -0.0000 </r>
       <r>   -0.4284   -0.0000 </r>
       <r>   -0.2389   -0.0000 </r>
       <r>   -0.0246   -0.0000 </r>
      </set>
     </set>
     <set comment="spin 2">
      <set comment="kpoint 1">
       <r>  -10.8075    1.0000 </r>
       <r>   -9.9326    1.0000 </r>
       <r>   -9.7395    1.0000 </r>
       <r>   -9.6193    1.0000 </r>
       <r>   -9.1713    1.0000 </r>
       <r>   -9.0153    1.0000 </r>
       <r>   -8.9490    1.0000 </r>
       <r>   -8.8209    1.0000 </r>
       <r>   -8.6115    1.0000 </r>
       <r>   -8.5166    1.0000 </r>
       <r>   -8.3505    1.0000 </r>
       <r>   -8.2855    1.0000 </r>
       <r>   -8.2685    1.0000 </r>
       <r>   -8.1613    1.0000 </r>
       <r>   -8.0415    1.0000 </r>
       <r>   -7.9716    1.0000 </r>
       <r>   -7.7588    1.0000 </r>
       <r>   -7.7216    1.0000 </r>
       <r>   -7.5133    1.0000 </r>
       <r>   -7.4482    1.0000 </r>
       <r>   -7.4045    1.0000 </r>
       <r>   -7.2827    1.0000 </r>
       <r>   -7.2375    1.0000 </r>
       <r>   -7.1076    1.0000 </r>
       <r>   -7.0807    1.0000 </r>
       <r>   -6.9673    1.0000 </r>
       <r>   -6.8127    1.0000 </r>
       <r>   -6.7767    1.0000 </r>
       <r>   -6.7316    1.0000 </r>
       <r>   -6.6917    1.0000 </r>
       <r>   -6.6795    1.0000 </r>
       <r>   -6.6536    1.0000 </r>
       <r>   -6.5860    1.0000 </r>
       <r>   -6.5404    1.0000 </r>
       <r>   -6.4698    1.0000 </r>
       <r>   -6.4414    1.0000 </r>
       <r>   -6.3728    1.0000 </r>
       <r>   -6.3317    1.0000 </r>
       <r>   -6.1376    1.0000 </r>
       <r>   -6.0020    1.0000 </r>
       <r>   -5.9779    1.0000 </r>
       <r>   -5.9155    1.0000 </r>
       <r>   -5.8767    1.0000 </r>
       <r>   -5.3947    1.0000 </r>
       <r>   -3.8928   -0.0000 </r>
       <r>   -3.6895   -0.0000 </r>
       <r>   -3.5628   -0.0000 </r>
       <r>   -3.3404   -0.0000 </r>
       <r>   -1.8436   -0.0000 </r>
       <r>   -1.5582   -0.0000 </r>
       <r>   -1.2863   -0.0000 </r>
       <r>   -1.2012   -0.0000 </r>
       <r>   -0.8170   -0.0000 </r>
       <r>   -0.4283   -0.0000 </r>
       <r>   -0.2389   -0.0000 </r>
       <r>   -0.0247   -0.0000 </r>
      </set>
     </set>
    </set>
   </array>
  </eigenvalues>
  <separator name="orbital magnetization" >
   <v name="MAGDIPOLOUT">      0.00000000      0.00000000      0.00000000</v>
  </separator>
  <dos>
   <i name="efermi">     -5.22639567 </i>
   <total>
    <array>
     <dimension dim="1">gridpoints</dimension>
     <dimension dim="2">spin</dimension>
     <field>energy</field>
     <field>total</field>
     <field>integrated</field>
     <set>
      <set comment="spin 1">
       <r>   -12.8075     0.0000     0.0000 </r>
       <r>   -12.7582     0.0000     0.0000 </r>
       <r>   -12.7089     0.0000     0.0000 </r>
       <r>   -12.6596     0.0000     0.0000 </r>
       <r>   -12.6104     0.0000     0.0000 </r>
       <r>   -12.5611     0.0000     0.0000 </r>
       <r>   -12.5118     0.0000     0.0000 </r>
       <r>   -12.4625     0.0000     0.0000 </r>
       <r>   -12.4133    -0.0000    -0.0000 </r>
       <r>   -12.3640    -0.0000    -0.0000 </r>
       <r>   -12.3147    -0.0000    -0.0000 </r>
       <r>   -12.2654    -0.0000    -0.0000 </r>
       <r>   -12.2161    -0.0000    -0.0000 </r>
       <r>   -12.1669    -0.0000    -0.0000 </r>
       <r>   -12.1176    -0.0000    -0.0000 </r>
       <r>   -12.0683    -0.0000    -0.0000 </r>
       <r>   -12.0190    -0.0000    -0.0000 </r>
       <r>   -11.9698    -0.0000    -0.0000 </r>
       <r>   -11.9205    -0.0000    -0.0000 </r>
       <r>   -11.8712    -0.0000    -0.0000 </r>
       <r>   -11.8219    -0.0000    -0.0000 </r>
       <r>   -11.7727    -0.0000    -0.0000 </r>
       <r>   -11.7234    -0.0000    -0.0000 </r>
       <r>   -11.6741    -0.0000    -0.0000 </r>
       <r>   -11.6248    -0.0000    -0.0000 </r>
       <r>   -11.5756    -0.0000    -0.0000 </r>
       <r>   -11.5263    -0.0000    -0.0000 </r>
       <r>   -11.4770    -0.0002    -0.0000 </r>
       <r>   -11.4277    -0.0008    -0.0001 </r>
       <r>   -11.3785    -0.0031    -0.0002 </r>
       <r>   -11.3292    -0.0101    -0.0007 </r>
       <r>   -11.2799    -0.0283    -0.0021 </r>
       <r>   -11.2306    -0.0671    -0.0054 </r>
       <r>   -11.1814    -0.1320    -0.0119 </r>
       <r>   -11.1321    -0.2048    -0.0220 </r>
       <r>   -11.0828    -0.2149    -0.0326 </r>
       <r>   -11.0335    -0.0266    -0.0339 </r>
       <r>   -10.9842     0.5152    -0.0085 </r>
       <r>   -10.9350     1.4685     0.0638 </r>
       <r>   -10.8857     2.6692     0.1954 </r>
       <r>   -10.8364     3.7241     0.3789 </r>
       <r>   -10.7871     4.1928     0.5855 </r>
       <r>   -10.7379     3.8591     0.7756 </r>
       <r>   -10.6886     2.8781     0.9175 </r>
       <r>   -10.6393     1.6698     0.9997 </r>
       <r>   -10.5900     0.6536     1.0319 </r>
       <r>   -10.5408     0.0380     1.0338 </r>
       <r>   -10.4915    -0.2050     1.0237 </r>
       <r>   -10.4422    -0.2275     1.0125 </r>
       <r>   -10.3929    -0.1812     1.0036 </r>
       <r>   -10.3437    -0.1587     0.9958 </r>
       <r>   -10.2944    -0.1889     0.9864 </r>
       <r>   -10.2451    -0.2447     0.9744 </r>
       <r>   -10.1958    -0.2380     0.9627 </r>
       <r>   -10.1466    -0.0266     0.9613 </r>
       <r>   -10.0973     0.5308     0.9875 </r>
       <r>   -10.0480     1.4712     1.0600 </r>
       <r>    -9.9987     2.6538     1.1908 </r>
       <r>    -9.9494     3.8155     1.3788 </r>
       <r>    -9.9002     4.7492     1.6128 </r>
       <r>    -9.8509     5.4506     1.8814 </r>
       <r>    -9.8016     6.0692     2.1804 </r>
       <r>    -9.7523     6.6896     2.5101 </r>
       <r>    -9.7031     7.1591     2.8629 </r>
       <r>    -9.6538     7.1456     3.2150 </r>
       <r>    -9.6045     6.3858     3.5296 </r>
       <r>    -9.5552     4.9106     3.7716 </r>
       <r>    -9.5060     3.0721     3.9230 </r>
       <r>    -9.4567     1.3773     3.9909 </r>
       <r>    -9.4074     0.2681     4.0041 </r>
       <r>    -9.3581    -0.0168     4.0032 </r>
       <r>    -9.3089     0.5322     4.0295 </r>
       <r>    -9.2596     1.7402     4.1152 </r>
       <r>    -9.2103     3.3315     4.2794 </r>
       <r>    -9.1610     5.0373     4.5276 </r>
       <r>    -9.1118     6.6716     4.8563 </r>
       <r>    -9.0625     8.1125     5.2561 </r>
       <r>    -9.0132     9.2115     5.7100 </r>
       <r>    -8.9639     9.7552     6.1907 </r>
       <r>    -8.9147     9.5629     6.6619 </r>
       <r>    -8.8654     8.6512     7.0882 </r>
       <r>    -8.8161     7.3190     7.4489 </r>
       <r>    -8.7668     6.0647     7.7477 </r>
       <r>    -8.7175     5.3618     8.0119 </r>
       <r>    -8.6683     5.4060     8.2783 </r>
       <r>    -8.6190     6.0095     8.5744 </r>
       <r>    -8.5697     6.7670     8.9079 </r>
       <r>    -8.5204     7.4138     9.2732 </r>
       <r>    -8.4712     8.0656     9.6706 </r>
       <r>    -8.4219     9.0756    10.1179 </r>
       <r>    -8.3726    10.6016    10.6403 </r>
       <r>    -8.3233    12.3044    11.2466 </r>
       <r>    -8.2741    13.5142    11.9125 </r>
       <r>    -8.2248    13.7374    12.5894 </r>
       <r>    -8.1755    13.0220    13.2311 </r>
       <r>    -8.1262    11.8423    13.8146 </r>
       <r>    -8.0770    10.6562    14.3397 </r>
       <r>    -8.0277     9.5981    14.8127 </r>
       <r>    -7.9784     8.5854    15.2358 </r>
       <r>    -7.9291     7.6460    15.6125 </r>
       <r>    -7.8799     7.0368    15.9593 </r>
       <r>    -7.8306     6.9837    16.3034 </r>
       <r>    -7.7813     7.3545    16.6658 </r>
       <r>    -7.7320     7.7016    17.0453 </r>
       <r>    -7.6828     7.7074    17.4251 </r>
       <r>    -7.6335     7.5604    17.7976 </r>
       <r>    -7.5842     7.8169    18.1828 </r>
       <r>    -7.5349     8.8524    18.6190 </r>
       <r>    -7.4856    10.4623    19.1346 </r>
       <r>    -7.4364    12.0063    19.7262 </r>
       <r>    -7.3871    12.9210    20.3629 </r>
       <r>    -7.3378    13.0967    21.0082 </r>
       <r>    -7.2885    12.8335    21.6406 </r>
       <r>    -7.2393    12.5165    22.2574 </r>
       <r>    -7.1900    12.3224    22.8646 </r>
       <r>    -7.1407    12.1368    23.4626 </r>
       <r>    -7.0914    11.6857    24.0385 </r>
       <r>    -7.0422    10.8111    24.5712 </r>
       <r>    -6.9929     9.7474    25.0515 </r>
       <r>    -6.9436     9.1867    25.5042 </r>
       <r>    -6.8943     9.9785    25.9959 </r>
       <r>    -6.8451    12.5748    26.6155 </r>
       <r>    -6.7958    16.5915    27.4331 </r>
       <r>    -6.7465    20.8606    28.4610 </r>
       <r>    -6.6972    24.0184    29.6446 </r>
       <r>    -6.6480    25.2526    30.8889 </r>
       <r>    -6.5987    24.6757    32.1048 </r>
       <r>    -6.5494    23.0669    33.2415 </r>
       <r>    -6.5001    21.2161    34.2869 </r>
       <r>    -6.4508    19.3990    35.2428 </r>
       <r>    -6.4016    17.3634    36.0984 </r>
       <r>    -6.3523    14.7715    36.8263 </r>
       <r>    -6.3030    11.6889    37.4023 </r>
       <r>    -6.2537     8.7253    37.8322 </r>
       <r>    -6.2045     6.7491    38.1648 </r>
       <r>    -6.1552     6.4220    38.4813 </r>
       <r>    -6.1059     7.8582    38.8685 </r>
       <r>    -6.0566    10.5357    39.3876 </r>
       <r>    -6.0074    13.4316    40.0495 </r>
       <r>    -5.9581    15.3410    40.8054 </r>
       <r>    -5.9088    15.3397    41.5613 </r>
       <r>    -5.8595    13.2141    42.2124 </r>
       <r>    -5.8103     9.5804    42.6845 </r>
       <r>    -5.7610     5.5613    42.9586 </r>
       <r>    -5.7117     2.2270    43.0683 </r>
       <r>    -5.6624     0.1814    43.0772 </r>
       <r>    -5.6132    -0.4938    43.0529 </r>
       <r>    -5.5639    -0.0463    43.0506 </r>
       <r>    -5.5146     1.1300    43.1063 </r>
       <r>    -5.4653     2.5553    43.2322 </r>
       <r>    -5.4161     3.7019    43.4146 </r>
       <r>    -5.3668     4.1363    43.6185 </r>
       <r>    -5.3175     3.7204    43.8018 </r>
       <r>    -5.2682     2.6873    43.9342 </r>
       <r>    -5.2189     1.4895    44.0076 </r>
       <r>    -5.1697     0.5300    44.0337 </r>
       <r>    -5.1204    -0.0197    44.0328 </r>
       <r>    -5.0711    -0.2136    44.0222 </r>
       <r>    -5.0218    -0.2060    44.0121 </r>
       <r>    -4.9726    -0.1336    44.0055 </r>
       <r>    -4.9233    -0.0681    44.0021 </r>
       <r>    -4.8740    -0.0288    44.0007 </r>
       <r>    -4.8247    -0.0103    44.0002 </r>
       <r>    -4.7755    -0.0032    44.0001 </r>
       <r>    -4.7262    -0.0008    44.0000 </r>
       <r>    -4.6769    -0.0002    44.0000 </r>
       <r>    -4.6276    -0.0001    44.0000 </r>
       <r>    -4.5784    -0.0001    44.0000 </r>
       <r>    -4.5291    -0.0005    44.0000 </r>
       <r>    -4.4798    -0.0021    43.9999 </r>
       <r>    -4.4305    -0.0070    43.9995 </r>
       <r>    -4.3813    -0.0207    43.9985 </r>
       <r>    -4.3320    -0.0521    43.9959 </r>
       <r>    -4.2827    -0.1102    43.9905 </r>
       <r>    -4.2334    -0.1896    43.9812 </r>
       <r>    -4.1842    -0.2446    43.9691 </r>
       <r>    -4.1349    -0.1689    43.9608 </r>
       <r>    -4.0856     0.1841    43.9699 </r>
       <r>    -4.0363     0.9175    44.0151 </r>
       <r>    -3.9870     1.9820    44.1127 </r>
       <r>    -3.9378     3.1489    44.2679 </r>
       <r>    -3.8885     4.1361    44.4717 </r>
       <r>    -3.8392     4.8125    44.7088 </r>
       <r>    -3.7899     5.2849    44.9693 </r>
       <r>    -3.7407     5.7584    45.2530 </r>
       <r>    -3.6914     6.2949    45.5632 </r>
       <r>    -3.6421     6.7169    45.8942 </r>
       <r>    -3.5928     6.7637    46.2275 </r>
       <r>    -3.5436     6.3523    46.5405 </r>
       <r>    -3.4943     5.6846    46.8206 </r>
       <r>    -3.4450     5.0880    47.0713 </r>
       <r>    -3.3957     4.7283    47.3043 </r>
       <r>    -3.3465     4.4661    47.5244 </r>
       <r>    -3.2972     3.9997    47.7215 </r>
       <r>    -3.2479     3.1560    47.8770 </r>
       <r>    -3.1986     2.0504    47.9780 </r>
       <r>    -3.1494     0.9876    48.0267 </r>
       <r>    -3.1001     0.2304    48.0381 </r>
       <r>    -3.0508    -0.1472    48.0308 </r>
       <r>    -3.0015    -0.2383    48.0191 </r>
       <r>    -2.9522    -0.1899    48.0097 </r>
       <r>    -2.9030    -0.1120    48.0042 </r>
       <r>    -2.8537    -0.0534    48.0016 </r>
       <r>    -2.8044    -0.0214    48.0005 </r>
       <r>    -2.7551    -0.0073    48.0001 </r>
       <r>    -2.7059    -0.0021    48.0000 </r>
       <r>    -2.6566    -0.0005    48.0000 </r>
       <r>    -2.6073    -0.0001    48.0000 </r>
       <r>    -2.5580    -0.0001    48.0000 </r>
       <r>    -2.5088    -0.0002    48.0000 </r>
       <r>    -2.4595    -0.0009    47.9999 </r>
       <r>    -2.4102    -0.0035    47.9998 </r>
       <r>    -2.3609    -0.0111    47.9992 </r>
       <r>    -2.3117    -0.0307    47.9977 </r>
       <r>    -2.2624    -0.0718    47.9942 </r>
       <r>    -2.2131    -0.1390    47.9873 </r>
       <r>    -2.1638    -0.2110    47.9769 </r>
       <r>    -2.1146    -0.2131    47.9664 </r>
       <r>    -2.0653    -0.0090    47.9660 </r>
       <r>    -2.0160     0.5459    47.9929 </r>
       <r>    -1.9667     1.4846    48.0660 </r>
       <r>    -1.9175     2.6192    48.1951 </r>
       <r>    -1.8682     3.5724    48.3711 </r>
       <r>    -1.8189     4.0002    48.5682 </r>
       <r>    -1.7696     3.8596    48.7584 </r>
       <r>    -1.7203     3.4652    48.9292 </r>
       <r>    -1.6711     3.2366    49.0887 </r>
       <r>    -1.6218     3.3419    49.2533 </r>
       <r>    -1.5725     3.5857    49.4300 </r>
       <r>    -1.5232     3.6672    49.6107 </r>
       <r>    -1.4740     3.5566    49.7860 </r>
       <r>    -1.4247     3.5994    49.9634 </r>
       <r>    -1.3754     4.2122    50.1709 </r>
       <r>    -1.3261     5.4381    50.4389 </r>
       <r>    -1.2769     6.7761    50.7728 </r>
       <r>    -1.2276     7.4608    51.1404 </r>
       <r>    -1.1783     6.9771    51.4842 </r>
       <r>    -1.1290     5.4125    51.7509 </r>
       <r>    -1.0798     3.4094    51.9189 </r>
       <r>    -1.0305     1.7935    52.0073 </r>
       <r>    -0.9812     1.1446    52.0637 </r>
       <r>    -0.9319     1.5408    52.1396 </r>
       <r>    -0.8827     2.5613    52.2658 </r>
       <r>    -0.8334     3.5219    52.4394 </r>
       <r>    -0.7841     3.8362    52.6284 </r>
       <r>    -0.7348     3.3283    52.7924 </r>
       <r>    -0.6856     2.3135    52.9064 </r>
       <r>    -0.6363     1.3931    52.9751 </r>
       <r>    -0.5870     1.0982    53.0292 </r>
       <r>    -0.5377     1.6076    53.1084 </r>
       <r>    -0.4884     2.6954    53.2412 </r>
       <r>    -0.4392     3.9123    53.4340 </r>
       <r>    -0.3899     4.8589    53.6734 </r>
       <r>    -0.3406     5.3642    53.9378 </r>
       <r>    -0.2913     5.4775    54.2077 </r>
       <r>    -0.2421     5.3510    54.4713 </r>
       <r>    -0.1928     5.1460    54.7249 </r>
       <r>    -0.1435     4.9858    54.9706 </r>
       <r>    -0.0942     4.8983    55.2120 </r>
       <r>    -0.0450     4.7609    55.4466 </r>
       <r>     0.0043     4.3540    55.6611 </r>
       <r>     0.0536     3.5415    55.8356 </r>
       <r>     0.1029     2.4199    55.9549 </r>
       <r>     0.1521     1.2788    56.0179 </r>
       <r>     0.2014     0.4060    56.0379 </r>
       <r>     0.2507    -0.0779    56.0341 </r>
       <r>     0.3000    -0.2351    56.0225 </r>
       <r>     0.3492    -0.2117    56.0120 </r>
       <r>     0.3985    -0.1340    56.0054 </r>
       <r>     0.4478    -0.0676    56.0021 </r>
       <r>     0.4971    -0.0284    56.0007 </r>
       <r>     0.5464    -0.0101    56.0002 </r>
       <r>     0.5956    -0.0031    56.0001 </r>
       <r>     0.6449    -0.0008    56.0000 </r>
       <r>     0.6942    -0.0002    56.0000 </r>
       <r>     0.7435    -0.0000    56.0000 </r>
       <r>     0.7927    -0.0000    56.0000 </r>
       <r>     0.8420    -0.0000    56.0000 </r>
       <r>     0.8913    -0.0000    56.0000 </r>
       <r>     0.9406    -0.0000    56.0000 </r>
       <r>     0.9898    -0.0000    56.0000 </r>
       <r>     1.0391    -0.0000    56.0000 </r>
       <r>     1.0884    -0.0000    56.0000 </r>
       <r>     1.1377    -0.0000    56.0000 </r>
       <r>     1.1869    -0.0000    56.0000 </r>
       <r>     1.2362    -0.0000    56.0000 </r>
       <r>     1.2855     0.0000    56.0000 </r>
       <r>     1.3348     0.0000    56.0000 </r>
       <r>     1.3840     0.0000    56.0000 </r>
       <r>     1.4333     0.0000    56.0000 </r>
       <r>     1.4826     0.0000    56.0000 </r>
       <r>     1.5319     0.0000    56.0000 </r>
       <r>     1.5811     0.0000    56.0000 </r>
       <r>     1.6304     0.0000    56.0000 </r>
       <r>     1.6797     0.0000    56.0000 </r>
       <r>     1.7290     0.0000    56.0000 </r>
       <r>     1.7783     0.0000    56.0000 </r>
       <r>     1.8275     0.0000    56.0000 </r>
       <r>     1.8768     0.0000    56.0000 </r>
       <r>     1.9261     0.0000    56.0000 </r>
       <r>     1.9754     0.0000    56.0000 </r>
      </set>
      <set comment="spin 2">
       <r>   -12.8075     0.0000     0.0000 </r>
       <r>   -12.7582     0.0000     0.0000 </r>
       <r>   -12.7089     0.0000     0.0000 </r>
       <r>   -12.6596     0.0000     0.0000 </r>
       <r>   -12.6104     0.0000     0.0000 </r>
       <r>   -12.5611     0.0000     0.0000 </r>
       <r>   -12.5118     0.0000     0.0000 </r>
       <r>   -12.4625     0.0000     0.0000 </r>
       <r>   -12.4133    -0.0000    -0.0000 </r>
       <r>   -12.3640    -0.0000    -0.0000 </r>
       <r>   -12.3147    -0.0000    -0.0000 </r>
       <r>   -12.2654    -0.0000    -0.0000 </r>
       <r>   -12.2161    -0.0000    -0.0000 </r>
       <r>   -12.1669    -0.0000    -0.0000 </r>
       <r>   -12.1176    -0.0000    -0.0000 </r>
       <r>   -12.0683    -0.0000    -0.0000 </r>
       <r>   -12.0190    -0.0000    -0.0000 </r>
       <r>   -11.9698    -0.0000    -0.0000 </r>
       <r>   -11.9205    -0.0000    -0.0000 </r>
       <r>   -11.8712    -0.0000    -0.0000 </r>
       <r>   -11.8219    -0.0000    -0.0000 </r>
       <r>   -11.7727    -0.0000    -0.0000 </r>
       <r>   -11.7234    -0.0000    -0.0000 </r>
       <r>   -11.6741    -0.0000    -0.0000 </r>
       <r>   -11.6248    -0.0000    -0.0000 </r>
       <r>   -11.5756    -0.0000    -0.0000 </r>
       <r>   -11.5263    -0.0000    -0.0000 </r>
       <r>   -11.4770    -0.0002    -0.0000 </r>
       <r>   -11.4277    -0.0008    -0.0001 </r>
       <r>   -11.3785    -0.0031    -0.0002 </r>
       <r>   -11.3292    -0.0101    -0.0007 </r>
       <r>   -11.2799    -0.0283    -0.0021 </r>
       <r>   -11.2306    -0.0671    -0.0054 </r>
       <r>   -11.1814    -0.1320    -0.0119 </r>
       <r>   -11.1321    -0.2048    -0.0220 </r>
       <r>   -11.0828    -0.2149    -0.0326 </r>
       <r>   -11.0335    -0.0266    -0.0339 </r>
       <r>   -10.9842     0.5152    -0.0085 </r>
       <r>   -10.9350     1.4685     0.0638 </r>
       <r>   -10.8857     2.6692     0.1954 </r>
       <r>   -10.8364     3.7241     0.3789 </r>
       <r>   -10.7871     4.1928     0.5855 </r>
       <r>   -10.7379     3.8591     0.7756 </r>
       <r>   -10.6886     2.8781     0.9175 </r>
       <r>   -10.6393     1.6698     0.9997 </r>
       <r>   -10.5900     0.6536     1.0319 </r>
       <r>   -10.5408     0.0380     1.0338 </r>
       <r>   -10.4915    -0.2050     1.0237 </r>
       <r>   -10.4422    -0.2275     1.0125 </r>
       <r>   -10.3929    -0.1812     1.0036 </r>
       <r>   -10.3437    -0.1587     0.9958 </r>
       <r>   -10.2944    -0.1889     0.9864 </r>
       <r>   -10.2451    -0.2447     0.9744 </r>
       <r>   -10.1958    -0.2380     0.9627 </r>
       <r>   -10.1466    -0.0266     0.9613 </r>
       <r>   -10.0973     0.5308     0.9875 </r>
       <r>   -10.0480     1.4712     1.0600 </r>
       <r>    -9.9987     2.6538     1.1908 </r>
       <r>    -9.9494     3.8155     1.3788 </r>
       <r>    -9.9002     4.7492     1.6128 </r>
       <r>    -9.8509     5.4506     1.8814 </r>
       <r>    -9.8016     6.0692     2.1804 </r>
       <r>    -9.7523     6.6896     2.5101 </r>
       <r>    -9.7031     7.1590     2.8628 </r>
       <r>    -9.6538     7.1456     3.2150 </r>
       <r>    -9.6045     6.3858     3.5296 </r>
       <r>    -9.5552     4.9106     3.7716 </r>
       <r>    -9.5060     3.0721     3.9230 </r>
       <r>    -9.4567     1.3774     3.9909 </r>
       <r>    -9.4074     0.2681     4.0041 </r>
       <r>    -9.3581    -0.0168     4.0032 </r>
       <r>    -9.3089     0.5322     4.0295 </r>
       <r>    -9.2596     1.7402     4.1152 </r>
       <r>    -9.2103     3.3315     4.2794 </r>
       <r>    -9.1610     5.0373     4.5276 </r>
       <r>    -9.1118     6.6716     4.8563 </r>
       <r>    -9.0625     8.1125     5.2561 </r>
       <r>    -9.0132     9.2115     5.7100 </r>
       <r>    -8.9639     9.7552     6.1907 </r>
       <r>    -8.9147     9.5629     6.6619 </r>
       <r>    -8.8654     8.6512     7.0882 </r>
       <r>    -8.8161     7.3190     7.4489 </r>
       <r>    -8.7668     6.0647     7.7477 </r>
       <r>    -8.7175     5.3618     8.0119 </r>
       <r>    -8.6683     5.4060     8.2783 </r>
       <r>    -8.6190     6.0095     8.5744 </r>
       <r>    -8.5697     6.7670     8.9079 </r>
       <r>    -8.5204     7.4138     9.2732 </r>
       <r>    -8.4712     8.0656     9.6706 </r>
       <r>    -8.4219     9.0756    10.1179 </r>
       <r>    -8.3726    10.6016    10.6403 </r>
       <r>    -8.3233    12.3044    11.2466 </r>
       <r>    -8.2741    13.5142    11.9125 </r>
       <r>    -8.2248    13.7374    12.5894 </r>
       <r>    -8.1755    13.0220    13.2311 </r>
       <r>    -8.1262    11.8423    13.8146 </r>
       <r>    -8.0770    10.6563    14.3397 </r>
       <r>    -8.0277     9.5981    14.8127 </r>
       <r>    -7.9784     8.5854    15.2358 </r>
       <r>    -7.9291     7.6460    15.6125 </r>
       <r>    -7.8799     7.0368    15.9593 </r>
       <r>    -7.8306     6.9837    16.3034 </r>
       <r>    -7.7813     7.3545    16.6658 </r>
       <r>    -7.7320     7.7016    17.0453 </r>
       <r>    -7.6828     7.7074    17.4251 </r>
       <r>    -7.6335     7.5604    17.7976 </r>
       <r>    -7.5842     7.8169    18.1828 </r>
       <r>    -7.5349     8.8524    18.6190 </r>
       <r>    -7.4856    10.4622    19.1346 </r>
       <r>    -7.4364    12.0063    19.7262 </r>
       <r>    -7.3871    12.9210    20.3629 </r>
       <r>    -7.3378    13.0967    21.0082 </r>
       <r>    -7.2885    12.8335    21.6406 </r>
       <r>    -7.2393    12.5165    22.2574 </r>
       <r>    -7.1900    12.3224    22.8646 </r>
       <r>    -7.1407    12.1368    23.4626 </r>
       <r>    -7.0914    11.6857    24.0385 </r>
       <r>    -7.0422    10.8111    24.5712 </r>
       <r>    -6.9929     9.7475    25.0515 </r>
       <r>    -6.9436     9.1867    25.5042 </r>
       <r>    -6.8943     9.9785    25.9959 </r>
       <r>    -6.8451    12.5748    26.6155 </r>
       <r>    -6.7958    16.5914    27.4331 </r>
       <r>    -6.7465    20.8605    28.4610 </r>
       <r>    -6.6972    24.0184    29.6445 </r>
       <r>    -6.6480    25.2526    30.8889 </r>
       <r>    -6.5987    24.6757    32.1048 </r>
       <r>    -6.5494    23.0669    33.2415 </r>
       <r>    -6.5001    21.2162    34.2869 </r>
       <r>    -6.4508    19.3990    35.2428 </r>
       <r>    -6.4016    17.3635    36.0984 </r>
       <r>    -6.3523    14.7716    36.8263 </r>
       <r>    -6.3030    11.6889    37.4023 </r>
       <r>    -6.2537     8.7253    37.8322 </r>
       <r>    -6.2045     6.7491    38.1648 </r>
       <r>    -6.1552     6.4220    38.4812 </r>
       <r>    -6.1059     7.8581    38.8685 </r>
       <r>    -6.0566    10.5357    39.3876 </r>
       <r>    -6.0074    13.4316    40.0495 </r>
       <r>    -5.9581    15.3410    40.8054 </r>
       <r>    -5.9088    15.3397    41.5613 </r>
       <r>    -5.8595    13.2142    42.2124 </r>
       <r>    -5.8103     9.5804    42.6845 </r>
       <r>    -5.7610     5.5613    42.9586 </r>
       <r>    -5.7117     2.2271    43.0683 </r>
       <r>    -5.6624     0.1814    43.0772 </r>
       <r>    -5.6132    -0.4938    43.0529 </r>
       <r>    -5.5639    -0.0463    43.0506 </r>
       <r>    -5.5146     1.1300    43.1063 </r>
       <r>    -5.4653     2.5553    43.2322 </r>
       <r>    -5.4161     3.7019    43.4146 </r>
       <r>    -5.3668     4.1363    43.6185 </r>
       <r>    -5.3175     3.7204    43.8018 </r>
       <r>    -5.2682     2.6873    43.9342 </r>
       <r>    -5.2189     1.4895    44.0076 </r>
       <r>    -5.1697     0.5300    44.0337 </r>
       <r>    -5.1204    -0.0197    44.0328 </r>
       <r>    -5.0711    -0.2136    44.0222 </r>
       <r>    -5.0218    -0.2060    44.0121 </r>
       <r>    -4.9726    -0.1336    44.0055 </r>
       <r>    -4.9233    -0.0681    44.0021 </r>
       <r>    -4.8740    -0.0288    44.0007 </r>
       <r>    -4.8247    -0.0103    44.0002 </r>
       <r>    -4.7755    -0.0032    44.0001 </r>
       <r>    -4.7262    -0.0008    44.0000 </r>
       <r>    -4.6769    -0.0002    44.0000 </r>
       <r>    -4.6276    -0.0001    44.0000 </r>
       <r>    -4.5784    -0.0001    44.0000 </r>
       <r>    -4.5291    -0.0005    44.0000 </r>
       <r>    -4.4798    -0.0021    43.9999 </r>
       <r>    -4.4305    -0.0070    43.9995 </r>
       <r>    -4.3813    -0.0207    43.9985 </r>
       <r>    -4.3320    -0.0521    43.9959 </r>
       <r>    -4.2827    -0.1102    43.9905 </r>
       <r>    -4.2334    -0.1896    43.9812 </r>
       <r>    -4.1842    -0.2446    43.9691 </r>
       <r>    -4.1349    -0.1689    43.9608 </r>
       <r>    -4.0856     0.1841    43.9699 </r>
       <r>    -4.0363     0.9175    44.0151 </r>
       <r>    -3.9870     1.9820    44.1127 </r>
       <r>    -3.9378     3.1489    44.2679 </r>
       <r>    -3.8885     4.1361    44.4717 </r>
       <r>    -3.8392     4.8125    44.7088 </r>
       <r>    -3.7899     5.2849    44.9693 </r>
       <r>    -3.7407     5.7584    45.2530 </r>
       <r>    -3.6914     6.2949    45.5632 </r>
       <r>    -3.6421     6.7169    45.8942 </r>
       <r>    -3.5928     6.7637    46.2275 </r>
       <r>    -3.5436     6.3523    46.5405 </r>
       <r>    -3.4943     5.6846    46.8206 </r>
       <r>    -3.4450     5.0880    47.0713 </r>
       <r>    -3.3957     4.7283    47.3043 </r>
       <r>    -3.3465     4.4661    47.5244 </r>
       <r>    -3.2972     3.9997    47.7215 </r>
       <r>    -3.2479     3.1560    47.8770 </r>
       <r>    -3.1986     2.0504    47.9780 </r>
       <r>    -3.1494     0.9876    48.0267 </r>
       <r>    -3.1001     0.2304    48.0381 </r>
       <r>    -3.0508    -0.1472    48.0308 </r>
       <r>    -3.0015    -0.2383    48.0191 </r>
       <r>    -2.9522    -0.1899    48.0097 </r>
       <r>    -2.9030    -0.1120    48.0042 </r>
       <r>    -2.8537    -0.0534    48.0016 </r>
       <r>    -2.8044    -0.0214    48.0005 </r>
       <r>    -2.7551    -0.0073    48.0001 </r>
       <r>    -2.7059    -0.0021    48.0000 </r>
       <r>    -2.6566    -0.0005    48.0000 </r>
       <r>    -2.6073    -0.0001    48.0000 </r>
       <r>    -2.5580    -0.0001    48.0000 </r>
       <r>    -2.5088    -0.0002    48.0000 </r>
       <r>    -2.4595    -0.0009    47.9999 </r>
       <r>    -2.4102    -0.0035    47.9998 </r>
       <r>    -2.3609    -0.0111    47.9992 </r>
       <r>    -2.3117    -0.0307    47.9977 </r>
       <r>    -2.2624    -0.0718    47.9942 </r>
       <r>    -2.2131    -0.1390    47.9873 </r>
       <r>    -2.1638    -0.2110    47.9769 </r>
       <r>    -2.1146    -0.2131    47.9664 </r>
       <r>    -2.0653    -0.0090    47.9660 </r>
       <r>    -2.0160     0.5459    47.9929 </r>
       <r>    -1.9667     1.4846    48.0660 </r>
       <r>    -1.9175     2.6192    48.1951 </r>
       <r>    -1.8682     3.5724    48.3711 </r>
       <r>    -1.8189     4.0002    48.5682 </r>
       <r>    -1.7696     3.8595    48.7584 </r>
       <r>    -1.7203     3.4652    48.9292 </r>
       <r>    -1.6711     3.2366    49.0887 </r>
       <r>    -1.6218     3.3418    49.2533 </r>
       <r>    -1.5725     3.5856    49.4300 </r>
       <r>    -1.5232     3.6672    49.6107 </r>
       <r>    -1.4740     3.5566    49.7860 </r>
       <r>    -1.4247     3.5994    49.9633 </r>
       <r>    -1.3754     4.2122    50.1709 </r>
       <r>    -1.3261     5.4381    50.4389 </r>
       <r>    -1.2769     6.7761    50.7728 </r>
       <r>    -1.2276     7.4609    51.1404 </r>
       <r>    -1.1783     6.9772    51.4842 </r>
       <r>    -1.1290     5.4125    51.7509 </r>
       <r>    -1.0798     3.4094    51.9189 </r>
       <r>    -1.0305     1.7935    52.0073 </r>
       <r>    -0.9812     1.1446    52.0637 </r>
       <r>    -0.9319     1.5407    52.1396 </r>
       <r>    -0.8827     2.5613    52.2658 </r>
       <r>    -0.8334     3.5219    52.4394 </r>
       <r>    -0.7841     3.8362    52.6284 </r>
       <r>    -0.7348     3.3283    52.7924 </r>
       <r>    -0.6856     2.3136    52.9064 </r>
       <r>    -0.6363     1.3931    52.9751 </r>
       <r>    -0.5870     1.0982    53.0292 </r>
       <r>    -0.5377     1.6076    53.1084 </r>
       <r>    -0.4884     2.6954    53.2412 </r>
       <r>    -0.4392     3.9122    53.4340 </r>
       <r>    -0.3899     4.8589    53.6734 </r>
       <r>    -0.3406     5.3643    53.9378 </r>
       <r>    -0.2913     5.4776    54.2077 </r>
       <r>    -0.2421     5.3511    54.4714 </r>
       <r>    -0.1928     5.1462    54.7249 </r>
       <r>    -0.1435     4.9860    54.9706 </r>
       <r>    -0.0942     4.8985    55.2120 </r>
       <r>    -0.0450     4.7610    55.4466 </r>
       <r>     0.0043     4.3540    55.6612 </r>
       <r>     0.0536     3.5413    55.8357 </r>
       <r>     0.1029     2.4197    55.9549 </r>
       <r>     0.1521     1.2785    56.0179 </r>
       <r>     0.2014     0.4058    56.0379 </r>
       <r>     0.2507    -0.0779    56.0341 </r>
       <r>     0.3000    -0.2351    56.0225 </r>
       <r>     0.3492    -0.2117    56.0120 </r>
       <r>     0.3985    -0.1340    56.0054 </r>
       <r>     0.4478    -0.0676    56.0021 </r>
       <r>     0.4971    -0.0284    56.0007 </r>
       <r>     0.5464    -0.0101    56.0002 </r>
       <r>     0.5956    -0.0031    56.0001 </r>
       <r>     0.6449    -0.0008    56.0000 </r>
       <r>     0.6942    -0.0002    56.0000 </r>
       <r>     0.7435    -0.0000    56.0000 </r>
       <r>     0.7927    -0.0000    56.0000 </r>
       <r>     0.8420    -0.0000    56.0000 </r>
       <r>     0.8913    -0.0000    56.0000 </r>
       <r>     0.9406    -0.0000    56.0000 </r>
       <r>     0.9898    -0.0000    56.0000 </r>
       <r>     1.0391    -0.0000    56.0000 </r>
       <r>     1.0884    -0.0000    56.0000 </r>
       <r>     1.1377    -0.0000    56.0000 </r>
       <r>     1.1869    -0.0000    56.0000 </r>
       <r>     1.2362    -0.0000    56.0000 </r>
       <r>     1.2855     0.0000    56.0000 </r>
       <r>     1.3348     0.0000    56.0000 </r>
       <r>     1.3840     0.0000    56.0000 </r>
       <r>     1.4333     0.0000    56.0000 </r>
       <r>     1.4826     0.0000    56.0000 </r>
       <r>     1.5319     0.0000    56.0000 </r>
       <r>     1.5811     0.0000    56.0000 </r>
       <r>     1.6304     0.0000    56.0000 </r>
       <r>     1.6797     0.0000    56.0000 </r>
       <r>     1.7290     0.0000    56.0000 </r>
       <r>     1.7783     0.0000    56.0000 </r>
       <r>     1.8275     0.0000    56.0000 </r>
       <r>     1.8768     0.0000    56.0000 </r>
       <r>     1.9261     0.0000    56.0000 </r>
       <r>     1.9754     0.0000    56.0000 </r>
      </set>
     </set>
    </array>
   </total>
  </dos>
 </calculation>
 <structure name="finalpos" >
  <crystal>
   <varray name="basis" >
    <v>      21.38459405       0.00000000       0.00000000 </v>
    <v>       0.00000000      22.73816368       0.00000000 </v>
    <v>       0.00000000       0.00000000      23.80977728 </v>
   </varray>
   <i name="volume">  11577.41847862 </i>
   <varray name="rec_basis" >
    <v>       0.04676264       0.00000000       0.00000000 </v>
    <v>       0.00000000       0.04397893       0.00000000 </v>
    <v>       0.00000000       0.00000000       0.04199955 </v>
   </varray>
  </crystal>
  <varray name="positions" >
   <v>       0.50212607       0.39611221       0.37806124 </v>
   <v>       0.54722530       0.49398045       0.41827845 </v>
   <v>       0.42071070       0.46294620       0.43451678 </v>
   <v>       0.57865830       0.60470599       0.44298885 </v>
   <v>       0.45303238       0.57652746       0.45393669 </v>
   <v>       0.54842488       0.53603161       0.52998848 </v>
   <v>       0.42109069       0.50462358       0.54016904 </v>
   <v>       0.50531849       0.48884009       0.62192561 </v>
  </varray>
 </structure>
</modeling>
