unknown system                          
            1
    21.384594    0.000000    0.000000
     0.000000   22.738164    0.000000
     0.000000    0.000000   23.809777
   Au
     8
Direct configuration=     1
   0.49924089  0.39970286  0.38097367
   0.54506952  0.49466154  0.41989322
   0.42525182  0.46250431  0.43548080
   0.57472908  0.60339472  0.44349746
   0.45827028  0.57479939  0.45446632
   0.54611555  0.53544711  0.52833924
   0.42563688  0.50361917  0.53965213
   0.50227279  0.48963849  0.61756230
Direct configuration=     2
   0.50100753  0.39654966  0.37874917
   0.54734065  0.49421750  0.41896120
   0.42154741  0.46334442  0.43667591
   0.57768537  0.60548239  0.44275219
   0.45455584  0.57627490  0.45397610
   0.54844773  0.53568610  0.52927270
   0.42183762  0.50356093  0.53829895
   0.50416465  0.48865167  0.62117893
Direct configuration=     3
   0.50111553  0.39635690  0.37861318
   0.54747949  0.49419036  0.41890422
   0.42132095  0.46339577  0.43674897
   0.57786610  0.60561002  0.44270663
   0.45432877  0.57636510  0.45394613
   0.54859030  0.53570071  0.52932977
   0.42160537  0.50355737  0.53821623
   0.50428030  0.48859135  0.62140002
Direct configuration=     4
   0.50132276  0.39627373  0.37848148
   0.54766760  0.49391568  0.41855696
   0.42091714  0.46263758  0.43549896
   0.57829054  0.60573204  0.44265615
   0.45387144  0.57702202  0.45371786
   0.54880768  0.53572491  0.52977623
   0.42120059  0.50383557  0.53962706
   0.50450905  0.48862604  0.62155042
Direct configuration=     5
   0.50134621  0.39626432  0.37846658
   0.54768888  0.49388460  0.41851768
   0.42087145  0.46255180  0.43535754
   0.57833857  0.60574585  0.44265044
   0.45381970  0.57709634  0.45369203
   0.54883227  0.53572765  0.52982674
   0.42115479  0.50386705  0.53978668
   0.50453493  0.48862997  0.62156743
Direct configuration=     6
   0.50153262  0.39617815  0.37834738
   0.54761587  0.49399687  0.41849504
   0.42080835  0.46265986  0.43513299
   0.57838552  0.60543554  0.44275174
   0.45364008  0.57692121  0.45376322
   0.54876746  0.53583945  0.52978953
   0.42111359  0.50407883  0.53989219
   0.50472332  0.48865767  0.62169305
Direct configuration=     7
   0.50184947  0.39603168  0.37814476
   0.54749176  0.49418770  0.41845655
   0.42070110  0.46284355  0.43475132
   0.57846534  0.60490808  0.44292391
   0.45333477  0.57662352  0.45388422
   0.54865728  0.53602949  0.52972628
   0.42104356  0.50443881  0.54007153
   0.50504354  0.48870475  0.62190657
Direct configuration=     8
   0.50212105  0.39611075  0.37806276
   0.54723014  0.49398421  0.41828168
   0.42071053  0.46294433  0.43452103
   0.57865480  0.60470965  0.44298767
   0.45303786  0.57652920  0.45393574
   0.54842909  0.53603157  0.52998372
   0.42108983  0.50462022  0.54016727
   0.50531350  0.48883763  0.62192527
Direct configuration=     9
   0.50212607  0.39611221  0.37806124
   0.54722530  0.49398045  0.41827845
   0.42071070  0.46294620  0.43451678
   0.57865830  0.60470599  0.44298885
   0.45303238  0.57652746  0.45393669
   0.54842488  0.53603161  0.52998848
   0.42109069  0.50462358  0.54016904
   0.50531849  0.48884009  0.62192561
