  10  10   0   0
  0.1099719E+04  0.2204850E-08  0.2175511E-08  0.2292669E-08  0.5000000E-15
   1.0000000000000000E-004
  CAR 
 unknown system                          
      1.96877450    -11.91859157  301     -3.90332583      1.00000000
    -11.919  0.0000E+00  0.0000E+00  0.0000E+00  0.0000E+00
    -11.872  0.0000E+00  0.0000E+00  0.0000E+00  0.0000E+00
    -11.826  0.0000E+00  0.0000E+00  0.0000E+00  0.0000E+00
    -11.780  0.0000E+00  0.0000E+00  0.0000E+00  0.0000E+00
    -11.733  0.0000E+00  0.0000E+00  0.0000E+00  0.0000E+00
    -11.687  0.0000E+00  0.0000E+00  0.0000E+00  0.0000E+00
    -11.641  0.0000E+00  0.0000E+00  0.0000E+00  0.0000E+00
    -11.595  0.0000E+00  0.0000E+00  0.0000E+00  0.0000E+00
    -11.548 -0.7256E-30  0.0000E+00 -0.3359E-31  0.0000E+00
    -11.502 -0.2832E-28 -0.3119E-30 -0.1345E-29 -0.1444E-31
    -11.456 -0.1015E-26 -0.1248E-28 -0.4831E-28 -0.5921E-30
    -11.409 -0.3261E-25 -0.4581E-27 -0.1558E-26 -0.2180E-28
    -11.363 -0.9406E-24 -0.1509E-25 -0.4510E-25 -0.7202E-27
    -11.317 -0.2433E-22 -0.4459E-24 -0.1172E-23 -0.2136E-25
    -11.271 -0.5647E-21 -0.1182E-22 -0.2731E-22 -0.5686E-24
    -11.224 -0.1175E-19 -0.2811E-21 -0.5714E-21 -0.1358E-22
    -11.178 -0.2193E-18 -0.5996E-20 -0.1073E-19 -0.2911E-21
    -11.132 -0.3670E-17 -0.1147E-18 -0.1806E-18 -0.5600E-20
    -11.085 -0.5385E-16 -0.1967E-17 -0.2673E-17 -0.9663E-19
    -11.039 -0.7159E-15 -0.2903E-16 -0.3581E-16 -0.1440E-17
    -10.993 -0.8604E-14 -0.4033E-15 -0.4341E-15 -0.2011E-16
    -10.946 -0.9249E-13 -0.4968E-14 -0.4716E-14 -0.2501E-15
    -10.900 -0.8899E-12 -0.5475E-13 -0.4591E-13 -0.2785E-14
    -10.854 -0.7658E-11 -0.5401E-12 -0.4004E-12 -0.2779E-13
    -10.808 -0.5892E-10 -0.4766E-11 -0.3128E-11 -0.2484E-12
    -10.761 -0.4049E-09 -0.3761E-10 -0.2187E-10 -0.1989E-11
    -10.715 -0.2484E-08 -0.2651E-09 -0.1369E-09 -0.1426E-10
    -10.669 -0.1358E-07 -0.1669E-08 -0.7657E-09 -0.9150E-10
    -10.622 -0.6615E-07 -0.9365E-08 -0.3828E-08 -0.5250E-09
    -10.576 -0.2863E-06 -0.4681E-07 -0.1708E-07 -0.2692E-08
    -10.530 -0.1099E-05 -0.2081E-06 -0.6793E-07 -0.1232E-07
    -10.484 -0.3726E-05 -0.8205E-06 -0.2404E-06 -0.5031E-07
    -10.437 -0.1112E-04 -0.2862E-05 -0.7552E-06 -0.1828E-06
    -10.391 -0.2901E-04 -0.8797E-05 -0.2098E-05 -0.5900E-06
    -10.345 -0.6544E-04 -0.2367E-04 -0.5128E-05 -0.1686E-05
    -10.298 -0.1252E-03 -0.5524E-04 -0.1093E-04 -0.4243E-05
    -10.252 -0.1956E-03 -0.1100E-03 -0.1998E-04 -0.9334E-05
    -10.206 -0.2246E-03 -0.1807E-03 -0.3038E-04 -0.1770E-04
    -10.160 -0.1083E-03 -0.2263E-03 -0.3539E-04 -0.2818E-04
    -10.113  0.2868E-03 -0.1541E-03 -0.2212E-04 -0.3531E-04
    -10.067  0.1048E-02  0.1675E-03  0.2639E-04 -0.2755E-04
    -10.021  0.2115E-02  0.8449E-03  0.1243E-03  0.1156E-04
     -9.974  0.3231E-02  0.1859E-02  0.2739E-03  0.9760E-04
     -9.928  0.4019E-02  0.2995E-02  0.4599E-03  0.2363E-03
     -9.882  0.4168E-02  0.3890E-02  0.6529E-03  0.4163E-03
     -9.835  0.3615E-02  0.4198E-02  0.8202E-03  0.6107E-03
     -9.789  0.2587E-02  0.3793E-02  0.9400E-03  0.7862E-03
     -9.743  0.1458E-02  0.2841E-02  0.1007E-02  0.9177E-03
     -9.697  0.5533E-03  0.1702E-02  0.1033E-02  0.9965E-03
     -9.650  0.1264E-04  0.7267E-03  0.1034E-02  0.1030E-02
     -9.604 -0.2021E-03  0.1023E-03  0.1024E-02  0.1035E-02
     -9.558 -0.2172E-03 -0.1761E-03  0.1014E-02  0.1027E-02
     -9.511 -0.1546E-03 -0.2243E-03  0.1007E-02  0.1016E-02
     -9.465 -0.8722E-04 -0.1709E-03  0.1003E-02  0.1008E-02
     -9.419 -0.4123E-04 -0.1009E-03  0.1001E-02  0.1004E-02
     -9.373 -0.1675E-04 -0.4948E-04  0.1000E-02  0.1001E-02
     -9.326 -0.5924E-05 -0.2076E-04  0.1000E-02  0.1001E-02
     -9.280 -0.1842E-05 -0.7570E-05  0.1000E-02  0.1000E-02
     -9.234 -0.5191E-06 -0.2419E-05  0.1000E-02  0.1000E-02
     -9.187 -0.1961E-06 -0.6814E-06  0.1000E-02  0.1000E-02
     -9.141 -0.3433E-06 -0.1700E-06  0.1000E-02  0.1000E-02
     -9.095 -0.1211E-05 -0.3841E-07  0.9999E-03  0.1000E-02
     -9.049 -0.4053E-05 -0.1222E-07  0.9997E-03  0.1000E-02
     -9.002 -0.1198E-04 -0.2653E-07  0.9992E-03  0.1000E-02
     -8.956 -0.3093E-04 -0.1177E-06  0.9978E-03  0.1000E-02
     -8.910 -0.6901E-04 -0.4857E-06  0.9946E-03  0.1000E-02
     -8.863 -0.1304E-03 -0.1779E-05  0.9885E-03  0.9999E-03
     -8.817 -0.2001E-03 -0.5748E-05  0.9793E-03  0.9996E-03
     -8.771 -0.2227E-03 -0.1631E-04  0.9690E-03  0.9989E-03
     -8.724 -0.9069E-04 -0.4032E-04  0.9648E-03  0.9970E-03
     -8.678  0.3289E-03 -0.8565E-04  0.9800E-03  0.9930E-03
     -8.632  0.1115E-02 -0.1526E-03  0.1032E-02  0.9860E-03
     -8.586  0.2193E-02 -0.2161E-03  0.1133E-02  0.9760E-03
     -8.539  0.3287E-02 -0.2045E-03  0.1285E-02  0.9665E-03
     -8.493  0.4012E-02  0.3009E-05  0.1471E-02  0.9666E-03
     -8.447  0.4060E-02  0.5337E-03  0.1659E-02  0.9913E-03
     -8.400  0.3393E-02  0.1430E-02  0.1816E-02  0.1058E-02
     -8.354  0.2278E-02  0.2556E-02  0.1921E-02  0.1176E-02
     -8.308  0.1164E-02  0.3592E-02  0.1975E-02  0.1342E-02
     -8.262  0.4804E-03  0.4161E-02  0.1998E-02  0.1535E-02
     -8.215  0.4673E-03  0.4031E-02  0.2019E-02  0.1721E-02
     -8.169  0.1107E-02  0.3253E-02  0.2070E-02  0.1872E-02
     -8.123  0.2146E-02  0.2131E-02  0.2170E-02  0.1971E-02
     -8.076  0.3205E-02  0.1035E-02  0.2318E-02  0.2018E-02
     -8.030  0.3969E-02  0.2194E-03  0.2502E-02  0.2029E-02
     -7.984  0.4349E-02 -0.2513E-03  0.2703E-02  0.2017E-02
     -7.938  0.4520E-02 -0.4389E-03  0.2912E-02  0.1997E-02
     -7.891  0.4765E-02 -0.4088E-03  0.3133E-02  0.1978E-02
     -7.845  0.5248E-02 -0.1500E-03  0.3376E-02  0.1971E-02
     -7.799  0.5879E-02  0.4078E-03  0.3648E-02  0.1990E-02
     -7.752  0.6391E-02  0.1292E-02  0.3944E-02  0.2049E-02
     -7.706  0.6540E-02  0.2374E-02  0.4247E-02  0.2159E-02
     -7.660  0.6273E-02  0.3358E-02  0.4537E-02  0.2315E-02
     -7.614  0.5739E-02  0.3911E-02  0.4803E-02  0.2496E-02
     -7.567  0.5158E-02  0.3883E-02  0.5042E-02  0.2676E-02
     -7.521  0.4672E-02  0.3438E-02  0.5258E-02  0.2835E-02
     -7.475  0.4312E-02  0.2972E-02  0.5457E-02  0.2972E-02
     -7.428  0.4109E-02  0.2848E-02  0.5648E-02  0.3104E-02
     -7.382  0.4199E-02  0.3160E-02  0.5842E-02  0.3250E-02
     -7.336  0.4769E-02  0.3715E-02  0.6063E-02  0.3422E-02
     -7.289  0.5840E-02  0.4223E-02  0.6333E-02  0.3618E-02
     -7.243  0.7120E-02  0.4520E-02  0.6663E-02  0.3827E-02
     -7.197  0.8098E-02  0.4618E-02  0.7038E-02  0.4041E-02
     -7.151  0.8380E-02  0.4589E-02  0.7426E-02  0.4253E-02
     -7.104  0.7976E-02  0.4447E-02  0.7795E-02  0.4459E-02
     -7.058  0.7326E-02  0.4169E-02  0.8134E-02  0.4652E-02
     -7.012  0.7067E-02  0.3810E-02  0.8461E-02  0.4829E-02
     -6.965  0.7722E-02  0.3532E-02  0.8818E-02  0.4992E-02
     -6.919  0.9476E-02  0.3471E-02  0.9257E-02  0.5153E-02
     -6.873  0.1209E-01  0.3578E-02  0.9817E-02  0.5318E-02
     -6.827  0.1500E-01  0.3640E-02  0.1051E-01  0.5487E-02
     -6.780  0.1753E-01  0.3492E-02  0.1132E-01  0.5648E-02
     -6.734  0.1916E-01  0.3253E-02  0.1221E-01  0.5799E-02
     -6.688  0.1976E-01  0.3304E-02  0.1312E-01  0.5952E-02
     -6.641  0.1948E-01  0.3987E-02  0.1403E-01  0.6137E-02
     -6.595  0.1857E-01  0.5265E-02  0.1489E-01  0.6380E-02
     -6.549  0.1718E-01  0.6653E-02  0.1568E-01  0.6688E-02
     -6.503  0.1542E-01  0.7544E-02  0.1640E-01  0.7037E-02
     -6.456  0.1351E-01  0.7693E-02  0.1702E-01  0.7394E-02
     -6.410  0.1180E-01  0.7445E-02  0.1757E-01  0.7738E-02
     -6.364  0.1057E-01  0.7478E-02  0.1806E-01  0.8084E-02
     -6.317  0.9861E-02  0.8256E-02  0.1851E-01  0.8467E-02
     -6.271  0.9422E-02  0.9647E-02  0.1895E-01  0.8913E-02
     -6.225  0.8989E-02  0.1103E-01  0.1937E-01  0.9424E-02
     -6.178  0.8495E-02  0.1182E-01  0.1976E-01  0.9971E-02
     -6.132  0.8084E-02  0.1188E-01  0.2013E-01  0.1052E-01
     -6.086  0.7879E-02  0.1164E-01  0.2050E-01  0.1106E-01
     -6.040  0.7806E-02  0.1164E-01  0.2086E-01  0.1160E-01
     -5.993  0.7653E-02  0.1220E-01  0.2121E-01  0.1216E-01
     -5.947  0.7325E-02  0.1317E-01  0.2155E-01  0.1277E-01
     -5.901  0.7019E-02  0.1418E-01  0.2188E-01  0.1343E-01
     -5.854  0.7133E-02  0.1494E-01  0.2221E-01  0.1412E-01
     -5.808  0.8001E-02  0.1537E-01  0.2258E-01  0.1483E-01
     -5.762  0.9662E-02  0.1552E-01  0.2302E-01  0.1555E-01
     -5.716  0.1184E-01  0.1533E-01  0.2357E-01  0.1626E-01
     -5.669  0.1409E-01  0.1463E-01  0.2423E-01  0.1694E-01
     -5.623  0.1599E-01  0.1329E-01  0.2497E-01  0.1755E-01
     -5.577  0.1728E-01  0.1144E-01  0.2577E-01  0.1808E-01
     -5.530  0.1792E-01  0.9473E-02  0.2659E-01  0.1852E-01
     -5.484  0.1804E-01  0.7894E-02  0.2743E-01  0.1889E-01
     -5.438  0.1795E-01  0.7030E-02  0.2826E-01  0.1921E-01
     -5.392  0.1802E-01  0.6899E-02  0.2910E-01  0.1953E-01
     -5.345  0.1866E-01  0.7241E-02  0.2996E-01  0.1987E-01
     -5.299  0.2014E-01  0.7715E-02  0.3089E-01  0.2022E-01
     -5.253  0.2246E-01  0.8118E-02  0.3193E-01  0.2060E-01
     -5.206  0.2527E-01  0.8485E-02  0.3310E-01  0.2099E-01
     -5.160  0.2800E-01  0.9028E-02  0.3440E-01  0.2141E-01
     -5.114  0.3009E-01  0.9956E-02  0.3579E-01  0.2187E-01
     -5.067  0.3132E-01  0.1131E-01  0.3724E-01  0.2239E-01
     -5.021  0.3187E-01  0.1290E-01  0.3872E-01  0.2299E-01
     -4.975  0.3221E-01  0.1445E-01  0.4021E-01  0.2366E-01
     -4.929  0.3275E-01  0.1573E-01  0.4172E-01  0.2439E-01
     -4.882  0.3361E-01  0.1663E-01  0.4328E-01  0.2516E-01
     -4.836  0.3453E-01  0.1711E-01  0.4488E-01  0.2595E-01
     -4.790  0.3495E-01  0.1715E-01  0.4649E-01  0.2674E-01
     -4.743  0.3423E-01  0.1678E-01  0.4808E-01  0.2752E-01
     -4.697  0.3186E-01  0.1623E-01  0.4955E-01  0.2827E-01
     -4.651  0.2773E-01  0.1593E-01  0.5084E-01  0.2901E-01
     -4.605  0.2231E-01  0.1635E-01  0.5187E-01  0.2977E-01
     -4.558  0.1651E-01  0.1768E-01  0.5263E-01  0.3059E-01
     -4.512  0.1133E-01  0.1962E-01  0.5316E-01  0.3149E-01
     -4.466  0.7416E-02  0.2160E-01  0.5350E-01  0.3249E-01
     -4.419  0.4831E-02  0.2307E-01  0.5373E-01  0.3356E-01
     -4.373  0.3190E-02  0.2390E-01  0.5387E-01  0.3467E-01
     -4.327  0.2021E-02  0.2432E-01  0.5397E-01  0.3579E-01
     -4.281  0.1051E-02  0.2467E-01  0.5402E-01  0.3694E-01
     -4.234  0.2568E-03  0.2498E-01  0.5403E-01  0.3809E-01
     -4.188 -0.2464E-03  0.2495E-01  0.5402E-01  0.3925E-01
     -4.142 -0.3311E-03  0.2421E-01  0.5400E-01  0.4037E-01
     -4.095  0.7476E-04  0.2277E-01  0.5400E-01  0.4142E-01
     -4.049  0.9484E-03  0.2118E-01  0.5405E-01  0.4240E-01
     -4.003  0.2126E-02  0.2028E-01  0.5415E-01  0.4334E-01
     -3.957  0.3289E-02  0.2065E-01  0.5430E-01  0.4430E-01
     -3.910  0.4047E-02  0.2220E-01  0.5449E-01  0.4532E-01
     -3.864  0.4122E-02  0.2422E-01  0.5468E-01  0.4645E-01
     -3.818  0.3497E-02  0.2584E-01  0.5484E-01  0.4764E-01
     -3.771  0.2434E-02  0.2642E-01  0.5495E-01  0.4886E-01
     -3.725  0.1313E-02  0.2575E-01  0.5501E-01  0.5006E-01
     -3.679  0.4346E-03  0.2385E-01  0.5503E-01  0.5116E-01
     -3.632 -0.9442E-04  0.2085E-01  0.5503E-01  0.5213E-01
     -3.586 -0.3346E-03  0.1701E-01  0.5501E-01  0.5291E-01
     -3.540 -0.4044E-03  0.1282E-01  0.5499E-01  0.5351E-01
     -3.494 -0.3708E-03  0.8978E-02  0.5498E-01  0.5392E-01
     -3.447 -0.1980E-03  0.6122E-02  0.5497E-01  0.5421E-01
     -3.401  0.2254E-03  0.4470E-02  0.5498E-01  0.5441E-01
     -3.355  0.9921E-03  0.3728E-02  0.5502E-01  0.5459E-01
     -3.308  0.2057E-02  0.3318E-02  0.5512E-01  0.5474E-01
     -3.262  0.3173E-02  0.2760E-02  0.5527E-01  0.5487E-01
     -3.216  0.3964E-02  0.1913E-02  0.5545E-01  0.5496E-01
     -3.170  0.4102E-02  0.9534E-03  0.5564E-01  0.5500E-01
     -3.123  0.3511E-02  0.1793E-03  0.5580E-01  0.5501E-01
     -3.077  0.2417E-02 -0.1635E-03  0.5591E-01  0.5500E-01
     -3.031  0.1247E-02  0.4733E-04  0.5597E-01  0.5500E-01
     -2.984  0.4329E-03  0.7980E-03  0.5599E-01  0.5504E-01
     -2.938  0.2549E-03  0.1922E-02  0.5600E-01  0.5513E-01
     -2.892  0.7739E-03  0.3095E-02  0.5604E-01  0.5527E-01
     -2.846  0.1843E-02  0.3907E-02  0.5612E-01  0.5545E-01
     -2.799  0.3174E-02  0.4039E-02  0.5627E-01  0.5564E-01
     -2.753  0.4438E-02  0.3435E-02  0.5648E-01  0.5580E-01
     -2.707  0.5379E-02  0.2363E-02  0.5673E-01  0.5591E-01
     -2.660  0.5856E-02  0.1290E-02  0.5700E-01  0.5597E-01
     -2.614  0.5828E-02  0.6696E-03  0.5727E-01  0.5600E-01
     -2.568  0.5297E-02  0.7530E-03  0.5751E-01  0.5603E-01
     -2.521  0.4332E-02  0.1509E-02  0.5771E-01  0.5610E-01
     -2.475  0.3126E-02  0.2668E-02  0.5786E-01  0.5623E-01
     -2.429  0.2021E-02  0.3868E-02  0.5795E-01  0.5641E-01
     -2.383  0.1396E-02  0.4813E-02  0.5802E-01  0.5663E-01
     -2.336  0.1473E-02  0.5372E-02  0.5808E-01  0.5688E-01
     -2.290  0.2162E-02  0.5539E-02  0.5818E-01  0.5713E-01
     -2.244  0.3068E-02  0.5332E-02  0.5833E-01  0.5738E-01
     -2.197  0.3685E-02  0.4736E-02  0.5850E-01  0.5760E-01
     -2.151  0.3688E-02  0.3771E-02  0.5867E-01  0.5777E-01
     -2.105  0.3125E-02  0.2604E-02  0.5881E-01  0.5789E-01
     -2.059  0.2395E-02  0.1562E-02  0.5892E-01  0.5797E-01
     -2.012  0.2007E-02  0.1011E-02  0.5902E-01  0.5801E-01
     -1.966  0.2282E-02  0.1151E-02  0.5912E-01  0.5807E-01
     -1.920  0.3198E-02  0.1881E-02  0.5927E-01  0.5815E-01
     -1.873  0.4435E-02  0.2824E-02  0.5947E-01  0.5828E-01
     -1.827  0.5565E-02  0.3531E-02  0.5973E-01  0.5845E-01
     -1.781  0.6238E-02  0.3754E-02  0.6002E-01  0.5862E-01
     -1.735  0.6269E-02  0.3615E-02  0.6031E-01  0.5879E-01
     -1.688  0.5648E-02  0.3542E-02  0.6057E-01  0.5895E-01
     -1.642  0.4510E-02  0.3965E-02  0.6078E-01  0.5914E-01
     -1.596  0.3111E-02  0.4994E-02  0.6093E-01  0.5937E-01
     -1.549  0.1750E-02  0.6291E-02  0.6101E-01  0.5966E-01
     -1.503  0.6700E-03  0.7246E-02  0.6104E-01  0.5999E-01
     -1.457 -0.2655E-04  0.7335E-02  0.6104E-01  0.6033E-01
     -1.410 -0.3785E-03  0.6403E-02  0.6102E-01  0.6063E-01
     -1.364 -0.4888E-03  0.4731E-02  0.6100E-01  0.6085E-01
     -1.318 -0.4236E-03  0.2838E-02  0.6098E-01  0.6098E-01
     -1.272 -0.1601E-03  0.1209E-02  0.6097E-01  0.6104E-01
     -1.225  0.3787E-03  0.1029E-03  0.6099E-01  0.6104E-01
     -1.179  0.1220E-02 -0.4554E-03  0.6104E-01  0.6102E-01
     -1.133  0.2245E-02 -0.5545E-03  0.6115E-01  0.6100E-01
     -1.086  0.3199E-02 -0.2673E-03  0.6129E-01  0.6098E-01
     -1.040  0.3843E-02  0.3829E-03  0.6147E-01  0.6100E-01
     -0.994  0.4152E-02  0.1346E-02  0.6166E-01  0.6106E-01
     -0.948  0.4379E-02  0.2441E-02  0.6187E-01  0.6118E-01
     -0.901  0.4885E-02  0.3354E-02  0.6209E-01  0.6133E-01
     -0.855  0.5812E-02  0.3792E-02  0.6236E-01  0.6151E-01
     -0.809  0.6893E-02  0.3703E-02  0.6268E-01  0.6168E-01
     -0.762  0.7558E-02  0.3390E-02  0.6303E-01  0.6183E-01
     -0.716  0.7301E-02  0.3367E-02  0.6337E-01  0.6199E-01
     -0.670  0.6040E-02  0.4024E-02  0.6365E-01  0.6218E-01
     -0.624  0.4205E-02  0.5317E-02  0.6384E-01  0.6242E-01
     -0.577  0.2527E-02  0.6724E-02  0.6396E-01  0.6273E-01
     -0.531  0.1669E-02  0.7524E-02  0.6404E-01  0.6308E-01
     -0.485  0.1935E-02  0.7219E-02  0.6413E-01  0.6342E-01
     -0.438  0.3169E-02  0.5828E-02  0.6427E-01  0.6369E-01
     -0.392  0.4858E-02  0.3880E-02  0.6450E-01  0.6387E-01
     -0.346  0.6349E-02  0.2147E-02  0.6479E-01  0.6397E-01
     -0.299  0.7096E-02  0.1292E-02  0.6512E-01  0.6403E-01
     -0.253  0.6845E-02  0.1616E-02  0.6544E-01  0.6410E-01
     -0.207  0.5701E-02  0.2971E-02  0.6570E-01  0.6424E-01
     -0.161  0.4044E-02  0.4839E-02  0.6589E-01  0.6446E-01
     -0.114  0.2349E-02  0.6521E-02  0.6600E-01  0.6476E-01
     -0.068  0.9934E-03  0.7396E-02  0.6604E-01  0.6511E-01
     -0.022  0.1431E-03  0.7158E-02  0.6605E-01  0.6544E-01
      0.025 -0.2424E-03  0.5918E-02  0.6604E-01  0.6571E-01
      0.071 -0.3186E-03  0.4120E-02  0.6602E-01  0.6590E-01
      0.117 -0.2515E-03  0.2310E-02  0.6601E-01  0.6601E-01
      0.163 -0.1546E-03  0.9041E-03  0.6601E-01  0.6605E-01
      0.210 -0.7933E-04  0.6005E-04  0.6600E-01  0.6605E-01
      0.256 -0.3493E-04 -0.2933E-03  0.6600E-01  0.6604E-01
      0.302 -0.1339E-04 -0.3387E-03  0.6600E-01  0.6602E-01
      0.349 -0.4505E-05 -0.2535E-03  0.6600E-01  0.6601E-01
      0.395 -0.1338E-05 -0.1503E-03  0.6600E-01  0.6601E-01
      0.441 -0.3519E-06 -0.7483E-04  0.6600E-01  0.6600E-01
      0.487 -0.8221E-07 -0.3209E-04  0.6600E-01  0.6600E-01
      0.534 -0.1709E-07 -0.1201E-04  0.6600E-01  0.6600E-01
      0.580 -0.3164E-08 -0.3953E-05  0.6600E-01  0.6600E-01
      0.626 -0.5227E-09 -0.1150E-05  0.6600E-01  0.6600E-01
      0.673 -0.7709E-10 -0.2966E-06  0.6600E-01  0.6600E-01
      0.719 -0.1016E-10 -0.6801E-07  0.6600E-01  0.6600E-01
      0.765 -0.1197E-11 -0.1388E-07  0.6600E-01  0.6600E-01
      0.811 -0.1262E-12 -0.2526E-08  0.6600E-01  0.6600E-01
      0.858 -0.1191E-13 -0.4104E-09  0.6600E-01  0.6600E-01
      0.904 -0.1003E-14 -0.5954E-10  0.6600E-01  0.6600E-01
      0.950 -0.7675E-16 -0.7722E-11  0.6600E-01  0.6600E-01
      0.997 -0.4797E-17 -0.8957E-12  0.6600E-01  0.6600E-01
      1.043  0.0000E+00 -0.9296E-13  0.6600E-01  0.6600E-01
      1.089  0.0000E+00 -0.8634E-14  0.6600E-01  0.6600E-01
      1.136  0.0000E+00 -0.7243E-15  0.6600E-01  0.6600E-01
      1.182  0.0000E+00 -0.5276E-16  0.6600E-01  0.6600E-01
      1.228  0.0000E+00 -0.4797E-17  0.6600E-01  0.6600E-01
      1.274  0.0000E+00  0.0000E+00  0.6600E-01  0.6600E-01
      1.321  0.0000E+00  0.0000E+00  0.6600E-01  0.6600E-01
      1.367  0.0000E+00  0.0000E+00  0.6600E-01  0.6600E-01
      1.413  0.0000E+00  0.0000E+00  0.6600E-01  0.6600E-01
      1.460  0.0000E+00  0.0000E+00  0.6600E-01  0.6600E-01
      1.506  0.0000E+00  0.0000E+00  0.6600E-01  0.6600E-01
      1.552  0.0000E+00  0.0000E+00  0.6600E-01  0.6600E-01
      1.598  0.0000E+00  0.0000E+00  0.6600E-01  0.6600E-01
      1.645  0.0000E+00  0.0000E+00  0.6600E-01  0.6600E-01
      1.691  0.0000E+00  0.0000E+00  0.6600E-01  0.6600E-01
      1.737  0.0000E+00  0.0000E+00  0.6600E-01  0.6600E-01
      1.784  0.0000E+00  0.0000E+00  0.6600E-01  0.6600E-01
      1.830  0.0000E+00  0.0000E+00  0.6600E-01  0.6600E-01
      1.876  0.0000E+00  0.0000E+00  0.6600E-01  0.6600E-01
      1.922  0.0000E+00  0.0000E+00  0.6600E-01  0.6600E-01
      1.969  0.0000E+00  0.0000E+00  0.6600E-01  0.6600E-01
