   10   10 1000    2
  0.1099719E+04  0.2204850E-08  0.2175511E-08  0.2292669E-08  0.5000000E-15
   1.0000000000000000E-004
  CAR 
 unknown system                          
    100      1     66
 
  0.1262379E-14  0.1262379E-14  0.1262379E-14  0.1000000E+01
    1       -9.918592     -9.861892   1.000000   1.000000
    2       -8.486927     -8.269810   1.000000   1.000000
    3       -8.041270     -7.619513   1.000000   1.000000
    4       -7.812415     -7.318610   1.000000   1.000000
    5       -7.676828     -7.094812   1.000000   1.000000
    6       -7.469830     -6.827072   1.000000   1.000000
    7       -7.223580     -6.529125   1.000000   1.000000
    8       -7.183969     -6.501052   1.000000   1.000000
    9       -7.013615     -6.267852   1.000000   1.000000
   10       -6.871453     -6.224209   1.000000   1.000000
   11       -6.815272     -6.169205   1.000000   1.000000
   12       -6.762468     -6.038246   1.000000   1.000000
   13       -6.730186     -5.932278   1.000000   1.000000
   14       -6.694739     -5.920246   1.000000   1.000000
   15       -6.587552     -5.840649   1.000000   1.000000
   16       -6.551908     -5.742239   1.000000   1.000000
   17       -6.534369     -5.694745   1.000000   1.000000
   18       -6.418780     -5.652461   1.000000   1.000000
   19       -6.282832     -5.543257   1.000000   1.000000
   20       -6.245112     -5.378882   1.000000   1.000000
   21       -6.057214     -5.273876   1.000000   1.000000
   22       -5.984842     -5.154743   1.000000   1.000000
   23       -5.806087     -5.036903   1.000000   1.000000
   24       -5.709548     -4.984145   1.000000   1.000000
   25       -5.644660     -4.939943   1.000000   1.000000
   26       -5.598196     -4.847320   1.000000   1.000000
   27       -5.544355     -4.806704   1.000000   1.000000
   28       -5.471591     -4.735703   1.000000   1.000000
   29       -5.445921     -4.722838   1.000000   1.000000
   30       -5.365440     -4.612703   1.000000   1.000003
   31       -5.328104     -4.547280   1.000000   1.000026
   32       -5.243229     -4.492449   1.000000   1.000126
   33       -5.233332     -4.461722   1.000000   1.000285
   34       -5.184433     -4.424449   1.000000   1.000713
   35       -5.142712     -4.409426   1.000000   1.001009
   36       -5.117804     -4.333851   1.000000   1.004735
   37       -5.101307     -4.297946   1.000000   1.008712
   38       -5.080363     -4.249019   1.000000   1.017324
   39       -5.042245     -4.198088   1.000000   1.028802
   40       -4.977212     -4.174300   1.000000   1.033286
   41       -4.958332     -4.155342   1.000000   1.035275
   42       -4.947402     -4.100264   1.000000   1.023464
   43       -4.904185     -4.081901   1.000000   1.010144
   44       -4.864317     -3.976862   1.000000   0.789065
   45       -4.839857     -3.921144   1.000000   0.575065
   46       -4.811037     -3.886219   1.000000   0.427905
   47       -4.794121     -3.845072   1.000000   0.264719
   48       -4.750934     -3.840127   1.000000   0.246809
   49       -4.733800     -3.802525   1.000000   0.127711
   50       -4.688423     -3.731902   1.000000  -0.003252
   51       -4.680468     -3.715426   1.000000  -0.017655
   52       -4.628555     -3.651597   1.000002  -0.035289
   53       -4.616663     -3.619998   1.000003  -0.031148
   54       -4.425876     -3.580724   1.000690  -0.022465
   55       -3.906687     -3.344487   0.514220  -0.000282
   56       -3.204397     -2.835021  -0.000005  -0.000000
   57       -2.749924     -2.412028  -0.000000  -0.000000
   58       -2.570409     -2.216499  -0.000000  -0.000000
   59       -2.198520     -1.822891  -0.000000  -0.000000
   60       -1.862435     -1.546849  -0.000000  -0.000000
   61       -1.703706     -1.451926  -0.000000  -0.000000
   62       -1.047805     -0.867929  -0.000000  -0.000000
   63       -0.801445     -0.577716  -0.000000  -0.000000
   64       -0.726257     -0.502445  -0.000000  -0.000000
   65       -0.374142     -0.131369  -0.000000  -0.000000
   66       -0.256495     -0.031226  -0.000000  -0.000000
