 vasp.6.1.2 22Jul20 (build Aug  2 2021 21:04:21) gamma-only                      
 executed on             LinuxPGI date 2021.12.25  11:15:37
 running on   16 total cores
 distrk:  each k-point on   16 cores,    1 groups
 distr:  one band on NCORE=   8 cores,    2 groups


--------------------------------------------------------------------------------------------------------


 INCAR:
 POTCAR:    PAW_PBE Ni 02Aug2007                  
 -----------------------------------------------------------------------------
|                                                                             |
|           W    W    AA    RRRRR   N    N  II  N    N   GGGG   !!!           |
|           W    W   A  A   R    R  NN   N  II  NN   N  G    G  !!!           |
|           W    W  A    A  R    R  N N  N  II  N N  N  G       !!!           |
|           W WW W  AAAAAA  RRRRR   N  N N  II  N  N N  G  GGG   !            |
|           WW  WW  A    A  R   R   N   NN  II  N   NN  G    G                |
|           W    W  A    A  R    R  N    N  II  N    N   GGGG   !!!           |
|                                                                             |
|     You use a magnetic or noncollinear calculation, but did not specify     |
|     the initial magnetic moment with the MAGMOM tag. Note that a            |
|     default of 1 will be used for all atoms. This ferromagnetic setup       |
|     may break the symmetry of the crystal, in particular it may rule        |
|     out finding an antiferromagnetic solution. Thence, we recommend         |
|     setting the initial magnetic moment manually or verifying carefully     |
|     that this magnetic setup is desired.                                    |
|                                                                             |
 -----------------------------------------------------------------------------

 POTCAR:    PAW_PBE Ni 02Aug2007                  
   SHA256 =  0534bc51ca8003dfef23f56753fef9fdd3e22eac8d719fccacb59f3e6b7a69c7 Ni/POTCAR             
   COPYR  = (c) Copyright 02Aug2007 Georg Kresse                                                    
   COPYR  = This file is part of the software VASP. Any use, copying, and all other rights are regul
   COPYR  = If you do not have a valid VASP license, you may not use, copy or distribute this file. 
   VRHFIN =Ni:                                                                                      
   LEXCH  = PE                                                                                      
   EATOM  =  1077.6739 eV,   79.2068 Ry                                                             
                                                                                                    
   TITEL  = PAW_PBE Ni 02Aug2007                                                                    
   LULTRA =        F    use ultrasoft PP ?                                                          
   IUNSCR =        1    unscreen: 0-lin 1-nonlin 2-no                                               
   RPACOR =    2.000    partial core radius                                                         
   POMASS =   58.690; ZVAL   =   10.000    mass and valenz                                          
   RCORE  =    2.300    outmost cutoff radius                                                       
   RWIGS  =    2.430; RWIGS  =    1.286    wigner-seitz radius (au A)                               
   ENMAX  =  269.532; ENMIN  =  202.149 eV                                                          
   RCLOC  =    1.201    cutoff for local pot                                                        
   LCOR   =        T    correct aug charges                                                         
   LPAW   =        T    paw PP                                                                      
   EAUG   =  544.565                                                                                
   DEXC   =    0.000                                                                                
   RMAX   =    2.357    core radius for proj-oper                                                   
   RAUG   =    1.300    factor for augmentation sphere                                              
   RDEP   =    2.390    radius for radial grids                                                     
   RDEPT  =    1.838    core radius for aug-charge                                                  
                                                                                                    
   Atomic configuration                                                                             
    9 entries                                                                                       
     n  l   j            E        occ.                                                              
     1  0  0.50     -8206.4253   2.0000                                                             
     2  0  0.50      -976.1748   2.0000                                                             
     2  1  1.50      -839.0571   6.0000                                                             
     3  0  0.50      -105.9991   2.0000                                                             
     3  1  1.50       -66.4603   6.0000                                                             
     3  2  2.50        -4.6458   9.0000                                                             
     4  0  0.50        -4.4926   1.0000                                                             
     4  1  1.50        -4.0817   0.0000                                                             
     4  3  2.50        -1.3606   0.0000                                                             
   Description                                                                                      
     l       E           TYP  RCUT    TYP  RCUT                                                     
     2     -4.6457903     23  2.300                                                                 
     2     -6.0063729     23  2.300                                                                 
     0     -4.4925590     23  2.300                                                                 
     0      5.0102601     23  2.300                                                                 
     1     -2.7211652     23  2.300                                                                 
     1     16.5183231     23  2.300                                                                 
  local pseudopotential read in
  partial core-charges read in
  partial kinetic energy density read in
  atomic valenz-charges read in
  non local Contribution for L=            2  read in
    real space projection operators read in
  non local Contribution for L=            2  read in
    real space projection operators read in
  non local Contribution for L=            0  read in
    real space projection operators read in
  non local Contribution for L=            0  read in
    real space projection operators read in
  non local Contribution for L=            1  read in
    real space projection operators read in
  non local Contribution for L=            1  read in
    real space projection operators read in
    PAW grid and wavefunctions read in
 
   number of l-projection  operators is LMAX  =            6
   number of lm-projection operators is LMMAX =           18
 
  PAW_PBE Ni 02Aug2007                  :
 energy of atom  1       EATOM=-1077.6739
 kinetic energy error for atom=    0.0101 (will be added to EATOM!!)
 
 
 POSCAR: Ni
  positions in cartesian coordinates
  No initial velocities read in
 exchange correlation table for  LEXCH =        8
   RHO(1)=    0.500       N(1)  =     2000
   RHO(2)=  100.500       N(2)  =     4000
 


--------------------------------------------------------------------------------------------------------


 ion  position               nearest neighbor table
   1  0.435  0.524  0.588-   5 2.38   2 2.42   3 2.43   8 2.46   4 2.49
   2  0.489  0.599  0.530-   4 2.41   1 2.42   3 2.43   6 2.44
   3  0.429  0.519  0.482-   1 2.43   6 2.43   2 2.43   9 2.44   8 2.44   4 2.55
   4  0.529  0.496  0.533-   5 2.40   2 2.41   7 2.44   8 2.45   9 2.46   6 2.48   1 2.49   3 2.55

   5  0.501  0.445  0.623-   1 2.38   8 2.39   4 2.40
   6  0.524  0.552  0.440-  10 2.40   7 2.43   3 2.43   2 2.44   4 2.48   9 2.50
   7  0.601  0.474  0.456-  10 2.37   6 2.43   4 2.44   9 2.44
   8  0.443  0.424  0.537-   5 2.39   3 2.44   9 2.45   4 2.45   1 2.46
   9  0.497  0.441  0.445-  10 2.39   3 2.44   7 2.44   8 2.45   4 2.46   6 2.50
  10  0.553  0.481  0.364-   7 2.37   9 2.39   6 2.40
 

IMPORTANT INFORMATION: All symmetrisations will be switched off!
NOSYMM: (Re-)initialisation of all symmetry stuff for point group C_1.


----------------------------------------------------------------------------------------

                                     Primitive cell                                     

  volume of cell :   10997.1872

  direct lattice vectors                    reciprocal lattice vectors
    22.048499590  0.000000000  0.000000000     0.045354560  0.000000000  0.000000000
     0.000000000 21.755105261  0.000000000     0.000000000  0.045966222  0.000000000
     0.000000000  0.000000000 22.926691487     0.000000000  0.000000000  0.043617283

  length of vectors
    22.048499590 21.755105261 22.926691487     0.045354560  0.045966222  0.043617283

  position of ions in fractional coordinates (direct lattice)
     0.435376348  0.523550179  0.588035406
     0.488997574  0.598656159  0.529818826
     0.428625303  0.519410284  0.482478095
     0.528890974  0.495522955  0.533323566
     0.501239811  0.445205663  0.622601723
     0.524365862  0.551735081  0.439528054
     0.601386019  0.473962763  0.455824895
     0.442891135  0.424235239  0.536904955
     0.496532497  0.440656873  0.444600401
     0.552547957  0.480840308  0.363887701

  ion indices of the primitive-cell ions
   primitive index   ion index
                 1           1
                 2           2
                 3           3
                 4           4
                 5           5
                 6           6
                 7           7
                 8           8
                 9           9
                10          10

----------------------------------------------------------------------------------------

 
 
 KPOINTS: KPOINTS created by Atomic Simulation Env

Automatic generation of k-mesh.
Space group operators:
 irot       det(A)        alpha          n_x          n_y          n_z        tau_x        tau_y        tau_z
    1     1.000000     0.000000     1.000000     0.000000     0.000000     0.000000     0.000000     0.000000
 
 Subroutine IBZKPT returns following result:
 ===========================================
 
 Found      1 irreducible k-points:
 
 Following reciprocal coordinates:
            Coordinates               Weight
  0.000000  0.000000  0.000000      1.000000
 
 Following cartesian coordinates:
            Coordinates               Weight
  0.000000  0.000000  0.000000      1.000000
 


--------------------------------------------------------------------------------------------------------




 Dimension of arrays:
   k-points           NKPTS =      1   k-points in BZ     NKDIM =      1   number of bands    NBANDS=     66
   number of dos      NEDOS =    301   number of ions     NIONS =     10
   non local maximal  LDIM  =      6   non local SUM 2l+1 LMDIM =     18
   total plane-waves  NPLWV = ******
   max r-space proj   IRMAX =      1   max aug-charges    IRDMAX=   4050
   dimension x,y,z NGX =   108 NGY =  108 NGZ =  112
   dimension x,y,z NGXF=   216 NGYF=  216 NGZF=  224
   support grid    NGXF=   216 NGYF=  216 NGZF=  224
   ions per type =              10
   NGX,Y,Z   is equivalent  to a cutoff of   8.14,  8.25,  8.12 a.u.
   NGXF,Y,Z  is equivalent  to a cutoff of  16.29, 16.51, 16.24 a.u.

 SYSTEM =  unknown system                          
 POSCAR =  Ni                                      

 Startparameter for this run:
   NWRITE =      2    write-flag & timer
   PREC   = normal    normal or accurate (medium, high low for compatibility)
   ISTART =      0    job   : 0-new  1-cont  2-samecut
   ICHARG =      2    charge: 1-file 2-atom 10-const
   ISPIN  =      2    spin polarized calculation?
   LNONCOLLINEAR =      F non collinear calculations
   LSORBIT =      F    spin-orbit coupling
   INIWAV =      1    electr: 0-lowe 1-rand  2-diag
   LASPH  =      F    aspherical Exc in radial PAW
   METAGGA=      F    non-selfconsistent MetaGGA calc.

 Electronic Relaxation 1
   ENCUT  =  400.0 eV  29.40 Ry    5.42 a.u.  35.96 35.48 37.39*2*pi/ulx,y,z
   ENINI  =  400.0     initial cutoff
   ENAUG  =  544.6 eV  augmentation charge cutoff
   NELM   =     60;   NELMIN=  2; NELMDL=  0     # of ELM steps 
   EDIFF  = 0.1E-03   stopping-criterion for ELM
   LREAL  =      F    real-space projection
   NLSPLINE    = F    spline interpolate recip. space projectors
   LCOMPAT=      F    compatible to vasp.4.4
   GGA_COMPAT  = T    GGA compatible to vasp.4.4-vasp.4.6
   LMAXPAW     = -100 max onsite density
   LMAXMIX     =    2 max onsite mixed and CHGCAR
   VOSKOWN=      0    Vosko Wilk Nusair interpolation
   ROPT   =    0.00000
 Ionic relaxation
   EDIFFG = 0.1E-02   stopping-criterion for IOM
   NSW    =   1000    number of steps for IOM
   NBLOCK =      1;   KBLOCK =   1000    inner block; outer block 
   IBRION =      2    ionic relax: 0-MD 1-quasi-New 2-CG
   NFREE  =      1    steps in history (QN), initial steepest desc. (CG)
   ISIF   =      0    stress and relaxation
   IWAVPR =     11    prediction:  0-non 1-charg 2-wave 3-comb
   ISYM   =      0    0-nonsym 1-usesym 2-fastsym
   LCORR  =      T    Harris-Foulkes like correction to forces

   POTIM  = 0.5000    time-step for ionic-motion
   TEIN   =    0.0    initial temperature
   TEBEG  =    0.0;   TEEND  =   0.0 temperature during run
   SMASS  =  -3.00    Nose mass-parameter (am)
   estimated Nose-frequenzy (Omega)   =  0.10E-29 period in steps = 0.13E+47 mass=  -0.111E-25a.u.
   SCALEE = 1.0000    scale energy and forces
   NPACO  =    256;   APACO  = 16.0  distance and # of slots for P.C.
   PSTRESS=    0.0 pullay stress

  Mass of Ions in am
   POMASS =  58.69
  Ionic Valenz
   ZVAL   =  10.00
  Atomic Wigner-Seitz radii
   RWIGS  =  -1.00
  virtual crystal weights 
   VCA    =   1.00
   NELECT =     100.0000    total number of electrons
   NUPDOWN=      -1.0000    fix difference up-down

 DOS related values:
   EMIN   =  10.00;   EMAX   =-10.00  energy-range for DOS
   EFERMI =   0.00
   ISMEAR =     1;   SIGMA  =   0.20  broadening in eV -4-tet -1-fermi 0-gaus

 Electronic relaxation 2 (details)
   IALGO  =     38    algorithm
   LDIAG  =      T    sub-space diagonalisation (order eigenvalues)
   LSUBROT=      F    optimize rotation matrix (better conditioning)
   TURBO    =      0    0=normal 1=particle mesh
   IRESTART =      0    0=no restart 2=restart with 2 vectors
   NREBOOT  =      0    no. of reboots
   NMIN     =      0    reboot dimension
   EREF     =   0.00    reference energy to select bands
   IMIX   =      4    mixing-type and parameters
     AMIX     =   0.40;   BMIX     =  1.00
     AMIX_MAG =   1.60;   BMIX_MAG =  1.00
     AMIN     =   0.10
     WC   =   100.;   INIMIX=   1;  MIXPRE=   1;  MAXMIX= -45

 Intra band minimization:
   WEIMIN = 0.0010     energy-eigenvalue tresh-hold
   EBREAK =  0.38E-06  absolut break condition
   DEPER  =   0.30     relativ break condition  

   TIME   =   0.40     timestep for ELM

  volume/ion in A,a.u.               =    1099.72      7421.27
  Fermi-wavevector in a.u.,A,eV,Ry     =   0.341702  0.645723  1.588621  0.116760
  Thomas-Fermi vector in A             =   1.246458
 
 Write flags
   LWAVE        =      F    write WAVECAR
   LDOWNSAMPLE  =      F    k-point downsampling of WAVECAR
   LCHARG       =      F    write CHGCAR
   LVTOT        =      F    write LOCPOT, total local potential
   LVHAR        =      F    write LOCPOT, Hartree potential only
   LELF         =      F    write electronic localiz. function (ELF)
   LORBIT       =      0    0 simple, 1 ext, 2 COOP (PROOUT), +10 PAW based schemes


 Dipole corrections
   LMONO  =      F    monopole corrections only (constant potential shift)
   LDIPOL =      F    correct potential (dipole corrections)
   IDIPOL =      0    1-x, 2-y, 3-z, 4-all directions 
   EPSILON=  1.0000000 bulk dielectric constant

 Exchange correlation treatment:
   GGA     =    PE    GGA type
   LEXCH   =     8    internal setting for exchange type
   VOSKOWN=      0    Vosko Wilk Nusair interpolation
   LHFCALC =     F    Hartree Fock is set to
   LHFONE  =     F    Hartree Fock one center treatment
   AEXX    =    0.0000 exact exchange contribution

 Linear response parameters
   LEPSILON=     F    determine dielectric tensor
   LRPA    =     F    only Hartree local field effects (RPA)
   LNABLA  =     F    use nabla operator in PAW spheres
   LVEL    =     F    velocity operator in full k-point grid
   LINTERFAST=   F  fast interpolation
   KINTER  =     0    interpolate to denser k-point grid
   CSHIFT  =0.1000    complex shift for real part using Kramers Kronig
   OMEGAMAX=  -1.0    maximum frequency
   DEG_THRESHOLD= 0.2000000E-02 threshold for treating states as degnerate
   RTIME   =   -0.100 relaxation time in fs
  (WPLASMAI=    0.000 imaginary part of plasma frequency in eV, 0.658/RTIME)
   DFIELD  = 0.0000000 0.0000000 0.0000000 field for delta impulse in time
 
 Orbital magnetization related:
   ORBITALMAG=     F  switch on orbital magnetization
   LCHIMAG   =     F  perturbation theory with respect to B field
   DQ        =  0.001000  dq finite difference perturbation B field
   LLRAUG    =     F  two centre corrections for induced B field



--------------------------------------------------------------------------------------------------------


 conjugate gradient relaxation of ions
 charge density and potential will be updated during run
 spin polarized calculation
 Variant of blocked Davidson
 Davidson routine will perform the subspace rotation
 perform sub-space diagonalisation
    after iterative eigenvector-optimisation
 modified Broyden-mixing scheme, WC =      100.0
 initial mixing is a Kerker type mixing with AMIX =  0.4000 and BMIX =      1.0000
 Hartree-type preconditioning will be used
 using additional bands            16
 reciprocal scheme for non local part
 use partial core corrections
 calculate Harris-corrections to forces 
   (improved forces if not selfconsistent)
 use gradient corrections 
 use of overlap-Matrix (Vanderbilt PP)
 Methfessel and Paxton  Order N= 1 SIGMA  =   0.20


--------------------------------------------------------------------------------------------------------


  energy-cutoff  :      400.00
  volume of cell :    10997.19
      direct lattice vectors                 reciprocal lattice vectors
    22.048499590  0.000000000  0.000000000     0.045354560  0.000000000  0.000000000
     0.000000000 21.755105261  0.000000000     0.000000000  0.045966222  0.000000000
     0.000000000  0.000000000 22.926691487     0.000000000  0.000000000  0.043617283

  length of vectors
    22.048499590 21.755105261 22.926691487     0.045354560  0.045966222  0.043617283


 
 k-points in units of 2pi/SCALE and weight: KPOINTS created by Atomic Simulation Env
   0.00000000  0.00000000  0.00000000       1.000
 
 k-points in reciprocal lattice and weights: KPOINTS created by Atomic Simulation Env
   0.00000000  0.00000000  0.00000000       1.000
 
 position of ions in fractional coordinates (direct lattice) 
   0.43537635  0.52355018  0.58803541
   0.48899757  0.59865616  0.52981883
   0.42862530  0.51941028  0.48247809
   0.52889097  0.49552295  0.53332357
   0.50123981  0.44520566  0.62260172
   0.52436586  0.55173508  0.43952805
   0.60138602  0.47396276  0.45582490
   0.44289113  0.42423524  0.53690496
   0.49653250  0.44065687  0.44460040
   0.55254796  0.48084031  0.36388770
 
 position of ions in cartesian coordinates  (Angst):
   9.59939522 11.38988924 13.48170634
  10.78166281 13.02382776 12.14699278
   9.45054483 11.29982540 11.06162642
  11.66125242 10.78015404 12.22734487
  11.05158576  9.68549606 14.27419763
  11.56148048 12.00305477 10.07692409
  13.25965940 10.31110979 10.45055674
   9.76508500  9.22928228 12.30945427
  10.94779655  9.58653666 10.19321623
  12.18285340 10.46073152  8.34274105
 


--------------------------------------------------------------------------------------------------------


 use parallel FFT for orbitals z direction half grid
 k-point   1 :   0.0000 0.0000 0.0000  plane waves:   99894

 maximum and minimum number of plane-waves per node :     12491    12483

 maximum number of plane-waves:     99894
 maximum index in each direction: 
   IXMAX=   35   IYMAX=   35   IZMAX=   37
   IXMIN=  -35   IYMIN=  -35   IZMIN=    0


 parallel 3D FFT for wavefunctions:
    minimum data exchange during FFTs selected (reduces bandwidth)
 parallel 3D FFT for charge:
    minimum data exchange during FFTs selected (reduces bandwidth)


 total amount of memory used by VASP MPI-rank0   136074. kBytes
=======================================================================

   base      :      30000. kBytes
   nonl-proj :       3796. kBytes
   fftplans  :      26334. kBytes
   grid      :      62705. kBytes
   one-center:         31. kBytes
   wavefun   :      13208. kBytes
 
     INWAV:  cpu time    0.0000: real time    0.0000
 Broyden mixing: mesh for mixing (old mesh)
   NGX = 71   NGY = 71   NGZ = 75
  (NGX  =216   NGY  =216   NGZ  =224)
  gives a total of 378075 points

 initial charge density was supplied:
 charge density of overlapping atoms calculated
 number of electron     100.0000000 magnetization      10.0000000
 keeping initial charge density in first step


--------------------------------------------------------------------------------------------------------


 Maximum index for augmentation-charges           293 (set IRDMAX)


--------------------------------------------------------------------------------------------------------


 First call to EWALD:  gamma=   0.080
 Maximum number of real-space cells 3x 3x 3
 Maximum number of reciprocal cells 3x 3x 3

    FEWALD:  cpu time    0.0013: real time    0.0013


--------------------------------------- Iteration      1(   1)  ---------------------------------------


    POTLOK:  cpu time    2.1423: real time    2.1586
    SETDIJ:  cpu time    0.0207: real time    0.0207
     EDDAV:  cpu time    4.8861: real time    4.8919
       DOS:  cpu time    0.0081: real time    0.0081
    --------------------------------------------
      LOOP:  cpu time    7.0573: real time    7.0793

 eigenvalue-minimisations  :   264
 total energy-change (2. order) : 0.6275862E+03  (-0.1660632E+04)
 number of electron     100.0000000 magnetization      10.0000000
 augmentation part      100.0000000 magnetization      10.0000000

 Free energy of the ion-electron system (eV)
  ---------------------------------------------------
  alpha Z        PSCENC =         4.63749504
  Ewald energy   TEWEN  =     12440.32083659
  -Hartree energ DENC   =    -22293.33549637
  -exchange      EXHF   =         0.00000000
  -V(xc)+E(xc)   XCENC  =       304.71483571
  PAW double counting   =      9628.33173603   -10296.70712275
  entropy T*S    EENTRO =         0.02254546
  eigenvalues    EBANDS =        62.96303905
  atomic energy  EATOM  =     10776.63837129
  Solvation  Ediel_sol  =         0.00000000
  ---------------------------------------------------
  free energy    TOTEN  =       627.58624005 eV

  energy without entropy =      627.56369459  energy(sigma->0) =      627.57872490


--------------------------------------------------------------------------------------------------------




--------------------------------------- Iteration      1(   2)  ---------------------------------------


     EDDAV:  cpu time    7.4806: real time    7.4889
       DOS:  cpu time    0.0080: real time    0.0080
    --------------------------------------------
      LOOP:  cpu time    7.4887: real time    7.4970

 eigenvalue-minimisations  :   464
 total energy-change (2. order) :-0.5232700E+03  (-0.4868234E+03)
 number of electron     100.0000000 magnetization      10.0000000
 augmentation part      100.0000000 magnetization      10.0000000

 Free energy of the ion-electron system (eV)
  ---------------------------------------------------
  alpha Z        PSCENC =         4.63749504
  Ewald energy   TEWEN  =     12440.32083659
  -Hartree energ DENC   =    -22293.33549637
  -exchange      EXHF   =         0.00000000
  -V(xc)+E(xc)   XCENC  =       304.71483571
  PAW double counting   =      9628.33173603   -10296.70712275
  entropy T*S    EENTRO =        -0.02263503
  eigenvalues    EBANDS =      -460.26180339
  atomic energy  EATOM  =     10776.63837129
  Solvation  Ediel_sol  =         0.00000000
  ---------------------------------------------------
  free energy    TOTEN  =       104.31621713 eV

  energy without entropy =      104.33885216  energy(sigma->0) =      104.32376214


--------------------------------------------------------------------------------------------------------




--------------------------------------- Iteration      1(   3)  ---------------------------------------


     EDDAV:  cpu time    5.5785: real time    5.5869
       DOS:  cpu time    0.0081: real time    0.0081
    --------------------------------------------
      LOOP:  cpu time    5.5866: real time    5.5950

 eigenvalue-minimisations  :   320
 total energy-change (2. order) :-0.1340291E+03  (-0.1254393E+03)
 number of electron     100.0000000 magnetization      10.0000000
 augmentation part      100.0000000 magnetization      10.0000000

 Free energy of the ion-electron system (eV)
  ---------------------------------------------------
  alpha Z        PSCENC =         4.63749504
  Ewald energy   TEWEN  =     12440.32083659
  -Hartree energ DENC   =    -22293.33549637
  -exchange      EXHF   =         0.00000000
  -V(xc)+E(xc)   XCENC  =       304.71483571
  PAW double counting   =      9628.33173603   -10296.70712275
  entropy T*S    EENTRO =        -0.01985570
  eigenvalues    EBANDS =      -594.29365396
  atomic energy  EATOM  =     10776.63837129
  Solvation  Ediel_sol  =         0.00000000
  ---------------------------------------------------
  free energy    TOTEN  =       -29.71285411 eV

  energy without entropy =      -29.69299841  energy(sigma->0) =      -29.70623554


--------------------------------------------------------------------------------------------------------




--------------------------------------- Iteration      1(   4)  ---------------------------------------


     EDDAV:  cpu time    5.2529: real time    5.2606
       DOS:  cpu time    0.0079: real time    0.0079
    --------------------------------------------
      LOOP:  cpu time    5.2608: real time    5.2686

 eigenvalue-minimisations  :   294
 total energy-change (2. order) :-0.1150550E+02  (-0.1052821E+02)
 number of electron     100.0000000 magnetization      10.0000000
 augmentation part      100.0000000 magnetization      10.0000000

 Free energy of the ion-electron system (eV)
  ---------------------------------------------------
  alpha Z        PSCENC =         4.63749504
  Ewald energy   TEWEN  =     12440.32083659
  -Hartree energ DENC   =    -22293.33549637
  -exchange      EXHF   =         0.00000000
  -V(xc)+E(xc)   XCENC  =       304.71483571
  PAW double counting   =      9628.33173603   -10296.70712275
  entropy T*S    EENTRO =        -0.03167974
  eigenvalues    EBANDS =      -605.78733115
  atomic energy  EATOM  =     10776.63837129
  Solvation  Ediel_sol  =         0.00000000
  ---------------------------------------------------
  free energy    TOTEN  =       -41.21835534 eV

  energy without entropy =      -41.18667560  energy(sigma->0) =      -41.20779543


--------------------------------------------------------------------------------------------------------




--------------------------------------- Iteration      1(   5)  ---------------------------------------


     EDDAV:  cpu time    5.5777: real time    5.5841
       DOS:  cpu time    0.0081: real time    0.0081
    CHARGE:  cpu time    0.5518: real time    0.5523
    MIXING:  cpu time    0.0341: real time    0.0341
    --------------------------------------------
      LOOP:  cpu time    6.1717: real time    6.1787

 eigenvalue-minimisations  :   322
 total energy-change (2. order) :-0.2781859E+00  (-0.2688940E+00)
 number of electron     100.0000042 magnetization       9.9659460
 augmentation part       59.3455996 magnetization       7.7834231

 Broyden mixing:
  rms(total) = 0.20154E+01    rms(broyden)= 0.20144E+01
  rms(prec ) = 0.21284E+01
  weight for this iteration     100.00

 Free energy of the ion-electron system (eV)
  ---------------------------------------------------
  alpha Z        PSCENC =         4.63749504
  Ewald energy   TEWEN  =     12440.32083659
  -Hartree energ DENC   =    -22293.33549637
  -exchange      EXHF   =         0.00000000
  -V(xc)+E(xc)   XCENC  =       304.71483571
  PAW double counting   =      9628.33173603   -10296.70712275
  entropy T*S    EENTRO =        -0.02884853
  eigenvalues    EBANDS =      -606.06834823
  atomic energy  EATOM  =     10776.63837129
  Solvation  Ediel_sol  =         0.00000000
  ---------------------------------------------------
  free energy    TOTEN  =       -41.49654122 eV

  energy without entropy =      -41.46769268  energy(sigma->0) =      -41.48692504


--------------------------------------------------------------------------------------------------------




--------------------------------------- Iteration      1(   6)  ---------------------------------------


    POTLOK:  cpu time    2.1193: real time    2.1249
    SETDIJ:  cpu time    0.0218: real time    0.0218
     EDDAV:  cpu time    5.2498: real time    5.2595
       DOS:  cpu time    0.0008: real time    0.0008
    CHARGE:  cpu time    0.5406: real time    0.5411
    MIXING:  cpu time    0.0415: real time    0.0415
    --------------------------------------------
      LOOP:  cpu time    7.9737: real time    7.9897

 eigenvalue-minimisations  :   294
 total energy-change (2. order) :-0.3796968E+01  (-0.5318582E+01)
 number of electron     100.0000047 magnetization       9.8962203
 augmentation part       63.9734105 magnetization       8.5377624

 Broyden mixing:
  rms(total) = 0.47510E+01    rms(broyden)= 0.47505E+01
  rms(prec ) = 0.50536E+01
  weight for this iteration     100.00

 eigenvalues of (default mixing * dielectric matrix)
  average eigenvalue GAMMA=   0.1973
  0.1973

 Free energy of the ion-electron system (eV)
  ---------------------------------------------------
  alpha Z        PSCENC =         4.63749504
  Ewald energy   TEWEN  =     12440.32083659
  -Hartree energ DENC   =    -22188.24121643
  -exchange      EXHF   =         0.00000000
  -V(xc)+E(xc)   XCENC  =       297.98471561
  PAW double counting   =      9939.49575267   -10582.43283141
  entropy T*S    EENTRO =        -0.00955784
  eigenvalues    EBANDS =      -733.68707447
  atomic energy  EATOM  =     10776.63837129
  Solvation  Ediel_sol  =         0.00000000
  ---------------------------------------------------
  free energy    TOTEN  =       -45.29350895 eV

  energy without entropy =      -45.28395111  energy(sigma->0) =      -45.29032300


--------------------------------------------------------------------------------------------------------




--------------------------------------- Iteration      1(   7)  ---------------------------------------


    POTLOK:  cpu time    2.1417: real time    2.1439
    SETDIJ:  cpu time    0.0221: real time    0.0221
     EDDAV:  cpu time    5.1519: real time    5.1572
       DOS:  cpu time    0.0011: real time    0.0011
    CHARGE:  cpu time    0.5250: real time    0.5255
    MIXING:  cpu time    0.0428: real time    0.0428
    --------------------------------------------
      LOOP:  cpu time    7.8845: real time    7.8926

 eigenvalue-minimisations  :   286
 total energy-change (2. order) : 0.4492258E+01  (-0.5057835E+01)
 number of electron     100.0000046 magnetization       9.8126789
 augmentation part       64.4565501 magnetization       8.2575956

 Broyden mixing:
  rms(total) = 0.28302E+01    rms(broyden)= 0.28286E+01
  rms(prec ) = 0.29811E+01
  weight for this iteration     100.00

 eigenvalues of (default mixing * dielectric matrix)
  average eigenvalue GAMMA=   0.2507
  0.3443  0.1570

 Free energy of the ion-electron system (eV)
  ---------------------------------------------------
  alpha Z        PSCENC =         4.63749504
  Ewald energy   TEWEN  =     12440.32083659
  -Hartree energ DENC   =    -22206.36458678
  -exchange      EXHF   =         0.00000000
  -V(xc)+E(xc)   XCENC  =       298.48199435
  PAW double counting   =     10022.33090837   -10671.81466706
  entropy T*S    EENTRO =         0.03932879
  eigenvalues    EBANDS =      -705.07093108
  atomic energy  EATOM  =     10776.63837129
  Solvation  Ediel_sol  =         0.00000000
  ---------------------------------------------------
  free energy    TOTEN  =       -40.80125048 eV

  energy without entropy =      -40.84057927  energy(sigma->0) =      -40.81436008


--------------------------------------------------------------------------------------------------------




--------------------------------------- Iteration      1(   8)  ---------------------------------------


    POTLOK:  cpu time    2.1467: real time    2.1511
    SETDIJ:  cpu time    0.0215: real time    0.0215
     EDDAV:  cpu time    5.4347: real time    5.4443
       DOS:  cpu time    0.0008: real time    0.0008
    CHARGE:  cpu time    0.5463: real time    0.5468
    MIXING:  cpu time    0.0435: real time    0.0435
    --------------------------------------------
      LOOP:  cpu time    8.1934: real time    8.2079

 eigenvalue-minimisations  :   310
 total energy-change (2. order) : 0.5522949E+00  (-0.2065448E+01)
 number of electron     100.0000028 magnetization       9.7647434
 augmentation part       63.2855535 magnetization       7.8815004

 Broyden mixing:
  rms(total) = 0.40515E+01    rms(broyden)= 0.40506E+01
  rms(prec ) = 0.43392E+01
  weight for this iteration     100.00

 eigenvalues of (default mixing * dielectric matrix)
  average eigenvalue GAMMA=   0.2520
  0.4876  0.1343  0.1343

 Free energy of the ion-electron system (eV)
  ---------------------------------------------------
  alpha Z        PSCENC =         4.63749504
  Ewald energy   TEWEN  =     12440.32083659
  -Hartree energ DENC   =    -22249.84181075
  -exchange      EXHF   =         0.00000000
  -V(xc)+E(xc)   XCENC  =       299.73629370
  PAW double counting   =     10156.53399702   -10817.54687553
  entropy T*S    EENTRO =        -0.01047628
  eigenvalues    EBANDS =      -650.71678667
  atomic energy  EATOM  =     10776.63837129
  Solvation  Ediel_sol  =         0.00000000
  ---------------------------------------------------
  free energy    TOTEN  =       -40.24895558 eV

  energy without entropy =      -40.23847930  energy(sigma->0) =      -40.24546349


--------------------------------------------------------------------------------------------------------




--------------------------------------- Iteration      1(   9)  ---------------------------------------


    POTLOK:  cpu time    2.1481: real time    2.1507
    SETDIJ:  cpu time    0.0219: real time    0.0219
     EDDAV:  cpu time    5.7246: real time    5.7327
       DOS:  cpu time    0.0007: real time    0.0007
    CHARGE:  cpu time    0.5456: real time    0.5461
    MIXING:  cpu time    0.0515: real time    0.0515
    --------------------------------------------
      LOOP:  cpu time    8.4925: real time    8.5036

 eigenvalue-minimisations  :   334
 total energy-change (2. order) : 0.2406961E+01  (-0.1460580E+01)
 number of electron     100.0000029 magnetization       9.7421360
 augmentation part       62.6483844 magnetization       7.4798229

 Broyden mixing:
  rms(total) = 0.32510E+01    rms(broyden)= 0.32506E+01
  rms(prec ) = 0.34649E+01
  weight for this iteration     100.00

 eigenvalues of (default mixing * dielectric matrix)
  average eigenvalue GAMMA=   0.2409
  0.5701  0.1503  0.1503  0.0928

 Free energy of the ion-electron system (eV)
  ---------------------------------------------------
  alpha Z        PSCENC =         4.63749504
  Ewald energy   TEWEN  =     12440.32083659
  -Hartree energ DENC   =    -22274.21222604
  -exchange      EXHF   =         0.00000000
  -V(xc)+E(xc)   XCENC  =       300.26050021
  PAW double counting   =     10235.16600951   -10902.33506111
  entropy T*S    EENTRO =        -0.00110398
  eigenvalues    EBANDS =      -618.31681593
  atomic energy  EATOM  =     10776.63837129
  Solvation  Ediel_sol  =         0.00000000
  ---------------------------------------------------
  free energy    TOTEN  =       -37.84199441 eV

  energy without entropy =      -37.84089043  energy(sigma->0) =      -37.84162642


--------------------------------------------------------------------------------------------------------




--------------------------------------- Iteration      1(  10)  ---------------------------------------


    POTLOK:  cpu time    2.1454: real time    2.1492
    SETDIJ:  cpu time    0.0220: real time    0.0220
     EDDAV:  cpu time    6.2776: real time    6.2840
       DOS:  cpu time    0.0008: real time    0.0008
    CHARGE:  cpu time    0.5531: real time    0.5537
    MIXING:  cpu time    0.0523: real time    0.0523
    --------------------------------------------
      LOOP:  cpu time    9.0512: real time    9.0621

 eigenvalue-minimisations  :   374
 total energy-change (2. order) : 0.8237647E+00  (-0.1040148E+01)
 number of electron     100.0000041 magnetization       9.7103405
 augmentation part       62.4194374 magnetization       7.4109880

 Broyden mixing:
  rms(total) = 0.25687E+01    rms(broyden)= 0.25683E+01
  rms(prec ) = 0.27592E+01
  weight for this iteration     100.00

 eigenvalues of (default mixing * dielectric matrix)
  average eigenvalue GAMMA=   0.2598
  0.6824  0.2163  0.2163  0.0920  0.0920

 Free energy of the ion-electron system (eV)
  ---------------------------------------------------
  alpha Z        PSCENC =         4.63749504
  Ewald energy   TEWEN  =     12440.32083659
  -Hartree energ DENC   =    -22283.13630045
  -exchange      EXHF   =         0.00000000
  -V(xc)+E(xc)   XCENC  =       300.40289756
  PAW double counting   =     10279.56138217   -10949.49891126
  entropy T*S    EENTRO =        -0.06284585
  eigenvalues    EBANDS =      -605.88115483
  atomic energy  EATOM  =     10776.63837129
  Solvation  Ediel_sol  =         0.00000000
  ---------------------------------------------------
  free energy    TOTEN  =       -37.01822973 eV

  energy without entropy =      -36.95538388  energy(sigma->0) =      -36.99728112


--------------------------------------------------------------------------------------------------------




--------------------------------------- Iteration      1(  11)  ---------------------------------------


    POTLOK:  cpu time    2.1572: real time    2.1635
    SETDIJ:  cpu time    0.0215: real time    0.0215
     EDDAV:  cpu time    5.5863: real time    5.5940
       DOS:  cpu time    0.0007: real time    0.0007
    CHARGE:  cpu time    0.5298: real time    0.5303
    MIXING:  cpu time    0.0600: real time    0.0601
    --------------------------------------------
      LOOP:  cpu time    8.3556: real time    8.3702

 eigenvalue-minimisations  :   326
 total energy-change (2. order) :-0.2770695E+00  (-0.1027003E+01)
 number of electron     100.0000056 magnetization       9.6792514
 augmentation part       62.1346298 magnetization       7.5432216

 Broyden mixing:
  rms(total) = 0.25957E+01    rms(broyden)= 0.25949E+01
  rms(prec ) = 0.27569E+01
  weight for this iteration     100.00

 eigenvalues of (default mixing * dielectric matrix)
  average eigenvalue GAMMA=   0.2777
  0.8066  0.3970  0.1545  0.1007  0.1007  0.1068

 Free energy of the ion-electron system (eV)
  ---------------------------------------------------
  alpha Z        PSCENC =         4.63749504
  Ewald energy   TEWEN  =     12440.32083659
  -Hartree energ DENC   =    -22291.71813784
  -exchange      EXHF   =         0.00000000
  -V(xc)+E(xc)   XCENC  =       300.49962445
  PAW double counting   =     10346.55204292   -11019.62286214
  entropy T*S    EENTRO =         0.00450643
  eigenvalues    EBANDS =      -594.60717595
  atomic energy  EATOM  =     10776.63837129
  Solvation  Ediel_sol  =         0.00000000
  ---------------------------------------------------
  free energy    TOTEN  =       -37.29529920 eV

  energy without entropy =      -37.29980563  energy(sigma->0) =      -37.29680135


--------------------------------------------------------------------------------------------------------




--------------------------------------- Iteration      1(  12)  ---------------------------------------


    POTLOK:  cpu time    2.1444: real time    2.1517
    SETDIJ:  cpu time    0.0230: real time    0.0230
     EDDAV:  cpu time    6.1592: real time    6.1652
       DOS:  cpu time    0.0013: real time    0.0013
    CHARGE:  cpu time    0.5312: real time    0.5317
    MIXING:  cpu time    0.0585: real time    0.0586
    --------------------------------------------
      LOOP:  cpu time    8.9177: real time    8.9316

 eigenvalue-minimisations  :   366
 total energy-change (2. order) : 0.4469544E+00  (-0.7625986E+00)
 number of electron     100.0000038 magnetization       9.6583955
 augmentation part       62.2155001 magnetization       7.4071489

 Broyden mixing:
  rms(total) = 0.29640E+01    rms(broyden)= 0.29632E+01
  rms(prec ) = 0.31592E+01
  weight for this iteration     100.00

 eigenvalues of (default mixing * dielectric matrix)
  average eigenvalue GAMMA=   0.3002
  1.0656  0.4484  0.1576  0.1576  0.0940  0.0940  0.0842

 Free energy of the ion-electron system (eV)
  ---------------------------------------------------
  alpha Z        PSCENC =         4.63749504
  Ewald energy   TEWEN  =     12440.32083659
  -Hartree energ DENC   =    -22292.20984027
  -exchange      EXHF   =         0.00000000
  -V(xc)+E(xc)   XCENC  =       300.49517677
  PAW double counting   =     10401.81325772   -11076.64734293
  entropy T*S    EENTRO =        -0.00085605
  eigenvalues    EBANDS =      -591.89544293
  atomic energy  EATOM  =     10776.63837129
  Solvation  Ediel_sol  =         0.00000000
  ---------------------------------------------------
  free energy    TOTEN  =       -36.84834477 eV

  energy without entropy =      -36.84748871  energy(sigma->0) =      -36.84805942


--------------------------------------------------------------------------------------------------------




--------------------------------------- Iteration      1(  13)  ---------------------------------------


    POTLOK:  cpu time    2.1481: real time    2.1512
    SETDIJ:  cpu time    0.0214: real time    0.0214
     EDDAV:  cpu time    5.5309: real time    5.5387
       DOS:  cpu time    0.0008: real time    0.0008
    CHARGE:  cpu time    0.5282: real time    0.5287
    MIXING:  cpu time    0.0621: real time    0.0622
    --------------------------------------------
      LOOP:  cpu time    8.2915: real time    8.3028

 eigenvalue-minimisations  :   318
 total energy-change (2. order) : 0.7922330E+00  (-0.4322660E+00)
 number of electron     100.0000040 magnetization       9.6536523
 augmentation part       62.2223124 magnetization       7.5604299

 Broyden mixing:
  rms(total) = 0.24481E+01    rms(broyden)= 0.24476E+01
  rms(prec ) = 0.26103E+01
  weight for this iteration     100.00

 eigenvalues of (default mixing * dielectric matrix)
  average eigenvalue GAMMA=   0.2851
  1.1165  0.4673  0.1786  0.1786  0.0958  0.0958  0.0847  0.0634

 Free energy of the ion-electron system (eV)
  ---------------------------------------------------
  alpha Z        PSCENC =         4.63749504
  Ewald energy   TEWEN  =     12440.32083659
  -Hartree energ DENC   =    -22297.11361977
  -exchange      EXHF   =         0.00000000
  -V(xc)+E(xc)   XCENC  =       300.51419497
  PAW double counting   =     10448.93230386   -11125.82792071
  entropy T*S    EENTRO =        -0.05738285
  eigenvalues    EBANDS =      -584.10039021
  atomic energy  EATOM  =     10776.63837129
  Solvation  Ediel_sol  =         0.00000000
  ---------------------------------------------------
  free energy    TOTEN  =       -36.05611178 eV

  energy without entropy =      -35.99872893  energy(sigma->0) =      -36.03698416


--------------------------------------------------------------------------------------------------------




--------------------------------------- Iteration      1(  14)  ---------------------------------------


    POTLOK:  cpu time    2.1489: real time    2.1546
    SETDIJ:  cpu time    0.0216: real time    0.0216
     EDDAV:  cpu time    6.2852: real time    6.2949
       DOS:  cpu time    0.0010: real time    0.0010
    CHARGE:  cpu time    0.5176: real time    0.5181
    MIXING:  cpu time    0.0714: real time    0.0715
    --------------------------------------------
      LOOP:  cpu time    9.0457: real time    9.0617

 eigenvalue-minimisations  :   374
 total energy-change (2. order) : 0.4462114E+00  (-0.2755185E+00)
 number of electron     100.0000040 magnetization       9.6467457
 augmentation part       62.2156527 magnetization       7.6009750

 Broyden mixing:
  rms(total) = 0.16379E+01    rms(broyden)= 0.16375E+01
  rms(prec ) = 0.17404E+01
  weight for this iteration     100.00

 eigenvalues of (default mixing * dielectric matrix)
  average eigenvalue GAMMA=   0.2792
  1.1557  0.4003  0.2491  0.2491  0.1042  0.1042  0.1126  0.0779  0.0598

 Free energy of the ion-electron system (eV)
  ---------------------------------------------------
  alpha Z        PSCENC =         4.63749504
  Ewald energy   TEWEN  =     12440.32083659
  -Hartree energ DENC   =    -22297.10652982
  -exchange      EXHF   =         0.00000000
  -V(xc)+E(xc)   XCENC  =       300.47709878
  PAW double counting   =     10459.16979439   -11136.38447694
  entropy T*S    EENTRO =        -0.05199210
  eigenvalues    EBANDS =      -583.31049761
  atomic energy  EATOM  =     10776.63837129
  Solvation  Ediel_sol  =         0.00000000
  ---------------------------------------------------
  free energy    TOTEN  =       -35.60990036 eV

  energy without entropy =      -35.55790826  energy(sigma->0) =      -35.59256966


--------------------------------------------------------------------------------------------------------




--------------------------------------- Iteration      1(  15)  ---------------------------------------


    POTLOK:  cpu time    2.1501: real time    2.1530
    SETDIJ:  cpu time    0.0216: real time    0.0217
     EDDAV:  cpu time    5.8426: real time    5.8498
       DOS:  cpu time    0.0011: real time    0.0011
    CHARGE:  cpu time    0.5450: real time    0.5455
    MIXING:  cpu time    0.0738: real time    0.0739
    --------------------------------------------
      LOOP:  cpu time    8.6343: real time    8.6450

 eigenvalue-minimisations  :   340
 total energy-change (2. order) : 0.2388740E+00  (-0.6864299E-01)
 number of electron     100.0000047 magnetization       9.6343984
 augmentation part       62.2397296 magnetization       7.5881665

 Broyden mixing:
  rms(total) = 0.68460E+00    rms(broyden)= 0.68393E+00
  rms(prec ) = 0.72166E+00
  weight for this iteration     100.00

 eigenvalues of (default mixing * dielectric matrix)
  average eigenvalue GAMMA=   0.2984
  1.2813  0.4158  0.4158  0.2035  0.2035  0.1071  0.1071  0.0961  0.0961  0.0582

 Free energy of the ion-electron system (eV)
  ---------------------------------------------------
  alpha Z        PSCENC =         4.63749504
  Ewald energy   TEWEN  =     12440.32083659
  -Hartree energ DENC   =    -22299.02551362
  -exchange      EXHF   =         0.00000000
  -V(xc)+E(xc)   XCENC  =       300.50423182
  PAW double counting   =     10471.03736540   -11148.78391982
  entropy T*S    EENTRO =        -0.05818672
  eigenvalues    EBANDS =      -580.64170638
  atomic energy  EATOM  =     10776.63837129
  Solvation  Ediel_sol  =         0.00000000
  ---------------------------------------------------
  free energy    TOTEN  =       -35.37102639 eV

  energy without entropy =      -35.31283967  energy(sigma->0) =      -35.35163081


--------------------------------------------------------------------------------------------------------




--------------------------------------- Iteration      1(  16)  ---------------------------------------


    POTLOK:  cpu time    2.1318: real time    2.1417
    SETDIJ:  cpu time    0.0211: real time    0.0211
     EDDAV:  cpu time    5.9339: real time    5.9436
       DOS:  cpu time    0.0073: real time    0.0073
    CHARGE:  cpu time    0.5319: real time    0.5355
    MIXING:  cpu time    0.0856: real time    0.0857
    --------------------------------------------
      LOOP:  cpu time    8.7117: real time    8.7349

 eigenvalue-minimisations  :   350
 total energy-change (2. order) :-0.1285984E+00  (-0.8900103E-01)
 number of electron     100.0000036 magnetization       9.6095132
 augmentation part       62.1602572 magnetization       7.5881891

 Broyden mixing:
  rms(total) = 0.89628E+00    rms(broyden)= 0.89576E+00
  rms(prec ) = 0.94557E+00
  weight for this iteration     100.00

 eigenvalues of (default mixing * dielectric matrix)
  average eigenvalue GAMMA=   0.3297
  1.5150  0.5317  0.5317  0.2434  0.2434  0.1030  0.1030  0.1092  0.1092  0.0771
  0.0601

 Free energy of the ion-electron system (eV)
  ---------------------------------------------------
  alpha Z        PSCENC =         4.63749504
  Ewald energy   TEWEN  =     12440.32083659
  -Hartree energ DENC   =    -22301.74335441
  -exchange      EXHF   =         0.00000000
  -V(xc)+E(xc)   XCENC  =       300.49271444
  PAW double counting   =     10486.30891566   -11164.48693802
  entropy T*S    EENTRO =        -0.01526207
  eigenvalues    EBANDS =      -577.65240332
  atomic energy  EATOM  =     10776.63837129
  Solvation  Ediel_sol  =         0.00000000
  ---------------------------------------------------
  free energy    TOTEN  =       -35.49962479 eV

  energy without entropy =      -35.48436272  energy(sigma->0) =      -35.49453743


--------------------------------------------------------------------------------------------------------




--------------------------------------- Iteration      1(  17)  ---------------------------------------


    POTLOK:  cpu time    2.1373: real time    2.1431
    SETDIJ:  cpu time    0.0220: real time    0.0220
     EDDAV:  cpu time    5.7789: real time    5.7897
       DOS:  cpu time    0.0029: real time    0.0029
    CHARGE:  cpu time    0.5268: real time    0.5283
    MIXING:  cpu time    0.0872: real time    0.0873
    --------------------------------------------
      LOOP:  cpu time    8.5551: real time    8.5733

 eigenvalue-minimisations  :   338
 total energy-change (2. order) : 0.2825605E-01  (-0.4006171E-01)
 number of electron     100.0000046 magnetization       9.5900171
 augmentation part       62.3631933 magnetization       7.6269353

 Broyden mixing:
  rms(total) = 0.62884E+00    rms(broyden)= 0.62849E+00
  rms(prec ) = 0.66879E+00
  weight for this iteration     100.00

 eigenvalues of (default mixing * dielectric matrix)
  average eigenvalue GAMMA=   0.3404
  1.5384  0.5726  0.5726  0.2747  0.2747  0.2742  0.1380  0.1025  0.1025  0.0876
  0.0876  0.0589

 Free energy of the ion-electron system (eV)
  ---------------------------------------------------
  alpha Z        PSCENC =         4.63749504
  Ewald energy   TEWEN  =     12440.32083659
  -Hartree energ DENC   =    -22301.73256299
  -exchange      EXHF   =         0.00000000
  -V(xc)+E(xc)   XCENC  =       300.29946051
  PAW double counting   =     10511.67310084   -11189.78253598
  entropy T*S    EENTRO =        -0.01397896
  eigenvalues    EBANDS =      -577.51155508
  atomic energy  EATOM  =     10776.63837129
  Solvation  Ediel_sol  =         0.00000000
  ---------------------------------------------------
  free energy    TOTEN  =       -35.47136873 eV

  energy without entropy =      -35.45738977  energy(sigma->0) =      -35.46670908


--------------------------------------------------------------------------------------------------------




--------------------------------------- Iteration      1(  18)  ---------------------------------------


    POTLOK:  cpu time    2.1438: real time    2.1509
    SETDIJ:  cpu time    0.0216: real time    0.0216
     EDDAV:  cpu time    6.3991: real time    6.4120
       DOS:  cpu time    0.0011: real time    0.0011
    CHARGE:  cpu time    0.5494: real time    0.5499
    MIXING:  cpu time    0.0994: real time    0.0995
    --------------------------------------------
      LOOP:  cpu time    9.2145: real time    9.2351

 eigenvalue-minimisations  :   382
 total energy-change (2. order) :-0.2052620E-01  (-0.2147986E-01)
 number of electron     100.0000046 magnetization       9.5623397
 augmentation part       62.3949469 magnetization       7.5928190

 Broyden mixing:
  rms(total) = 0.68144E+00    rms(broyden)= 0.68128E+00
  rms(prec ) = 0.72641E+00
  weight for this iteration     100.00

 eigenvalues of (default mixing * dielectric matrix)
  average eigenvalue GAMMA=   0.3577
  1.6140  0.6909  0.6909  0.4476  0.2619  0.2619  0.1358  0.1030  0.1030  0.1040
  0.0949  0.0835  0.0591

 Free energy of the ion-electron system (eV)
  ---------------------------------------------------
  alpha Z        PSCENC =         4.63749504
  Ewald energy   TEWEN  =     12440.32083659
  -Hartree energ DENC   =    -22303.12140635
  -exchange      EXHF   =         0.00000000
  -V(xc)+E(xc)   XCENC  =       300.24193058
  PAW double counting   =     10518.52568637   -11196.48783629
  entropy T*S    EENTRO =        -0.02283112
  eigenvalues    EBANDS =      -576.22414105
  atomic energy  EATOM  =     10776.63837129
  Solvation  Ediel_sol  =         0.00000000
  ---------------------------------------------------
  free energy    TOTEN  =       -35.49189494 eV

  energy without entropy =      -35.46906382  energy(sigma->0) =      -35.48428456


--------------------------------------------------------------------------------------------------------




--------------------------------------- Iteration      1(  19)  ---------------------------------------


    POTLOK:  cpu time    2.1304: real time    2.1327
    SETDIJ:  cpu time    0.0215: real time    0.0215
     EDDAV:  cpu time    5.1367: real time    5.1452
       DOS:  cpu time    0.0008: real time    0.0008
    CHARGE:  cpu time    0.5412: real time    0.5417
    MIXING:  cpu time    0.1068: real time    0.1069
    --------------------------------------------
      LOOP:  cpu time    7.9374: real time    7.9488

 eigenvalue-minimisations  :   286
 total energy-change (2. order) : 0.4131321E-01  (-0.2461077E-01)
 number of electron     100.0000046 magnetization       9.5284898
 augmentation part       62.4678623 magnetization       7.5435370

 Broyden mixing:
  rms(total) = 0.30887E+00    rms(broyden)= 0.30843E+00
  rms(prec ) = 0.32467E+00
  weight for this iteration     100.00

 eigenvalues of (default mixing * dielectric matrix)
  average eigenvalue GAMMA=   0.3856
  1.6512  0.8101  0.8101  0.4649  0.4649  0.2648  0.2648  0.1356  0.1027  0.1027
  0.0590  0.0835  0.0923  0.0923

 Free energy of the ion-electron system (eV)
  ---------------------------------------------------
  alpha Z        PSCENC =         4.63749504
  Ewald energy   TEWEN  =     12440.32083659
  -Hartree energ DENC   =    -22305.61796707
  -exchange      EXHF   =         0.00000000
  -V(xc)+E(xc)   XCENC  =       300.19428911
  PAW double counting   =     10527.83370334   -11205.71211679
  entropy T*S    EENTRO =        -0.03553831
  eigenvalues    EBANDS =      -573.70965494
  atomic energy  EATOM  =     10776.63837129
  Solvation  Ediel_sol  =         0.00000000
  ---------------------------------------------------
  free energy    TOTEN  =       -35.45058173 eV

  energy without entropy =      -35.41504342  energy(sigma->0) =      -35.43873563


--------------------------------------------------------------------------------------------------------




--------------------------------------- Iteration      1(  20)  ---------------------------------------


    POTLOK:  cpu time    2.1290: real time    2.1389
    SETDIJ:  cpu time    0.0214: real time    0.0215
     EDDAV:  cpu time    6.4479: real time    6.4617
       DOS:  cpu time    0.0008: real time    0.0008
    CHARGE:  cpu time    0.5428: real time    0.5433
    MIXING:  cpu time    0.1146: real time    0.1148
    --------------------------------------------
      LOOP:  cpu time    9.2566: real time    9.2810

 eigenvalue-minimisations  :   384
 total energy-change (2. order) :-0.8326790E-01  (-0.1439308E-01)
 number of electron     100.0000041 magnetization       9.5135458
 augmentation part       62.4980377 magnetization       7.5572691

 Broyden mixing:
  rms(total) = 0.41899E+00    rms(broyden)= 0.41880E+00
  rms(prec ) = 0.44526E+00
  weight for this iteration     100.00

 eigenvalues of (default mixing * dielectric matrix)
  average eigenvalue GAMMA=   0.3754
  1.6687  0.8323  0.8323  0.4905  0.4905  0.2600  0.2600  0.1362  0.1027  0.1027
  0.1225  0.0591  0.0838  0.0963  0.0927

 Free energy of the ion-electron system (eV)
  ---------------------------------------------------
  alpha Z        PSCENC =         4.63749504
  Ewald energy   TEWEN  =     12440.32083659
  -Hartree energ DENC   =    -22309.73161443
  -exchange      EXHF   =         0.00000000
  -V(xc)+E(xc)   XCENC  =       300.18919542
  PAW double counting   =     10534.13890808   -11211.95687021
  entropy T*S    EENTRO =        -0.04018434
  eigenvalues    EBANDS =      -569.72998708
  atomic energy  EATOM  =     10776.63837129
  Solvation  Ediel_sol  =         0.00000000
  ---------------------------------------------------
  free energy    TOTEN  =       -35.53384963 eV

  energy without entropy =      -35.49366529  energy(sigma->0) =      -35.52045485


--------------------------------------------------------------------------------------------------------




--------------------------------------- Iteration      1(  21)  ---------------------------------------


    POTLOK:  cpu time    2.1325: real time    2.1428
    SETDIJ:  cpu time    0.0215: real time    0.0216
     EDDAV:  cpu time    5.2466: real time    5.2562
       DOS:  cpu time    0.0030: real time    0.0030
    CHARGE:  cpu time    0.5258: real time    0.5263
    MIXING:  cpu time    0.1217: real time    0.1218
    --------------------------------------------
      LOOP:  cpu time    8.0510: real time    8.0715

 eigenvalue-minimisations  :   296
 total energy-change (2. order) : 0.8463866E-02  (-0.8096433E-02)
 number of electron     100.0000043 magnetization       9.4816224
 augmentation part       62.4688424 magnetization       7.4998289

 Broyden mixing:
  rms(total) = 0.23770E+00    rms(broyden)= 0.23739E+00
  rms(prec ) = 0.25235E+00
  weight for this iteration     100.00

 eigenvalues of (default mixing * dielectric matrix)
  average eigenvalue GAMMA=   0.4293
  1.6905  1.0467  1.0467  0.6183  0.6183  0.5692  0.2612  0.2612  0.1353  0.1027
  0.1027  0.0591  0.0933  0.0933  0.0842  0.0856

 Free energy of the ion-electron system (eV)
  ---------------------------------------------------
  alpha Z        PSCENC =         4.63749504
  Ewald energy   TEWEN  =     12440.32083659
  -Hartree energ DENC   =    -22311.77488280
  -exchange      EXHF   =         0.00000000
  -V(xc)+E(xc)   XCENC  =       300.20415001
  PAW double counting   =     10536.95399548   -11214.77880277
  entropy T*S    EENTRO =        -0.02842591
  eigenvalues    EBANDS =      -567.69812270
  atomic energy  EATOM  =     10776.63837129
  Solvation  Ediel_sol  =         0.00000000
  ---------------------------------------------------
  free energy    TOTEN  =       -35.52538576 eV

  energy without entropy =      -35.49695985  energy(sigma->0) =      -35.51591046


--------------------------------------------------------------------------------------------------------




--------------------------------------- Iteration      1(  22)  ---------------------------------------


    POTLOK:  cpu time    2.1217: real time    2.1275
    SETDIJ:  cpu time    0.0214: real time    0.0214
     EDDAV:  cpu time    6.2621: real time    6.2685
       DOS:  cpu time    0.0031: real time    0.0031
    CHARGE:  cpu time    0.5193: real time    0.5249
    MIXING:  cpu time    0.1269: real time    0.1271
    --------------------------------------------
      LOOP:  cpu time    9.0544: real time    9.0724

 eigenvalue-minimisations  :   376
 total energy-change (2. order) :-0.4998890E-01  (-0.5562669E-02)
 number of electron     100.0000043 magnetization       9.4455798
 augmentation part       62.5033487 magnetization       7.5205448

 Broyden mixing:
  rms(total) = 0.16065E+00    rms(broyden)= 0.16047E+00
  rms(prec ) = 0.17070E+00
  weight for this iteration     100.00

 eigenvalues of (default mixing * dielectric matrix)
  average eigenvalue GAMMA=   0.4825
  1.7556  1.7556  0.8217  0.8217  0.5975  0.5975  0.5745  0.2599  0.2599  0.1352
  0.1027  0.1027  0.0591  0.0940  0.0940  0.0838  0.0871

 Free energy of the ion-electron system (eV)
  ---------------------------------------------------
  alpha Z        PSCENC =         4.63749504
  Ewald energy   TEWEN  =     12440.32083659
  -Hartree energ DENC   =    -22314.99792681
  -exchange      EXHF   =         0.00000000
  -V(xc)+E(xc)   XCENC  =       300.18764881
  PAW double counting   =     10537.93142915   -11215.68297828
  entropy T*S    EENTRO =        -0.02441704
  eigenvalues    EBANDS =      -564.58583342
  atomic energy  EATOM  =     10776.63837129
  Solvation  Ediel_sol  =         0.00000000
  ---------------------------------------------------
  free energy    TOTEN  =       -35.57537466 eV

  energy without entropy =      -35.55095762  energy(sigma->0) =      -35.56723565


--------------------------------------------------------------------------------------------------------




--------------------------------------- Iteration      1(  23)  ---------------------------------------


    POTLOK:  cpu time    2.1134: real time    2.1176
    SETDIJ:  cpu time    0.0214: real time    0.0214
     EDDAV:  cpu time    5.3079: real time    5.3180
       DOS:  cpu time    0.0080: real time    0.0081
    CHARGE:  cpu time    0.5227: real time    0.5232
    MIXING:  cpu time    0.1391: real time    0.1393
    --------------------------------------------
      LOOP:  cpu time    8.1125: real time    8.1276

 eigenvalue-minimisations  :   304
 total energy-change (2. order) :-0.2698786E-01  (-0.3758080E-02)
 number of electron     100.0000043 magnetization       9.4257314
 augmentation part       62.4852781 magnetization       7.4904132

 Broyden mixing:
  rms(total) = 0.13262E+00    rms(broyden)= 0.13247E+00
  rms(prec ) = 0.13993E+00
  weight for this iteration     100.00

 eigenvalues of (default mixing * dielectric matrix)
  average eigenvalue GAMMA=   0.5195
  2.2203  1.6464  0.8879  0.8879  0.7740  0.5695  0.5695  0.5172  0.2599  0.2599
  0.1352  0.1027  0.1027  0.0591  0.0940  0.0940  0.0838  0.0872

 Free energy of the ion-electron system (eV)
  ---------------------------------------------------
  alpha Z        PSCENC =         4.63749504
  Ewald energy   TEWEN  =     12440.32083659
  -Hartree energ DENC   =    -22318.96716410
  -exchange      EXHF   =         0.00000000
  -V(xc)+E(xc)   XCENC  =       300.20140980
  PAW double counting   =     10537.16961721   -11214.99261921
  entropy T*S    EENTRO =        -0.03102079
  eigenvalues    EBANDS =      -560.57928836
  atomic energy  EATOM  =     10776.63837129
  Solvation  Ediel_sol  =         0.00000000
  ---------------------------------------------------
  free energy    TOTEN  =       -35.60236252 eV

  energy without entropy =      -35.57134173  energy(sigma->0) =      -35.59202225


--------------------------------------------------------------------------------------------------------




--------------------------------------- Iteration      1(  24)  ---------------------------------------


    POTLOK:  cpu time    2.1176: real time    2.1227
    SETDIJ:  cpu time    0.0216: real time    0.0216
     EDDAV:  cpu time    5.7373: real time    5.7429
       DOS:  cpu time    0.0085: real time    0.0085
    CHARGE:  cpu time    0.5423: real time    0.5428
    MIXING:  cpu time    0.1462: real time    0.1464
    --------------------------------------------
      LOOP:  cpu time    8.5735: real time    8.5850

 eigenvalue-minimisations  :   336
 total energy-change (2. order) :-0.2017171E-01  (-0.1312431E-02)
 number of electron     100.0000043 magnetization       9.4091282
 augmentation part       62.4742785 magnetization       7.4780063

 Broyden mixing:
  rms(total) = 0.77526E-01    rms(broyden)= 0.77470E-01
  rms(prec ) = 0.83653E-01
  weight for this iteration     100.00

 eigenvalues of (default mixing * dielectric matrix)
  average eigenvalue GAMMA=   0.5457
  2.5312  1.3547  0.9555  0.9555  0.7735  0.7735  0.5811  0.5811  0.5844  0.2598
  0.2598  0.1352  0.1027  0.1027  0.0591  0.0940  0.0940  0.0838  0.0872

 Free energy of the ion-electron system (eV)
  ---------------------------------------------------
  alpha Z        PSCENC =         4.63749504
  Ewald energy   TEWEN  =     12440.32083659
  -Hartree energ DENC   =    -22320.85742570
  -exchange      EXHF   =         0.00000000
  -V(xc)+E(xc)   XCENC  =       300.20972363
  PAW double counting   =     10536.27422495   -11214.16210910
  entropy T*S    EENTRO =        -0.02614879
  eigenvalues    EBANDS =      -558.65750214
  atomic energy  EATOM  =     10776.63837129
  Solvation  Ediel_sol  =         0.00000000
  ---------------------------------------------------
  free energy    TOTEN  =       -35.62253423 eV

  energy without entropy =      -35.59638544  energy(sigma->0) =      -35.61381796


--------------------------------------------------------------------------------------------------------




--------------------------------------- Iteration      1(  25)  ---------------------------------------


    POTLOK:  cpu time    2.1151: real time    2.1229
    SETDIJ:  cpu time    0.0214: real time    0.0214
     EDDAV:  cpu time    5.7459: real time    5.7516
       DOS:  cpu time    0.0039: real time    0.0039
    CHARGE:  cpu time    0.5441: real time    0.5469
    MIXING:  cpu time    0.1488: real time    0.1511
    --------------------------------------------
      LOOP:  cpu time    8.5792: real time    8.5979

 eigenvalue-minimisations  :   336
 total energy-change (2. order) :-0.1656393E-01  (-0.6145213E-03)
 number of electron     100.0000043 magnetization       9.3974448
 augmentation part       62.4802549 magnetization       7.4826600

 Broyden mixing:
  rms(total) = 0.57283E-01    rms(broyden)= 0.57237E-01
  rms(prec ) = 0.61182E-01
  weight for this iteration     100.00

 eigenvalues of (default mixing * dielectric matrix)
  average eigenvalue GAMMA=   0.5613
  2.6570  1.3077  1.1195  1.1195  0.6985  0.6985  0.5872  0.5872  0.5859  0.5859
  0.2598  0.2598  0.1352  0.1027  0.1027  0.0591  0.0940  0.0940  0.0838  0.0872

 Free energy of the ion-electron system (eV)
  ---------------------------------------------------
  alpha Z        PSCENC =         4.63749504
  Ewald energy   TEWEN  =     12440.32083659
  -Hartree energ DENC   =    -22322.11615289
  -exchange      EXHF   =         0.00000000
  -V(xc)+E(xc)   XCENC  =       300.19713309
  PAW double counting   =     10535.20328370   -11213.14746000
  entropy T*S    EENTRO =        -0.02645947
  eigenvalues    EBANDS =      -557.34614552
  atomic energy  EATOM  =     10776.63837129
  Solvation  Ediel_sol  =         0.00000000
  ---------------------------------------------------
  free energy    TOTEN  =       -35.63909815 eV

  energy without entropy =      -35.61263869  energy(sigma->0) =      -35.63027833


--------------------------------------------------------------------------------------------------------




--------------------------------------- Iteration      1(  26)  ---------------------------------------


    POTLOK:  cpu time    2.1391: real time    2.1416
    SETDIJ:  cpu time    0.0235: real time    0.0235
     EDDAV:  cpu time    5.0007: real time    5.0061
       DOS:  cpu time    0.0008: real time    0.0008
    CHARGE:  cpu time    0.5448: real time    0.5453
    MIXING:  cpu time    0.1693: real time    0.1695
    --------------------------------------------
      LOOP:  cpu time    7.8781: real time    7.8867

 eigenvalue-minimisations  :   280
 total energy-change (2. order) :-0.1008763E-01  (-0.3081205E-03)
 number of electron     100.0000043 magnetization       9.3853363
 augmentation part       62.4828611 magnetization       7.4795256

 Broyden mixing:
  rms(total) = 0.45900E-01    rms(broyden)= 0.45871E-01
  rms(prec ) = 0.49221E-01
  weight for this iteration     100.00

 eigenvalues of (default mixing * dielectric matrix)
  average eigenvalue GAMMA=   0.5882
  2.6778  1.4517  1.4517  0.8371  0.8371  0.7085  0.7085  0.7031  0.5714  0.5714
  0.5548  0.2598  0.2598  0.1352  0.1027  0.1027  0.0591  0.0940  0.0940  0.0838
  0.0872

 Free energy of the ion-electron system (eV)
  ---------------------------------------------------
  alpha Z        PSCENC =         4.63749504
  Ewald energy   TEWEN  =     12440.32083659
  -Hartree energ DENC   =    -22323.04274100
  -exchange      EXHF   =         0.00000000
  -V(xc)+E(xc)   XCENC  =       300.19103004
  PAW double counting   =     10534.04380243   -11212.00320705
  entropy T*S    EENTRO =        -0.02837201
  eigenvalues    EBANDS =      -556.40640113
  atomic energy  EATOM  =     10776.63837129
  Solvation  Ediel_sol  =         0.00000000
  ---------------------------------------------------
  free energy    TOTEN  =       -35.64918579 eV

  energy without entropy =      -35.62081378  energy(sigma->0) =      -35.63972845


--------------------------------------------------------------------------------------------------------




--------------------------------------- Iteration      1(  27)  ---------------------------------------


    POTLOK:  cpu time    2.1273: real time    2.1315
    SETDIJ:  cpu time    0.0211: real time    0.0211
     EDDAV:  cpu time    5.3695: real time    5.3796
       DOS:  cpu time    0.0071: real time    0.0071
    CHARGE:  cpu time    0.5384: real time    0.5390
    MIXING:  cpu time    0.1687: real time    0.1712
    --------------------------------------------
      LOOP:  cpu time    8.2321: real time    8.2495

 eigenvalue-minimisations  :   312
 total energy-change (2. order) :-0.9739162E-02  (-0.1427084E-03)
 number of electron     100.0000043 magnetization       9.3687683
 augmentation part       62.4804873 magnetization       7.4666443

 Broyden mixing:
  rms(total) = 0.17536E-01    rms(broyden)= 0.17501E-01
  rms(prec ) = 0.19621E-01
  weight for this iteration     100.00

 eigenvalues of (default mixing * dielectric matrix)
  average eigenvalue GAMMA=   0.6200
  2.8375  1.6221  1.6221  0.8721  0.8721  0.7498  0.7498  0.6674  0.6674  0.5771
  0.5771  0.5483  0.2598  0.2598  0.1352  0.1027  0.1027  0.0591  0.0940  0.0940
  0.0838  0.0872

 Free energy of the ion-electron system (eV)
  ---------------------------------------------------
  alpha Z        PSCENC =         4.63749504
  Ewald energy   TEWEN  =     12440.32083659
  -Hartree energ DENC   =    -22323.98088898
  -exchange      EXHF   =         0.00000000
  -V(xc)+E(xc)   XCENC  =       300.18787146
  PAW double counting   =     10532.52967930   -11210.52209797
  entropy T*S    EENTRO =        -0.02769923
  eigenvalues    EBANDS =      -555.44249247
  atomic energy  EATOM  =     10776.63837129
  Solvation  Ediel_sol  =         0.00000000
  ---------------------------------------------------
  free energy    TOTEN  =       -35.65892495 eV

  energy without entropy =      -35.63122572  energy(sigma->0) =      -35.64969187


--------------------------------------------------------------------------------------------------------




--------------------------------------- Iteration      1(  28)  ---------------------------------------


    POTLOK:  cpu time    2.1135: real time    2.1181
    SETDIJ:  cpu time    0.0214: real time    0.0214
     EDDAV:  cpu time    4.9686: real time    4.9736
       DOS:  cpu time    0.0008: real time    0.0008
    CHARGE:  cpu time    0.5326: real time    0.5332
    MIXING:  cpu time    0.1856: real time    0.1858
    --------------------------------------------
      LOOP:  cpu time    7.8224: real time    7.8328

 eigenvalue-minimisations  :   276
 total energy-change (2. order) :-0.1151656E-01  (-0.8724087E-04)
 number of electron     100.0000043 magnetization       9.3543983
 augmentation part       62.4775810 magnetization       7.4547961

 Broyden mixing:
  rms(total) = 0.13750E-01    rms(broyden)= 0.13730E-01
  rms(prec ) = 0.15340E-01
  weight for this iteration     100.00

 eigenvalues of (default mixing * dielectric matrix)
  average eigenvalue GAMMA=   0.6429
  2.9854  1.7654  1.7654  0.8775  0.8775  0.7684  0.7684  0.6664  0.6664  0.5733
  0.5733  0.6587  0.5625  0.2598  0.2598  0.1352  0.1027  0.1027  0.0591  0.0940
  0.0940  0.0838  0.0872

 Free energy of the ion-electron system (eV)
  ---------------------------------------------------
  alpha Z        PSCENC =         4.63749504
  Ewald energy   TEWEN  =     12440.32083659
  -Hartree energ DENC   =    -22325.24366687
  -exchange      EXHF   =         0.00000000
  -V(xc)+E(xc)   XCENC  =       300.18497689
  PAW double counting   =     10531.17185878   -11209.21195183
  entropy T*S    EENTRO =        -0.02764786
  eigenvalues    EBANDS =      -554.14071355
  atomic energy  EATOM  =     10776.63837129
  Solvation  Ediel_sol  =         0.00000000
  ---------------------------------------------------
  free energy    TOTEN  =       -35.67044151 eV

  energy without entropy =      -35.64279365  energy(sigma->0) =      -35.66122556


--------------------------------------------------------------------------------------------------------




--------------------------------------- Iteration      1(  29)  ---------------------------------------


    POTLOK:  cpu time    2.1201: real time    2.1290
    SETDIJ:  cpu time    0.0221: real time    0.0221
     EDDAV:  cpu time    4.5187: real time    4.5239
       DOS:  cpu time    0.0009: real time    0.0009
    CHARGE:  cpu time    0.5265: real time    0.5293
    MIXING:  cpu time    0.1997: real time    0.2022
    --------------------------------------------
      LOOP:  cpu time    7.3880: real time    7.4073

 eigenvalue-minimisations  :   238
 total energy-change (2. order) :-0.8931342E-02  (-0.4543817E-04)
 number of electron     100.0000043 magnetization       9.3393069
 augmentation part       62.4782135 magnetization       7.4445333

 Broyden mixing:
  rms(total) = 0.13342E-01    rms(broyden)= 0.13336E-01
  rms(prec ) = 0.14791E-01
  weight for this iteration     100.00

 eigenvalues of (default mixing * dielectric matrix)
  average eigenvalue GAMMA=   0.6796
  3.1971  1.9024  1.9024  0.9599  0.9599  0.9500  0.7371  0.7371  0.6772  0.6772
  0.5745  0.5745  0.6161  0.5656  0.2598  0.2598  0.1352  0.1027  0.1027  0.0591
  0.0940  0.0940  0.0838  0.0872

 Free energy of the ion-electron system (eV)
  ---------------------------------------------------
  alpha Z        PSCENC =         4.63749504
  Ewald energy   TEWEN  =     12440.32083659
  -Hartree energ DENC   =    -22326.24041039
  -exchange      EXHF   =         0.00000000
  -V(xc)+E(xc)   XCENC  =       300.18030736
  PAW double counting   =     10529.90563412   -11207.96158607
  entropy T*S    EENTRO =        -0.02737630
  eigenvalues    EBANDS =      -553.13264451
  atomic energy  EATOM  =     10776.63837129
  Solvation  Ediel_sol  =         0.00000000
  ---------------------------------------------------
  free energy    TOTEN  =       -35.67937285 eV

  energy without entropy =      -35.65199655  energy(sigma->0) =      -35.67024742


--------------------------------------------------------------------------------------------------------




--------------------------------------- Iteration      1(  30)  ---------------------------------------


    POTLOK:  cpu time    2.1179: real time    2.1207
    SETDIJ:  cpu time    0.0212: real time    0.0212
     EDDAV:  cpu time    4.2403: real time    4.2498
       DOS:  cpu time    0.0070: real time    0.0071
    CHARGE:  cpu time    0.5241: real time    0.5246
    MIXING:  cpu time    0.2054: real time    0.2057
    --------------------------------------------
      LOOP:  cpu time    7.1160: real time    7.1291

 eigenvalue-minimisations  :   222
 total energy-change (2. order) :-0.7954097E-02  (-0.3209835E-04)
 number of electron     100.0000043 magnetization       9.3257783
 augmentation part       62.4784283 magnetization       7.4338659

 Broyden mixing:
  rms(total) = 0.49815E-02    rms(broyden)= 0.49702E-02
  rms(prec ) = 0.60768E-02
  weight for this iteration     100.00

 eigenvalues of (default mixing * dielectric matrix)
  average eigenvalue GAMMA=   0.7033
  3.4204  2.0135  2.0135  1.0675  0.9386  0.9386  0.7956  0.7956  0.6791  0.6791
  0.5757  0.5757  0.6305  0.6305  0.5505  0.2598  0.2598  0.1352  0.1027  0.1027
  0.0591  0.0940  0.0940  0.0838  0.0872

 Free energy of the ion-electron system (eV)
  ---------------------------------------------------
  alpha Z        PSCENC =         4.63749504
  Ewald energy   TEWEN  =     12440.32083659
  -Hartree energ DENC   =    -22327.29102953
  -exchange      EXHF   =         0.00000000
  -V(xc)+E(xc)   XCENC  =       300.17651411
  PAW double counting   =     10528.82693568   -11206.90003635
  entropy T*S    EENTRO =        -0.02801267
  eigenvalues    EBANDS =      -552.06840111
  atomic energy  EATOM  =     10776.63837129
  Solvation  Ediel_sol  =         0.00000000
  ---------------------------------------------------
  free energy    TOTEN  =       -35.68732695 eV

  energy without entropy =      -35.65931428  energy(sigma->0) =      -35.67798939


--------------------------------------------------------------------------------------------------------




--------------------------------------- Iteration      1(  31)  ---------------------------------------


    POTLOK:  cpu time    2.1181: real time    2.1215
    SETDIJ:  cpu time    0.0217: real time    0.0217
     EDDAV:  cpu time    3.9675: real time    3.9767
       DOS:  cpu time    0.0045: real time    0.0046
    CHARGE:  cpu time    0.5313: real time    0.5318
    MIXING:  cpu time    0.2267: real time    0.2270
    --------------------------------------------
      LOOP:  cpu time    6.8699: real time    6.8833

 eigenvalue-minimisations  :   198
 total energy-change (2. order) :-0.6349631E-02  (-0.1889582E-04)
 number of electron     100.0000043 magnetization       9.3145950
 augmentation part       62.4770258 magnetization       7.4239618

 Broyden mixing:
  rms(total) = 0.47867E-02    rms(broyden)= 0.47799E-02
  rms(prec ) = 0.55645E-02
  weight for this iteration     100.00

 eigenvalues of (default mixing * dielectric matrix)
  average eigenvalue GAMMA=   0.7269
  3.7039  2.1213  2.1213  0.9261  0.9261  0.9754  0.9754  0.6756  0.6756  0.7561
[...]
 total energy-change (2. order) : 0.1461039E-04  (-0.4577439E-04)
 number of electron      99.9999853 magnetization       9.0306839
 augmentation part       62.3195403 magnetization       7.3134983

 Free energy of the ion-electron system (eV)
  ---------------------------------------------------
  alpha Z        PSCENC =         4.63749504
  Ewald energy   TEWEN  =     13184.52901026
  -Hartree energ DENC   =    -23056.47126008
  -exchange      EXHF   =         0.00000000
  -V(xc)+E(xc)   XCENC  =       301.35717428
  PAW double counting   =     10810.27767783   -11491.73575400
  entropy T*S    EENTRO =        -0.03802920
  eigenvalues    EBANDS =      -565.31488703
  atomic energy  EATOM  =     10776.63837129
  Solvation  Ediel_sol  =         0.00000000
  ---------------------------------------------------
  free energy    TOTEN  =       -36.12020160 eV

  energy without entropy =      -36.08217240  energy(sigma->0) =      -36.10752520


--------------------------------------------------------------------------------------------------------




 average (electrostatic) potential at core
  the test charge radii are     0.9791
  (the norm of the test charge is              1.0000)
       1 -94.9591       2 -94.8759       3 -94.9596       4 -95.2904       5 -94.7883
       6 -95.0980       7 -94.9164       8 -95.0221       9 -95.0414      10 -94.7401
 
 
 
 E-fermi :  -3.9033     XC(G=0):  -0.3125     alpha+bet : -0.1629


 spin component 1

 k-point     1 :       0.0000    0.0000    0.0000
  band No.  band energies     occupation 
      1      -9.9186      1.00000
      2      -8.4869      1.00000
      3      -8.0413      1.00000
      4      -7.8124      1.00000
      5      -7.6768      1.00000
      6      -7.4698      1.00000
      7      -7.2236      1.00000
      8      -7.1840      1.00000
      9      -7.0136      1.00000
     10      -6.8715      1.00000
     11      -6.8153      1.00000
     12      -6.7625      1.00000
     13      -6.7302      1.00000
     14      -6.6947      1.00000
     15      -6.5876      1.00000
     16      -6.5519      1.00000
     17      -6.5344      1.00000
     18      -6.4188      1.00000
     19      -6.2828      1.00000
     20      -6.2451      1.00000
     21      -6.0572      1.00000
     22      -5.9848      1.00000
     23      -5.8061      1.00000
     24      -5.7095      1.00000
     25      -5.6447      1.00000
     26      -5.5982      1.00000
     27      -5.5444      1.00000
     28      -5.4716      1.00000
     29      -5.4459      1.00000
     30      -5.3654      1.00000
     31      -5.3281      1.00000
     32      -5.2432      1.00000
     33      -5.2333      1.00000
     34      -5.1844      1.00000
     35      -5.1427      1.00000
     36      -5.1178      1.00000
     37      -5.1013      1.00000
     38      -5.0804      1.00000
     39      -5.0422      1.00000
     40      -4.9772      1.00000
     41      -4.9583      1.00000
     42      -4.9474      1.00000
     43      -4.9042      1.00000
     44      -4.8643      1.00000
     45      -4.8399      1.00000
     46      -4.8110      1.00000
     47      -4.7941      1.00000
     48      -4.7509      1.00000
     49      -4.7338      1.00000
     50      -4.6884      1.00000
     51      -4.6805      1.00000
     52      -4.6286      1.00000
     53      -4.6167      1.00000
     54      -4.4259      1.00069
     55      -3.9067      0.51422
     56      -3.2044     -0.00000
     57      -2.7499     -0.00000
     58      -2.5704     -0.00000
     59      -2.1985     -0.00000
     60      -1.8624     -0.00000
     61      -1.7037     -0.00000
     62      -1.0478     -0.00000
     63      -0.8014     -0.00000
     64      -0.7263     -0.00000
     65      -0.3741     -0.00000
     66      -0.2565     -0.00000

 spin component 2

 k-point     1 :       0.0000    0.0000    0.0000
  band No.  band energies     occupation 
      1      -9.8619      1.00000
      2      -8.2698      1.00000
      3      -7.6195      1.00000
      4      -7.3186      1.00000
      5      -7.0948      1.00000
      6      -6.8271      1.00000
      7      -6.5291      1.00000
      8      -6.5011      1.00000
      9      -6.2679      1.00000
     10      -6.2242      1.00000
     11      -6.1692      1.00000
     12      -6.0382      1.00000
     13      -5.9323      1.00000
     14      -5.9202      1.00000
     15      -5.8406      1.00000
     16      -5.7422      1.00000
     17      -5.6947      1.00000
     18      -5.6525      1.00000
     19      -5.5433      1.00000
     20      -5.3789      1.00000
     21      -5.2739      1.00000
     22      -5.1547      1.00000
     23      -5.0369      1.00000
     24      -4.9841      1.00000
     25      -4.9399      1.00000
     26      -4.8473      1.00000
     27      -4.8067      1.00000
     28      -4.7357      1.00000
     29      -4.7228      1.00000
     30      -4.6127      1.00000
     31      -4.5473      1.00003
     32      -4.4924      1.00013
     33      -4.4617      1.00028
     34      -4.4244      1.00071
     35      -4.4094      1.00101
     36      -4.3339      1.00473
     37      -4.2979      1.00871
     38      -4.2490      1.01732
     39      -4.1981      1.02880
     40      -4.1743      1.03329
     41      -4.1553      1.03527
     42      -4.1003      1.02346
     43      -4.0819      1.01014
     44      -3.9769      0.78907
     45      -3.9211      0.57507
     46      -3.8862      0.42791
     47      -3.8451      0.26472
     48      -3.8401      0.24681
     49      -3.8025      0.12771
     50      -3.7319     -0.00325
     51      -3.7154     -0.01766
     52      -3.6516     -0.03529
     53      -3.6200     -0.03115
     54      -3.5807     -0.02247
     55      -3.3445     -0.00028
     56      -2.8350     -0.00000
     57      -2.4120     -0.00000
     58      -2.2165     -0.00000
     59      -1.8229     -0.00000
     60      -1.5468     -0.00000
     61      -1.4519     -0.00000
     62      -0.8679     -0.00000
     63      -0.5777     -0.00000
     64      -0.5024     -0.00000
     65      -0.1314     -0.00000
     66      -0.0312     -0.00000


--------------------------------------------------------------------------------------------------------


 soft charge-density along one line, spin component            1
         0         1         2         3         4         5         6         7         8         9
 total charge-density along one line
 
 soft charge-density along one line, spin component            2
         0         1         2         3         4         5         6         7         8         9
 total charge-density along one line
 
 pseudopotential strength for first ion, spin component:            1
 -9.866  -0.089  -0.036   0.137   0.023 -10.156  -0.085  -0.035
 -0.089  -9.999  -0.075   0.010  -0.021  -0.085 -10.283  -0.072
 -0.036  -0.075  -9.850  -0.053  -0.016  -0.035  -0.072 -10.141
  0.137   0.010  -0.053  -9.875   0.031   0.131   0.010  -0.050
  0.023  -0.021  -0.016   0.031  -9.813   0.022  -0.020  -0.015
-10.156  -0.085  -0.035   0.131   0.022 -10.390  -0.081  -0.033
 -0.085 -10.283  -0.072   0.010  -0.020  -0.081 -10.512  -0.069
 -0.035  -0.072 -10.141  -0.050  -0.015  -0.033  -0.069 -10.376
  0.131   0.010  -0.050 -10.164   0.030   0.125   0.009  -0.048
  0.022  -0.020  -0.015   0.030 -10.105   0.021  -0.019  -0.014
 -0.005  -0.017   0.007   0.013  -0.010  -0.006  -0.016   0.007
 -0.009  -0.030   0.011   0.024  -0.018  -0.010  -0.029   0.011
 -0.007   0.010  -0.006  -0.004  -0.007  -0.007   0.009  -0.006
 -0.004   0.002   0.010  -0.009  -0.001  -0.003   0.002   0.010
  0.006  -0.004   0.004   0.008  -0.009   0.005  -0.003   0.004
 -0.005   0.008  -0.007  -0.005  -0.006  -0.004   0.007  -0.006
 -0.005  -0.000   0.008  -0.007  -0.001  -0.004  -0.000   0.007
  0.005  -0.005   0.003   0.006  -0.007   0.004  -0.004   0.003
 pseudopotential strength for first ion, spin component:            2
 -9.146   0.012  -0.008  -0.024  -0.002  -9.469   0.012  -0.008
  0.012  -9.152   0.067   0.022  -0.040   0.012  -9.475   0.064
 -0.008   0.067  -9.208   0.001  -0.041  -0.008   0.064  -9.529
 -0.024   0.022   0.001  -9.149  -0.042  -0.023   0.022   0.001
 -0.002  -0.040  -0.041  -0.042  -9.176  -0.002  -0.039  -0.039
 -9.469   0.012  -0.008  -0.023  -0.002  -9.736   0.012  -0.008
  0.012  -9.475   0.064   0.022  -0.039   0.012  -9.741   0.062
 -0.008   0.064  -9.529   0.001  -0.039  -0.008   0.062  -9.793
 -0.023   0.022   0.001  -9.472  -0.040  -0.023   0.021   0.001
 -0.002  -0.039  -0.039  -0.040  -9.498  -0.002  -0.037  -0.038
 -0.002  -0.005   0.003   0.004  -0.006  -0.002  -0.005   0.003
 -0.003  -0.009   0.005   0.007  -0.011  -0.003  -0.009   0.004
 -0.013   0.015  -0.005   0.001  -0.010  -0.012   0.014  -0.004
  0.001   0.011   0.017  -0.014  -0.000   0.001   0.010   0.016
  0.009   0.001   0.007   0.014  -0.013   0.008   0.001   0.007
 -0.014   0.015  -0.005   0.002  -0.011  -0.012   0.014  -0.004
  0.002   0.012   0.018  -0.014  -0.001   0.001   0.011   0.017
  0.009   0.002   0.007   0.014  -0.013   0.008   0.001   0.007
 total augmentation occupancy for first ion, spin component:            1
  2.615  -0.391   0.248   0.234   0.205  -0.913   0.271  -0.286  -0.036  -0.113   0.328  -0.046  -0.208   0.034   0.095   0.001
 -0.391   2.522  -0.195   0.024  -0.105   0.270  -0.978   0.056   0.024   0.078   0.160   0.032   0.191   0.032   0.009   0.004
  0.248  -0.195   2.893  -0.275  -0.075  -0.283   0.059  -1.091   0.164   0.031  -0.148   0.026  -0.139   0.215   0.082   0.003
  0.234   0.024  -0.275   2.510   0.060  -0.033   0.020   0.165  -0.817   0.078   0.224  -0.068   0.023  -0.144   0.103   0.000
  0.205  -0.105  -0.075   0.060   2.570  -0.111   0.071   0.025   0.076  -0.803   0.212  -0.007  -0.119  -0.024  -0.088  -0.002
 -0.913   0.270  -0.283  -0.033  -0.111   0.985  -0.225   0.308  -0.058   0.051  -0.308   0.047   0.272  -0.062  -0.135  -0.025
  0.271  -0.978   0.059   0.020   0.071  -0.225   1.118  -0.014  -0.071  -0.041  -0.191  -0.013  -0.235  -0.088  -0.043   0.021
 -0.286   0.056  -1.091   0.165   0.025   0.308  -0.014   1.117  -0.103   0.023   0.109  -0.023   0.127  -0.269  -0.125  -0.011
 -0.036   0.024   0.164  -0.817   0.076  -0.058  -0.071  -0.103   0.890  -0.155  -0.185   0.058  -0.053   0.185  -0.168   0.002
 -0.113   0.078   0.031   0.078  -0.803   0.051  -0.041   0.023  -0.155   0.855  -0.215   0.018   0.133   0.018   0.134  -0.013
  0.328   0.160  -0.148   0.224   0.212  -0.308  -0.191   0.109  -0.185  -0.215   1.968  -0.209  -0.151  -0.256   0.244   0.025
 -0.046   0.032   0.026  -0.068  -0.007   0.047  -0.013  -0.023   0.058   0.018  -0.209   0.030   0.024   0.043  -0.035  -0.003
 -0.208   0.191  -0.139   0.023  -0.119   0.272  -0.235   0.127  -0.053   0.133  -0.151   0.024   0.187  -0.027  -0.020  -0.018
  0.034   0.032   0.215  -0.144  -0.024  -0.062  -0.088  -0.269   0.185   0.018  -0.256   0.043  -0.027   0.179  -0.003  -0.000
  0.095   0.009   0.082   0.103  -0.088  -0.135  -0.043  -0.125  -0.168   0.134   0.244  -0.035  -0.020  -0.003   0.134   0.003
  0.001   0.004   0.003   0.000  -0.002  -0.025   0.021  -0.011   0.002  -0.013   0.025  -0.003  -0.018  -0.000   0.003   0.002
  0.001   0.009   0.004  -0.003   0.001   0.001   0.006   0.025  -0.020  -0.002   0.045  -0.006  -0.000  -0.019   0.004   0.000
 -0.001  -0.000   0.007   0.004  -0.013   0.015   0.002   0.008   0.020  -0.011  -0.040   0.005   0.003   0.004  -0.015  -0.001
 total augmentation occupancy for first ion, spin component:            2
  0.844   0.304   0.050  -0.449  -0.056  -0.367  -0.150  -0.010   0.210   0.020   0.023   0.008  -0.012   0.033   0.000  -0.005
  0.304   1.155   0.313  -0.016   0.020  -0.147  -0.500  -0.128   0.016  -0.029   0.056   0.016   0.013   0.053   0.035   0.008
  0.050   0.313   0.612   0.122  -0.010  -0.017  -0.132  -0.254  -0.046  -0.012   0.033   0.009   0.023   0.027   0.014  -0.000
 -0.449  -0.016   0.122   0.845  -0.128   0.205   0.020  -0.049  -0.365   0.037  -0.022  -0.002   0.038  -0.021   0.006   0.002
 -0.056   0.020  -0.010  -0.128   0.621   0.021  -0.018  -0.004   0.042  -0.262  -0.011   0.004  -0.001   0.013   0.011  -0.003
 -0.367  -0.147  -0.017   0.205   0.021   0.071   0.065  -0.003  -0.082  -0.003  -0.008  -0.006  -0.005  -0.010   0.006   0.003
 -0.150  -0.500  -0.132   0.020  -0.018   0.065   0.122   0.049  -0.010   0.012  -0.021  -0.009   0.005  -0.017  -0.010  -0.005
 -0.010  -0.128  -0.254  -0.049  -0.004  -0.003   0.049   0.026   0.012   0.008  -0.013  -0.002  -0.011  -0.002   0.002   0.001
  0.210   0.016  -0.046  -0.365   0.042  -0.082  -0.010   0.012   0.074  -0.004   0.010  -0.000  -0.012   0.005   0.009  -0.001
  0.020  -0.029  -0.012   0.037  -0.262  -0.003   0.012   0.008  -0.004   0.026   0.006  -0.005  -0.005  -0.009  -0.016   0.002
  0.023   0.056   0.033  -0.022  -0.011  -0.008  -0.021  -0.013   0.010   0.006  -0.119   0.043   0.012   0.032  -0.012  -0.001
  0.008   0.016   0.009  -0.002   0.004  -0.006  -0.009  -0.002  -0.000  -0.005   0.043  -0.006  -0.002  -0.003   0.004   0.001
 -0.012   0.013   0.023   0.038  -0.001  -0.005   0.005  -0.011  -0.012  -0.005   0.012  -0.002  -0.009   0.003   0.002   0.002
  0.033   0.053   0.027  -0.021   0.013  -0.010  -0.017  -0.002   0.005  -0.009   0.032  -0.003   0.003  -0.002   0.000  -0.000
  0.000   0.035   0.014   0.006   0.011   0.006  -0.010   0.002   0.009  -0.016  -0.012   0.004   0.002   0.000  -0.007  -0.000
 -0.005   0.008  -0.000   0.002  -0.003   0.003  -0.005   0.001  -0.001   0.002  -0.001   0.001   0.002  -0.000  -0.000  -0.000
  0.004   0.008   0.008  -0.005   0.000  -0.002  -0.003  -0.005   0.003  -0.000  -0.003   0.001  -0.000   0.002  -0.000   0.000
  0.002   0.002   0.004   0.007  -0.007  -0.001  -0.000  -0.002  -0.004   0.004   0.002  -0.001   0.000  -0.000   0.001   0.000


------------------------ aborting loop because EDIFF is reached ----------------------------------------


    CHARGE:  cpu time    0.5199: real time    0.5205
    FORLOC:  cpu time    0.0596: real time    0.0619
    FORNL :  cpu time    2.4972: real time    2.4991
    FORCOR:  cpu time    2.0740: real time    2.0785
    FORHAR:  cpu time    0.2698: real time    0.2700
    MIXING:  cpu time    0.0547: real time    0.0548
    OFIELD:  cpu time    0.0000: real time    0.0000

 VOLUME and BASIS-vectors are now :
 -----------------------------------------------------------------------------
  energy-cutoff  :      400.00
  volume of cell :    10997.19
      direct lattice vectors                 reciprocal lattice vectors
    22.048499590  0.000000000  0.000000000     0.045354560  0.000000000  0.000000000
     0.000000000 21.755105261  0.000000000     0.000000000  0.045966222  0.000000000
     0.000000000  0.000000000 22.926691487     0.000000000  0.000000000  0.043617283

  length of vectors
    22.048499590 21.755105261 22.926691487     0.045354560  0.045966222  0.043617283


 FORCES acting on ions
    electron-ion (+dipol)            ewald-force                    non-local-force                 convergence-correction
 -----------------------------------------------------------------------------------------------
   0.627E+03 -.364E+03 -.811E+03   -.623E+03 0.361E+03 0.807E+03   -.389E+01 0.242E+01 0.390E+01   -.209E+00 0.348E+00 -.314E+00
   -.593E+01 -.108E+04 -.244E+03   0.507E+01 0.107E+04 0.242E+03   0.987E+00 0.792E+01 0.227E+01   -.160E+00 -.438E-01 -.344E-01
   0.989E+03 -.259E+03 0.399E+03   -.984E+03 0.258E+03 -.397E+03   -.469E+01 0.146E+01 -.231E+01   -.645E-01 0.206E+00 0.567E-01
   -.674E+03 -.989E+01 -.467E+03   0.674E+03 0.889E+01 0.467E+03   -.326E+00 0.691E+00 0.322E+00   -.153E+00 0.320E+00 -.210E+00
   -.233E+03 0.448E+03 -.926E+03   0.230E+03 -.444E+03 0.919E+03   0.377E+01 -.415E+01 0.733E+01   -.137E+00 0.185E+00 -.952E-01
   -.215E+03 -.785E+03 0.588E+03   0.215E+03 0.781E+03 -.586E+03   0.690E+00 0.332E+01 -.219E+01   -.229E+00 0.130E+00 0.149E+00
   -.103E+04 0.269E+03 0.646E+02   0.102E+04 -.267E+03 -.661E+02   0.788E+01 -.248E+01 0.150E+01   0.406E-01 0.875E-01 -.176E-02
   0.577E+03 0.900E+03 -.172E+03   -.574E+03 -.895E+03 0.171E+03   -.309E+01 -.521E+01 0.118E+01   -.210E+00 0.235E+00 -.233E+00
   0.234E+03 0.789E+03 0.569E+03   -.234E+03 -.785E+03 -.567E+03   -.197E+00 -.359E+01 -.220E+01   -.118E+00 0.164E+00 0.454E-01
   -.269E+03 0.901E+02 0.998E+03   0.268E+03 -.896E+02 -.990E+03   0.923E+00 -.518E+00 -.867E+01   -.383E-01 0.541E-01 0.517E-01
 -----------------------------------------------------------------------------------------------
   -.761E+00 -.158E+01 -.541E+00   0.568E-13 0.199E-12 -.341E-12   0.207E+01 -.137E+00 0.113E+01   -.128E+01 0.168E+01 -.586E+00
 
 
 POSITION                                       TOTAL-FORCE (eV/Angst)
 -----------------------------------------------------------------------------------
      9.71471     11.37330     13.43063         0.032756     -0.006233      0.005291
     10.74490     12.97989     12.06685        -0.036081     -0.000721     -0.037224
      9.44883     11.30387     11.06786         0.003752      0.006846      0.003095
     11.65635     10.79567     12.23573        -0.009822      0.015310     -0.013223
     11.05331      9.70052     14.18334         0.036894     -0.026327      0.012272
     11.53713     11.93677     10.15510         0.007241      0.007342      0.018437
     13.14966     10.27625     10.51815        -0.016793     -0.020406      0.023413
      9.87498      9.28315     12.24463        -0.007664      0.007811     -0.004984
     10.90058      9.63266     10.18463        -0.026187      0.010145     -0.006773
     12.18087     10.48784      8.47785         0.015902      0.006234     -0.000304
 -----------------------------------------------------------------------------------
    total drift:                                0.027148     -0.032884      0.005591


--------------------------------------------------------------------------------------------------------



  FREE ENERGIE OF THE ION-ELECTRON SYSTEM (eV)
  ---------------------------------------------------
  free  energy   TOTEN  =       -36.12020160 eV

  energy  without entropy=      -36.08217240  energy(sigma->0) =      -36.10752520
 
 d Force =-0.7397501E-04[-0.811E-03, 0.663E-03]  d Energy = 0.8593349E-03-0.933E-03
 d Force = 0.6123940E+01[ 0.610E+01, 0.615E+01]  d Ewald  = 0.6123927E+01 0.132E-04


--------------------------------------------------------------------------------------------------------


    POTLOK:  cpu time    2.1553: real time    2.1642


--------------------------------------------------------------------------------------------------------




--------------------------------------------------------------------------------------------------------


  
 reached required accuracy - stopping structural energy minimisation
     LOOP+:  cpu time   67.6431: real time   67.7994
    4ORBIT:  cpu time    0.0000: real time    0.0000

 total amount of memory used by VASP MPI-rank0   136074. kBytes
=======================================================================

   base      :      30000. kBytes
   nonl-proj :       3796. kBytes
   fftplans  :      26334. kBytes
   grid      :      62705. kBytes
   one-center:         31. kBytes
   wavefun   :      13208. kBytes
 
  
  
 General timing and accounting informations for this job:
 ========================================================
  
                  Total CPU time used (sec):     1961.495
                            User time (sec):     1945.349
                          System time (sec):       16.147
                         Elapsed time (sec):     1969.019
  
                   Maximum memory used (kb):      291304.
                   Average memory used (kb):           0.
  
                          Minor page faults:      4182423
                          Major page faults:        72750
                 Voluntary context switches:         4653
