unknown system                          
            1
    22.048500    0.000000    0.000000
     0.000000   21.755105    0.000000
     0.000000    0.000000   22.926691
   Ni
    10
Direct configuration=     1
   0.43537635  0.52355018  0.58803541
   0.48899757  0.59865616  0.52981883
   0.42862530  0.51941028  0.48247809
   0.52889097  0.49552295  0.53332357
   0.50123981  0.44520566  0.62260172
   0.52436586  0.55173508  0.43952805
   0.60138602  0.47396276  0.45582490
   0.44289113  0.42423524  0.53690496
   0.49653250  0.44065687  0.44460040
   0.55254796  0.48084031  0.36388770
Direct configuration=     2
   0.43707988  0.52260344  0.58707226
   0.48865572  0.59672511  0.52907767
   0.43018611  0.51924543  0.48322483
   0.52763088  0.49550047  0.53305651
   0.50028744  0.44629243  0.62075847
   0.52426004  0.54976307  0.44058381
   0.59906414  0.47454793  0.45538555
   0.44433444  0.42586606  0.53674928
   0.49698984  0.44219529  0.44493133
   0.55236497  0.48103627  0.36616392
Direct configuration=     3
   0.43793674  0.52212725  0.58658782
   0.48848378  0.59575381  0.52870488
   0.43097118  0.51916251  0.48360043
   0.52699707  0.49548916  0.53292218
   0.49980841  0.44683906  0.61983133
   0.52420681  0.54877117  0.44111484
   0.59789627  0.47484227  0.45516456
   0.44506041  0.42668635  0.53667098
   0.49721988  0.44296910  0.44509778
   0.55227292  0.48113483  0.36730882
Direct configuration=     4
   0.43826498  0.52230373  0.58661315
   0.48851999  0.59548264  0.52824203
   0.43078221  0.51920227  0.48344979
   0.52738314  0.49549045  0.53310518
   0.49986842  0.44700177  0.61953091
   0.52397611  0.54885119  0.44155904
   0.59777297  0.47478111  0.45579684
   0.44552793  0.42666465  0.53602657
   0.49667252  0.44275526  0.44501418
   0.55208521  0.48124243  0.36766594
Direct configuration=     5
   0.43924969  0.52283319  0.58668916
   0.48862863  0.59466913  0.52685351
   0.43021531  0.51932156  0.48299787
   0.52854135  0.49549433  0.53365417
   0.50004845  0.44748989  0.61862962
   0.52328400  0.54909122  0.44289163
   0.59740307  0.47459766  0.45769367
   0.44693049  0.42659954  0.53409335
   0.49503042  0.44211376  0.44476337
   0.55152205  0.48156523  0.36873728
Direct configuration=     6
   0.43907096  0.52273709  0.58667536
   0.48860891  0.59481679  0.52710554
   0.43031821  0.51929991  0.48307989
   0.52833113  0.49549362  0.53355452
   0.50001577  0.44740129  0.61879321
   0.52340963  0.54904765  0.44264976
   0.59747021  0.47463096  0.45734938
   0.44667591  0.42661136  0.53444424
   0.49532848  0.44223020  0.44480889
   0.55162427  0.48150664  0.36854282
Direct configuration=     7
   0.43918889  0.52316293  0.58651460
   0.48851474  0.59534325  0.52698765
   0.42946137  0.51925404  0.48275717
   0.52908333  0.49538547  0.53349028
   0.50041228  0.44701698  0.61886544
   0.52352352  0.54880043  0.44254267
   0.59700692  0.47435889  0.45795554
   0.44713743  0.42650683  0.53390825
   0.49505999  0.44220666  0.44453961
   0.55146502  0.48174001  0.36944242
Direct configuration=     8
   0.43918444  0.52314687  0.58652066
   0.48851829  0.59532340  0.52699210
   0.42949368  0.51925577  0.48276934
   0.52905497  0.49538955  0.53349270
   0.50039733  0.44703148  0.61886271
   0.52351922  0.54880975  0.44254671
   0.59702439  0.47436914  0.45793268
   0.44712002  0.42651078  0.53392846
   0.49507011  0.44220755  0.44454976
   0.55147102  0.48173121  0.36940849
Direct configuration=     9
   0.43951297  0.52313777  0.58613015
   0.48830906  0.59561365  0.52697776
   0.42915212  0.51926949  0.48275371
   0.52899746  0.49543908  0.53358806
   0.50056414  0.44676254  0.61874219
   0.52338542  0.54880488  0.44257392
   0.59695432  0.47391083  0.45821969
   0.44745025  0.42666295  0.53397535
   0.49493009  0.44235309  0.44452904
   0.55159764  0.48182122  0.36951374
Direct configuration=    10
   0.43983300  0.52312891  0.58574974
   0.48810524  0.59589639  0.52696379
   0.42881939  0.51928285  0.48273847
   0.52894144  0.49548733  0.53368096
   0.50072663  0.44650057  0.61862478
   0.52325509  0.54880014  0.44260043
   0.59688607  0.47346437  0.45849928
   0.44777194  0.42681118  0.53402104
   0.49479369  0.44249488  0.44450886
   0.55172099  0.48190889  0.36961627
Direct configuration=    11
   0.44010391  0.52301400  0.58572863
   0.48784237  0.59613420  0.52669782
   0.42881254  0.51944470  0.48273452
   0.52885278  0.49586365  0.53358324
   0.50090040  0.44623810  0.61865209
   0.52310245  0.54872906  0.44290176
   0.59665805  0.47300099  0.45861450
   0.44783854  0.42672814  0.53409857
   0.49470894  0.44268208  0.44442557
   0.55203349  0.48194059  0.36956691
Direct configuration=    12
   0.44041422  0.52288238  0.58570445
   0.48754128  0.59640659  0.52639318
   0.42880470  0.51963009  0.48272999
   0.52875123  0.49629469  0.53347132
   0.50109944  0.44593745  0.61868337
   0.52292761  0.54864765  0.44324690
   0.59639688  0.47247022  0.45874648
   0.44791483  0.42663302  0.53418738
   0.49461186  0.44289651  0.44433017
   0.55239143  0.48197690  0.36951038
Direct configuration=    13
   0.44061982  0.52273249  0.58582918
   0.48734120  0.59676784  0.52641493
   0.42841773  0.51954743  0.48275124
   0.52864441  0.49612396  0.53389564
   0.50128828  0.44596902  0.61855907
   0.52338899  0.54871151  0.44269492
   0.59644572  0.47237470  0.45870080
   0.44789806  0.42673920  0.53408618
   0.49438322  0.44268753  0.44417238
   0.55242605  0.48212184  0.36989928
Direct configuration=    14
   0.44057205  0.52276732  0.58580020
   0.48738769  0.59668390  0.52640988
   0.42850764  0.51956663  0.48274630
   0.52866923  0.49616363  0.53379705
   0.50124440  0.44596168  0.61858795
   0.52328179  0.54869668  0.44282318
   0.59643437  0.47239689  0.45871141
   0.44790195  0.42671453  0.53410969
   0.49443634  0.44273608  0.44420904
   0.55241800  0.48208817  0.36980892
Direct configuration=    15
   0.44066445  0.52282146  0.58582049
   0.48723370  0.59655603  0.52617676
   0.42861469  0.51964555  0.48275646
   0.52866728  0.49635796  0.53350744
   0.50144167  0.44578542  0.61872411
   0.52322686  0.54867437  0.44313164
   0.59633438  0.47229939  0.45887664
   0.44783018  0.42670652  0.53402286
   0.49431486  0.44284567  0.44425412
   0.55252539  0.48208314  0.36973311
Direct configuration=    16
   0.44060646  0.52278748  0.58580776
   0.48733035  0.59663629  0.52632307
   0.42854751  0.51959602  0.48275009
   0.52866851  0.49623599  0.53368920
   0.50131786  0.44589605  0.61863865
   0.52326134  0.54868837  0.44293804
   0.59639714  0.47236058  0.45877294
   0.44787523  0.42671154  0.53407736
   0.49439111  0.44277689  0.44422583
   0.55245799  0.48208629  0.36978069
