   8   8   0   0
  0.1470863E+04  0.2264185E-08  0.2429443E-08  0.2139161E-08  0.5000000E-15
   1.0000000000000000E-004
  CAR 
 unknown system                          
      2.00808734    -12.82231734  301     -5.22838625      1.00000000
    -12.822  0.0000E+00  0.0000E+00  0.0000E+00  0.0000E+00
    -12.773  0.0000E+00  0.0000E+00  0.0000E+00  0.0000E+00
    -12.723  0.0000E+00  0.0000E+00  0.0000E+00  0.0000E+00
    -12.674  0.0000E+00  0.0000E+00  0.0000E+00  0.0000E+00
    -12.625  0.0000E+00  0.0000E+00  0.0000E+00  0.0000E+00
    -12.575  0.0000E+00  0.0000E+00  0.0000E+00  0.0000E+00
    -12.526  0.0000E+00  0.0000E+00  0.0000E+00  0.0000E+00
    -12.476  0.0000E+00  0.0000E+00  0.0000E+00  0.0000E+00
    -12.427 -0.5111E-29 -0.5111E-29 -0.2526E-30 -0.2526E-30
    -12.377 -0.2408E-27 -0.2408E-27 -0.1216E-28 -0.1216E-28
    -12.328 -0.1021E-25 -0.1021E-25 -0.5171E-27 -0.5171E-27
    -12.279 -0.3829E-24 -0.3829E-24 -0.1944E-25 -0.1944E-25
    -12.229 -0.1268E-22 -0.1268E-22 -0.6463E-24 -0.6463E-24
    -12.180 -0.3710E-21 -0.3710E-21 -0.1899E-22 -0.1899E-22
    -12.130 -0.9590E-20 -0.9590E-20 -0.4931E-21 -0.4931E-21
    -12.081 -0.2189E-18 -0.2189E-18 -0.1131E-19 -0.1131E-19
    -12.031 -0.4412E-17 -0.4412E-17 -0.2294E-18 -0.2294E-18
    -11.982 -0.7625E-16 -0.7625E-16 -0.3999E-17 -0.3999E-17
    -11.932 -0.1193E-14 -0.1193E-14 -0.6298E-16 -0.6298E-16
    -11.883 -0.1647E-13 -0.1647E-13 -0.8773E-15 -0.8773E-15
    -11.834 -0.2005E-12 -0.2005E-12 -0.1079E-13 -0.1079E-13
    -11.784 -0.2150E-11 -0.2150E-11 -0.1171E-12 -0.1171E-12
    -11.735 -0.2030E-10 -0.2030E-10 -0.1121E-11 -0.1121E-11
    -11.685 -0.1686E-09 -0.1686E-09 -0.9457E-11 -0.9457E-11
    -11.636 -0.1231E-08 -0.1231E-08 -0.7032E-10 -0.7032E-10
    -11.586 -0.7890E-08 -0.7890E-08 -0.4604E-09 -0.4604E-09
    -11.537 -0.4432E-07 -0.4432E-07 -0.2652E-08 -0.2652E-08
    -11.488 -0.2178E-06 -0.2178E-06 -0.1342E-07 -0.1342E-07
    -11.438 -0.9339E-06 -0.9339E-06 -0.5959E-07 -0.5959E-07
    -11.389 -0.3481E-05 -0.3481E-05 -0.2317E-06 -0.2317E-06
    -11.339 -0.1122E-04 -0.1122E-04 -0.7862E-06 -0.7862E-06
    -11.290 -0.3101E-04 -0.3101E-04 -0.2319E-05 -0.2319E-05
    -11.240 -0.7252E-04 -0.7252E-04 -0.5904E-05 -0.5904E-05
    -11.191 -0.1400E-03 -0.1400E-03 -0.1282E-04 -0.1282E-04
    -11.142 -0.2108E-03 -0.2108E-03 -0.2325E-04 -0.2325E-04
    -11.092 -0.2067E-03 -0.2067E-03 -0.3346E-04 -0.3346E-04
    -11.043  0.1503E-04  0.1503E-04 -0.3272E-04 -0.3272E-04
    -10.993  0.6068E-03  0.6068E-03 -0.2724E-05 -0.2724E-05
    -10.944  0.1606E-02  0.1606E-02  0.7669E-04  0.7669E-04
    -10.894  0.2817E-02  0.2817E-02  0.2160E-03  0.2160E-03
    -10.845  0.3824E-02  0.3824E-02  0.4050E-03  0.4050E-03
    -10.795  0.4195E-02  0.4195E-02  0.6124E-03  0.6124E-03
    -10.746  0.3758E-02  0.3758E-02  0.7981E-03  0.7981E-03
    -10.697  0.2715E-02  0.2715E-02  0.9324E-03  0.9324E-03
    -10.647  0.1508E-02  0.1508E-02  0.1007E-02  0.1007E-02
    -10.598  0.5394E-03  0.5394E-03  0.1034E-02  0.1034E-02
    -10.548 -0.1777E-04 -0.1777E-04  0.1033E-02  0.1033E-02
    -10.499 -0.2178E-03 -0.2178E-03  0.1022E-02  0.1022E-02
    -10.449 -0.2207E-03 -0.2207E-03  0.1011E-02  0.1011E-02
    -10.400 -0.1724E-03 -0.1724E-03  0.1003E-02  0.1003E-02
    -10.351 -0.1555E-03 -0.1555E-03  0.9948E-03  0.9948E-03
    -10.301 -0.1907E-03 -0.1907E-03  0.9854E-03  0.9854E-03
    -10.252 -0.2429E-03 -0.2429E-03  0.9734E-03  0.9734E-03
    -10.202 -0.2156E-03 -0.2156E-03  0.9627E-03  0.9627E-03
    -10.153  0.3791E-04  0.3791E-04  0.9646E-03  0.9646E-03
    -10.103  0.6472E-03  0.6472E-03  0.9966E-03  0.9966E-03
    -10.054  0.1614E-02  0.1614E-02  0.1076E-02  0.1076E-02
    -10.005  0.2750E-02  0.2750E-02  0.1212E-02  0.1212E-02
     -9.955  0.3774E-02  0.3774E-02  0.1399E-02  0.1399E-02
     -9.906  0.4524E-02  0.4524E-02  0.1623E-02  0.1623E-02
     -9.856  0.5103E-02  0.5103E-02  0.1875E-02  0.1875E-02
     -9.807  0.5763E-02  0.5763E-02  0.2160E-02  0.2160E-02
     -9.757  0.6592E-02  0.6592E-02  0.2486E-02  0.2486E-02
     -9.708  0.7325E-02  0.7325E-02  0.2848E-02  0.2848E-02
     -9.658  0.7466E-02  0.7466E-02  0.3217E-02  0.3217E-02
     -9.609  0.6668E-02  0.6668E-02  0.3546E-02  0.3546E-02
     -9.560  0.5012E-02  0.5012E-02  0.3794E-02  0.3794E-02
     -9.510  0.2987E-02  0.2987E-02  0.3942E-02  0.3942E-02
     -9.461  0.1220E-02  0.1220E-02  0.4002E-02  0.4002E-02
     -9.411  0.1844E-03  0.1844E-03  0.4011E-02  0.4011E-02
     -9.362  0.6736E-04  0.6736E-04  0.4015E-02  0.4015E-02
     -9.312  0.7800E-03  0.7800E-03  0.4053E-02  0.4053E-02
     -9.263  0.2051E-02  0.2051E-02  0.4155E-02  0.4155E-02
     -9.214  0.3557E-02  0.3557E-02  0.4330E-02  0.4330E-02
     -9.164  0.5063E-02  0.5063E-02  0.4581E-02  0.4581E-02
     -9.115  0.6490E-02  0.6490E-02  0.4902E-02  0.4902E-02
     -9.065  0.7832E-02  0.7832E-02  0.5289E-02  0.5289E-02
     -9.016  0.8984E-02  0.8984E-02  0.5733E-02  0.5733E-02
     -8.966  0.9685E-02  0.9685E-02  0.6212E-02  0.6212E-02
     -8.917  0.9662E-02  0.9662E-02  0.6689E-02  0.6689E-02
     -8.868  0.8875E-02  0.8875E-02  0.7128E-02  0.7128E-02
     -8.818  0.7630E-02  0.7630E-02  0.7505E-02  0.7505E-02
     -8.769  0.6457E-02  0.6457E-02  0.7824E-02  0.7824E-02
     -8.719  0.5820E-02  0.5820E-02  0.8112E-02  0.8112E-02
     -8.670  0.5860E-02  0.5860E-02  0.8402E-02  0.8402E-02
     -8.620  0.6345E-02  0.6345E-02  0.8715E-02  0.8715E-02
     -8.571  0.6892E-02  0.6892E-02  0.9056E-02  0.9056E-02
     -8.521  0.7293E-02  0.7293E-02  0.9417E-02  0.9417E-02
     -8.472  0.7686E-02  0.7686E-02  0.9797E-02  0.9797E-02
     -8.423  0.8403E-02  0.8403E-02  0.1021E-01  0.1021E-01
     -8.373  0.9628E-02  0.9628E-02  0.1069E-01  0.1069E-01
     -8.324  0.1115E-01  0.1115E-01  0.1124E-01  0.1124E-01
     -8.274  0.1247E-01  0.1247E-01  0.1186E-01  0.1186E-01
     -8.225  0.1311E-01  0.1311E-01  0.1250E-01  0.1250E-01
     -8.175  0.1294E-01  0.1294E-01  0.1314E-01  0.1314E-01
     -8.126  0.1218E-01  0.1218E-01  0.1375E-01  0.1375E-01
     -8.077  0.1112E-01  0.1112E-01  0.1430E-01  0.1430E-01
     -8.027  0.9948E-02  0.9948E-02  0.1479E-01  0.1479E-01
     -7.978  0.8746E-02  0.8746E-02  0.1522E-01  0.1522E-01
     -7.928  0.7704E-02  0.7704E-02  0.1560E-01  0.1560E-01
     -7.879  0.7115E-02  0.7115E-02  0.1595E-01  0.1595E-01
     -7.829  0.7133E-02  0.7133E-02  0.1630E-01  0.1630E-01
     -7.780  0.7539E-02  0.7539E-02  0.1668E-01  0.1668E-01
     -7.731  0.7875E-02  0.7875E-02  0.1707E-01  0.1707E-01
     -7.681  0.7892E-02  0.7892E-02  0.1746E-01  0.1746E-01
     -7.632  0.7853E-02  0.7853E-02  0.1784E-01  0.1784E-01
     -7.582  0.8276E-02  0.8276E-02  0.1825E-01  0.1825E-01
     -7.533  0.9361E-02  0.9361E-02  0.1872E-01  0.1872E-01
     -7.483  0.1071E-01  0.1071E-01  0.1925E-01  0.1925E-01
     -7.434  0.1167E-01  0.1167E-01  0.1982E-01  0.1982E-01
     -7.385  0.1193E-01  0.1193E-01  0.2041E-01  0.2041E-01
     -7.335  0.1178E-01  0.1178E-01  0.2099E-01  0.2099E-01
     -7.286  0.1180E-01  0.1180E-01  0.2158E-01  0.2158E-01
     -7.236  0.1232E-01  0.1232E-01  0.2219E-01  0.2219E-01
     -7.187  0.1310E-01  0.1310E-01  0.2283E-01  0.2283E-01
     -7.137  0.1353E-01  0.1353E-01  0.2350E-01  0.2350E-01
     -7.088  0.1304E-01  0.1304E-01  0.2415E-01  0.2415E-01
     -7.038  0.1155E-01  0.1155E-01  0.2472E-01  0.2472E-01
     -6.989  0.9670E-02  0.9670E-02  0.2520E-01  0.2520E-01
     -6.940  0.8572E-02  0.8572E-02  0.2562E-01  0.2562E-01
     -6.890  0.9419E-02  0.9419E-02  0.2609E-01  0.2609E-01
     -6.841  0.1262E-01  0.1262E-01  0.2671E-01  0.2671E-01
     -6.791  0.1742E-01  0.1742E-01  0.2757E-01  0.2757E-01
     -6.742  0.2216E-01  0.2216E-01  0.2867E-01  0.2867E-01
     -6.692  0.2525E-01  0.2525E-01  0.2992E-01  0.2992E-01
     -6.643  0.2598E-01  0.2598E-01  0.3120E-01  0.3120E-01
     -6.594  0.2478E-01  0.2478E-01  0.3242E-01  0.3242E-01
     -6.544  0.2266E-01  0.2266E-01  0.3354E-01  0.3354E-01
     -6.495  0.2045E-01  0.2045E-01  0.3456E-01  0.3456E-01
     -6.445  0.1835E-01  0.1835E-01  0.3546E-01  0.3546E-01
     -6.396  0.1613E-01  0.1613E-01  0.3626E-01  0.3626E-01
     -6.346  0.1357E-01  0.1357E-01  0.3693E-01  0.3693E-01
     -6.297  0.1083E-01  0.1083E-01  0.3747E-01  0.3747E-01
     -6.248  0.8506E-02  0.8506E-02  0.3789E-01  0.3789E-01
     -6.198  0.7346E-02  0.7346E-02  0.3825E-01  0.3825E-01
     -6.149  0.7784E-02  0.7784E-02  0.3863E-01  0.3863E-01
     -6.099  0.9645E-02  0.9645E-02  0.3911E-01  0.3911E-01
     -6.050  0.1216E-01  0.1216E-01  0.3971E-01  0.3971E-01
     -6.000  0.1424E-01  0.1424E-01  0.4042E-01  0.4042E-01
     -5.951  0.1496E-01  0.1496E-01  0.4116E-01  0.4116E-01
     -5.901  0.1387E-01  0.1387E-01  0.4184E-01  0.4184E-01
     -5.852  0.1119E-01  0.1119E-01  0.4239E-01  0.4239E-01
     -5.803  0.7663E-02  0.7663E-02  0.4277E-01  0.4277E-01
     -5.753  0.4201E-02  0.4201E-02  0.4298E-01  0.4298E-01
     -5.704  0.1532E-02  0.1532E-02  0.4306E-01  0.4306E-01
     -5.654  0.1174E-04  0.1174E-04  0.4306E-01  0.4306E-01
     -5.605 -0.3462E-03 -0.3462E-03  0.4304E-01  0.4304E-01
     -5.555  0.2573E-03  0.2573E-03  0.4305E-01  0.4305E-01
     -5.506  0.1483E-02  0.1483E-02  0.4313E-01  0.4313E-01
     -5.457  0.2863E-02  0.2863E-02  0.4327E-01  0.4327E-01
     -5.407  0.3872E-02  0.3872E-02  0.4346E-01  0.4346E-01
     -5.358  0.4113E-02  0.4113E-02  0.4366E-01  0.4366E-01
     -5.308  0.3525E-02  0.3525E-02  0.4384E-01  0.4384E-01
     -5.259  0.2409E-02  0.2409E-02  0.4396E-01  0.4396E-01
     -5.209  0.1234E-02  0.1234E-02  0.4402E-01  0.4402E-01
     -5.160  0.3623E-03  0.3623E-03  0.4404E-01  0.4404E-01
     -5.111 -0.9324E-04 -0.9324E-04  0.4403E-01  0.4403E-01
     -5.061 -0.2241E-03 -0.2241E-03  0.4402E-01  0.4402E-01
     -5.012 -0.1903E-03 -0.1903E-03  0.4401E-01  0.4401E-01
     -4.962 -0.1152E-03 -0.1152E-03  0.4400E-01  0.4400E-01
     -4.913 -0.5576E-04 -0.5576E-04  0.4400E-01  0.4400E-01
     -4.863 -0.2251E-04 -0.2251E-04  0.4400E-01  0.4400E-01
     -4.814 -0.7729E-05 -0.7729E-05  0.4400E-01  0.4400E-01
     -4.764 -0.2284E-05 -0.2284E-05  0.4400E-01  0.4400E-01
     -4.715 -0.5880E-06 -0.5880E-06  0.4400E-01  0.4400E-01
     -4.666 -0.1514E-06 -0.1514E-06  0.4400E-01  0.4400E-01
     -4.616 -0.1358E-06 -0.1358E-06  0.4400E-01  0.4400E-01
     -4.567 -0.5072E-06 -0.5072E-06  0.4400E-01  0.4400E-01
     -4.517 -0.1995E-05 -0.1995E-05  0.4400E-01  0.4400E-01
     -4.468 -0.6860E-05 -0.6860E-05  0.4400E-01  0.4400E-01
     -4.418 -0.2033E-04 -0.2033E-04  0.4400E-01  0.4400E-01
     -4.369 -0.5141E-04 -0.5141E-04  0.4400E-01  0.4400E-01
     -4.320 -0.1090E-03 -0.1090E-03  0.4399E-01  0.4399E-01
     -4.270 -0.1873E-03 -0.1873E-03  0.4398E-01  0.4398E-01
     -4.221 -0.2395E-03 -0.2395E-03  0.4397E-01  0.4397E-01
     -4.171 -0.1572E-03 -0.1572E-03  0.4396E-01  0.4396E-01
     -4.122  0.2084E-03  0.2084E-03  0.4397E-01  0.4397E-01
     -4.072  0.9578E-03  0.9578E-03  0.4402E-01  0.4402E-01
     -4.023  0.2029E-02  0.2029E-02  0.4412E-01  0.4412E-01
     -3.974  0.3168E-02  0.3168E-02  0.4428E-01  0.4428E-01
     -3.924  0.4065E-02  0.4065E-02  0.4448E-01  0.4448E-01
     -3.875  0.4579E-02  0.4579E-02  0.4470E-01  0.4470E-01
     -3.825  0.4843E-02  0.4843E-02  0.4494E-01  0.4494E-01
     -3.776  0.5125E-02  0.5125E-02  0.4520E-01  0.4520E-01
     -3.726  0.5572E-02  0.5572E-02  0.4547E-01  0.4547E-01
     -3.677  0.6058E-02  0.6058E-02  0.4577E-01  0.4577E-01
     -3.627  0.6285E-02  0.6285E-02  0.4608E-01  0.4608E-01
     -3.578  0.6020E-02  0.6020E-02  0.4638E-01  0.4638E-01
     -3.529  0.5300E-02  0.5300E-02  0.4664E-01  0.4664E-01
     -3.479  0.4450E-02  0.4450E-02  0.4686E-01  0.4686E-01
     -3.430  0.3879E-02  0.3879E-02  0.4705E-01  0.4705E-01
     -3.380  0.3779E-02  0.3779E-02  0.4724E-01  0.4724E-01
     -3.331  0.3963E-02  0.3963E-02  0.4744E-01  0.4744E-01
     -3.281  0.3994E-02  0.3994E-02  0.4763E-01  0.4763E-01
     -3.232  0.3532E-02  0.3532E-02  0.4781E-01  0.4781E-01
     -3.183  0.2584E-02  0.2584E-02  0.4794E-01  0.4794E-01
     -3.133  0.1464E-02  0.1464E-02  0.4801E-01  0.4801E-01
     -3.084  0.5355E-03  0.5355E-03  0.4803E-01  0.4803E-01
     -3.034 -0.1435E-04 -0.1435E-04  0.4803E-01  0.4803E-01
     -2.985 -0.2161E-03 -0.2161E-03  0.4802E-01  0.4802E-01
     -2.935 -0.2126E-03 -0.2126E-03  0.4801E-01  0.4801E-01
     -2.886 -0.1396E-03 -0.1396E-03  0.4801E-01  0.4801E-01
     -2.837 -0.7193E-04 -0.7193E-04  0.4800E-01  0.4800E-01
     -2.787 -0.3065E-04 -0.3065E-04  0.4800E-01  0.4800E-01
     -2.738 -0.1106E-04 -0.1106E-04  0.4800E-01  0.4800E-01
     -2.688 -0.3424E-05 -0.3424E-05  0.4800E-01  0.4800E-01
     -2.639 -0.9187E-06 -0.9187E-06  0.4800E-01  0.4800E-01
     -2.589 -0.2249E-06 -0.2249E-06  0.4800E-01  0.4800E-01
     -2.540 -0.1061E-06 -0.1061E-06  0.4800E-01  0.4800E-01
     -2.490 -0.3073E-06 -0.3073E-06  0.4800E-01  0.4800E-01
     -2.441 -0.1249E-05 -0.1249E-05  0.4800E-01  0.4800E-01
     -2.392 -0.4512E-05 -0.4512E-05  0.4800E-01  0.4800E-01
     -2.342 -0.1409E-04 -0.1409E-04  0.4800E-01  0.4800E-01
     -2.293 -0.3764E-04 -0.3764E-04  0.4800E-01  0.4800E-01
     -2.243 -0.8479E-04 -0.8479E-04  0.4799E-01  0.4799E-01
     -2.194 -0.1564E-03 -0.1564E-03  0.4799E-01  0.4799E-01
     -2.144 -0.2206E-03 -0.2206E-03  0.4797E-01  0.4797E-01
     -2.095 -0.1857E-03 -0.1857E-03  0.4797E-01  0.4797E-01
     -2.046  0.9811E-04  0.9811E-04  0.4797E-01  0.4797E-01
     -1.996  0.7656E-03  0.7656E-03  0.4801E-01  0.4801E-01
     -1.947  0.1803E-02  0.1803E-02  0.4810E-01  0.4810E-01
     -1.897  0.2952E-02  0.2952E-02  0.4824E-01  0.4824E-01
     -1.848  0.3775E-02  0.3775E-02  0.4843E-01  0.4843E-01
     -1.798  0.3922E-02  0.3922E-02  0.4862E-01  0.4862E-01
     -1.749  0.3403E-02  0.3403E-02  0.4879E-01  0.4879E-01
     -1.700  0.2633E-02  0.2633E-02  0.4892E-01  0.4892E-01
     -1.650  0.2166E-02  0.2166E-02  0.4903E-01  0.4903E-01
     -1.601  0.2315E-02  0.2315E-02  0.4914E-01  0.4914E-01
     -1.551  0.2998E-02  0.2998E-02  0.4929E-01  0.4929E-01
     -1.502  0.3922E-02  0.3922E-02  0.4949E-01  0.4949E-01
     -1.452  0.4896E-02  0.4896E-02  0.4973E-01  0.4973E-01
     -1.403  0.5941E-02  0.5941E-02  0.5002E-01  0.5002E-01
     -1.353  0.7065E-02  0.7065E-02  0.5037E-01  0.5037E-01
     -1.304  0.7991E-02  0.7991E-02  0.5077E-01  0.5077E-01
     -1.255  0.8192E-02  0.8192E-02  0.5117E-01  0.5117E-01
     -1.205  0.7278E-02  0.7278E-02  0.5153E-01  0.5153E-01
     -1.156  0.5378E-02  0.5378E-02  0.5180E-01  0.5180E-01
     -1.106  0.3149E-02  0.3149E-02  0.5195E-01  0.5195E-01
     -1.057  0.1413E-02  0.1413E-02  0.5202E-01  0.5202E-01
     -1.007  0.7254E-03  0.7254E-03  0.5206E-01  0.5206E-01
     -0.958  0.1141E-02  0.1141E-02  0.5211E-01  0.5211E-01
     -0.909  0.2240E-02  0.2240E-02  0.5222E-01  0.5222E-01
     -0.859  0.3344E-02  0.3344E-02  0.5239E-01  0.5239E-01
     -0.810  0.3842E-02  0.3842E-02  0.5258E-01  0.5258E-01
     -0.760  0.3496E-02  0.3496E-02  0.5275E-01  0.5275E-01
     -0.711  0.2569E-02  0.2569E-02  0.5288E-01  0.5288E-01
     -0.661  0.1664E-02  0.1664E-02  0.5296E-01  0.5296E-01
     -0.612  0.1368E-02  0.1368E-02  0.5303E-01  0.5303E-01
     -0.563  0.1935E-02  0.1935E-02  0.5313E-01  0.5313E-01
     -0.513  0.3183E-02  0.3183E-02  0.5328E-01  0.5328E-01
     -0.464  0.4639E-02  0.4639E-02  0.5351E-01  0.5351E-01
     -0.414  0.5786E-02  0.5786E-02  0.5380E-01  0.5380E-01
     -0.365  0.6264E-02  0.6264E-02  0.5411E-01  0.5411E-01
     -0.315  0.5956E-02  0.5956E-02  0.5440E-01  0.5440E-01
     -0.266  0.5005E-02  0.5005E-02  0.5465E-01  0.5465E-01
     -0.216  0.3793E-02  0.3793E-02  0.5484E-01  0.5484E-01
     -0.167  0.2835E-02  0.2835E-02  0.5498E-01  0.5498E-01
     -0.118  0.2531E-02  0.2531E-02  0.5510E-01  0.5510E-01
     -0.068  0.2908E-02  0.2908E-02  0.5525E-01  0.5525E-01
     -0.019  0.3564E-02  0.3564E-02  0.5542E-01  0.5542E-01
      0.031  0.3923E-02  0.3923E-02  0.5562E-01  0.5562E-01
      0.080  0.3614E-02  0.3613E-02  0.5579E-01  0.5579E-01
      0.130  0.2695E-02  0.2695E-02  0.5593E-01  0.5593E-01
      0.179  0.1548E-02  0.1548E-02  0.5600E-01  0.5600E-01
      0.228  0.5835E-03  0.5835E-03  0.5603E-01  0.5603E-01
      0.278  0.7090E-05  0.7070E-05  0.5603E-01  0.5603E-01
      0.327 -0.2090E-03 -0.2090E-03  0.5602E-01  0.5602E-01
      0.377 -0.2114E-03 -0.2114E-03  0.5601E-01  0.5601E-01
      0.426 -0.1401E-03 -0.1401E-03  0.5601E-01  0.5601E-01
      0.476 -0.7255E-04 -0.7254E-04  0.5600E-01  0.5600E-01
      0.525 -0.3101E-04 -0.3101E-04  0.5600E-01  0.5600E-01
      0.574 -0.1122E-04 -0.1122E-04  0.5600E-01  0.5600E-01
      0.624 -0.3481E-05 -0.3481E-05  0.5600E-01  0.5600E-01
      0.673 -0.9340E-06 -0.9339E-06  0.5600E-01  0.5600E-01
      0.723 -0.2178E-06 -0.2178E-06  0.5600E-01  0.5600E-01
      0.772 -0.4433E-07 -0.4432E-07  0.5600E-01  0.5600E-01
      0.822 -0.7890E-08 -0.7890E-08  0.5600E-01  0.5600E-01
      0.871 -0.1231E-08 -0.1231E-08  0.5600E-01  0.5600E-01
      0.921 -0.1686E-09 -0.1686E-09  0.5600E-01  0.5600E-01
      0.970 -0.2030E-10 -0.2030E-10  0.5600E-01  0.5600E-01
      1.019 -0.2150E-11 -0.2150E-11  0.5600E-01  0.5600E-01
      1.069 -0.2005E-12 -0.2005E-12  0.5600E-01  0.5600E-01
      1.118 -0.1647E-13 -0.1647E-13  0.5600E-01  0.5600E-01
      1.168 -0.1195E-14 -0.1195E-14  0.5600E-01  0.5600E-01
      1.217 -0.7636E-16 -0.7636E-16  0.5600E-01  0.5600E-01
      1.267 -0.4492E-17 -0.4492E-17  0.5600E-01  0.5600E-01
      1.316  0.0000E+00  0.0000E+00  0.5600E-01  0.5600E-01
      1.365  0.0000E+00  0.0000E+00  0.5600E-01  0.5600E-01
      1.415  0.0000E+00  0.0000E+00  0.5600E-01  0.5600E-01
      1.464  0.0000E+00  0.0000E+00  0.5600E-01  0.5600E-01
      1.514  0.0000E+00  0.0000E+00  0.5600E-01  0.5600E-01
      1.563  0.0000E+00  0.0000E+00  0.5600E-01  0.5600E-01
      1.613  0.0000E+00  0.0000E+00  0.5600E-01  0.5600E-01
      1.662  0.0000E+00  0.0000E+00  0.5600E-01  0.5600E-01
      1.711  0.0000E+00  0.0000E+00  0.5600E-01  0.5600E-01
      1.761  0.0000E+00  0.0000E+00  0.5600E-01  0.5600E-01
      1.810  0.0000E+00  0.0000E+00  0.5600E-01  0.5600E-01
      1.860  0.0000E+00  0.0000E+00  0.5600E-01  0.5600E-01
      1.909  0.0000E+00  0.0000E+00  0.5600E-01  0.5600E-01
      1.959  0.0000E+00  0.0000E+00  0.5600E-01  0.5600E-01
      2.008  0.0000E+00  0.0000E+00  0.5600E-01  0.5600E-01
