 vasp.6.1.2 22Jul20 (build Jan 14 2022 17:24:41) gamma-only                      
 executed on             LinuxPGI date 2022.01.26  13:36:34
 running on    8 total cores
 distrk:  each k-point on    8 cores,    1 groups
 distr:  one band on NCORE=   8 cores,    1 groups


--------------------------------------------------------------------------------------------------------


 INCAR:
 POTCAR:    PAW_PBE Au 04Oct2007                  
 -----------------------------------------------------------------------------
|                                                                             |
|           W    W    AA    RRRRR   N    N  II  N    N   GGGG   !!!           |
|           W    W   A  A   R    R  NN   N  II  NN   N  G    G  !!!           |
|           W    W  A    A  R    R  N N  N  II  N N  N  G       !!!           |
|           W WW W  AAAAAA  RRRRR   N  N N  II  N  N N  G  GGG   !            |
|           WW  WW  A    A  R   R   N   NN  II  N   NN  G    G                |
|           W    W  A    A  R    R  N    N  II  N    N   GGGG   !!!           |
|                                                                             |
|     You use a magnetic or noncollinear calculation, but did not specify     |
|     the initial magnetic moment with the MAGMOM tag. Note that a            |
|     default of 1 will be used for all atoms. This ferromagnetic setup       |
|     may break the symmetry of the crystal, in particular it may rule        |
|     out finding an antiferromagnetic solution. Thence, we recommend         |
|     setting the initial magnetic moment manually or verifying carefully     |
|     that this magnetic setup is desired.                                    |
|                                                                             |
 -----------------------------------------------------------------------------

 -----------------------------------------------------------------------------
|                                                                             |
|           W    W    AA    RRRRR   N    N  II  N    N   GGGG   !!!           |
|           W    W   A  A   R    R  NN   N  II  NN   N  G    G  !!!           |
|           W    W  A    A  R    R  N N  N  II  N N  N  G       !!!           |
|           W WW W  AAAAAA  RRRRR   N  N N  II  N  N N  G  GGG   !            |
|           WW  WW  A    A  R   R   N   NN  II  N   NN  G    G                |
|           W    W  A    A  R    R  N    N  II  N    N   GGGG   !!!           |
|                                                                             |
|     For optimal performance we recommend to set                             |
|       NCORE = 4 - approx SQRT(number of cores).                             |
|     NCORE specifies how many cores store one orbital (NPAR=cpu/NCORE).      |
|     This setting can greatly improve the performance of VASP for DFT.       |
|     The default, NCORE=1 might be grossly inefficient on modern             |
|     multi-core architectures or massively parallel machines. Do your        |
|     own testing!!!!                                                         |
|     Unfortunately you need to use the default for GW and RPA                |
|     calculations (for HF NCORE is supported but not extensively tested      |
|     yet).                                                                   |
|                                                                             |
 -----------------------------------------------------------------------------

 POTCAR:    PAW_PBE Au 04Oct2007                  
   SHA256 =  d0044ae04e2bdce24051b198fc5c053d722a5bc6fe3c3b100514a13fc5d2db88 Au/POTCAR             
   COPYR  = (c) Copyright 04Oct2007 Georg Kresse                                                    
   COPYR  = This file is part of the software VASP. Any use, copying, and all other rights are regul
   COPYR  = If you do not have a valid VASP license, you may not use, copy or distribute this file. 
   VRHFIN =Au: s1d10                                                                                
   LEXCH  = PE                                                                                      
   EATOM  =   926.0867 eV,   68.0654 Ry                                                             
                                                                                                    
   TITEL  = PAW_PBE Au 04Oct2007                                                                    
   LULTRA =        F    use ultrasoft PP ?                                                          
   IUNSCR =        1    unscreen: 0-lin 1-nonlin 2-no                                               
   RPACOR =    2.330    partial core radius                                                         
   POMASS =  196.966; ZVAL   =   11.000    mass and valenz                                          
   RCORE  =    2.500    outmost cutoff radius                                                       
   RWIGS  =    2.840; RWIGS  =    1.503    wigner-seitz radius (au A)                               
   ENMAX  =  229.943; ENMIN  =  172.457 eV                                                          
   ICORE  =        3    local potential                                                             
   LCOR   =        T    correct aug charges                                                         
   LPAW   =        T    paw PP                                                                      
   EAUG   =  356.670                                                                                
   DEXC   =    0.000                                                                                
   RMAX   =    2.562    core radius for proj-oper                                                   
   RAUG   =    1.300    factor for augmentation sphere                                              
   RDEP   =    2.598    radius for radial grids                                                     
   RDEPT  =    2.193    core radius for aug-charge                                                  
                                                                                                    
   Atomic configuration                                                                             
   16 entries                                                                                       
     n  l   j            E        occ.                                                              
     1  0  0.50    -80748.5001   2.0000                                                             
     2  0  0.50    -14244.7466   2.0000                                                             
     2  1  1.50    -12310.9591   6.0000                                                             
     3  0  0.50     -3362.1768   2.0000                                                             
     3  1  1.50     -2801.5463   6.0000                                                             
     3  2  2.50     -2203.8206  10.0000                                                             
     4  0  0.50      -729.8168   2.0000                                                             
     4  1  1.50      -546.0527   6.0000                                                             
     4  2  2.50      -325.7302  10.0000                                                             
     4  3  3.50       -81.1472  14.0000                                                             
     5  0  0.50      -108.3201   2.0000                                                             
     5  1  1.50       -59.7479   6.0000                                                             
     5  2  2.50        -6.8783  10.0000                                                             
     6  0  0.50        -5.7602   1.0000                                                             
     6  1  1.50        -6.8029   0.0000                                                             
     5  3  2.50        -1.3606   0.0000                                                             
   Description                                                                                      
     l       E           TYP  RCUT    TYP  RCUT                                                     
     2     -6.8782861     23  2.500                                                                 
     2     -8.2388687     23  2.500                                                                 
     0     -5.7601759     23  2.500                                                                 
     0     -0.8493231     23  2.500                                                                 
     1     -2.7211652     23  2.500                                                                 
     1     27.2116520     23  2.500                                                                 
     3     -1.3605826     23  2.500                                                                 
  local pseudopotential read in
  partial core-charges read in
  partial kinetic energy density read in
  atomic valenz-charges read in
  non local Contribution for L=            2  read in
    real space projection operators read in
  non local Contribution for L=            2  read in
    real space projection operators read in
  non local Contribution for L=            0  read in
    real space projection operators read in
  non local Contribution for L=            0  read in
    real space projection operators read in
  non local Contribution for L=            1  read in
    real space projection operators read in
  non local Contribution for L=            1  read in
    real space projection operators read in
    PAW grid and wavefunctions read in
 
   number of l-projection  operators is LMAX  =            6
   number of lm-projection operators is LMMAX =           18
 
  PAW_PBE Au 04Oct2007                  :
 energy of atom  1       EATOM= -926.0867
 kinetic energy error for atom=    0.0062 (will be added to EATOM!!)
 
 
 POSCAR: Au
  positions in cartesian coordinates
  No initial velocities read in
 exchange correlation table for  LEXCH =        8
   RHO(1)=    0.500       N(1)  =     2000
   RHO(2)=  100.500       N(2)  =     4000
 


--------------------------------------------------------------------------------------------------------


 ion  position               nearest neighbor table
   1  0.577  0.625  0.425-   3 2.49   2 2.55
   2  0.488  0.571  0.464-   1 2.55   6 2.61   3 2.69   8 2.72   4 2.75
   3  0.599  0.552  0.503-   1 2.49   7 2.64   8 2.69   2 2.69
   4  0.466  0.460  0.475-   5 2.55   6 2.61   7 2.69   8 2.72   2 2.75
   5  0.527  0.375  0.448-   7 2.49   4 2.55
   6  0.402  0.533  0.534-   8 2.59   4 2.61   2 2.61
   7  0.578  0.445  0.513-   5 2.49   3 2.64   8 2.69   4 2.69
   8  0.508  0.517  0.574-   6 2.59   7 2.69   3 2.69   2 2.72   4 2.72
 

IMPORTANT INFORMATION: All symmetrisations will be switched off!
NOSYMM: (Re-)initialisation of all symmetry stuff for point group C_1.


----------------------------------------------------------------------------------------

                                     Primitive cell                                     

  volume of cell :   11766.9028

  direct lattice vectors                    reciprocal lattice vectors
    22.641849934  0.000000000  0.000000000     0.044166002  0.000000000  0.000000000
     0.000000000 24.294429838  0.000000000     0.000000000  0.041161699  0.000000000
     0.000000000  0.000000000 21.391613693     0.000000000  0.000000000  0.046747291

  length of vectors
    22.641849934 24.294429838 21.391613693     0.044166002  0.041161699  0.046747291

  position of ions in fractional coordinates (direct lattice)
     0.576506176  0.625279116  0.425253719
     0.488046766  0.570522807  0.464416681
     0.599252690  0.552108613  0.503435336
     0.465878356  0.459510279  0.474776715
     0.527003677  0.374811511  0.447806792
     0.402029611  0.532621275  0.533591310
     0.578060749  0.445412840  0.512986264
     0.508414343  0.517169059  0.574082414

  ion indices of the primitive-cell ions
   primitive index   ion index
                 1           1
                 2           2
                 3           3
                 4           4
                 5           5
                 6           6
                 7           7
                 8           8

----------------------------------------------------------------------------------------

 
 
 KPOINTS: KPOINTS created by Atomic Simulation Env

Automatic generation of k-mesh.
Space group operators:
 irot       det(A)        alpha          n_x          n_y          n_z        tau_x        tau_y        tau_z
    1     1.000000     0.000000     1.000000     0.000000     0.000000     0.000000     0.000000     0.000000
 
 Subroutine IBZKPT returns following result:
 ===========================================
 
 Found      1 irreducible k-points:
 
 Following reciprocal coordinates:
            Coordinates               Weight
  0.000000  0.000000  0.000000      1.000000
 
 Following cartesian coordinates:
            Coordinates               Weight
  0.000000  0.000000  0.000000      1.000000
 


--------------------------------------------------------------------------------------------------------




 Dimension of arrays:
   k-points           NKPTS =      1   k-points in BZ     NKDIM =      1   number of bands    NBANDS=     56
   number of dos      NEDOS =    301   number of ions     NIONS =      8
   non local maximal  LDIM  =      6   non local SUM 2l+1 LMDIM =     18
   total plane-waves  NPLWV = ******
   max r-space proj   IRMAX =      1   max aug-charges    IRDMAX=   7742
   dimension x,y,z NGX =   112 NGY =  120 NGZ =  108
   dimension x,y,z NGXF=   224 NGYF=  240 NGZF=  216
   support grid    NGXF=   224 NGYF=  240 NGZF=  216
   ions per type =               8
   NGX,Y,Z   is equivalent  to a cutoff of   8.22,  8.21,  8.39 a.u.
   NGXF,Y,Z  is equivalent  to a cutoff of  16.45, 16.42, 16.79 a.u.

 SYSTEM =  unknown system                          
 POSCAR =  Au                                      

 Startparameter for this run:
   NWRITE =      2    write-flag & timer
   PREC   = normal    normal or accurate (medium, high low for compatibility)
   ISTART =      0    job   : 0-new  1-cont  2-samecut
   ICHARG =      2    charge: 1-file 2-atom 10-const
   ISPIN  =      2    spin polarized calculation?
   LNONCOLLINEAR =      F non collinear calculations
   LSORBIT =      F    spin-orbit coupling
   INIWAV =      1    electr: 0-lowe 1-rand  2-diag
   LASPH  =      F    aspherical Exc in radial PAW
   METAGGA=      F    non-selfconsistent MetaGGA calc.

 Electronic Relaxation 1
   ENCUT  =  400.0 eV  29.40 Ry    5.42 a.u.  36.92 39.62 34.88*2*pi/ulx,y,z
   ENINI  =  400.0     initial cutoff
   ENAUG  =  356.7 eV  augmentation charge cutoff
   NELM   =     60;   NELMIN=  2; NELMDL=  0     # of ELM steps 
   EDIFF  = 0.1E-03   stopping-criterion for ELM
   LREAL  =      F    real-space projection
   NLSPLINE    = F    spline interpolate recip. space projectors
   LCOMPAT=      F    compatible to vasp.4.4
   GGA_COMPAT  = T    GGA compatible to vasp.4.4-vasp.4.6
   LMAXPAW     = -100 max onsite density
   LMAXMIX     =    2 max onsite mixed and CHGCAR
   VOSKOWN=      0    Vosko Wilk Nusair interpolation
   ROPT   =    0.00000
 Ionic relaxation
   EDIFFG = 0.1E-02   stopping-criterion for IOM
   NSW    =   1000    number of steps for IOM
   NBLOCK =      1;   KBLOCK =   1000    inner block; outer block 
   IBRION =      2    ionic relax: 0-MD 1-quasi-New 2-CG
   NFREE  =      1    steps in history (QN), initial steepest desc. (CG)
   ISIF   =      0    stress and relaxation
   IWAVPR =     11    prediction:  0-non 1-charg 2-wave 3-comb
   ISYM   =      0    0-nonsym 1-usesym 2-fastsym
   LCORR  =      T    Harris-Foulkes like correction to forces

   POTIM  = 0.5000    time-step for ionic-motion
   TEIN   =    0.0    initial temperature
   TEBEG  =    0.0;   TEEND  =   0.0 temperature during run
   SMASS  =  -3.00    Nose mass-parameter (am)
   estimated Nose-frequenzy (Omega)   =  0.10E-29 period in steps = 0.13E+47 mass=  -0.117E-25a.u.
   SCALEE = 1.0000    scale energy and forces
   NPACO  =    256;   APACO  = 16.0  distance and # of slots for P.C.
   PSTRESS=    0.0 pullay stress

  Mass of Ions in am
   POMASS = 196.97
  Ionic Valenz
   ZVAL   =  11.00
  Atomic Wigner-Seitz radii
   RWIGS  =  -1.00
  virtual crystal weights 
   VCA    =   1.00
   NELECT =      88.0000    total number of electrons
   NUPDOWN=      -1.0000    fix difference up-down

 DOS related values:
   EMIN   =  10.00;   EMAX   =-10.00  energy-range for DOS
   EFERMI =   0.00
   ISMEAR =     1;   SIGMA  =   0.20  broadening in eV -4-tet -1-fermi 0-gaus

 Electronic relaxation 2 (details)
   IALGO  =     38    algorithm
   LDIAG  =      T    sub-space diagonalisation (order eigenvalues)
   LSUBROT=      F    optimize rotation matrix (better conditioning)
   TURBO    =      0    0=normal 1=particle mesh
   IRESTART =      0    0=no restart 2=restart with 2 vectors
   NREBOOT  =      0    no. of reboots
   NMIN     =      0    reboot dimension
   EREF     =   0.00    reference energy to select bands
   IMIX   =      4    mixing-type and parameters
     AMIX     =   0.40;   BMIX     =  1.00
     AMIX_MAG =   1.60;   BMIX_MAG =  1.00
     AMIN     =   0.10
     WC   =   100.;   INIMIX=   1;  MIXPRE=   1;  MAXMIX= -45

 Intra band minimization:
   WEIMIN = 0.0010     energy-eigenvalue tresh-hold
   EBREAK =  0.45E-06  absolut break condition
   DEPER  =   0.30     relativ break condition  

   TIME   =   0.40     timestep for ELM

  volume/ion in A,a.u.               =    1470.86      9925.87
  Fermi-wavevector in a.u.,A,eV,Ry     =   0.320146  0.604989  1.394510  0.102494
  Thomas-Fermi vector in A             =   1.206502
 
 Write flags
   LWAVE        =      F    write WAVECAR
   LDOWNSAMPLE  =      F    k-point downsampling of WAVECAR
   LCHARG       =      F    write CHGCAR
   LVTOT        =      F    write LOCPOT, total local potential
   LVHAR        =      F    write LOCPOT, Hartree potential only
   LELF         =      F    write electronic localiz. function (ELF)
   LORBIT       =      0    0 simple, 1 ext, 2 COOP (PROOUT), +10 PAW based schemes


 Dipole corrections
   LMONO  =      F    monopole corrections only (constant potential shift)
   LDIPOL =      F    correct potential (dipole corrections)
   IDIPOL =      0    1-x, 2-y, 3-z, 4-all directions 
   EPSILON=  1.0000000 bulk dielectric constant

 Exchange correlation treatment:
   GGA     =    PE    GGA type
   LEXCH   =     8    internal setting for exchange type
   VOSKOWN=      0    Vosko Wilk Nusair interpolation
   LHFCALC =     F    Hartree Fock is set to
   LHFONE  =     F    Hartree Fock one center treatment
   AEXX    =    0.0000 exact exchange contribution

 Linear response parameters
   LEPSILON=     F    determine dielectric tensor
   LRPA    =     F    only Hartree local field effects (RPA)
   LNABLA  =     F    use nabla operator in PAW spheres
   LVEL    =     F    velocity operator in full k-point grid
   LINTERFAST=   F  fast interpolation
   KINTER  =     0    interpolate to denser k-point grid
   CSHIFT  =0.1000    complex shift for real part using Kramers Kronig
   OMEGAMAX=  -1.0    maximum frequency
   DEG_THRESHOLD= 0.2000000E-02 threshold for treating states as degnerate
   RTIME   =   -0.100 relaxation time in fs
  (WPLASMAI=    0.000 imaginary part of plasma frequency in eV, 0.658/RTIME)
   DFIELD  = 0.0000000 0.0000000 0.0000000 field for delta impulse in time
 
 Orbital magnetization related:
   ORBITALMAG=     F  switch on orbital magnetization
   LCHIMAG   =     F  perturbation theory with respect to B field
   DQ        =  0.001000  dq finite difference perturbation B field
   LLRAUG    =     F  two centre corrections for induced B field



--------------------------------------------------------------------------------------------------------


 conjugate gradient relaxation of ions
 charge density and potential will be updated during run
 spin polarized calculation
 Variant of blocked Davidson
 Davidson routine will perform the subspace rotation
 perform sub-space diagonalisation
    after iterative eigenvector-optimisation
 modified Broyden-mixing scheme, WC =      100.0
 initial mixing is a Kerker type mixing with AMIX =  0.4000 and BMIX =      1.0000
 Hartree-type preconditioning will be used
 using additional bands            12
 reciprocal scheme for non local part
 use partial core corrections
 calculate Harris-corrections to forces 
   (improved forces if not selfconsistent)
 use gradient corrections 
 use of overlap-Matrix (Vanderbilt PP)
 Methfessel and Paxton  Order N= 1 SIGMA  =   0.20


--------------------------------------------------------------------------------------------------------


  energy-cutoff  :      400.00
  volume of cell :    11766.90
      direct lattice vectors                 reciprocal lattice vectors
    22.641849934  0.000000000  0.000000000     0.044166002  0.000000000  0.000000000
     0.000000000 24.294429838  0.000000000     0.000000000  0.041161699  0.000000000
     0.000000000  0.000000000 21.391613693     0.000000000  0.000000000  0.046747291

  length of vectors
    22.641849934 24.294429838 21.391613693     0.044166002  0.041161699  0.046747291


 
 k-points in units of 2pi/SCALE and weight: KPOINTS created by Atomic Simulation Env
   0.00000000  0.00000000  0.00000000       1.000
 
 k-points in reciprocal lattice and weights: KPOINTS created by Atomic Simulation Env
   0.00000000  0.00000000  0.00000000       1.000
 
 position of ions in fractional coordinates (direct lattice) 
   0.57650618  0.62527912  0.42525372
   0.48804677  0.57052281  0.46441668
   0.59925269  0.55210861  0.50343534
   0.46587836  0.45951028  0.47477671
   0.52700368  0.37481151  0.44780679
   0.40202961  0.53262127  0.53359131
   0.57806075  0.44541284  0.51298626
   0.50841434  0.51716906  0.57408241
 
 position of ions in cartesian coordinates  (Angst):
  13.05316632 15.19079960  9.09686329
  11.05028165 13.86052630  9.93462223
  13.56818948 13.41316395 10.76929422
  10.54834782 11.16354023 10.15624007
  11.93233817  9.10583195  9.57930990
   9.10269413 12.93973018 11.41437918
  13.08836472 10.82105098 10.97360399
  11.51144125 12.56432743 12.28054924
 


--------------------------------------------------------------------------------------------------------


 use parallel FFT for orbitals z direction half grid
 k-point   1 :   0.0000 0.0000 0.0000  plane waves:  106884

 maximum and minimum number of plane-waves per node :     13365    13355

 maximum number of plane-waves:    106884
 maximum index in each direction: 
   IXMAX=   36   IYMAX=   39   IZMAX=   34
   IXMIN=  -36   IYMIN=  -39   IZMIN=    0


 parallel 3D FFT for wavefunctions:
    minimum data exchange during FFTs selected (reduces bandwidth)
 parallel 3D FFT for charge:
    minimum data exchange during FFTs selected (reduces bandwidth)


 total amount of memory used by VASP MPI-rank0   230434. kBytes
=======================================================================

   base      :      30000. kBytes
   nonl-proj :       3632. kBytes
   fftplans  :      53008. kBytes
   grid      :     119831. kBytes
   one-center:         15. kBytes
   wavefun   :      23948. kBytes
 
     INWAV:  cpu time    0.0000: real time    0.0000
 Broyden mixing: mesh for mixing (old mesh)
   NGX = 73   NGY = 79   NGZ = 69
  (NGX  =224   NGY  =240   NGZ  =216)
  gives a total of 397923 points

 initial charge density was supplied:
 charge density of overlapping atoms calculated
 number of electron      88.0000000 magnetization       8.0000000
 keeping initial charge density in first step


--------------------------------------------------------------------------------------------------------


 Maximum index for augmentation-charges           961 (set IRDMAX)


--------------------------------------------------------------------------------------------------------


 First call to EWALD:  gamma=   0.078
 Maximum number of real-space cells 3x 3x 3
 Maximum number of reciprocal cells 3x 3x 3

    FEWALD:  cpu time    0.0012: real time    0.0012


--------------------------------------- Iteration      1(   1)  ---------------------------------------


    POTLOK:  cpu time    3.7371: real time    4.8686
    SETDIJ:  cpu time    0.0252: real time    0.0252
     EDDAV:  cpu time    5.9425: real time    5.9530
       DOS:  cpu time    0.0059: real time    0.0059
    --------------------------------------------
      LOOP:  cpu time    9.7106: real time   10.8526

 eigenvalue-minimisations  :   224
 total energy-change (2. order) : 0.7500228E+03  (-0.1319434E+04)
 number of electron      88.0000000 magnetization       8.0000000
 augmentation part       88.0000000 magnetization       8.0000000

 Free energy of the ion-electron system (eV)
  ---------------------------------------------------
  alpha Z        PSCENC =         6.33530747
  Ewald energy   TEWEN  =      8008.43443968
  -Hartree energ DENC   =    -15086.78003199
  -exchange      EXHF   =         0.00000000
  -V(xc)+E(xc)   XCENC  =       118.45824009
  PAW double counting   =      6992.17180065    -6807.49900724
  entropy T*S    EENTRO =         0.01418337
  eigenvalues    EBANDS =       110.24371321
  atomic energy  EATOM  =      7408.64415014
  Solvation  Ediel_sol  =         0.00000000
  ---------------------------------------------------
  free energy    TOTEN  =       750.02279539 eV

  energy without entropy =      750.00861202  energy(sigma->0) =      750.01806760


--------------------------------------------------------------------------------------------------------




--------------------------------------- Iteration      1(   2)  ---------------------------------------


     EDDAV:  cpu time    9.8746: real time    9.8886
       DOS:  cpu time    0.0055: real time    0.0055
    --------------------------------------------
      LOOP:  cpu time    9.8801: real time    9.8941

 eigenvalue-minimisations  :   432
 total energy-change (2. order) :-0.2936935E+03  (-0.2752919E+03)
 number of electron      88.0000000 magnetization       8.0000000
 augmentation part       88.0000000 magnetization       8.0000000

 Free energy of the ion-electron system (eV)
  ---------------------------------------------------
  alpha Z        PSCENC =         6.33530747
  Ewald energy   TEWEN  =      8008.43443968
  -Hartree energ DENC   =    -15086.78003199
  -exchange      EXHF   =         0.00000000
  -V(xc)+E(xc)   XCENC  =       118.45824009
  PAW double counting   =      6992.17180065    -6807.49900724
  entropy T*S    EENTRO =        -0.09490220
  eigenvalues    EBANDS =      -183.34066829
  atomic energy  EATOM  =      7408.64415014
  Solvation  Ediel_sol  =         0.00000000
  ---------------------------------------------------
  free energy    TOTEN  =       456.32932832 eV

  energy without entropy =      456.42423052  energy(sigma->0) =      456.36096239


--------------------------------------------------------------------------------------------------------




--------------------------------------- Iteration      1(   3)  ---------------------------------------


     EDDAV:  cpu time    9.4309: real time    9.4445
       DOS:  cpu time    0.0060: real time    0.0060
    --------------------------------------------
      LOOP:  cpu time    9.4369: real time    9.4505

 eigenvalue-minimisations  :   408
 total energy-change (2. order) :-0.3217232E+03  (-0.3025551E+03)
 number of electron      88.0000000 magnetization       8.0000000
 augmentation part       88.0000000 magnetization       8.0000000

 Free energy of the ion-electron system (eV)
  ---------------------------------------------------
  alpha Z        PSCENC =         6.33530747
  Ewald energy   TEWEN  =      8008.43443968
  -Hartree energ DENC   =    -15086.78003199
  -exchange      EXHF   =         0.00000000
  -V(xc)+E(xc)   XCENC  =       118.45824009
  PAW double counting   =      6992.17180065    -6807.49900724
  entropy T*S    EENTRO =        -0.00715197
  eigenvalues    EBANDS =      -505.15164324
  atomic energy  EATOM  =      7408.64415014
  Solvation  Ediel_sol  =         0.00000000
  ---------------------------------------------------
  free energy    TOTEN  =       134.60610360 eV

  energy without entropy =      134.61325557  energy(sigma->0) =      134.60848759


--------------------------------------------------------------------------------------------------------




--------------------------------------- Iteration      1(   4)  ---------------------------------------


     EDDAV:  cpu time    7.6761: real time    7.6882
       DOS:  cpu time    0.0060: real time    0.0060
    --------------------------------------------
      LOOP:  cpu time    7.6821: real time    7.6942

 eigenvalue-minimisations  :   320
 total energy-change (2. order) :-0.1276557E+03  (-0.1212690E+03)
 number of electron      88.0000000 magnetization       8.0000000
 augmentation part       88.0000000 magnetization       8.0000000

 Free energy of the ion-electron system (eV)
  ---------------------------------------------------
  alpha Z        PSCENC =         6.33530747
  Ewald energy   TEWEN  =      8008.43443968
  -Hartree energ DENC   =    -15086.78003199
  -exchange      EXHF   =         0.00000000
  -V(xc)+E(xc)   XCENC  =       118.45824009
  PAW double counting   =      6992.17180065    -6807.49900724
  entropy T*S    EENTRO =        -0.03175998
  eigenvalues    EBANDS =      -632.78275187
  atomic energy  EATOM  =      7408.64415014
  Solvation  Ediel_sol  =         0.00000000
  ---------------------------------------------------
  free energy    TOTEN  =         6.95038696 eV

  energy without entropy =        6.98214694  energy(sigma->0) =        6.96097362


--------------------------------------------------------------------------------------------------------




--------------------------------------- Iteration      1(   5)  ---------------------------------------


     EDDAV:  cpu time    6.7463: real time    6.7526
       DOS:  cpu time    0.0055: real time    0.0055
    CHARGE:  cpu time    0.7942: real time    0.7949
    MIXING:  cpu time    0.0693: real time    0.0693
    --------------------------------------------
      LOOP:  cpu time    7.6153: real time    7.6224

 eigenvalue-minimisations  :   264
 total energy-change (2. order) :-0.2151221E+02  (-0.1423058E+02)
 number of electron      87.9999988 magnetization       7.1977485
 augmentation part       31.1566094 magnetization       7.3462850

 Broyden mixing:
  rms(total) = 0.22101E+01    rms(broyden)= 0.22101E+01
  rms(prec ) = 0.22290E+01
  weight for this iteration     100.00

 Free energy of the ion-electron system (eV)
  ---------------------------------------------------
  alpha Z        PSCENC =         6.33530747
  Ewald energy   TEWEN  =      8008.43443968
  -Hartree energ DENC   =    -15086.78003199
  -exchange      EXHF   =         0.00000000
  -V(xc)+E(xc)   XCENC  =       118.45824009
  PAW double counting   =      6992.17180065    -6807.49900724
  entropy T*S    EENTRO =         0.01790814
  eigenvalues    EBANDS =      -654.34462838
  atomic energy  EATOM  =      7408.64415014
  Solvation  Ediel_sol  =         0.00000000
  ---------------------------------------------------
  free energy    TOTEN  =       -14.56182143 eV

  energy without entropy =      -14.57972957  energy(sigma->0) =      -14.56779081


--------------------------------------------------------------------------------------------------------




--------------------------------------- Iteration      1(   6)  ---------------------------------------


    POTLOK:  cpu time    3.7441: real time    3.7534
    SETDIJ:  cpu time    0.0256: real time    0.0256
     EDDAV:  cpu time    6.0281: real time    6.0337
       DOS:  cpu time    0.0110: real time    0.0110
    CHARGE:  cpu time    0.7697: real time    0.7704
    MIXING:  cpu time    0.0742: real time    0.0743
    --------------------------------------------
      LOOP:  cpu time   10.6527: real time   10.6683

 eigenvalue-minimisations  :   232
 total energy-change (2. order) : 0.1195886E+02  (-0.6388892E+01)
 number of electron      87.9999987 magnetization       6.2843334
 augmentation part       32.3181898 magnetization       5.8453424

 Broyden mixing:
  rms(total) = 0.14635E+01    rms(broyden)= 0.14635E+01
  rms(prec ) = 0.14677E+01
  weight for this iteration     100.00

 eigenvalues of (default mixing * dielectric matrix)
  average eigenvalue GAMMA=   1.0290
  1.0290

 Free energy of the ion-electron system (eV)
  ---------------------------------------------------
  alpha Z        PSCENC =         6.33530747
  Ewald energy   TEWEN  =      8008.43443968
  -Hartree energ DENC   =    -15034.61466307
  -exchange      EXHF   =         0.00000000
  -V(xc)+E(xc)   XCENC  =       126.05660616
  PAW double counting   =      7409.71831143    -7233.21776803
  entropy T*S    EENTRO =         0.02371370
  eigenvalues    EBANDS =      -693.98306237
  atomic energy  EATOM  =      7408.64415014
  Solvation  Ediel_sol  =         0.00000000
  ---------------------------------------------------
  free energy    TOTEN  =        -2.60296489 eV

  energy without entropy =       -2.62667859  energy(sigma->0) =       -2.61086946


--------------------------------------------------------------------------------------------------------




--------------------------------------- Iteration      1(   7)  ---------------------------------------


    POTLOK:  cpu time    3.7175: real time    3.7228
    SETDIJ:  cpu time    0.0250: real time    0.0250
     EDDAV:  cpu time    6.3892: real time    6.3970
       DOS:  cpu time    0.0115: real time    0.0115
    CHARGE:  cpu time    0.7771: real time    0.7777
    MIXING:  cpu time    0.0702: real time    0.0703
    --------------------------------------------
      LOOP:  cpu time   10.9904: real time   11.0043

 eigenvalue-minimisations  :   248
 total energy-change (2. order) : 0.8735737E+00  (-0.2700731E+00)
 number of electron      87.9999987 magnetization       5.2836503
 augmentation part       32.1881409 magnetization       4.8384021

 Broyden mixing:
  rms(total) = 0.63814E+00    rms(broyden)= 0.63814E+00
  rms(prec ) = 0.63990E+00
  weight for this iteration     100.00

 eigenvalues of (default mixing * dielectric matrix)
  average eigenvalue GAMMA=   1.2042
  0.7484  1.6600

 Free energy of the ion-electron system (eV)
  ---------------------------------------------------
  alpha Z        PSCENC =         6.33530747
  Ewald energy   TEWEN  =      8008.43443968
  -Hartree energ DENC   =    -15059.71919639
  -exchange      EXHF   =         0.00000000
  -V(xc)+E(xc)   XCENC  =       127.49081803
  PAW double counting   =      7820.97903916    -7649.05857260
  entropy T*S    EENTRO =         0.01033216
  eigenvalues    EBANDS =      -664.84570889
  atomic energy  EATOM  =      7408.64415014
  Solvation  Ediel_sol  =         0.00000000
  ---------------------------------------------------
  free energy    TOTEN  =        -1.72939123 eV

  energy without entropy =       -1.73972339  energy(sigma->0) =       -1.73283529


--------------------------------------------------------------------------------------------------------




--------------------------------------- Iteration      1(   8)  ---------------------------------------


    POTLOK:  cpu time    3.7220: real time    3.7259
    SETDIJ:  cpu time    0.0250: real time    0.0250
     EDDAV:  cpu time    6.4632: real time    6.4718
       DOS:  cpu time    0.0008: real time    0.0008
    CHARGE:  cpu time    0.7750: real time    0.7756
    MIXING:  cpu time    0.0738: real time    0.0739
    --------------------------------------------
      LOOP:  cpu time   11.0598: real time   11.0731

 eigenvalue-minimisations  :   256
 total energy-change (2. order) :-0.5860468E+01  (-0.2424591E+00)
 number of electron      87.9999987 magnetization       4.7842165
 augmentation part       32.0810328 magnetization       4.4561624

 Broyden mixing:
  rms(total) = 0.24315E+00    rms(broyden)= 0.24315E+00
  rms(prec ) = 0.24569E+00
  weight for this iteration     100.00

 eigenvalues of (default mixing * dielectric matrix)
  average eigenvalue GAMMA=   1.2238
  2.0176  1.0103  0.6435

 Free energy of the ion-electron system (eV)
  ---------------------------------------------------
  alpha Z        PSCENC =         6.33530747
  Ewald energy   TEWEN  =      8008.43443968
  -Hartree energ DENC   =    -15072.61037327
  -exchange      EXHF   =         0.00000000
  -V(xc)+E(xc)   XCENC  =       123.25559296
  PAW double counting   =      8109.36474688    -7940.60443282
  entropy T*S    EENTRO =         0.00591341
  eigenvalues    EBANDS =      -650.41520377
  atomic energy  EATOM  =      7408.64415014
  Solvation  Ediel_sol  =         0.00000000
  ---------------------------------------------------
  free energy    TOTEN  =        -7.58985931 eV

  energy without entropy =       -7.59577272  energy(sigma->0) =       -7.59183045


--------------------------------------------------------------------------------------------------------




--------------------------------------- Iteration      1(   9)  ---------------------------------------


    POTLOK:  cpu time    3.7101: real time    3.7132
    SETDIJ:  cpu time    0.0256: real time    0.0256
     EDDAV:  cpu time    5.9102: real time    5.9155
       DOS:  cpu time    0.0106: real time    0.0106
    CHARGE:  cpu time    0.7765: real time    0.7772
    MIXING:  cpu time    0.0776: real time    0.0777
    --------------------------------------------
      LOOP:  cpu time   10.5107: real time   10.5200

 eigenvalue-minimisations  :   224
 total energy-change (2. order) :-0.2209353E+01  (-0.5484310E-01)
 number of electron      87.9999987 magnetization       3.8573797
 augmentation part       32.1082543 magnetization       3.6017457

 Broyden mixing:
  rms(total) = 0.14545E+00    rms(broyden)= 0.14545E+00
  rms(prec ) = 0.14740E+00
  weight for this iteration     100.00

 eigenvalues of (default mixing * dielectric matrix)
  average eigenvalue GAMMA=   1.3156
  2.2979  1.4616  0.8733  0.6297

 Free energy of the ion-electron system (eV)
  ---------------------------------------------------
  alpha Z        PSCENC =         6.33530747
  Ewald energy   TEWEN  =      8008.43443968
  -Hartree energ DENC   =    -15069.37449423
  -exchange      EXHF   =         0.00000000
  -V(xc)+E(xc)   XCENC  =       121.47443640
  PAW double counting   =      8136.48879360    -7968.27441953
  entropy T*S    EENTRO =         0.00586275
  eigenvalues    EBANDS =      -653.53328824
  atomic energy  EATOM  =      7408.64415014
  Solvation  Ediel_sol  =         0.00000000
  ---------------------------------------------------
  free energy    TOTEN  =        -9.79921196 eV

  energy without entropy =       -9.80507471  energy(sigma->0) =       -9.80116621


--------------------------------------------------------------------------------------------------------




--------------------------------------- Iteration      1(  10)  ---------------------------------------


    POTLOK:  cpu time    3.6981: real time    3.7067
    SETDIJ:  cpu time    0.0247: real time    0.0247
     EDDAV:  cpu time    5.8634: real time    5.8741
       DOS:  cpu time    0.0112: real time    0.0112
    CHARGE:  cpu time    0.7616: real time    0.7622
    MIXING:  cpu time    0.0835: real time    0.0836
    --------------------------------------------
      LOOP:  cpu time   10.4425: real time   10.4627

 eigenvalue-minimisations  :   224
 total energy-change (2. order) :-0.2888471E+01  (-0.1117917E+00)
 number of electron      87.9999987 magnetization       3.2311200
 augmentation part       32.1689238 magnetization       3.0787576

 Broyden mixing:
  rms(total) = 0.99804E-01    rms(broyden)= 0.99803E-01
  rms(prec ) = 0.10060E+00
  weight for this iteration     100.00

 eigenvalues of (default mixing * dielectric matrix)
  average eigenvalue GAMMA=   1.3112
  2.6352  1.5585  0.8570  0.8570  0.6483

 Free energy of the ion-electron system (eV)
  ---------------------------------------------------
  alpha Z        PSCENC =         6.33530747
  Ewald energy   TEWEN  =      8008.43443968
  -Hartree energ DENC   =    -15063.71634008
  -exchange      EXHF   =         0.00000000
  -V(xc)+E(xc)   XCENC  =       119.10043887
  PAW double counting   =      8137.02175733    -7969.33019131
  entropy T*S    EENTRO =         0.00774456
  eigenvalues    EBANDS =      -659.18498944
  atomic energy  EATOM  =      7408.64415014
  Solvation  Ediel_sol  =         0.00000000
  ---------------------------------------------------
  free energy    TOTEN  =       -12.68768279 eV

  energy without entropy =      -12.69542735  energy(sigma->0) =      -12.69026431


--------------------------------------------------------------------------------------------------------




--------------------------------------- Iteration      1(  11)  ---------------------------------------


    POTLOK:  cpu time    3.7963: real time    3.8101
    SETDIJ:  cpu time    0.0257: real time    0.0257
     EDDAV:  cpu time    6.2112: real time    6.2267
       DOS:  cpu time    0.0063: real time    0.0063
    CHARGE:  cpu time    0.7859: real time    0.7866
    MIXING:  cpu time    0.0933: real time    0.0934
    --------------------------------------------
      LOOP:  cpu time   10.9187: real time   10.9488

 eigenvalue-minimisations  :   240
 total energy-change (2. order) :-0.1194038E+01  (-0.3244407E-01)
 number of electron      87.9999987 magnetization       2.2230795
 augmentation part       32.1636653 magnetization       2.0812244

 Broyden mixing:
  rms(total) = 0.74082E-01    rms(broyden)= 0.74082E-01
  rms(prec ) = 0.75069E-01
  weight for this iteration     100.00

 eigenvalues of (default mixing * dielectric matrix)
  average eigenvalue GAMMA=   1.4203
  2.8157  2.0879  1.2187  1.0222  0.7145  0.6630

 Free energy of the ion-electron system (eV)
  ---------------------------------------------------
  alpha Z        PSCENC =         6.33530747
  Ewald energy   TEWEN  =      8008.43443968
  -Hartree energ DENC   =    -15062.39860288
  -exchange      EXHF   =         0.00000000
  -V(xc)+E(xc)   XCENC  =       118.12902435
  PAW double counting   =      8122.39250539    -7954.66925598
  entropy T*S    EENTRO =         0.01100157
  eigenvalues    EBANDS =      -660.76029062
  atomic energy  EATOM  =      7408.64415014
  Solvation  Ediel_sol  =         0.00000000
  ---------------------------------------------------
  free energy    TOTEN  =       -13.88172088 eV

  energy without entropy =      -13.89272246  energy(sigma->0) =      -13.88538808


--------------------------------------------------------------------------------------------------------




--------------------------------------- Iteration      1(  12)  ---------------------------------------


    POTLOK:  cpu time    3.7218: real time    3.7285
    SETDIJ:  cpu time    0.0247: real time    0.0247
     EDDAV:  cpu time    6.0115: real time    6.0196
       DOS:  cpu time    0.0102: real time    0.0102
    CHARGE:  cpu time    0.7649: real time    0.7656
    MIXING:  cpu time    0.0978: real time    0.0979
    --------------------------------------------
      LOOP:  cpu time   10.6310: real time   10.6466

 eigenvalue-minimisations  :   232
 total energy-change (2. order) :-0.1174543E+01  (-0.3891576E-01)
 number of electron      87.9999987 magnetization       1.5117277
 augmentation part       32.1843686 magnetization       1.3965062

 Broyden mixing:
  rms(total) = 0.46980E-01    rms(broyden)= 0.46979E-01
  rms(prec ) = 0.47585E-01
  weight for this iteration     100.00

 eigenvalues of (default mixing * dielectric matrix)
  average eigenvalue GAMMA=   1.5584
  4.0416  2.4238  1.2723  1.0972  0.7717  0.6511  0.6511

 Free energy of the ion-electron system (eV)
  ---------------------------------------------------
  alpha Z        PSCENC =         6.33530747
  Ewald energy   TEWEN  =      8008.43443968
  -Hartree energ DENC   =    -15057.49264629
  -exchange      EXHF   =         0.00000000
  -V(xc)+E(xc)   XCENC  =       117.04248248
  PAW double counting   =      8080.32865970    -7912.25157117
  entropy T*S    EENTRO =         0.01296902
  eigenvalues    EBANDS =      -666.11005448
  atomic energy  EATOM  =      7408.64415014
  Solvation  Ediel_sol  =         0.00000000
  ---------------------------------------------------
  free energy    TOTEN  =       -15.05626346 eV

  energy without entropy =      -15.06923248  energy(sigma->0) =      -15.06058646


--------------------------------------------------------------------------------------------------------




--------------------------------------- Iteration      1(  13)  ---------------------------------------


    POTLOK:  cpu time    3.7408: real time    3.7467
    SETDIJ:  cpu time    0.0251: real time    0.0251
     EDDAV:  cpu time    6.0547: real time    6.0627
       DOS:  cpu time    0.0008: real time    0.0008
    CHARGE:  cpu time    0.7668: real time    0.7675
    MIXING:  cpu time    0.1128: real time    0.1130
    --------------------------------------------
      LOOP:  cpu time   10.7010: real time   10.7158

 eigenvalue-minimisations  :   232
 total energy-change (2. order) :-0.5305200E+00  (-0.1325695E-01)
 number of electron      87.9999987 magnetization       1.0571546
 augmentation part       32.1933724 magnetization       0.9899173

 Broyden mixing:
  rms(total) = 0.32063E-01    rms(broyden)= 0.32063E-01
  rms(prec ) = 0.32740E-01
  weight for this iteration     100.00

 eigenvalues of (default mixing * dielectric matrix)
  average eigenvalue GAMMA=   1.6279
  4.9211  2.3630  1.6822  1.0262  1.0262  0.7303  0.6371  0.6371

 Free energy of the ion-electron system (eV)
  ---------------------------------------------------
  alpha Z        PSCENC =         6.33530747
  Ewald energy   TEWEN  =      8008.43443968
  -Hartree energ DENC   =    -15054.38224522
  -exchange      EXHF   =         0.00000000
  -V(xc)+E(xc)   XCENC  =       116.51357559
  PAW double counting   =      8068.53906436    -7900.34020634
  entropy T*S    EENTRO =         0.01224135
  eigenvalues    EBANDS =      -669.34311048
  atomic energy  EATOM  =      7408.64415014
  Solvation  Ediel_sol  =         0.00000000
  ---------------------------------------------------
  free energy    TOTEN  =       -15.58678345 eV

  energy without entropy =      -15.59902480  energy(sigma->0) =      -15.59086390


--------------------------------------------------------------------------------------------------------




--------------------------------------- Iteration      1(  14)  ---------------------------------------


    POTLOK:  cpu time    3.7129: real time    3.7182
    SETDIJ:  cpu time    0.0243: real time    0.0243
     EDDAV:  cpu time    6.3037: real time    6.3120
       DOS:  cpu time    0.0097: real time    0.0097
    CHARGE:  cpu time    0.7712: real time    0.7719
    MIXING:  cpu time    0.1120: real time    0.1121
    --------------------------------------------
      LOOP:  cpu time   10.9338: real time   10.9482

 eigenvalue-minimisations  :   248
 total energy-change (2. order) :-0.2494742E+00  (-0.2189048E-02)
 number of electron      87.9999987 magnetization       0.5850885
 augmentation part       32.1856497 magnetization       0.5453066

 Broyden mixing:
  rms(total) = 0.24620E-01    rms(broyden)= 0.24619E-01
  rms(prec ) = 0.25151E-01
  weight for this iteration     100.00

 eigenvalues of (default mixing * dielectric matrix)
  average eigenvalue GAMMA=   1.6954
  5.8667  2.4014  1.5915  1.5915  0.9743  0.8196  0.7602  0.6267  0.6267

 Free energy of the ion-electron system (eV)
  ---------------------------------------------------
  alpha Z        PSCENC =         6.33530747
  Ewald energy   TEWEN  =      8008.43443968
  -Hartree energ DENC   =    -15052.87510846
  -exchange      EXHF   =         0.00000000
  -V(xc)+E(xc)   XCENC  =       116.25805284
  PAW double counting   =      8077.88621801    -7909.68155023
  entropy T*S    EENTRO =         0.01193713
  eigenvalues    EBANDS =      -670.84970427
  atomic energy  EATOM  =      7408.64415014
  Solvation  Ediel_sol  =         0.00000000
  ---------------------------------------------------
  free energy    TOTEN  =       -15.83625768 eV

  energy without entropy =      -15.84819482  energy(sigma->0) =      -15.84023673


--------------------------------------------------------------------------------------------------------




--------------------------------------- Iteration      1(  15)  ---------------------------------------


    POTLOK:  cpu time    3.7043: real time    3.7212
    SETDIJ:  cpu time    0.0243: real time    0.0243
     EDDAV:  cpu time    6.1599: real time    6.1682
       DOS:  cpu time    0.0113: real time    0.0113
    CHARGE:  cpu time    0.7846: real time    0.7902
    MIXING:  cpu time    0.1179: real time    0.1181
    --------------------------------------------
      LOOP:  cpu time   10.8022: real time   10.8332

 eigenvalue-minimisations  :   240
 total energy-change (2. order) :-0.3322780E+00  (-0.1916455E-02)
 number of electron      87.9999987 magnetization       0.3451016
 augmentation part       32.1938996 magnetization       0.3355092

 Broyden mixing:
  rms(total) = 0.13539E-01    rms(broyden)= 0.13538E-01
  rms(prec ) = 0.13999E-01
  weight for this iteration     100.00

 eigenvalues of (default mixing * dielectric matrix)
  average eigenvalue GAMMA=   1.8313
  7.0604  2.7875  2.4016  1.4869  1.0449  0.8650  0.7217  0.7217  0.6118  0.6118

 Free energy of the ion-electron system (eV)
  ---------------------------------------------------
  alpha Z        PSCENC =         6.33530747
  Ewald energy   TEWEN  =      8008.43443968
  -Hartree energ DENC   =    -15050.16715119
  -exchange      EXHF   =         0.00000000
  -V(xc)+E(xc)   XCENC  =       115.89120391
  PAW double counting   =      8084.92186003    -7916.70385198
  entropy T*S    EENTRO =         0.01173355
  eigenvalues    EBANDS =      -673.53622733
  atomic energy  EATOM  =      7408.64415014
  Solvation  Ediel_sol  =         0.00000000
  ---------------------------------------------------
  free energy    TOTEN  =       -16.16853572 eV

  energy without entropy =      -16.18026927  energy(sigma->0) =      -16.17244690


--------------------------------------------------------------------------------------------------------




--------------------------------------- Iteration      1(  16)  ---------------------------------------


    POTLOK:  cpu time    3.7275: real time    3.7346
    SETDIJ:  cpu time    0.0252: real time    0.0252
     EDDAV:  cpu time    6.3451: real time    6.3537
       DOS:  cpu time    0.0055: real time    0.0055
    CHARGE:  cpu time    0.7576: real time    0.7608
    MIXING:  cpu time    0.1314: real time    0.1315
    --------------------------------------------
      LOOP:  cpu time   10.9924: real time   11.0114

 eigenvalue-minimisations  :   248
 total energy-change (2. order) :-0.1617508E+00  (-0.3525858E-03)
 number of electron      87.9999987 magnetization       0.2118000
 augmentation part       32.1903807 magnetization       0.2086840

 Broyden mixing:
  rms(total) = 0.81632E-02    rms(broyden)= 0.81623E-02
  rms(prec ) = 0.85657E-02
  weight for this iteration     100.00

 eigenvalues of (default mixing * dielectric matrix)
  average eigenvalue GAMMA=   1.9005
  8.1227  3.0910  2.3751  1.6698  1.0706  1.0706  0.9510  0.6860  0.6641  0.6331
  0.5721

 Free energy of the ion-electron system (eV)
  ---------------------------------------------------
  alpha Z        PSCENC =         6.33530747
  Ewald energy   TEWEN  =      8008.43443968
  -Hartree energ DENC   =    -15049.14874384
  -exchange      EXHF   =         0.00000000
  -V(xc)+E(xc)   XCENC  =       115.72299533
  PAW double counting   =      8091.13308154    -7922.91657275
  entropy T*S    EENTRO =         0.01172754
  eigenvalues    EBANDS =      -674.54667165
  atomic energy  EATOM  =      7408.64415014
  Solvation  Ediel_sol  =         0.00000000
  ---------------------------------------------------
  free energy    TOTEN  =       -16.33028654 eV

  energy without entropy =      -16.34201408  energy(sigma->0) =      -16.33419572


--------------------------------------------------------------------------------------------------------




--------------------------------------- Iteration      1(  17)  ---------------------------------------


    POTLOK:  cpu time    3.7349: real time    3.7395
    SETDIJ:  cpu time    0.0251: real time    0.0251
     EDDAV:  cpu time    6.0101: real time    6.0186
       DOS:  cpu time    0.0084: real time    0.0085
    CHARGE:  cpu time    0.7879: real time    0.7887
    MIXING:  cpu time    0.1326: real time    0.1327
    --------------------------------------------
      LOOP:  cpu time   10.6991: real time   10.7132

 eigenvalue-minimisations  :   232
 total energy-change (2. order) :-0.6089159E-01  (-0.2318961E-03)
 number of electron      87.9999987 magnetization       0.1182406
 augmentation part       32.1922964 magnetization       0.1177486

 Broyden mixing:
  rms(total) = 0.49022E-02    rms(broyden)= 0.49019E-02
  rms(prec ) = 0.52477E-02
  weight for this iteration     100.00

 eigenvalues of (default mixing * dielectric matrix)
  average eigenvalue GAMMA=   1.9523
  8.7255  3.5620  2.3223  1.9641  1.4742  0.9650  0.9420  0.9420  0.6992  0.6337
  0.6320  0.5650

 Free energy of the ion-electron system (eV)
  ---------------------------------------------------
  alpha Z        PSCENC =         6.33530747
  Ewald energy   TEWEN  =      8008.43443968
  -Hartree energ DENC   =    -15048.36130424
  -exchange      EXHF   =         0.00000000
  -V(xc)+E(xc)   XCENC  =       115.65742090
  PAW double counting   =      8091.05586760    -7922.84144656
  entropy T*S    EENTRO =         0.01172500
  eigenvalues    EBANDS =      -675.32733812
  atomic energy  EATOM  =      7408.64415014
  Solvation  Ediel_sol  =         0.00000000
  ---------------------------------------------------
  free energy    TOTEN  =       -16.39117813 eV

  energy without entropy =      -16.40290313  energy(sigma->0) =      -16.39508646


--------------------------------------------------------------------------------------------------------




--------------------------------------- Iteration      1(  18)  ---------------------------------------


    POTLOK:  cpu time    3.6984: real time    3.7023
    SETDIJ:  cpu time    0.0248: real time    0.0248
     EDDAV:  cpu time    5.3174: real time    5.3245
       DOS:  cpu time    0.0009: real time    0.0009
    CHARGE:  cpu time    0.7721: real time    0.7727
    MIXING:  cpu time    0.1498: real time    0.1524
    --------------------------------------------
      LOOP:  cpu time    9.9634: real time    9.9775

 eigenvalue-minimisations  :   192
 total energy-change (2. order) :-0.3108647E-01  (-0.6499577E-04)
 number of electron      87.9999987 magnetization       0.0718186
 augmentation part       32.1917929 magnetization       0.0718375

 Broyden mixing:
  rms(total) = 0.27994E-02    rms(broyden)= 0.27993E-02
  rms(prec ) = 0.30728E-02
  weight for this iteration     100.00

 eigenvalues of (default mixing * dielectric matrix)
  average eigenvalue GAMMA=   1.9800
  9.0835  4.0706  2.3372  2.3372  1.5590  1.0443  1.0136  1.0136  0.7752  0.6715
  0.6404  0.6276  0.5663

 Free energy of the ion-electron system (eV)
  ---------------------------------------------------
  alpha Z        PSCENC =         6.33530747
  Ewald energy   TEWEN  =      8008.43443968
  -Hartree energ DENC   =    -15047.81046718
  -exchange      EXHF   =         0.00000000
  -V(xc)+E(xc)   XCENC  =       115.62617396
  PAW double counting   =      8090.95775048    -7922.74891167
  entropy T*S    EENTRO =         0.01172622
  eigenvalues    EBANDS =      -675.87243369
  atomic energy  EATOM  =      7408.64415014
  Solvation  Ediel_sol  =         0.00000000
  ---------------------------------------------------
  free energy    TOTEN  =       -16.42226459 eV

  energy without entropy =      -16.43399081  energy(sigma->0) =      -16.42617333


--------------------------------------------------------------------------------------------------------




--------------------------------------- Iteration      1(  19)  ---------------------------------------


    POTLOK:  cpu time    3.6937: real time    3.6987
    SETDIJ:  cpu time    0.0243: real time    0.0243
     EDDAV:  cpu time    4.6821: real time    4.6887
       DOS:  cpu time    0.0012: real time    0.0012
    CHARGE:  cpu time    0.7798: real time    0.7829
    MIXING:  cpu time    0.1583: real time    0.1609
    --------------------------------------------
      LOOP:  cpu time    9.3393: real time    9.3567

 eigenvalue-minimisations  :   160
 total energy-change (2. order) :-0.1373193E-01  (-0.1562901E-04)
 number of electron      87.9999987 magnetization       0.0468955
 augmentation part       32.1921484 magnetization       0.0469269

 Broyden mixing:
  rms(total) = 0.18983E-02    rms(broyden)= 0.18983E-02
  rms(prec ) = 0.20891E-02
  weight for this iteration     100.00

 eigenvalues of (default mixing * dielectric matrix)
  average eigenvalue GAMMA=   1.9768
  9.2712  4.3669  2.6885  2.3264  1.7665  1.1713  0.9809  0.9809  0.9250  0.7317
  0.6459  0.6459  0.5700  0.6037

 Free energy of the ion-electron system (eV)
  ---------------------------------------------------
  alpha Z        PSCENC =         6.33530747
  Ewald energy   TEWEN  =      8008.43443968
  -Hartree energ DENC   =    -15047.40999771
  -exchange      EXHF   =         0.00000000
  -V(xc)+E(xc)   XCENC  =       115.61095101
  PAW double counting   =      8090.08104912    -7921.87206384
  entropy T*S    EENTRO =         0.01172549
  eigenvalues    EBANDS =      -676.27155788
  atomic energy  EATOM  =      7408.64415014
  Solvation  Ediel_sol  =         0.00000000
  ---------------------------------------------------
  free energy    TOTEN  =       -16.43599653 eV

  energy without entropy =      -16.44772201  energy(sigma->0) =      -16.43990502


--------------------------------------------------------------------------------------------------------




--------------------------------------- Iteration      1(  20)  ---------------------------------------


    POTLOK:  cpu time    3.7239: real time    3.7302
    SETDIJ:  cpu time    0.0259: real time    0.0259
     EDDAV:  cpu time    4.5764: real time    4.5803
       DOS:  cpu time    0.0083: real time    0.0083
    CHARGE:  cpu time    0.7700: real time    0.7706
    MIXING:  cpu time    0.1754: real time    0.1755
    --------------------------------------------
      LOOP:  cpu time    9.2798: real time    9.2908

 eigenvalue-minimisations  :   152
 total energy-change (2. order) :-0.8016409E-02  (-0.7348149E-05)
 number of electron      87.9999987 magnetization       0.0309439
 augmentation part       32.1922507 magnetization       0.0305272

 Broyden mixing:
  rms(total) = 0.12022E-02    rms(broyden)= 0.12022E-02
  rms(prec ) = 0.13407E-02
  weight for this iteration     100.00

 eigenvalues of (default mixing * dielectric matrix)
  average eigenvalue GAMMA=   1.9909
  9.4150  4.7950  2.9668  2.2983  1.9873  1.3844  1.0673  1.0673  0.8599  0.8599
  0.7117  0.6406  0.6406  0.5722  0.5977

 Free energy of the ion-electron system (eV)
  ---------------------------------------------------
  alpha Z        PSCENC =         6.33530747
  Ewald energy   TEWEN  =      8008.43443968
  -Hartree energ DENC   =    -15047.13684090
  -exchange      EXHF   =         0.00000000
  -V(xc)+E(xc)   XCENC  =       115.60156672
  PAW double counting   =      8089.42857368    -7921.21864603
  entropy T*S    EENTRO =         0.01172503
  eigenvalues    EBANDS =      -676.54428872
  atomic energy  EATOM  =      7408.64415014
  Solvation  Ediel_sol  =         0.00000000
  ---------------------------------------------------
  free energy    TOTEN  =       -16.44401293 eV

  energy without entropy =      -16.45573796  energy(sigma->0) =      -16.44792128


--------------------------------------------------------------------------------------------------------




--------------------------------------- Iteration      1(  21)  ---------------------------------------


    POTLOK:  cpu time    3.7283: real time    3.7349
    SETDIJ:  cpu time    0.0243: real time    0.0244
     EDDAV:  cpu time    4.6820: real time    4.6864
       DOS:  cpu time    0.0008: real time    0.0008
    CHARGE:  cpu time    0.7810: real time    0.7866
    MIXING:  cpu time    0.1749: real time    0.1750
    --------------------------------------------
      LOOP:  cpu time    9.3913: real time    9.4082

 eigenvalue-minimisations  :   160
 total energy-change (2. order) :-0.6211871E-02  (-0.2825070E-05)
 number of electron      87.9999987 magnetization       0.0177934
 augmentation part       32.1924185 magnetization       0.0172100

 Broyden mixing:
  rms(total) = 0.86753E-03    rms(broyden)= 0.86752E-03
  rms(prec ) = 0.95228E-03
  weight for this iteration     100.00

 eigenvalues of (default mixing * dielectric matrix)
  average eigenvalue GAMMA=   1.9938
  9.5154  5.1140  3.1197  2.2815  2.2815  1.5700  1.0900  1.0900  0.9659  0.9659
  0.7716  0.6923  0.6409  0.6409  0.5810  0.5810

 Free energy of the ion-electron system (eV)
  ---------------------------------------------------
  alpha Z        PSCENC =         6.33530747
  Ewald energy   TEWEN  =      8008.43443968
  -Hartree energ DENC   =    -15046.91486621
  -exchange      EXHF   =         0.00000000
  -V(xc)+E(xc)   XCENC  =       115.59353611
  PAW double counting   =      8089.25412090    -7921.04221321
  entropy T*S    EENTRO =         0.01172460
  eigenvalues    EBANDS =      -676.76642430
  atomic energy  EATOM  =      7408.64415014
  Solvation  Ediel_sol  =         0.00000000
  ---------------------------------------------------
  free energy    TOTEN  =       -16.45022481 eV

  energy without entropy =      -16.46194940  energy(sigma->0) =      -16.45413300


--------------------------------------------------------------------------------------------------------




--------------------------------------- Iteration      1(  22)  ---------------------------------------


    POTLOK:  cpu time    3.7602: real time    3.7748
    SETDIJ:  cpu time    0.0317: real time    0.0317
     EDDAV:  cpu time    4.6786: real time    4.6828
       DOS:  cpu time    0.0087: real time    0.0087
    CHARGE:  cpu time    0.7784: real time    0.7791
    MIXING:  cpu time    0.1840: real time    0.1867
    --------------------------------------------
      LOOP:  cpu time    9.4416: real time    9.4638

 eigenvalue-minimisations  :   160
 total energy-change (2. order) :-0.5289037E-02  (-0.1761967E-05)
 number of electron      87.9999987 magnetization       0.0080347
 augmentation part       32.1925179 magnetization       0.0076285

 Broyden mixing:
  rms(total) = 0.54881E-03    rms(broyden)= 0.54880E-03
  rms(prec ) = 0.59420E-03
  weight for this iteration     100.00

 eigenvalues of (default mixing * dielectric matrix)
  average eigenvalue GAMMA=   2.0653
  9.5690  5.9462  3.5800  2.7261  2.3374  1.8259  1.3678  1.0392  1.0392  0.9142
  0.9142  0.7407  0.6728  0.6380  0.6380  0.5805  0.5805

 Free energy of the ion-electron system (eV)
  ---------------------------------------------------
  alpha Z        PSCENC =         6.33530747
  Ewald energy   TEWEN  =      8008.43443968
  -Hartree energ DENC   =    -15046.72697387
  -exchange      EXHF   =         0.00000000
  -V(xc)+E(xc)   XCENC  =       115.58633432
  PAW double counting   =      8089.46295739    -7921.25006530
  entropy T*S    EENTRO =         0.01172426
  eigenvalues    EBANDS =      -676.95338793
  atomic energy  EATOM  =      7408.64415014
  Solvation  Ediel_sol  =         0.00000000
  ---------------------------------------------------
  free energy    TOTEN  =       -16.45551384 eV

  energy without entropy =      -16.46723811  energy(sigma->0) =      -16.45942193


--------------------------------------------------------------------------------------------------------




--------------------------------------- Iteration      1(  23)  ---------------------------------------


    POTLOK:  cpu time    3.7168: real time    3.7246
    SETDIJ:  cpu time    0.0246: real time    0.0246
     EDDAV:  cpu time    4.5348: real time    4.5388
       DOS:  cpu time    0.0065: real time    0.0065
    CHARGE:  cpu time    0.7650: real time    0.7657
    MIXING:  cpu time    0.2050: real time    0.2052
    --------------------------------------------
      LOOP:  cpu time    9.2526: real time    9.2653

 eigenvalue-minimisations  :   152
 total energy-change (2. order) :-0.3269658E-02  (-0.1713426E-05)
 number of electron      87.9999987 magnetization       0.0040705
 augmentation part       32.1926212 magnetization       0.0037606

 Broyden mixing:
  rms(total) = 0.29494E-03    rms(broyden)= 0.29492E-03
  rms(prec ) = 0.31635E-03
  weight for this iteration     100.00

 eigenvalues of (default mixing * dielectric matrix)
  average eigenvalue GAMMA=   2.1117
  9.6528  6.9319  4.0985  2.7549  2.3660  2.0132  1.3779  1.1657  1.0335  0.9901
  0.9901  0.8089  0.7383  0.6495  0.6495  0.5726  0.5973  0.6193

 Free energy of the ion-electron system (eV)
  ---------------------------------------------------
  alpha Z        PSCENC =         6.33530747
  Ewald energy   TEWEN  =      8008.43443968
  -Hartree energ DENC   =    -15046.57768548
  -exchange      EXHF   =         0.00000000
  -V(xc)+E(xc)   XCENC  =       115.58161841
  PAW double counting   =      8089.68099158    -7921.46803488
  entropy T*S    EENTRO =         0.01172392
  eigenvalues    EBANDS =      -677.10129434
  atomic energy  EATOM  =      7408.64415014
  Solvation  Ediel_sol  =         0.00000000
  ---------------------------------------------------
  free energy    TOTEN  =       -16.45878350 eV

  energy without entropy =      -16.47050742  energy(sigma->0) =      -16.46269147


--------------------------------------------------------------------------------------------------------




--------------------------------------- Iteration      1(  24)  ---------------------------------------


    POTLOK:  cpu time    3.6691: real time    3.6725
    SETDIJ:  cpu time    0.0242: real time    0.0242
     EDDAV:  cpu time    4.6731: real time    4.6826
       DOS:  cpu time    0.0029: real time    0.0029
    CHARGE:  cpu time    0.7479: real time    0.7510
    MIXING:  cpu time    0.2097: real time    0.2099
    --------------------------------------------
      LOOP:  cpu time    9.3267: real time    9.3431

 eigenvalue-minimisations  :   160
 total energy-change (2. order) :-0.1153600E-02  (-0.6669631E-06)
 number of electron      87.9999987 magnetization       0.0018349
 augmentation part       32.1926711 magnetization       0.0017117

 Broyden mixing:
  rms(total) = 0.17181E-03    rms(broyden)= 0.17180E-03
  rms(prec ) = 0.19024E-03
  weight for this iteration     100.00

 eigenvalues of (default mixing * dielectric matrix)
  average eigenvalue GAMMA=   2.1391
  9.7955  7.5209  4.3582  2.8220  2.4626  2.2140  1.5533  1.4078  1.0322  1.0322
  0.9298  0.9298  0.8005  0.6995  0.6672  0.6267  0.6267  0.5784  0.5859

 Free energy of the ion-electron system (eV)
  ---------------------------------------------------
  alpha Z        PSCENC =         6.33530747
  Ewald energy   TEWEN  =      8008.43443968
  -Hartree energ DENC   =    -15046.52873933
  -exchange      EXHF   =         0.00000000
  -V(xc)+E(xc)   XCENC  =       115.58016393
  PAW double counting   =      8089.77250537    -7921.56002276
  entropy T*S    EENTRO =         0.01172376
  eigenvalues    EBANDS =      -677.14946537
  atomic energy  EATOM  =      7408.64415014
  Solvation  Ediel_sol  =         0.00000000
  ---------------------------------------------------
  free energy    TOTEN  =       -16.45993710 eV

  energy without entropy =      -16.47166086  energy(sigma->0) =      -16.46384502


--------------------------------------------------------------------------------------------------------




--------------------------------------- Iteration      1(  25)  ---------------------------------------


    POTLOK:  cpu time    3.7328: real time    3.7423
    SETDIJ:  cpu time    0.0255: real time    0.0255
     EDDAV:  cpu time    4.3861: real time    4.3902
       DOS:  cpu time    0.0008: real time    0.0008
    CHARGE:  cpu time    0.7653: real time    0.7659
    MIXING:  cpu time    0.2486: real time    0.2489
    --------------------------------------------
      LOOP:  cpu time    9.1591: real time    9.1737

 eigenvalue-minimisations  :   144
 total energy-change (2. order) :-0.6093247E-03  (-0.3378826E-06)
 number of electron      87.9999987 magnetization       0.0011155
 augmentation part       32.1926002 magnetization       0.0010977

 Broyden mixing:
  rms(total) = 0.82647E-04    rms(broyden)= 0.82634E-04
  rms(prec ) = 0.96389E-04
  weight for this iteration     100.00

 eigenvalues of (default mixing * dielectric matrix)
  average eigenvalue GAMMA=   2.1413
  9.9384  7.9187  4.5761  2.8688  2.6746  2.3103  1.7674  1.3960  1.0667  1.0667
  0.9335  0.9335  0.8825  0.7461  0.6687  0.6687  0.6233  0.6233  0.5781  0.5847

 Free energy of the ion-electron system (eV)
  ---------------------------------------------------
  alpha Z        PSCENC =         6.33530747
  Ewald energy   TEWEN  =      8008.43443968
  -Hartree energ DENC   =    -15046.51702946
  -exchange      EXHF   =         0.00000000
  -V(xc)+E(xc)   XCENC  =       115.57979583
  PAW double counting   =      8089.84264396    -7921.63046773
  entropy T*S    EENTRO =         0.01172389
  eigenvalues    EBANDS =      -677.16111021
  atomic energy  EATOM  =      7408.64415014
  Solvation  Ediel_sol  =         0.00000000
  ---------------------------------------------------
  free energy    TOTEN  =       -16.46054642 eV

  energy without entropy =      -16.47227032  energy(sigma->0) =      -16.46445439


--------------------------------------------------------------------------------------------------------




--------------------------------------- Iteration      1(  26)  ---------------------------------------


    POTLOK:  cpu time    3.6742: real time    3.6792
    SETDIJ:  cpu time    0.0247: real time    0.0247
     EDDAV:  cpu time    4.3830: real time    4.3870
       DOS:  cpu time    0.0029: real time    0.0029
    CHARGE:  cpu time    0.7589: real time    0.7645
    MIXING:  cpu time    0.2381: real time    0.2383
    --------------------------------------------
      LOOP:  cpu time    9.0818: real time    9.0967

 eigenvalue-minimisations  :   144
 total energy-change (2. order) :-0.1502136E-03  (-0.1465714E-06)
 number of electron      87.9999987 magnetization       0.0007484
 augmentation part       32.1925641 magnetization       0.0007327

 Broyden mixing:
  rms(total) = 0.53208E-04    rms(broyden)= 0.53201E-04
  rms(prec ) = 0.64326E-04
  weight for this iteration     100.00

 eigenvalues of (default mixing * dielectric matrix)
  average eigenvalue GAMMA=   2.1108
  9.9743  8.0173  4.6425  2.7981  2.7981  2.4025  1.7923  1.5026  1.2072  1.0618
  0.9463  0.9463  0.9478  0.8431  0.7154  0.6849  0.6365  0.6365  0.5735  0.5995
  0.5995

 Free energy of the ion-electron system (eV)
  ---------------------------------------------------
  alpha Z        PSCENC =         6.33530747
  Ewald energy   TEWEN  =      8008.43443968
  -Hartree energ DENC   =    -15046.51590511
  -exchange      EXHF   =         0.00000000
  -V(xc)+E(xc)   XCENC  =       115.57979678
  PAW double counting   =      8089.83241392    -7921.62018841
  entropy T*S    EENTRO =         0.01172397
  eigenvalues    EBANDS =      -677.16243507
  atomic energy  EATOM  =      7408.64415014
  Solvation  Ediel_sol  =         0.00000000
  ---------------------------------------------------
  free energy    TOTEN  =       -16.46069664 eV

  energy without entropy =      -16.47242061  energy(sigma->0) =      -16.46460463


--------------------------------------------------------------------------------------------------------




--------------------------------------- Iteration      1(  27)  ---------------------------------------


    POTLOK:  cpu time    3.7137: real time    3.7348
    SETDIJ:  cpu time    0.0243: real time    0.0243
     EDDAV:  cpu time    4.4139: real time    4.4205
       DOS:  cpu time    0.0048: real time    0.0048
    --------------------------------------------
      LOOP:  cpu time    8.1566: real time    8.1843

 eigenvalue-minimisations  :   144
 total energy-change (2. order) :-0.8012404E-04  (-0.6287642E-07)
 number of electron      87.9999987 magnetization       0.0007484
 augmentation part       32.1925641 magnetization       0.0007327

 Free energy of the ion-electron system (eV)
  ---------------------------------------------------
  alpha Z        PSCENC =         6.33530747
  Ewald energy   TEWEN  =      8008.43443968
  -Hartree energ DENC   =    -15046.51503501
  -exchange      EXHF   =         0.00000000
  -V(xc)+E(xc)   XCENC  =       115.57976913
  PAW double counting   =      8089.79846795    -7921.58618309
  entropy T*S    EENTRO =         0.01172398
  eigenvalues    EBANDS =      -677.16341701
  atomic energy  EATOM  =      7408.64415014
  Solvation  Ediel_sol  =         0.00000000
  ---------------------------------------------------
  free energy    TOTEN  =       -16.46077676 eV

  energy without entropy =      -16.47250074  energy(sigma->0) =      -16.46468476


--------------------------------------------------------------------------------------------------------




 average (electrostatic) potential at core
  the test charge radii are     1.2098
  (the norm of the test charge is              1.0000)
       1 -76.9343       2 -77.3063       3 -77.0237       4 -77.3089       5 -76.9360
       6 -77.5177       7 -77.0225       8 -77.2054
 
 
 
 E-fermi :  -5.1022     XC(G=0):  -0.3265     alpha+bet : -0.1614


 spin component 1

 k-point     1 :       0.0000    0.0000    0.0000
  band No.  band energies     occupation 
      1     -11.4412      1.00000
      2     -10.4210      1.00000
      3     -10.2667      1.00000
      4     -10.2642      1.00000
      5      -9.7653      1.00000
      6      -9.5073      1.00000
      7      -9.3772      1.00000
      8      -9.3013      1.00000
      9      -8.9824      1.00000
     10      -8.9031      1.00000
     11      -8.8363      1.00000
     12      -8.6299      1.00000
     13      -8.5927      1.00000
     14      -8.5303      1.00000
     15      -8.3927      1.00000
     16      -8.2411      1.00000
     17      -8.0376      1.00000
     18      -7.9018      1.00000
     19      -7.6544      1.00000
     20      -7.6522      1.00000
     21      -7.5119      1.00000
     22      -7.4594      1.00000
     23      -7.3177      1.00000
     24      -7.2501      1.00000
     25      -7.2021      1.00000
     26      -7.1254      1.00000
     27      -6.8855      1.00000
     28      -6.8407      1.00000
     29      -6.8165      1.00000
     30      -6.7572      1.00000
     31      -6.7371      1.00000
     32      -6.6756      1.00000
     33      -6.6051      1.00000
     34      -6.5441      1.00000
     35      -6.4554      1.00000
     36      -6.3914      1.00000
     37      -6.2997      1.00000
     38      -6.2611      1.00000
     39      -6.1013      1.00000
     40      -5.9208      1.00000
     41      -5.9068      1.00000
     42      -5.8604      1.00000
     43      -5.6873      1.00014
     44      -5.2705      0.99986
     45      -3.9220     -0.00000
     46      -3.5435     -0.00000
     47      -3.4913     -0.00000
     48      -3.0730     -0.00000
     49      -1.7730     -0.00000
     50      -1.4859     -0.00000
     51      -1.2976     -0.00000
     52      -1.2388     -0.00000
     53      -0.7122     -0.00000
     54      -0.3893     -0.00000
     55      -0.1791     -0.00000
     56       0.0975     -0.00000

 spin component 2

 k-point     1 :       0.0000    0.0000    0.0000
  band No.  band energies     occupation 
      1     -11.4412      1.00000
      2     -10.4210      1.00000
      3     -10.2667      1.00000
      4     -10.2642      1.00000
      5      -9.7653      1.00000
      6      -9.5073      1.00000
      7      -9.3772      1.00000
      8      -9.3013      1.00000
      9      -8.9824      1.00000
     10      -8.9031      1.00000
     11      -8.8363      1.00000
     12      -8.6299      1.00000
     13      -8.5927      1.00000
     14      -8.5303      1.00000
     15      -8.3927      1.00000
     16      -8.2411      1.00000
     17      -8.0376      1.00000
     18      -7.9018      1.00000
     19      -7.6544      1.00000
     20      -7.6522      1.00000
     21      -7.5119      1.00000
     22      -7.4594      1.00000
     23      -7.3177      1.00000
     24      -7.2501      1.00000
     25      -7.2021      1.00000
     26      -7.1254      1.00000
     27      -6.8855      1.00000
     28      -6.8407      1.00000
     29      -6.8165      1.00000
     30      -6.7572      1.00000
     31      -6.7371      1.00000
     32      -6.6756      1.00000
     33      -6.6051      1.00000
     34      -6.5441      1.00000
     35      -6.4554      1.00000
     36      -6.3914      1.00000
     37      -6.2997      1.00000
     38      -6.2611      1.00000
     39      -6.1013      1.00000
     40      -5.9208      1.00000
     41      -5.9068      1.00000
     42      -5.8604      1.00000
     43      -5.6873      1.00014
     44      -5.2705      0.99986
     45      -3.9220     -0.00000
     46      -3.5435     -0.00000
     47      -3.4913     -0.00000
     48      -3.0731     -0.00000
     49      -1.7730     -0.00000
     50      -1.4861     -0.00000
     51      -1.2969     -0.00000
     52      -1.2393     -0.00000
     53      -0.7120     -0.00000
     54      -0.3884     -0.00000
     55      -0.1787     -0.00000
     56       0.1148     -0.00000


--------------------------------------------------------------------------------------------------------


 soft charge-density along one line, spin component            1
         0         1         2         3         4         5         6         7         8         9
 total charge-density along one line
 
 soft charge-density along one line, spin component            2
         0         1         2         3         4         5         6         7         8         9
 total charge-density along one line
 
 pseudopotential strength for first ion, spin component:            1
 -9.321  -0.002   0.030   0.058  -0.011  -9.441  -0.002   0.029
 -0.002  -9.287   0.029  -0.011  -0.049  -0.002  -9.408   0.028
  0.030   0.029  -9.281  -0.005   0.015   0.029   0.028  -9.401
  0.058  -0.011  -0.005  -9.299   0.011   0.057  -0.011  -0.005
 -0.011  -0.049   0.015   0.011  -9.309  -0.011  -0.048   0.015
 -9.441  -0.002   0.029   0.057  -0.011  -9.544  -0.002   0.029
 -0.002  -9.408   0.028  -0.011  -0.048  -0.002  -9.512   0.028
  0.029   0.028  -9.401  -0.005   0.015   0.029   0.028  -9.506
  0.057  -0.011  -0.005  -9.418   0.011   0.055  -0.011  -0.005
 -0.011  -0.048   0.015   0.011  -9.428  -0.010  -0.047   0.014
  0.012  -0.031  -0.009  -0.001   0.006   0.012  -0.031  -0.009
  0.017  -0.045  -0.013  -0.002   0.008   0.017  -0.045  -0.013
  0.011  -0.008  -0.010   0.001  -0.016   0.011  -0.008  -0.010
[...]
  -Hartree energ DENC   =    -14542.97424898
  -exchange      EXHF   =         0.00000000
  -V(xc)+E(xc)   XCENC  =       114.18859025
  PAW double counting   =      7778.69894304    -7607.34272473
  entropy T*S    EENTRO =         0.01163108
  eigenvalues    EBANDS =      -660.85622534
  atomic energy  EATOM  =      7408.64415014
  Solvation  Ediel_sol  =         0.00000000
  ---------------------------------------------------
  free energy    TOTEN  =       -17.04221135 eV

  energy without entropy =      -17.05384244  energy(sigma->0) =      -17.04608838


--------------------------------------------------------------------------------------------------------




--------------------------------------- Iteration     11(   2)  ---------------------------------------


    POTLOK:  cpu time    3.5466: real time    3.5576
    SETDIJ:  cpu time    0.0245: real time    0.0246
     EDDAV:  cpu time    4.8343: real time    4.8398
       DOS:  cpu time    0.0021: real time    0.0021
    --------------------------------------------
      LOOP:  cpu time    8.4076: real time    8.4241

 eigenvalue-minimisations  :   168
 total energy-change (2. order) :-0.2755883E-04  (-0.2777534E-04)
 number of electron      88.0000017 magnetization       0.0000022
 augmentation part       32.3483413 magnetization       0.0000022

 Free energy of the ion-electron system (eV)
  ---------------------------------------------------
  alpha Z        PSCENC =         6.33530747
  Ewald energy   TEWEN  =      7486.25236573
  -Hartree energ DENC   =    -14542.97577340
  -exchange      EXHF   =         0.00000000
  -V(xc)+E(xc)   XCENC  =       114.18846039
  PAW double counting   =      7778.84266940    -7607.48723507
  entropy T*S    EENTRO =         0.01163096
  eigenvalues    EBANDS =      -660.85381453
  atomic energy  EATOM  =      7408.64415014
  Solvation  Ediel_sol  =         0.00000000
  ---------------------------------------------------
  free energy    TOTEN  =       -17.04223891 eV

  energy without entropy =      -17.05386987  energy(sigma->0) =      -17.04611590


--------------------------------------------------------------------------------------------------------




 average (electrostatic) potential at core
  the test charge radii are     1.2098
  (the norm of the test charge is              1.0000)
       1 -76.7773       2 -77.1571       3 -76.9261       4 -77.1596       5 -76.7786
       6 -77.3718       7 -76.9249       8 -77.0661
 
 
 
 E-fermi :  -5.2284     XC(G=0):  -0.3482     alpha+bet : -0.1614


 spin component 1

 k-point     1 :       0.0000    0.0000    0.0000
  band No.  band energies     occupation 
      1     -10.8223      1.00000
      2      -9.9444      1.00000
      3      -9.7326      1.00000
      4      -9.6340      1.00000
      5      -9.1878      1.00000
      6      -9.0184      1.00000
      7      -8.9520      1.00000
      8      -8.8334      1.00000
      9      -8.6378      1.00000
     10      -8.5278      1.00000
     11      -8.3769      1.00000
     12      -8.2663      1.00000
     13      -8.2630      1.00000
     14      -8.1501      1.00000
     15      -8.0495      1.00000
     16      -7.9623      1.00000
     17      -7.7550      1.00000
     18      -7.7291      1.00000
     19      -7.5051      1.00000
     20      -7.4768      1.00000
     21      -7.4061      1.00000
     22      -7.2718      1.00000
     23      -7.2131      1.00000
     24      -7.1084      1.00000
     25      -7.0989      1.00000
     26      -6.9870      1.00000
     27      -6.7990      1.00000
     28      -6.7615      1.00000
     29      -6.7544      1.00000
     30      -6.6973      1.00000
     31      -6.6951      1.00000
     32      -6.6649      1.00000
     33      -6.5836      1.00000
     34      -6.5510      1.00000
     35      -6.4869      1.00000
     36      -6.4515      1.00000
     37      -6.3670      1.00000
     38      -6.3320      1.00000
     39      -6.1448      1.00000
     40      -6.0308      1.00000
     41      -5.9969      1.00000
     42      -5.9367      1.00000
     43      -5.8668      1.00003
     44      -5.3967      0.99997
     45      -3.9293     -0.00000
     46      -3.7126     -0.00000
     47      -3.5653     -0.00000
     48      -3.3047     -0.00000
     49      -1.8356     -0.00000
     50      -1.5080     -0.00000
     51      -1.3001     -0.00000
     52      -1.2436     -0.00000
     53      -0.8315     -0.00000
     54      -0.4613     -0.00000
     55      -0.3044     -0.00000
     56       0.0081     -0.00000

 spin component 2

 k-point     1 :       0.0000    0.0000    0.0000
  band No.  band energies     occupation 
      1     -10.8223      1.00000
      2      -9.9444      1.00000
      3      -9.7326      1.00000
      4      -9.6340      1.00000
      5      -9.1878      1.00000
      6      -9.0184      1.00000
      7      -8.9520      1.00000
      8      -8.8334      1.00000
      9      -8.6378      1.00000
     10      -8.5278      1.00000
     11      -8.3769      1.00000
     12      -8.2663      1.00000
     13      -8.2630      1.00000
     14      -8.1501      1.00000
     15      -8.0495      1.00000
     16      -7.9623      1.00000
     17      -7.7550      1.00000
     18      -7.7291      1.00000
     19      -7.5051      1.00000
     20      -7.4768      1.00000
     21      -7.4061      1.00000
     22      -7.2718      1.00000
     23      -7.2131      1.00000
     24      -7.1084      1.00000
     25      -7.0989      1.00000
     26      -6.9870      1.00000
     27      -6.7990      1.00000
     28      -6.7615      1.00000
     29      -6.7544      1.00000
     30      -6.6973      1.00000
     31      -6.6951      1.00000
     32      -6.6649      1.00000
     33      -6.5836      1.00000
     34      -6.5510      1.00000
     35      -6.4869      1.00000
     36      -6.4515      1.00000
     37      -6.3670      1.00000
     38      -6.3320      1.00000
     39      -6.1448      1.00000
     40      -6.0308      1.00000
     41      -5.9969      1.00000
     42      -5.9367      1.00000
     43      -5.8668      1.00003
     44      -5.3967      0.99997
     45      -3.9293     -0.00000
     46      -3.7126     -0.00000
     47      -3.5653     -0.00000
     48      -3.3047     -0.00000
     49      -1.8356     -0.00000
     50      -1.5080     -0.00000
     51      -1.3001     -0.00000
     52      -1.2436     -0.00000
     53      -0.8315     -0.00000
     54      -0.4613     -0.00000
     55      -0.3044     -0.00000
     56       0.0081     -0.00000


--------------------------------------------------------------------------------------------------------


 soft charge-density along one line, spin component            1
         0         1         2         3         4         5         6         7         8         9
 total charge-density along one line
 
 soft charge-density along one line, spin component            2
         0         1         2         3         4         5         6         7         8         9
 total charge-density along one line
 
 pseudopotential strength for first ion, spin component:            1
 -9.258   0.002   0.030   0.051  -0.009  -9.379   0.002   0.030
  0.002  -9.220   0.024  -0.014  -0.040   0.002  -9.341   0.024
  0.030   0.024  -9.220  -0.004   0.017   0.030   0.024  -9.342
  0.051  -0.014  -0.004  -9.242   0.012   0.050  -0.014  -0.003
 -0.009  -0.040   0.017   0.012  -9.245  -0.008  -0.039   0.016
 -9.379   0.002   0.030   0.050  -0.008  -9.484   0.002   0.029
  0.002  -9.341   0.024  -0.014  -0.039   0.002  -9.447   0.023
  0.030   0.024  -9.342  -0.003   0.016   0.029   0.023  -9.448
  0.050  -0.014  -0.003  -9.363   0.012   0.049  -0.014  -0.003
 -0.008  -0.039   0.016   0.012  -9.366  -0.008  -0.039   0.016
  0.013  -0.027  -0.008  -0.003   0.007   0.013  -0.027  -0.008
  0.019  -0.039  -0.011  -0.004   0.010   0.019  -0.039  -0.011
  0.013  -0.015  -0.012   0.001  -0.020   0.013  -0.015  -0.012
  0.001   0.019  -0.019   0.013  -0.000   0.001   0.019  -0.018
  0.020   0.001  -0.008  -0.016   0.014   0.020   0.001  -0.008
  0.015  -0.017  -0.014   0.001  -0.022   0.015  -0.017  -0.013
  0.001   0.022  -0.021   0.015  -0.001   0.001   0.022  -0.021
  0.024   0.001  -0.010  -0.019   0.016   0.023   0.001  -0.010
 pseudopotential strength for first ion, spin component:            2
 -9.258   0.002   0.030   0.051  -0.009  -9.379   0.002   0.030
  0.002  -9.220   0.024  -0.014  -0.040   0.002  -9.341   0.024
  0.030   0.024  -9.220  -0.004   0.017   0.030   0.024  -9.342
  0.051  -0.014  -0.004  -9.242   0.012   0.050  -0.014  -0.003
 -0.009  -0.040   0.017   0.012  -9.245  -0.008  -0.039   0.016
 -9.379   0.002   0.030   0.050  -0.008  -9.484   0.002   0.029
  0.002  -9.341   0.024  -0.014  -0.039   0.002  -9.447   0.023
  0.030   0.024  -9.342  -0.003   0.016   0.029   0.023  -9.448
  0.050  -0.014  -0.003  -9.363   0.012   0.049  -0.014  -0.003
 -0.008  -0.039   0.016   0.012  -9.366  -0.008  -0.039   0.016
  0.013  -0.027  -0.008  -0.003   0.007   0.013  -0.027  -0.008
  0.019  -0.039  -0.011  -0.004   0.010   0.019  -0.039  -0.011
  0.013  -0.015  -0.012   0.001  -0.020   0.013  -0.015  -0.012
  0.001   0.019  -0.019   0.013  -0.000   0.001   0.019  -0.018
  0.020   0.001  -0.008  -0.016   0.014   0.020   0.001  -0.008
  0.015  -0.017  -0.014   0.001  -0.022   0.015  -0.017  -0.013
  0.001   0.022  -0.021   0.015  -0.001   0.001   0.022  -0.021
  0.024   0.001  -0.010  -0.019   0.016   0.023   0.001  -0.010
 total augmentation occupancy for first ion, spin component:            1
  2.736  -0.216  -0.022  -0.077  -0.068  -0.853   0.179   0.165   0.282  -0.052  -0.529   0.104   0.053  -0.027   0.080   0.009
 -0.216   3.199  -0.059   0.230   0.295   0.180  -1.181   0.110  -0.187  -0.353   1.105  -0.265  -0.152   0.139  -0.026  -0.008
 -0.022  -0.059   2.728  -0.086   0.027   0.164   0.112  -0.670   0.007   0.033   0.240  -0.022  -0.021  -0.036  -0.026  -0.011
 -0.077   0.230  -0.086   2.720   0.034   0.282  -0.188   0.007  -0.721   0.078   0.181  -0.062  -0.027   0.041  -0.059   0.003
 -0.068   0.295   0.027   0.034   2.900  -0.052  -0.356   0.033   0.078  -0.841  -0.125  -0.034  -0.076   0.035   0.037  -0.020
 -0.853   0.180   0.164   0.282  -0.052   0.903  -0.154  -0.276  -0.440   0.145   0.455  -0.093  -0.072   0.021  -0.148   0.003
  0.179  -1.181   0.112  -0.188  -0.356  -0.154   1.132  -0.151   0.158   0.403  -0.949   0.235   0.185  -0.179   0.020  -0.008
  0.165   0.110  -0.670   0.007   0.033  -0.276  -0.151   0.584   0.054  -0.080  -0.186   0.012   0.040   0.061   0.059  -0.001
  0.282  -0.187   0.007  -0.721   0.078  -0.440   0.158   0.054   0.680  -0.164  -0.174   0.061   0.021  -0.044   0.110  -0.001
 -0.052  -0.353   0.033   0.078  -0.841   0.145   0.403  -0.080  -0.164   0.757   0.076   0.045   0.090  -0.032  -0.076  -0.001
 -0.529   1.105   0.240   0.181  -0.125   0.455  -0.949  -0.186  -0.174   0.076   1.971  -0.246  -0.193   0.161  -0.105   0.012
  0.104  -0.265  -0.022  -0.062  -0.034  -0.093   0.235   0.012   0.061   0.045  -0.246   0.064   0.045  -0.038   0.017  -0.002
  0.053  -0.152  -0.021  -0.027  -0.076  -0.072   0.185   0.040   0.021   0.090  -0.193   0.045   0.043  -0.025   0.009  -0.003
 -0.027   0.139  -0.036   0.041   0.035   0.021  -0.179   0.061  -0.044  -0.032   0.161  -0.038  -0.025   0.036  -0.005   0.001
  0.080  -0.026  -0.026  -0.059   0.037  -0.148   0.020   0.059   0.110  -0.076  -0.105   0.017   0.009  -0.005   0.037  -0.001
  0.009  -0.008  -0.011   0.003  -0.020   0.003  -0.008  -0.001  -0.001  -0.001   0.012  -0.002  -0.003   0.001  -0.001   0.001
  0.003   0.013  -0.019   0.012  -0.002  -0.002   0.008  -0.000   0.000   0.001  -0.010   0.002   0.001  -0.002   0.000  -0.000
  0.014   0.003  -0.005  -0.011   0.011   0.008  -0.002  -0.004  -0.006   0.004   0.006  -0.001  -0.001   0.000  -0.003   0.000
 total augmentation occupancy for first ion, spin component:            2
 -0.000   0.000  -0.000   0.000   0.000   0.000  -0.000   0.000  -0.000  -0.000   0.000  -0.000   0.000   0.000  -0.000  -0.000
  0.000  -0.000   0.000  -0.000  -0.000  -0.000   0.000   0.000  -0.000   0.000  -0.000   0.000  -0.000   0.000  -0.000   0.000
 -0.000   0.000   0.000  -0.000   0.000   0.000  -0.000  -0.000  -0.000  -0.000   0.000  -0.000   0.000  -0.000   0.000  -0.000
  0.000  -0.000  -0.000  -0.000  -0.000  -0.000   0.000   0.000   0.000   0.000  -0.000   0.000  -0.000   0.000   0.000   0.000
  0.000  -0.000   0.000  -0.000  -0.000  -0.000   0.000  -0.000   0.000   0.000  -0.000   0.000  -0.000   0.000  -0.000   0.000
  0.000  -0.000   0.000  -0.000  -0.000  -0.000   0.000  -0.000   0.000   0.000  -0.000   0.000   0.000  -0.000   0.000   0.000
 -0.000   0.000  -0.000   0.000   0.000   0.000  -0.000   0.000   0.000  -0.000   0.000  -0.000   0.000  -0.000   0.000  -0.000
  0.000   0.000  -0.000   0.000  -0.000  -0.000   0.000   0.000  -0.000   0.000  -0.000   0.000  -0.000   0.000  -0.000   0.000
 -0.000  -0.000  -0.000   0.000   0.000   0.000   0.000  -0.000   0.000   0.000  -0.000  -0.000   0.000  -0.000  -0.000  -0.000
 -0.000   0.000  -0.000   0.000   0.000   0.000  -0.000   0.000   0.000  -0.000   0.000  -0.000   0.000  -0.000   0.000  -0.000
  0.000  -0.000   0.000  -0.000  -0.000  -0.000   0.000  -0.000  -0.000   0.000  -0.000   0.000  -0.000   0.000  -0.000   0.000
 -0.000   0.000  -0.000   0.000   0.000   0.000  -0.000   0.000  -0.000  -0.000   0.000  -0.000  -0.000   0.000   0.000  -0.000
  0.000  -0.000   0.000  -0.000  -0.000   0.000   0.000  -0.000   0.000   0.000  -0.000  -0.000   0.000  -0.000   0.000  -0.000
  0.000   0.000  -0.000   0.000   0.000  -0.000  -0.000   0.000  -0.000  -0.000   0.000   0.000  -0.000   0.000  -0.000   0.000
 -0.000  -0.000   0.000   0.000  -0.000   0.000   0.000  -0.000  -0.000   0.000  -0.000   0.000   0.000  -0.000  -0.000  -0.000
 -0.000   0.000  -0.000   0.000   0.000   0.000  -0.000   0.000  -0.000  -0.000   0.000  -0.000  -0.000   0.000  -0.000   0.000
 -0.000  -0.000   0.000  -0.000  -0.000   0.000   0.000  -0.000   0.000   0.000  -0.000   0.000   0.000  -0.000  -0.000   0.000
  0.000   0.000  -0.000  -0.000   0.000  -0.000  -0.000   0.000  -0.000  -0.000   0.000  -0.000  -0.000   0.000   0.000   0.000


------------------------ aborting loop because EDIFF is reached ----------------------------------------


    CHARGE:  cpu time    0.7290: real time    0.7322
    FORLOC:  cpu time    0.1070: real time    0.1070
    FORNL :  cpu time    3.6938: real time    3.6964
    FORCOR:  cpu time    3.5145: real time    3.5231
    FORHAR:  cpu time    0.4482: real time    0.4485
    MIXING:  cpu time    0.0638: real time    0.0639
    OFIELD:  cpu time    0.0000: real time    0.0000

 VOLUME and BASIS-vectors are now :
 -----------------------------------------------------------------------------
  energy-cutoff  :      400.00
  volume of cell :    11766.90
      direct lattice vectors                 reciprocal lattice vectors
    22.641849934  0.000000000  0.000000000     0.044166002  0.000000000  0.000000000
     0.000000000 24.294429838  0.000000000     0.000000000  0.041161699  0.000000000
     0.000000000  0.000000000 21.391613693     0.000000000  0.000000000  0.046747291

  length of vectors
    22.641849934 24.294429838 21.391613693     0.044166002  0.041161699  0.046747291


 FORCES acting on ions
    electron-ion (+dipol)            ewald-force                    non-local-force                 convergence-correction
 -----------------------------------------------------------------------------------------------
   -.259E+03 -.539E+03 0.390E+03   0.256E+03 0.534E+03 -.386E+03   0.292E+01 0.456E+01 -.379E+01   -.141E-01 -.131E-02 0.193E-01
   0.290E+03 -.453E+03 0.341E+03   -.289E+03 0.453E+03 -.341E+03   -.882E+00 -.200E+00 -.645E-02   0.167E-01 0.115E-01 -.244E-01
   -.665E+03 -.241E+03 -.114E+03   0.663E+03 0.240E+03 0.114E+03   0.252E+01 0.163E+01 -.404E+00   -.730E-02 0.175E-01 0.151E-01
   0.442E+03 0.370E+03 0.272E+03   -.442E+03 -.370E+03 -.272E+03   -.768E+00 0.472E+00 -.468E-01   0.921E-02 -.221E-01 -.204E-01
   -.414E+02 0.649E+03 0.297E+03   0.404E+02 -.643E+03 -.294E+03   0.102E+01 -.581E+01 -.299E+01   -.115E-01 0.978E-02 0.171E-01
   0.754E+03 -.160E+03 -.235E+03   -.748E+03 0.158E+03 0.232E+03   -.582E+01 0.133E+01 0.295E+01   -.183E-01 0.466E-02 0.146E-01
   -.540E+03 0.441E+03 -.167E+03   0.538E+03 -.439E+03 0.167E+03   0.176E+01 -.244E+01 -.865E-01   -.125E-01 -.106E-01 0.167E-01
   0.209E+02 -.669E+02 -.782E+03   -.189E+02 0.663E+02 0.779E+03   -.207E+01 0.612E+00 0.290E+01   0.296E-01 -.669E-02 -.228E-01
 -----------------------------------------------------------------------------------------------
   0.132E+01 -.144E+00 0.147E+01   0.000E+00 0.000E+00 0.114E-12   -.131E+01 0.140E+00 -.148E+01   -.811E-02 0.280E-02 0.151E-01
 
 
 POSITION                                       TOTAL-FORCE (eV/Angst)
 -----------------------------------------------------------------------------------
     13.04747     15.27994      9.00192        -0.002205     -0.012319     -0.020410
     11.01997     13.91013      9.90996         0.023473      0.014636      0.024793
     13.64235     13.42664     10.84027        -0.007306     -0.011940     -0.015390
     10.50252     11.12598     10.13760         0.020464     -0.014283      0.024215
     11.89193      9.01086      9.49985        -0.000024      0.008165     -0.019896
      9.01557     12.95351     11.39002        -0.009819     -0.000543     -0.024482
     13.15531     10.79274     11.04780        -0.002856      0.009604     -0.016278
     11.57972     12.55917     12.37744        -0.021728      0.006680      0.047447
 -----------------------------------------------------------------------------------
    total drift:                                0.000872     -0.001332      0.002104


--------------------------------------------------------------------------------------------------------



  FREE ENERGIE OF THE ION-ELECTRON SYSTEM (eV)
  ---------------------------------------------------
  free  energy   TOTEN  =       -17.04223891 eV

  energy  without entropy=      -17.05386987  energy(sigma->0) =      -17.04611590
 
 d Force =-0.5637445E-05[-0.967E-04, 0.854E-04]  d Energy =-0.6318609E-05 0.681E-06
 d Force =-0.2211871E+00[-0.222E+00,-0.221E+00]  d Ewald  =-0.2211871E+00 0.179E-07


--------------------------------------------------------------------------------------------------------


    POTLOK:  cpu time    3.5903: real time    3.5938


--------------------------------------------------------------------------------------------------------




--------------------------------------------------------------------------------------------------------


  
 reached required accuracy - stopping structural energy minimisation
     LOOP+:  cpu time   31.1608: real time   32.2358
    4ORBIT:  cpu time    0.0000: real time    0.0000

 total amount of memory used by VASP MPI-rank0   230434. kBytes
=======================================================================

   base      :      30000. kBytes
   nonl-proj :       3632. kBytes
   fftplans  :      53008. kBytes
   grid      :     119831. kBytes
   one-center:         15. kBytes
   wavefun   :      23948. kBytes
 
  
  
 General timing and accounting informations for this job:
 ========================================================
  
                  Total CPU time used (sec):      792.015
                            User time (sec):      782.952
                          System time (sec):        9.062
                         Elapsed time (sec):      801.173
  
                   Maximum memory used (kb):      458644.
                   Average memory used (kb):           0.
  
                          Minor page faults:      3544348
                          Major page faults:        20607
                 Voluntary context switches:         3541
