unknown system                          
            1
    22.641850    0.000000    0.000000
     0.000000   24.294430    0.000000
     0.000000    0.000000   21.391614
   Au
     8
Direct configuration=     1
   0.57650618  0.62527912  0.42525372
   0.48804677  0.57052281  0.46441668
   0.59925269  0.55210861  0.50343534
   0.46587836  0.45951028  0.47477671
   0.52700368  0.37481151  0.44780679
   0.40202961  0.53262127  0.53359131
   0.57806075  0.44541284  0.51298626
   0.50841434  0.51716906  0.57408241
Direct configuration=     2
   0.57689039  0.62827863  0.42219769
   0.48654268  0.57162928  0.46286492
   0.60168180  0.55041228  0.50593027
   0.46400524  0.45877497  0.47341327
   0.52614654  0.37150831  0.44532268
   0.39847370  0.53324841  0.53382073
   0.58104139  0.44651209  0.51522040
   0.51041062  0.51707152  0.57757927
Direct configuration=     3
   0.57690854  0.62842036  0.42205329
   0.48647161  0.57168156  0.46279160
   0.60179658  0.55033213  0.50604816
   0.46391674  0.45874023  0.47334885
   0.52610604  0.37135223  0.44520530
   0.39830568  0.53327805  0.53383157
   0.58118223  0.44656403  0.51532597
   0.51050495  0.51706691  0.57774450
Direct configuration=     4
   0.57680721  0.62859531  0.42177489
   0.48643735  0.57212933  0.46255452
   0.60257066  0.55174207  0.50600524
   0.46371353  0.45831246  0.47318413
   0.52593108  0.37118573  0.44496396
   0.39784799  0.53334586  0.53370895
   0.58137199  0.44499969  0.51554755
   0.51051254  0.51712505  0.57860999
Direct configuration=     5
   0.57679487  0.62861663  0.42174098
   0.48643318  0.57218387  0.46252564
   0.60266496  0.55191383  0.50600001
   0.46368878  0.45826035  0.47316406
   0.52590977  0.37116545  0.44493456
   0.39779223  0.53335412  0.53369401
   0.58139511  0.44480912  0.51557454
   0.51051347  0.51713214  0.57871542
Direct configuration=     6
   0.57668930  0.62873861  0.42150588
   0.48642100  0.57222645  0.46272038
   0.60263934  0.55211418  0.50622476
   0.46367180  0.45825927  0.47335087
   0.52575150  0.37105398  0.44472546
   0.39793538  0.53330493  0.53338119
   0.58130494  0.44466055  0.51583218
   0.51077911  0.51707753  0.57860852
Direct configuration=     7
   0.57649924  0.62895824  0.42108261
   0.48639908  0.57230311  0.46307098
   0.60259322  0.55247489  0.50662938
   0.46364123  0.45825732  0.47368719
   0.52546656  0.37085329  0.44434899
   0.39819311  0.53321637  0.53281801
   0.58114260  0.44439306  0.51629602
   0.51125735  0.51697922  0.57841606
Direct configuration=     8
   0.57623514  0.62894017  0.42089045
   0.48672359  0.57257394  0.46316935
   0.60251922  0.55268791  0.50678192
   0.46385637  0.45793023  0.47382105
   0.52520934  0.37092769  0.44415936
   0.39813499  0.53320418  0.53254917
   0.58100026  0.44423502  0.51648507
   0.51151346  0.51693638  0.57849285
Direct configuration=     9
   0.57620647  0.62893821  0.42086959
   0.48675882  0.57260334  0.46318003
   0.60251119  0.55271103  0.50679848
   0.46387973  0.45789471  0.47383558
   0.52518141  0.37093576  0.44413877
   0.39812868  0.53320285  0.53251999
   0.58098480  0.44421786  0.51650560
   0.51154126  0.51693172  0.57850119
Direct configuration=    10
   0.57627117  0.62895188  0.42079676
   0.48669037  0.57255122  0.46329281
   0.60253408  0.55264681  0.50673767
   0.46384528  0.45798826  0.47392930
   0.52523183  0.37089060  0.44407604
   0.39820000  0.53318323  0.53242927
   0.58102859  0.44425804  0.51643727
   0.51139105  0.51696546  0.57865012
Direct configuration=    11
   0.57625449  0.62894835  0.42081554
   0.48670802  0.57256466  0.46326373
   0.60252818  0.55266337  0.50675335
   0.46385416  0.45796414  0.47390513
   0.52521883  0.37090225  0.44409222
   0.39818161  0.53318829  0.53245266
   0.58101730  0.44424768  0.51645489
   0.51142978  0.51695676  0.57861171
