   8   8   0   0
  0.1344462E+04  0.2214546E-08  0.2196991E-08  0.2210678E-08  0.5000000E-15
   1.0000000000000000E-004
  CAR 
 unknown system                          
      2.06457277    -12.39984548  301     -5.07232323      1.00000000
    -12.400  0.0000E+00  0.0000E+00  0.0000E+00  0.0000E+00
    -12.352  0.0000E+00  0.0000E+00  0.0000E+00  0.0000E+00
    -12.303  0.0000E+00  0.0000E+00  0.0000E+00  0.0000E+00
    -12.255  0.0000E+00  0.0000E+00  0.0000E+00  0.0000E+00
    -12.207  0.0000E+00  0.0000E+00  0.0000E+00  0.0000E+00
    -12.159  0.0000E+00  0.0000E+00  0.0000E+00  0.0000E+00
    -12.111  0.0000E+00  0.0000E+00  0.0000E+00  0.0000E+00
    -12.062  0.0000E+00  0.0000E+00  0.0000E+00  0.0000E+00
    -12.014 -0.2404E-29 -0.2404E-29 -0.1159E-30 -0.1159E-30
    -11.966 -0.1054E-27 -0.1054E-27 -0.5197E-29 -0.5197E-29
    -11.918 -0.4191E-26 -0.4191E-26 -0.2073E-27 -0.2073E-27
    -11.869 -0.1482E-24 -0.1482E-24 -0.7352E-26 -0.7353E-26
    -11.821 -0.4658E-23 -0.4658E-23 -0.2319E-24 -0.2320E-24
    -11.773 -0.1301E-21 -0.1301E-21 -0.6506E-23 -0.6507E-23
    -11.725 -0.3231E-20 -0.3231E-20 -0.1623E-21 -0.1623E-21
    -11.677 -0.7128E-19 -0.7128E-19 -0.3599E-20 -0.3599E-20
    -11.628 -0.1397E-17 -0.1397E-17 -0.7095E-19 -0.7095E-19
    -11.580 -0.2317E-16 -0.2317E-16 -0.1188E-17 -0.1188E-17
    -11.532 -0.3644E-15 -0.3644E-15 -0.1876E-16 -0.1876E-16
    -11.484 -0.4984E-14 -0.4984E-14 -0.2591E-15 -0.2591E-15
    -11.436 -0.6049E-13 -0.6050E-13 -0.3176E-14 -0.3176E-14
    -11.387 -0.6510E-12 -0.6510E-12 -0.3456E-13 -0.3457E-13
    -11.339 -0.6209E-11 -0.6209E-11 -0.3339E-12 -0.3339E-12
    -11.291 -0.5244E-10 -0.5244E-10 -0.2862E-11 -0.2862E-11
    -11.243 -0.3919E-09 -0.3919E-09 -0.2176E-10 -0.2176E-10
    -11.194 -0.2590E-08 -0.2590E-08 -0.1466E-09 -0.1466E-09
    -11.146 -0.1511E-07 -0.1511E-07 -0.8750E-09 -0.8750E-09
    -11.098 -0.7770E-07 -0.7770E-07 -0.4621E-08 -0.4621E-08
    -11.050 -0.3516E-06 -0.3516E-06 -0.2157E-07 -0.2157E-07
    -11.002 -0.1396E-05 -0.1396E-05 -0.8887E-07 -0.8887E-07
    -10.953 -0.4843E-05 -0.4843E-05 -0.3224E-06 -0.3224E-06
    -10.905 -0.1461E-04 -0.1461E-04 -0.1027E-05 -0.1027E-05
    -10.857 -0.3798E-04 -0.3798E-04 -0.2858E-05 -0.2858E-05
    -10.809 -0.8391E-04 -0.8391E-04 -0.6904E-05 -0.6904E-05
    -10.761 -0.1533E-03 -0.1533E-03 -0.1430E-04 -0.1430E-04
    -10.712 -0.2179E-03 -0.2179E-03 -0.2480E-04 -0.2481E-04
    -10.664 -0.1949E-03 -0.1949E-03 -0.3420E-04 -0.3420E-04
    -10.616  0.5441E-04  0.5442E-04 -0.3158E-04 -0.3158E-04
    -10.568  0.6672E-03  0.6672E-03  0.5910E-06  0.5920E-06
    -10.519  0.1664E-02  0.1664E-02  0.8083E-04  0.8083E-04
    -10.471  0.2848E-02  0.2848E-02  0.2181E-03  0.2181E-03
    -10.423  0.3826E-02  0.3826E-02  0.4026E-03  0.4026E-03
    -10.375  0.4197E-02  0.4197E-02  0.6049E-03  0.6049E-03
    -10.327  0.3798E-02  0.3798E-02  0.7880E-03  0.7880E-03
    -10.278  0.2804E-02  0.2804E-02  0.9232E-03  0.9232E-03
    -10.230  0.1621E-02  0.1621E-02  0.1001E-02  0.1001E-02
    -10.182  0.6366E-03  0.6366E-03  0.1032E-02  0.1032E-02
    -10.134  0.3906E-04  0.3905E-04  0.1034E-02  0.1034E-02
    -10.086 -0.1989E-03 -0.1989E-03  0.1024E-02  0.1024E-02
    -10.037 -0.2164E-03 -0.2164E-03  0.1014E-02  0.1014E-02
     -9.989 -0.1505E-03 -0.1505E-03  0.1007E-02  0.1007E-02
     -9.941 -0.8170E-04 -0.8170E-04  0.1003E-02  0.1003E-02
     -9.893 -0.3674E-04 -0.3674E-04  0.1001E-02  0.1001E-02
     -9.844 -0.1405E-04 -0.1405E-04  0.1000E-02  0.1000E-02
     -9.796 -0.4633E-05 -0.4633E-05  0.1000E-02  0.1000E-02
     -9.748 -0.1328E-05 -0.1328E-05  0.1000E-02  0.1000E-02
     -9.700 -0.3329E-06 -0.3329E-06  0.1000E-02  0.1000E-02
     -9.652 -0.7321E-07 -0.7321E-07  0.1000E-02  0.1000E-02
     -9.603 -0.1419E-07 -0.1419E-07  0.1000E-02  0.1000E-02
     -9.555 -0.2621E-08 -0.2621E-08  0.1000E-02  0.1000E-02
     -9.507 -0.1866E-08 -0.1866E-08  0.1000E-02  0.1000E-02
     -9.459 -0.9817E-08 -0.9817E-08  0.1000E-02  0.1000E-02
     -9.411 -0.5609E-07 -0.5609E-07  0.1000E-02  0.1000E-02
     -9.362 -0.2838E-06 -0.2838E-06  0.1000E-02  0.1000E-02
     -9.314 -0.1263E-05 -0.1263E-05  0.9999E-03  0.9999E-03
     -9.266 -0.4931E-05 -0.4931E-05  0.9997E-03  0.9997E-03
     -9.218 -0.1682E-04 -0.1682E-04  0.9989E-03  0.9989E-03
     -9.169 -0.4981E-04 -0.4981E-04  0.9965E-03  0.9965E-03
     -9.121 -0.1270E-03 -0.1270E-03  0.9903E-03  0.9903E-03
     -9.073 -0.2744E-03 -0.2744E-03  0.9771E-03  0.9771E-03
     -9.025 -0.4881E-03 -0.4881E-03  0.9536E-03  0.9536E-03
     -8.977 -0.6664E-03 -0.6664E-03  0.9215E-03  0.9215E-03
     -8.928 -0.5375E-03 -0.5375E-03  0.8955E-03  0.8955E-03
     -8.880  0.3272E-03  0.3272E-03  0.9113E-03  0.9113E-03
     -8.832  0.2317E-02  0.2317E-02  0.1023E-02  0.1023E-02
     -8.784  0.5423E-02  0.5423E-02  0.1284E-02  0.1284E-02
     -8.736  0.8967E-02  0.8967E-02  0.1717E-02  0.1717E-02
     -8.687  0.1173E-01  0.1173E-01  0.2282E-02  0.2282E-02
     -8.639  0.1255E-01  0.1255E-01  0.2887E-02  0.2887E-02
     -8.591  0.1106E-01  0.1106E-01  0.3421E-02  0.3421E-02
     -8.543  0.7869E-02  0.7869E-02  0.3800E-02  0.3800E-02
     -8.494  0.4210E-02  0.4210E-02  0.4003E-02  0.4003E-02
     -8.446  0.1182E-02  0.1182E-02  0.4060E-02  0.4060E-02
     -8.398 -0.6643E-03 -0.6643E-03  0.4028E-02  0.4028E-02
     -8.350 -0.1241E-02 -0.1241E-02  0.3968E-02  0.3968E-02
     -8.302 -0.5771E-03 -0.5771E-03  0.3940E-02  0.3940E-02
     -8.253  0.1350E-02  0.1350E-02  0.4005E-02  0.4005E-02
     -8.205  0.4415E-02  0.4415E-02  0.4218E-02  0.4218E-02
     -8.157  0.7996E-02  0.7996E-02  0.4604E-02  0.4604E-02
     -8.109  0.1092E-01  0.1092E-01  0.5130E-02  0.5130E-02
     -8.061  0.1196E-01  0.1196E-01  0.5707E-02  0.5707E-02
     -8.012  0.1061E-01  0.1061E-01  0.6218E-02  0.6218E-02
     -7.964  0.7630E-02  0.7630E-02  0.6586E-02  0.6586E-02
     -7.916  0.4741E-02  0.4741E-02  0.6815E-02  0.6815E-02
     -7.868  0.3825E-02  0.3825E-02  0.6999E-02  0.6999E-02
     -7.819  0.5884E-02  0.5884E-02  0.7283E-02  0.7283E-02
     -7.771  0.1045E-01  0.1045E-01  0.7787E-02  0.7787E-02
     -7.723  0.1578E-01  0.1578E-01  0.8548E-02  0.8548E-02
     -7.675  0.1978E-01  0.1978E-01  0.9502E-02  0.9502E-02
     -7.627  0.2120E-01  0.2120E-01  0.1052E-01  0.1052E-01
     -7.578  0.2020E-01  0.2020E-01  0.1150E-01  0.1150E-01
     -7.530  0.1790E-01  0.1790E-01  0.1236E-01  0.1236E-01
     -7.482  0.1545E-01  0.1545E-01  0.1311E-01  0.1311E-01
     -7.434  0.1339E-01  0.1339E-01  0.1375E-01  0.1375E-01
     -7.386  0.1183E-01  0.1183E-01  0.1432E-01  0.1432E-01
     -7.337  0.1093E-01  0.1093E-01  0.1485E-01  0.1485E-01
     -7.289  0.1096E-01  0.1096E-01  0.1538E-01  0.1538E-01
     -7.241  0.1196E-01  0.1196E-01  0.1595E-01  0.1595E-01
     -7.193  0.1354E-01  0.1354E-01  0.1661E-01  0.1661E-01
     -7.144  0.1511E-01  0.1511E-01  0.1734E-01  0.1734E-01
     -7.096  0.1624E-01  0.1624E-01  0.1812E-01  0.1812E-01
     -7.048  0.1685E-01  0.1685E-01  0.1893E-01  0.1893E-01
     -7.000  0.1708E-01  0.1708E-01  0.1975E-01  0.1975E-01
     -6.952  0.1713E-01  0.1713E-01  0.2058E-01  0.2058E-01
     -6.903  0.1718E-01  0.1718E-01  0.2141E-01  0.2141E-01
     -6.855  0.1718E-01  0.1718E-01  0.2224E-01  0.2224E-01
     -6.807  0.1673E-01  0.1673E-01  0.2304E-01  0.2304E-01
     -6.759  0.1527E-01  0.1527E-01  0.2378E-01  0.2378E-01
     -6.711  0.1247E-01  0.1247E-01  0.2438E-01  0.2438E-01
     -6.662  0.8689E-02  0.8689E-02  0.2480E-01  0.2480E-01
     -6.614  0.4788E-02  0.4788E-02  0.2503E-01  0.2503E-01
     -6.566  0.1634E-02  0.1634E-02  0.2511E-01  0.2511E-01
     -6.518 -0.3826E-03 -0.3826E-03  0.2509E-01  0.2509E-01
     -6.469 -0.1399E-02 -0.1399E-02  0.2502E-01  0.2502E-01
     -6.421 -0.1742E-02 -0.1742E-02  0.2494E-01  0.2494E-01
     -6.373 -0.1494E-02 -0.1494E-02  0.2487E-01  0.2487E-01
     -6.325 -0.3047E-03 -0.3047E-03  0.2485E-01  0.2485E-01
     -6.277  0.2413E-02  0.2413E-02  0.2497E-01  0.2497E-01
     -6.228  0.6916E-02  0.6916E-02  0.2530E-01  0.2530E-01
     -6.180  0.1256E-01  0.1256E-01  0.2591E-01  0.2591E-01
     -6.132  0.1770E-01  0.1770E-01  0.2676E-01  0.2676E-01
     -6.084  0.2037E-01  0.2037E-01  0.2774E-01  0.2774E-01
     -6.036  0.1943E-01  0.1943E-01  0.2868E-01  0.2868E-01
     -5.987  0.1522E-01  0.1522E-01  0.2941E-01  0.2941E-01
     -5.939  0.9357E-02  0.9357E-02  0.2987E-01  0.2987E-01
     -5.891  0.3749E-02  0.3749E-02  0.3005E-01  0.3005E-01
     -5.843 -0.3226E-03 -0.3226E-03  0.3003E-01  0.3003E-01
     -5.794 -0.2354E-02 -0.2354E-02  0.2992E-01  0.2992E-01
     -5.746 -0.2149E-02 -0.2149E-02  0.2981E-01  0.2981E-01
     -5.698  0.6167E-03  0.6166E-03  0.2984E-01  0.2984E-01
     -5.650  0.6243E-02  0.6243E-02  0.3014E-01  0.3014E-01
     -5.602  0.1433E-01  0.1433E-01  0.3084E-01  0.3083E-01
     -5.553  0.2328E-01  0.2328E-01  0.3196E-01  0.3196E-01
     -5.505  0.3072E-01  0.3072E-01  0.3344E-01  0.3344E-01
     -5.457  0.3474E-01  0.3474E-01  0.3511E-01  0.3511E-01
     -5.409  0.3501E-01  0.3501E-01  0.3680E-01  0.3680E-01
     -5.360  0.3273E-01  0.3273E-01  0.3838E-01  0.3838E-01
     -5.312  0.2953E-01  0.2953E-01  0.3980E-01  0.3980E-01
     -5.264  0.2624E-01  0.2624E-01  0.4107E-01  0.4107E-01
     -5.216  0.2260E-01  0.2260E-01  0.4216E-01  0.4216E-01
     -5.168  0.1810E-01  0.1810E-01  0.4303E-01  0.4303E-01
     -5.119  0.1277E-01  0.1277E-01  0.4365E-01  0.4365E-01
     -5.071  0.7435E-02  0.7435E-02  0.4401E-01  0.4401E-01
     -5.023  0.3097E-02  0.3097E-02  0.4415E-01  0.4415E-01
     -4.975  0.3530E-03  0.3530E-03  0.4417E-01  0.4417E-01
     -4.927 -0.8641E-03 -0.8641E-03  0.4413E-01  0.4413E-01
     -4.878 -0.1060E-02 -0.1060E-02  0.4408E-01  0.4408E-01
     -4.830 -0.8010E-03 -0.8010E-03  0.4404E-01  0.4404E-01
     -4.782 -0.4704E-03 -0.4704E-03  0.4402E-01  0.4402E-01
     -4.734 -0.2289E-03 -0.2289E-03  0.4401E-01  0.4401E-01
     -4.685 -0.9483E-04 -0.9483E-04  0.4400E-01  0.4400E-01
     -4.637 -0.3392E-04 -0.3393E-04  0.4400E-01  0.4400E-01
     -4.589 -0.1057E-04 -0.1057E-04  0.4400E-01  0.4400E-01
     -4.541 -0.2879E-05 -0.2879E-05  0.4400E-01  0.4400E-01
     -4.493 -0.6891E-06 -0.6891E-06  0.4400E-01  0.4400E-01
     -4.444 -0.1452E-06 -0.1452E-06  0.4400E-01  0.4400E-01
     -4.396 -0.2698E-07 -0.2698E-07  0.4400E-01  0.4400E-01
     -4.348 -0.4428E-08 -0.4429E-08  0.4400E-01  0.4400E-01
     -4.300 -0.6427E-09 -0.6428E-09  0.4400E-01  0.4400E-01
     -4.252 -0.8256E-10 -0.8257E-10  0.4400E-01  0.4400E-01
     -4.203 -0.9450E-11 -0.9450E-11  0.4400E-01  0.4400E-01
     -4.155 -0.1567E-11 -0.1567E-11  0.4400E-01  0.4400E-01
     -4.107 -0.6015E-11 -0.6013E-11  0.4400E-01  0.4400E-01
     -4.059 -0.5022E-10 -0.5020E-10  0.4400E-01  0.4400E-01
     -4.010 -0.3763E-09 -0.3762E-09  0.4400E-01  0.4400E-01
     -3.962 -0.2492E-08 -0.2492E-08  0.4400E-01  0.4400E-01
     -3.914 -0.1458E-07 -0.1458E-07  0.4400E-01  0.4400E-01
     -3.866 -0.7518E-07 -0.7517E-07  0.4400E-01  0.4400E-01
     -3.818 -0.3411E-06 -0.3411E-06  0.4400E-01  0.4400E-01
     -3.769 -0.1358E-05 -0.1358E-05  0.4400E-01  0.4400E-01
     -3.721 -0.4728E-05 -0.4728E-05  0.4400E-01  0.4400E-01
     -3.673 -0.1431E-04 -0.1431E-04  0.4400E-01  0.4400E-01
     -3.625 -0.3739E-04 -0.3738E-04  0.4400E-01  0.4400E-01
     -3.577 -0.8314E-04 -0.8313E-04  0.4399E-01  0.4399E-01
     -3.528 -0.1537E-03 -0.1537E-03  0.4399E-01  0.4399E-01
     -3.480 -0.2245E-03 -0.2245E-03  0.4397E-01  0.4397E-01
     -3.432 -0.2212E-03 -0.2212E-03  0.4396E-01  0.4396E-01
     -3.384 -0.2219E-04 -0.2224E-04  0.4396E-01  0.4396E-01
     -3.335  0.4853E-03  0.4852E-03  0.4399E-01  0.4399E-01
     -3.287  0.1304E-02  0.1304E-02  0.4405E-01  0.4405E-01
     -3.239  0.2267E-02  0.2267E-02  0.4416E-01  0.4416E-01
     -3.191  0.3135E-02  0.3134E-02  0.4431E-01  0.4431E-01
     -3.143  0.3832E-02  0.3832E-02  0.4449E-01  0.4449E-01
     -3.094  0.4634E-02  0.4634E-02  0.4472E-01  0.4472E-01
     -3.046  0.6017E-02  0.6017E-02  0.4501E-01  0.4501E-01
     -2.998  0.8179E-02  0.8179E-02  0.4540E-01  0.4540E-01
     -2.950  0.1063E-01  0.1063E-01  0.4591E-01  0.4591E-01
     -2.902  0.1228E-01  0.1228E-01  0.4651E-01  0.4651E-01
     -2.853  0.1214E-01  0.1214E-01  0.4709E-01  0.4709E-01
     -2.805  0.1002E-01  0.1002E-01  0.4758E-01  0.4758E-01
     -2.757  0.6703E-02  0.6703E-02  0.4790E-01  0.4790E-01
     -2.709  0.3372E-02  0.3372E-02  0.4806E-01  0.4806E-01
     -2.660  0.9452E-03  0.9454E-03  0.4811E-01  0.4811E-01
     -2.612 -0.3159E-03 -0.3159E-03  0.4809E-01  0.4809E-01
     -2.564 -0.6764E-03 -0.6764E-03  0.4806E-01  0.4806E-01
     -2.516 -0.5762E-03 -0.5762E-03  0.4803E-01  0.4803E-01
     -2.468 -0.3570E-03 -0.3570E-03  0.4801E-01  0.4801E-01
     -2.419 -0.1829E-03 -0.1829E-03  0.4801E-01  0.4801E-01
     -2.371 -0.9271E-04 -0.9271E-04  0.4800E-01  0.4800E-01
     -2.323 -0.7816E-04 -0.7815E-04  0.4800E-01  0.4800E-01
     -2.275 -0.1306E-03 -0.1306E-03  0.4799E-01  0.4799E-01
     -2.227 -0.2458E-03 -0.2458E-03  0.4798E-01  0.4798E-01
     -2.178 -0.3903E-03 -0.3902E-03  0.4796E-01  0.4796E-01
     -2.130 -0.4465E-03 -0.4465E-03  0.4794E-01  0.4794E-01
     -2.082 -0.1781E-03 -0.1782E-03  0.4793E-01  0.4793E-01
     -2.034  0.7139E-03  0.7136E-03  0.4796E-01  0.4796E-01
     -1.985  0.2401E-02  0.2401E-02  0.4808E-01  0.4808E-01
     -1.937  0.4687E-02  0.4687E-02  0.4831E-01  0.4831E-01
     -1.889  0.6926E-02  0.6925E-02  0.4864E-01  0.4864E-01
     -1.841  0.8262E-02  0.8262E-02  0.4904E-01  0.4904E-01
     -1.793  0.8115E-02  0.8115E-02  0.4943E-01  0.4943E-01
     -1.744  0.6551E-02  0.6551E-02  0.4975E-01  0.4975E-01
     -1.696  0.4239E-02  0.4239E-02  0.4995E-01  0.4995E-01
     -1.648  0.2028E-02  0.2028E-02  0.5005E-01  0.5005E-01
     -1.600  0.4880E-03  0.4883E-03  0.5007E-01  0.5007E-01
     -1.552 -0.2669E-03 -0.2668E-03  0.5006E-01  0.5006E-01
     -1.503 -0.4519E-03 -0.4519E-03  0.5004E-01  0.5004E-01
     -1.455 -0.3642E-03 -0.3643E-03  0.5002E-01  0.5002E-01
     -1.407 -0.2178E-03 -0.2179E-03  0.5001E-01  0.5001E-01
     -1.359 -0.1076E-03 -0.1076E-03  0.5000E-01  0.5000E-01
     -1.310 -0.5110E-04 -0.5109E-04  0.5000E-01  0.5000E-01
     -1.262 -0.4093E-04 -0.4088E-04  0.5000E-01  0.5000E-01
     -1.214 -0.7691E-04 -0.7676E-04  0.4999E-01  0.4999E-01
     -1.166 -0.1748E-03 -0.1745E-03  0.4999E-01  0.4999E-01
     -1.118 -0.3507E-03 -0.3502E-03  0.4997E-01  0.4997E-01
     -1.069 -0.5721E-03 -0.5717E-03  0.4994E-01  0.4994E-01
     -1.021 -0.6813E-03 -0.6814E-03  0.4991E-01  0.4991E-01
     -0.973 -0.3425E-03 -0.3441E-03  0.4989E-01  0.4989E-01
     -0.925  0.8839E-03  0.8800E-03  0.4994E-01  0.4993E-01
     -0.877  0.3274E-02  0.3267E-02  0.5009E-01  0.5009E-01
     -0.828  0.6589E-02  0.6581E-02  0.5041E-01  0.5041E-01
     -0.780  0.9947E-02  0.9940E-02  0.5089E-01  0.5089E-01
     -0.732  0.1217E-01  0.1217E-01  0.5148E-01  0.5148E-01
     -0.684  0.1249E-01  0.1249E-01  0.5208E-01  0.5208E-01
     -0.635  0.1103E-01  0.1103E-01  0.5261E-01  0.5261E-01
     -0.587  0.8697E-02  0.8702E-02  0.5303E-01  0.5303E-01
     -0.539  0.6493E-02  0.6498E-02  0.5334E-01  0.5334E-01
     -0.491  0.4892E-02  0.4895E-02  0.5358E-01  0.5358E-01
     -0.443  0.3762E-02  0.3765E-02  0.5376E-01  0.5376E-01
     -0.394  0.2746E-02  0.2748E-02  0.5389E-01  0.5389E-01
     -0.346  0.1657E-02  0.1660E-02  0.5397E-01  0.5397E-01
     -0.298  0.5897E-03  0.5919E-03  0.5400E-01  0.5400E-01
     -0.250 -0.2237E-03 -0.2224E-03  0.5399E-01  0.5399E-01
     -0.202 -0.5397E-03 -0.5406E-03  0.5396E-01  0.5396E-01
     -0.153 -0.1416E-03 -0.1462E-03  0.5396E-01  0.5396E-01
     -0.105  0.1122E-02  0.1113E-02  0.5401E-01  0.5401E-01
     -0.057  0.3191E-02  0.3179E-02  0.5417E-01  0.5416E-01
     -0.009  0.5621E-02  0.5608E-02  0.5444E-01  0.5443E-01
      0.040  0.7617E-02  0.7609E-02  0.5480E-01  0.5480E-01
      0.088  0.8384E-02  0.8385E-02  0.5521E-01  0.5521E-01
      0.136  0.7599E-02  0.7607E-02  0.5557E-01  0.5557E-01
      0.184  0.5618E-02  0.5630E-02  0.5585E-01  0.5584E-01
      0.232  0.3253E-02  0.3265E-02  0.5600E-01  0.5600E-01
      0.281  0.1281E-02  0.1290E-02  0.5606E-01  0.5606E-01
      0.329  0.8237E-04  0.8653E-04  0.5607E-01  0.5607E-01
      0.377 -0.3965E-03 -0.3955E-03  0.5605E-01  0.5605E-01
      0.425 -0.4331E-03 -0.4335E-03  0.5603E-01  0.5603E-01
      0.473 -0.3017E-03 -0.3025E-03  0.5601E-01  0.5601E-01
      0.522 -0.1640E-03 -0.1646E-03  0.5601E-01  0.5601E-01
      0.570 -0.7382E-04 -0.7416E-04  0.5600E-01  0.5600E-01
      0.618 -0.2825E-04 -0.2841E-04  0.5600E-01  0.5600E-01
      0.666 -0.9324E-05 -0.9381E-05  0.5600E-01  0.5600E-01
      0.715 -0.2676E-05 -0.2694E-05  0.5600E-01  0.5600E-01
      0.763 -0.6711E-06 -0.6761E-06  0.5600E-01  0.5600E-01
      0.811 -0.1477E-06 -0.1489E-06  0.5600E-01  0.5600E-01
      0.859 -0.2861E-07 -0.2886E-07  0.5600E-01  0.5600E-01
      0.907 -0.4885E-08 -0.4930E-08  0.5600E-01  0.5600E-01
      0.956 -0.7365E-09 -0.7437E-09  0.5600E-01  0.5600E-01
      1.004 -0.9817E-10 -0.9919E-10  0.5600E-01  0.5600E-01
      1.052 -0.1158E-10 -0.1171E-10  0.5600E-01  0.5600E-01
      1.100 -0.1210E-11 -0.1224E-11  0.5600E-01  0.5600E-01
      1.148 -0.1120E-12 -0.1133E-12  0.5600E-01  0.5600E-01
      1.197 -0.9197E-14 -0.9317E-14  0.5600E-01  0.5600E-01
      1.245 -0.6632E-15 -0.6724E-15  0.5600E-01  0.5600E-01
      1.293 -0.5066E-16 -0.5066E-16  0.5600E-01  0.5600E-01
      1.341  0.0000E+00  0.0000E+00  0.5600E-01  0.5600E-01
      1.390  0.0000E+00  0.0000E+00  0.5600E-01  0.5600E-01
      1.438  0.0000E+00  0.0000E+00  0.5600E-01  0.5600E-01
      1.486  0.0000E+00  0.0000E+00  0.5600E-01  0.5600E-01
      1.534  0.0000E+00  0.0000E+00  0.5600E-01  0.5600E-01
      1.582  0.0000E+00  0.0000E+00  0.5600E-01  0.5600E-01
      1.631  0.0000E+00  0.0000E+00  0.5600E-01  0.5600E-01
      1.679  0.0000E+00  0.0000E+00  0.5600E-01  0.5600E-01
      1.727  0.0000E+00  0.0000E+00  0.5600E-01  0.5600E-01
      1.775  0.0000E+00  0.0000E+00  0.5600E-01  0.5600E-01
      1.823  0.0000E+00  0.0000E+00  0.5600E-01  0.5600E-01
      1.872  0.0000E+00  0.0000E+00  0.5600E-01  0.5600E-01
      1.920  0.0000E+00  0.0000E+00  0.5600E-01  0.5600E-01
      1.968  0.0000E+00  0.0000E+00  0.5600E-01  0.5600E-01
      2.016  0.0000E+00  0.0000E+00  0.5600E-01  0.5600E-01
      2.065  0.0000E+00  0.0000E+00  0.5600E-01  0.5600E-01
