    8    8 1000    2
  0.1344462E+04  0.2214546E-08  0.2196991E-08  0.2210678E-08  0.5000000E-15
   1.0000000000000000E-004
  CAR 
 unknown system                          
     88      1     56
 
  0.1262379E-14  0.1262379E-14  0.1262379E-14  0.1000000E+01
    1      -10.399845    -10.399845   1.000000   1.000000
    2       -8.672741     -8.672741   1.000000   1.000000
    3       -8.670013     -8.670013   1.000000   1.000000
    4       -8.667565     -8.667564   1.000000   1.000000
    5       -8.084756     -8.084756   1.000000   1.000000
    6       -8.081014     -8.081014   1.000000   1.000000
    7       -8.077909     -8.077909   1.000000   1.000000
    8       -7.704227     -7.704227   1.000000   1.000000
    9       -7.700395     -7.700395   1.000000   1.000000
   10       -7.666428     -7.666428   1.000000   1.000000
   11       -7.664281     -7.664280   1.000000   1.000000
   12       -7.658902     -7.658901   1.000000   1.000000
   13       -7.470497     -7.470497   1.000000   1.000000
   14       -7.441458     -7.441458   1.000000   1.000000
   15       -7.438071     -7.438070   1.000000   1.000000
   16       -7.201926     -7.201926   1.000000   1.000000
   17       -7.197973     -7.197973   1.000000   1.000000
   18       -7.195450     -7.195449   1.000000   1.000000
   19       -7.014432     -7.014432   1.000000   1.000000
   20       -7.013641     -7.013641   1.000000   1.000000
   21       -7.011403     -7.011403   1.000000   1.000000
   22       -6.889189     -6.889189   1.000000   1.000000
   23       -6.780048     -6.780048   1.000000   1.000000
   24       -6.775445     -6.775445   1.000000   1.000000
   25       -6.772967     -6.772967   1.000000   1.000000
   26       -6.127806     -6.127806   1.000000   1.000000
   27       -6.120174     -6.120175   1.000000   1.000000
   28       -6.080884     -6.080884   1.000000   1.000000
   29       -6.077374     -6.077372   1.000000   1.000000
   30       -6.072013     -6.072014   1.000000   1.000000
   31       -5.534227     -5.534226   1.002599   1.002599
   32       -5.533761     -5.533760   1.002623   1.002623
   33       -5.501485     -5.501484   1.004853   1.004853
   34       -5.499164     -5.499162   1.005060   1.005060
   35       -5.498549     -5.498549   1.005116   1.005116
   36       -5.461571     -5.461571   1.009474   1.009474
   37       -5.458153     -5.458153   1.009983   1.009983
   38       -5.454419     -5.454418   1.010560   1.010561
   39       -5.311479     -5.311478   1.035323   1.035323
   40       -5.306512     -5.306513   1.034978   1.034978
   41       -5.304263     -5.304264   1.034746   1.034747
   42       -5.208116     -5.208115   0.952315   0.952312
   43       -5.205095     -5.205094   0.946616   0.946615
   44       -5.204648     -5.204647   0.945755   0.945753
   45       -3.166627     -3.166620  -0.000000  -0.000000
   46       -2.905177     -2.905172  -0.000000  -0.000000
   47       -2.899214     -2.899210  -0.000000  -0.000000
   48       -2.893800     -2.893796  -0.000000  -0.000000
   49       -1.847299     -1.847289  -0.000000  -0.000000
   50       -1.843360     -1.843348  -0.000000  -0.000000
   51       -0.737109     -0.737017  -0.000000  -0.000000
   52       -0.731995     -0.731878  -0.000000  -0.000000
   53       -0.729512     -0.729400  -0.000000  -0.000000
   54       -0.484593     -0.484507  -0.000000  -0.000000
   55        0.061393      0.061949  -0.000000  -0.000000
   56        0.064573      0.064533  -0.000000  -0.000000
