       N       E                     dE             d eps       ncg     rms          rms(c)
DAV:   1     0.678901931940E+03    0.67890E+03   -0.13642E+04   224   0.710E+02
DAV:   2     0.345373775821E+03   -0.33353E+03   -0.29247E+03   304   0.141E+02
DAV:   3     0.127393252092E+03   -0.21798E+03   -0.20910E+03   360   0.130E+02
DAV:   4     0.957417157473E+01   -0.11782E+03   -0.10918E+03   408   0.938E+01
DAV:   5    -0.196402608467E+02   -0.29214E+02   -0.25870E+02   360   0.619E+01    0.194E+01
DAV:   6    -0.571326918517E+01    0.13927E+02   -0.64244E+01   312   0.700E+01    0.843E+00
DAV:   7    -0.373296756888E+01    0.19803E+01   -0.10403E+01   288   0.757E+01    0.562E+00
DAV:   8    -0.658674537905E+01   -0.28538E+01   -0.18961E+00   336   0.194E+01    0.256E+00
DAV:   9    -0.110458477958E+02   -0.44591E+01   -0.23541E+00   304   0.133E+01    0.170E+00
DAV:  10    -0.131267424048E+02   -0.20809E+01   -0.78188E-01   312   0.135E+01    0.135E+00
DAV:  11    -0.155072301368E+02   -0.23805E+01   -0.96158E-01   320   0.795E+00    0.113E+00
DAV:  12    -0.170747858668E+02   -0.15676E+01   -0.54935E-01   296   0.404E+00    0.798E-01
DAV:  13    -0.176620421955E+02   -0.58726E+00   -0.13577E-01   328   0.232E+00    0.592E-01
DAV:  14    -0.187144768881E+02   -0.10524E+01   -0.26115E-01   296   0.232E+00    0.443E-01
DAV:  15    -0.189308809781E+02   -0.21640E+00   -0.24269E-02   320   0.145E+00    0.285E-01
DAV:  16    -0.192160141382E+02   -0.28513E+00   -0.19331E-02   304   0.155E+00    0.206E-01
DAV:  17    -0.194247565813E+02   -0.20874E+00   -0.68354E-03   304   0.883E-01    0.101E-01
DAV:  18    -0.195576144440E+02   -0.13286E+00   -0.37518E-03   296   0.364E-01    0.616E-02
DAV:  19    -0.196064124267E+02   -0.48798E-01   -0.14271E-03   232   0.237E-01    0.289E-02
DAV:  20    -0.196247250702E+02   -0.18313E-01   -0.54129E-04   200   0.214E-01    0.207E-02
DAV:  21    -0.196321249167E+02   -0.73998E-02   -0.23673E-04   176   0.213E-01    0.151E-02
DAV:  22    -0.196352667470E+02   -0.31418E-02   -0.99292E-05   168   0.139E-01    0.100E-02
DAV:  23    -0.196361168093E+02   -0.85006E-03   -0.11330E-04   144   0.113E-01    0.823E-03
DAV:  24    -0.196359283049E+02    0.18850E-03   -0.54407E-05   176   0.988E-02    0.659E-03
DAV:  25    -0.196360853200E+02   -0.15702E-03   -0.34632E-05   168   0.672E-02    0.507E-03
DAV:  26    -0.196365120496E+02   -0.42673E-03   -0.32436E-05   144   0.591E-02    0.395E-03
DAV:  27    -0.196368050550E+02   -0.29301E-03   -0.18314E-05   152   0.411E-02    0.284E-03
DAV:  28    -0.196370796195E+02   -0.27456E-03   -0.97282E-06   136   0.355E-02    0.303E-03
DAV:  29    -0.196372239178E+02   -0.14430E-03   -0.60488E-06   144   0.243E-02    0.137E-03
DAV:  30    -0.196372424411E+02   -0.18523E-04   -0.30689E-06   152   0.141E-02
   1 F= -.19637242E+02 E0= -.19658837E+02  d E =-.196372E+02  mag=     0.0006
       N       E                     dE             d eps       ncg     rms          rms(c)
DAV:   1    -0.195272764413E+02    0.10995E+00   -0.78209E+01   224   0.307E+01    0.120E+00
DAV:   2    -0.198173036877E+02   -0.29003E+00   -0.29610E+00   336   0.115E+01    0.717E-01
DAV:   3    -0.198127573222E+02    0.45464E-02   -0.28553E-02   288   0.108E+00    0.552E-01
DAV:   4    -0.198100790153E+02    0.26783E-02   -0.13392E-02   360   0.158E+00    0.205E-01
DAV:   5    -0.198102884909E+02   -0.20948E-03   -0.80570E-03   328   0.278E+00    0.156E-01
DAV:   6    -0.198097851878E+02    0.50330E-03   -0.29966E-03   272   0.165E+00    0.595E-02
DAV:   7    -0.198098362007E+02   -0.51013E-04   -0.33527E-04   192   0.566E-01
   2 F= -.19809836E+02 E0= -.19835981E+02  d E =-.172594E+00  mag=     0.0002
       N       E                     dE             d eps       ncg     rms          rms(c)
DAV:   1    -0.196187014964E+02    0.19108E+00   -0.62718E+01   224   0.273E+01    0.977E-01
DAV:   2    -0.198468243011E+02   -0.22812E+00   -0.23341E+00   320   0.104E+01    0.623E-01
DAV:   3    -0.198436551939E+02    0.31691E-02   -0.27577E-02   320   0.229E+00    0.479E-01
DAV:   4    -0.198426981694E+02    0.95702E-03   -0.12162E-02   296   0.354E+00    0.410E-01
DAV:   5    -0.198407475284E+02    0.19506E-02   -0.10014E-02   344   0.274E+00    0.110E-01
DAV:   6    -0.198411578067E+02   -0.41028E-03   -0.24262E-03   320   0.945E-01    0.698E-02
DAV:   7    -0.198410765198E+02    0.81287E-04   -0.38266E-04   200   0.625E-01
   3 F= -.19841077E+02 E0= -.19872400E+02  d E =-.203834E+00  mag=     0.0001
       N       E                     dE             d eps       ncg     rms          rms(c)
DAV:   1    -0.198373930637E+02    0.37647E-02   -0.18164E+01   240   0.173E+01    0.483E-01
DAV:   2    -0.198802856929E+02   -0.42893E-01   -0.49139E-01   344   0.706E+00    0.505E-01
DAV:   3    -0.198762676146E+02    0.40181E-02   -0.20278E-02   304   0.280E+00    0.218E-01
DAV:   4    -0.198759852762E+02    0.28234E-03   -0.22745E-03   352   0.682E-01    0.164E-01
DAV:   5    -0.198758480341E+02    0.13724E-03   -0.73620E-04   216   0.918E-01    0.144E-01
DAV:   6    -0.198757154616E+02    0.13257E-03   -0.16742E-03   336   0.403E-01    0.721E-02
DAV:   7    -0.198756931624E+02    0.22299E-04   -0.30396E-04   240   0.391E-01
   4 F= -.19875693E+02 E0= -.19909674E+02  d E =-.346166E-01  mag=     0.0001
       N       E                     dE             d eps       ncg     rms          rms(c)
DAV:   1    -0.197844698017E+02    0.91246E-01   -0.48503E+01   240   0.290E+01    0.810E-01
DAV:   2    -0.199058377779E+02   -0.12137E+00   -0.13558E+00   336   0.113E+01    0.843E-01
DAV:   3    -0.198949391848E+02    0.10899E-01   -0.56828E-02   296   0.493E+00    0.340E-01
DAV:   4    -0.198944222278E+02    0.51696E-03   -0.60131E-03   328   0.128E+00    0.271E-01
DAV:   5    -0.198940467836E+02    0.37544E-03   -0.15106E-03   264   0.139E+00    0.237E-01
DAV:   6    -0.198934476445E+02    0.59914E-03   -0.41888E-03   328   0.656E-01    0.119E-01
DAV:   7    -0.198933504723E+02    0.97172E-04   -0.65729E-04   256   0.673E-01
   5 F= -.19893350E+02 E0= -.19928636E+02  d E =-.522740E-01  mag=     0.0001
       N       E                     dE             d eps       ncg     rms          rms(c)
DAV:   1    -0.198910090039E+02    0.24386E-02   -0.16246E+00   240   0.516E+00    0.103E-01
DAV:   2    -0.198943832381E+02   -0.33742E-02   -0.35605E-02   328   0.184E+00    0.132E-01
DAV:   3    -0.198942465800E+02    0.13666E-03   -0.14374E-03   256   0.112E+00    0.669E-02
DAV:   4    -0.198942561842E+02   -0.96042E-05   -0.23405E-04   160   0.381E-01
   6 F= -.19894256E+02 E0= -.19929696E+02  d E =-.531797E-01  mag=     0.0001
       N       E                     dE             d eps       ncg     rms          rms(c)
DAV:   1    -0.198922170290E+02    0.20296E-02   -0.39606E+00   240   0.801E+00    0.235E-01
DAV:   2    -0.199017778089E+02   -0.95608E-02   -0.10100E-01   344   0.243E+00    0.164E-01
DAV:   3    -0.199014169698E+02    0.36084E-03   -0.30491E-03   296   0.132E+00    0.105E-01
DAV:   4    -0.199013855700E+02    0.31400E-04   -0.77017E-04   240   0.722E-01
   7 F= -.19901386E+02 E0= -.19936659E+02  d E =-.712939E-02  mag=     0.0001
       N       E                     dE             d eps       ncg     rms          rms(c)
DAV:   1    -0.198942814778E+02    0.71355E-02   -0.39249E+00   240   0.801E+00    0.252E-01
DAV:   2    -0.199037188881E+02   -0.94374E-02   -0.99125E-02   336   0.231E+00    0.165E-01
DAV:   3    -0.199033797366E+02    0.33915E-03   -0.25526E-03   336   0.113E+00    0.118E-01
DAV:   4    -0.199033106295E+02    0.69107E-04   -0.64616E-04   232   0.662E-01
   8 F= -.19903311E+02 E0= -.19938205E+02  d E =-.905445E-02  mag=     0.0001
       N       E                     dE             d eps       ncg     rms          rms(c)
DAV:   1    -0.198991918385E+02    0.41879E-02   -0.32202E+00   240   0.718E+00    0.131E-01
DAV:   2    -0.199069054678E+02   -0.77136E-02   -0.78783E-02   344   0.218E+00    0.157E-01
DAV:   3    -0.199065966158E+02    0.30885E-03   -0.14314E-03   344   0.991E-01    0.896E-02
DAV:   4    -0.199065686798E+02    0.27936E-04   -0.30348E-04   168   0.554E-01
   9 F= -.19906569E+02 E0= -.19941444E+02  d E =-.325805E-02  mag=     0.0001
       N       E                     dE             d eps       ncg     rms          rms(c)
DAV:   1    -0.198854432664E+02    0.21153E-01   -0.10882E+01   240   0.131E+01    0.255E-01
DAV:   2    -0.199119113387E+02   -0.26468E-01   -0.27514E-01   352   0.479E+00    0.371E-01
DAV:   3    -0.199100328176E+02    0.18785E-02   -0.63076E-03   280   0.162E+00    0.213E-01
DAV:   4    -0.199097068966E+02    0.32592E-03   -0.13253E-03   328   0.632E-01    0.164E-01
DAV:   5    -0.199094558072E+02    0.25109E-03   -0.66135E-04   200   0.915E-01    0.127E-01
DAV:   6    -0.199093086128E+02    0.14719E-03   -0.20662E-03   328   0.460E-01    0.402E-02
DAV:   7    -0.199093284385E+02   -0.19826E-04   -0.16378E-04   192   0.267E-01
  10 F= -.19909328E+02 E0= -.19944343E+02  d E =-.601781E-02  mag=     0.0001
       N       E                     dE             d eps       ncg     rms          rms(c)
DAV:   1    -0.199078119012E+02    0.14967E-02   -0.24931E+00   224   0.529E+00    0.968E-02
DAV:   2    -0.199130305366E+02   -0.52186E-02   -0.52983E-02   344   0.205E+00    0.120E-01
DAV:   3    -0.199128504187E+02    0.18012E-03   -0.14172E-03   296   0.981E-01    0.686E-02
DAV:   4    -0.199128368173E+02    0.13601E-04   -0.18048E-04   176   0.323E-01
  11 F= -.19912837E+02 E0= -.19948140E+02  d E =-.350838E-02  mag=     0.0001
       N       E                     dE             d eps       ncg     rms          rms(c)
DAV:   1    -0.198882724738E+02    0.24578E-01   -0.14498E+01   224   0.128E+01    0.253E-01
DAV:   2    -0.199214399773E+02   -0.33168E-01   -0.34279E-01   344   0.517E+00    0.352E-01
DAV:   3    -0.199198898603E+02    0.15501E-02   -0.90033E-03   296   0.193E+00    0.206E-01
DAV:   4    -0.199196673350E+02    0.22253E-03   -0.14187E-03   304   0.795E-01    0.180E-01
DAV:   5    -0.199193307189E+02    0.33662E-03   -0.40854E-04   208   0.570E-01    0.143E-01
DAV:   6    -0.199190951867E+02    0.23553E-03   -0.41058E-03   328   0.362E-01    0.517E-02
DAV:   7    -0.199190703505E+02    0.24836E-04   -0.13938E-04   160   0.236E-01
  12 F= -.19919070E+02 E0= -.19954854E+02  d E =-.974191E-02  mag=     0.0001
       N       E                     dE             d eps       ncg     rms          rms(c)
DAV:   1    -0.197808445855E+02    0.13825E+00   -0.57849E+01   224   0.257E+01    0.670E-01
DAV:   2    -0.199384168569E+02   -0.15757E+00   -0.16737E+00   344   0.122E+01    0.893E-01
DAV:   3    -0.199268890838E+02    0.11528E-01   -0.54574E-02   304   0.445E+00    0.438E-01
DAV:   4    -0.199255452031E+02    0.13439E-02   -0.71264E-03   352   0.125E+00    0.350E-01
DAV:   5    -0.199245764722E+02    0.96873E-03   -0.20068E-03   320   0.147E+00    0.293E-01
DAV:   6    -0.199230561406E+02    0.15203E-02   -0.61915E-03   336   0.658E-01    0.117E-01
DAV:   7    -0.199229929187E+02    0.63222E-04   -0.11672E-03   296   0.647E-01    0.459E-02
DAV:   8    -0.199230307753E+02   -0.37857E-04   -0.29653E-04   208   0.529E-01
  13 F= -.19923031E+02 E0= -.19959487E+02  d E =-.137023E-01  mag=     0.0001
       N       E                     dE             d eps       ncg     rms          rms(c)
DAV:   1    -0.198951232741E+02    0.27870E-01   -0.14087E+01   224   0.139E+01    0.336E-01
DAV:   2    -0.199285282777E+02   -0.33405E-01   -0.35146E-01   352   0.538E+00    0.383E-01
DAV:   3    -0.199263241973E+02    0.22041E-02   -0.12162E-02   320   0.243E+00    0.179E-01
DAV:   4    -0.199261190108E+02    0.20519E-03   -0.18540E-03   352   0.810E-01    0.147E-01
DAV:   5    -0.199259360271E+02    0.18298E-03   -0.25994E-04   208   0.650E-01    0.119E-01
DAV:   6    -0.199257981315E+02    0.13790E-03   -0.25201E-03   336   0.272E-01    0.482E-02
DAV:   7    -0.199257543717E+02    0.43760E-04   -0.15343E-04   160   0.283E-01
  14 F= -.19925754E+02 E0= -.19962168E+02  d E =-.272360E-02  mag=     0.0000
       N       E                     dE             d eps       ncg     rms          rms(c)
DAV:   1    -0.198724108173E+02    0.53387E-01   -0.23069E+01   224   0.179E+01    0.443E-01
DAV:   2    -0.199293719551E+02   -0.56961E-01   -0.60098E-01   352   0.689E+00    0.512E-01
DAV:   3    -0.199253533223E+02    0.40186E-02   -0.21003E-02   320   0.277E+00    0.231E-01
DAV:   4    -0.199248523603E+02    0.50096E-03   -0.23084E-03   352   0.571E-01    0.184E-01
DAV:   5    -0.199245492409E+02    0.30312E-03   -0.11426E-03   336   0.112E+00    0.155E-01
DAV:   6    -0.199241550226E+02    0.39422E-03   -0.18887E-03   384   0.902E-01    0.449E-02
DAV:   7    -0.199241956831E+02   -0.40661E-04   -0.31931E-04   224   0.374E-01
  15 F= -.19924196E+02 E0= -.19960484E+02  d E =-.116491E-02  mag=     0.0000
       N       E                     dE             d eps       ncg     rms          rms(c)
DAV:   1    -0.199122606801E+02    0.11894E-01   -0.61265E+00   224   0.916E+00    0.179E-01
DAV:   2    -0.199268658221E+02   -0.14605E-01   -0.15055E-01   352   0.380E+00    0.266E-01
DAV:   3    -0.199260539993E+02    0.81182E-03   -0.48706E-03   304   0.176E+00    0.139E-01
DAV:   4    -0.199259880795E+02    0.65920E-04   -0.87401E-04   280   0.624E-01
  16 F= -.19925988E+02 E0= -.19962249E+02  d E =-.295730E-02  mag=     0.0000
       N       E                     dE             d eps       ncg     rms          rms(c)
DAV:   1    -0.199223758261E+02    0.36782E-02   -0.27594E+00   248   0.677E+00    0.201E-01
DAV:   2    -0.199274197303E+02   -0.50439E-02   -0.55205E-02   352   0.267E+00    0.221E-01
DAV:   3    -0.199269046286E+02    0.51510E-03   -0.33853E-03   272   0.207E+00    0.105E-01
DAV:   4    -0.199269394507E+02   -0.34822E-04   -0.73903E-04   288   0.566E-01
  17 F= -.19926939E+02 E0= -.19963428E+02  d E =-.951371E-03  mag=     0.0000
       N       E                     dE             d eps       ncg     rms          rms(c)
DAV:   1    -0.199267090924E+02    0.19554E-03   -0.20425E-01   256   0.195E+00    0.653E-02
DAV:   2    -0.199271705118E+02   -0.46142E-03   -0.48139E-03   384   0.117E+00    0.784E-02
DAV:   3    -0.199270853749E+02    0.85137E-04   -0.66413E-04   248   0.867E-01
  18 F= -.19927085E+02 E0= -.19963523E+02  d E =-.109730E-02  mag=     0.0000
