 vasp.6.1.2 22Jul20 (build Aug  2 2021 21:04:21) gamma-only                      
 executed on             LinuxPGI date 2021.12.11  15:17:52
 running on   16 total cores
 distrk:  each k-point on   16 cores,    1 groups
 distr:  one band on NCORE=   8 cores,    2 groups


--------------------------------------------------------------------------------------------------------


 INCAR:
 POTCAR:    PAW_PBE Au 04Oct2007                  
 POTCAR:    PAW_PBE Cu 22Jun2005                  
 -----------------------------------------------------------------------------
|                                                                             |
|           W    W    AA    RRRRR   N    N  II  N    N   GGGG   !!!           |
|           W    W   A  A   R    R  NN   N  II  NN   N  G    G  !!!           |
|           W    W  A    A  R    R  N N  N  II  N N  N  G       !!!           |
|           W WW W  AAAAAA  RRRRR   N  N N  II  N  N N  G  GGG   !            |
|           WW  WW  A    A  R   R   N   NN  II  N   NN  G    G                |
|           W    W  A    A  R    R  N    N  II  N    N   GGGG   !!!           |
|                                                                             |
|     You use a magnetic or noncollinear calculation, but did not specify     |
|     the initial magnetic moment with the MAGMOM tag. Note that a            |
|     default of 1 will be used for all atoms. This ferromagnetic setup       |
|     may break the symmetry of the crystal, in particular it may rule        |
|     out finding an antiferromagnetic solution. Thence, we recommend         |
|     setting the initial magnetic moment manually or verifying carefully     |
|     that this magnetic setup is desired.                                    |
|                                                                             |
 -----------------------------------------------------------------------------

 POTCAR:    PAW_PBE Au 04Oct2007                  
   SHA256 =  d0044ae04e2bdce24051b198fc5c053d722a5bc6fe3c3b100514a13fc5d2db88 Au/POTCAR             
   COPYR  = (c) Copyright 04Oct2007 Georg Kresse                                                    
   COPYR  = This file is part of the software VASP. Any use, copying, and all other rights are regul
   COPYR  = If you do not have a valid VASP license, you may not use, copy or distribute this file. 
   VRHFIN =Au: s1d10                                                                                
   LEXCH  = PE                                                                                      
   EATOM  =   926.0867 eV,   68.0654 Ry                                                             
                                                                                                    
   TITEL  = PAW_PBE Au 04Oct2007                                                                    
   LULTRA =        F    use ultrasoft PP ?                                                          
   IUNSCR =        1    unscreen: 0-lin 1-nonlin 2-no                                               
   RPACOR =    2.330    partial core radius                                                         
   POMASS =  196.966; ZVAL   =   11.000    mass and valenz                                          
   RCORE  =    2.500    outmost cutoff radius                                                       
   RWIGS  =    2.840; RWIGS  =    1.503    wigner-seitz radius (au A)                               
   ENMAX  =  229.943; ENMIN  =  172.457 eV                                                          
   ICORE  =        3    local potential                                                             
   LCOR   =        T    correct aug charges                                                         
   LPAW   =        T    paw PP                                                                      
   EAUG   =  356.670                                                                                
   DEXC   =    0.000                                                                                
   RMAX   =    2.562    core radius for proj-oper                                                   
   RAUG   =    1.300    factor for augmentation sphere                                              
   RDEP   =    2.598    radius for radial grids                                                     
   RDEPT  =    2.193    core radius for aug-charge                                                  
                                                                                                    
   Atomic configuration                                                                             
   16 entries                                                                                       
     n  l   j            E        occ.                                                              
     1  0  0.50    -80748.5001   2.0000                                                             
     2  0  0.50    -14244.7466   2.0000                                                             
     2  1  1.50    -12310.9591   6.0000                                                             
     3  0  0.50     -3362.1768   2.0000                                                             
     3  1  1.50     -2801.5463   6.0000                                                             
     3  2  2.50     -2203.8206  10.0000                                                             
     4  0  0.50      -729.8168   2.0000                                                             
     4  1  1.50      -546.0527   6.0000                                                             
     4  2  2.50      -325.7302  10.0000                                                             
     4  3  3.50       -81.1472  14.0000                                                             
     5  0  0.50      -108.3201   2.0000                                                             
     5  1  1.50       -59.7479   6.0000                                                             
     5  2  2.50        -6.8783  10.0000                                                             
     6  0  0.50        -5.7602   1.0000                                                             
     6  1  1.50        -6.8029   0.0000                                                             
     5  3  2.50        -1.3606   0.0000                                                             
   Description                                                                                      
     l       E           TYP  RCUT    TYP  RCUT                                                     
     2     -6.8782861     23  2.500                                                                 
     2     -8.2388687     23  2.500                                                                 
     0     -5.7601759     23  2.500                                                                 
     0     -0.8493231     23  2.500                                                                 
     1     -2.7211652     23  2.500                                                                 
     1     27.2116520     23  2.500                                                                 
     3     -1.3605826     23  2.500                                                                 
  local pseudopotential read in
  partial core-charges read in
  partial kinetic energy density read in
  atomic valenz-charges read in
  non local Contribution for L=            2  read in
    real space projection operators read in
  non local Contribution for L=            2  read in
    real space projection operators read in
  non local Contribution for L=            0  read in
    real space projection operators read in
  non local Contribution for L=            0  read in
    real space projection operators read in
  non local Contribution for L=            1  read in
    real space projection operators read in
  non local Contribution for L=            1  read in
    real space projection operators read in
    PAW grid and wavefunctions read in
 
   number of l-projection  operators is LMAX  =            6
   number of lm-projection operators is LMMAX =           18
 
 POTCAR:    PAW_PBE Cu 22Jun2005                  
   SHA256 =  0e71e558f37a4e8407882b4609ceaae59938afaad9ced71dfe8490308a0ab630 Cu/POTCAR             
   COPYR  = (c) Copyright 22Jun2005 Georg Kresse                                                    
   COPYR  = This file is part of the software VASP. Any use, copying, and all other rights are regul
   COPYR  = If you do not have a valid VASP license, you may not use, copy or distribute this file. 
   VRHFIN =Cu: d10 p1                                                                               
   LEXCH  = PE                                                                                      
   EATOM  =  1390.9808 eV,  102.2342 Ry                                                             
                                                                                                    
   TITEL  = PAW_PBE Cu 22Jun2005                                                                    
   LULTRA =        F    use ultrasoft PP ?                                                          
   IUNSCR =        1    unscreen: 0-lin 1-nonlin 2-no                                               
   RPACOR =    2.000    partial core radius                                                         
   POMASS =   63.546; ZVAL   =   11.000    mass and valenz                                          
   RCORE  =    2.300    outmost cutoff radius                                                       
   RWIGS  =    2.200; RWIGS  =    1.164    wigner-seitz radius (au A)                               
   ENMAX  =  295.446; ENMIN  =  221.585 eV                                                          
   ICORE  =        3    local potential                                                             
   LCOR   =        T    correct aug charges                                                         
   LPAW   =        T    paw PP                                                                      
   EAUG   =  586.980                                                                                
   DEXC   =    0.000                                                                                
   RMAX   =    2.344    core radius for proj-oper                                                   
   RAUG   =    1.300    factor for augmentation sphere                                              
   RDEP   =    2.302    radius for radial grids                                                     
   RDEPT  =    1.771    core radius for aug-charge                                                  
                                                                                                    
   Atomic configuration                                                                             
    9 entries                                                                                       
     n  l   j            E        occ.                                                              
     1  0  0.50     -8850.2468   2.0000                                                             
     2  0  0.50     -1062.3498   2.0000                                                             
     2  1  1.50      -916.8226   6.0000                                                             
     3  0  0.50      -114.6929   2.0000                                                             
     3  1  1.50       -72.1325   6.0000                                                             
     3  2  2.50        -5.0394  10.0000                                                             
     4  0  0.50        -4.6097   1.0000                                                             
     4  1  0.50        -4.0817   0.0000                                                             
     4  3  2.50        -1.3606   0.0000                                                             
   Description                                                                                      
     l       E           TYP  RCUT    TYP  RCUT                                                     
     2     -5.0393973     23  2.200                                                                 
     2     10.8846608     23  2.200                                                                 
     0     -4.6097109     23  2.200                                                                 
     0      8.2520465     23  2.200                                                                 
     1     -2.7211652     23  2.200                                                                 
     1     21.7055443     23  2.200                                                                 
     3      2.7211652     23  2.300                                                                 
  local pseudopotential read in
  partial core-charges read in
  partial kinetic energy density read in
  atomic valenz-charges read in
  non local Contribution for L=            2  read in
    real space projection operators read in
  non local Contribution for L=            2  read in
    real space projection operators read in
  non local Contribution for L=            0  read in
    real space projection operators read in
  non local Contribution for L=            0  read in
    real space projection operators read in
  non local Contribution for L=            1  read in
    real space projection operators read in
  non local Contribution for L=            1  read in
    real space projection operators read in
    PAW grid and wavefunctions read in
 
   number of l-projection  operators is LMAX  =            6
   number of lm-projection operators is LMMAX =           18
 
  PAW_PBE Au 04Oct2007                  :
 energy of atom  1       EATOM= -926.0867
 kinetic energy error for atom=    0.0062 (will be added to EATOM!!)
  PAW_PBE Cu 22Jun2005                  :
 energy of atom  2       EATOM=-1390.9808
 kinetic energy error for atom=    0.0232 (will be added to EATOM!!)
 
 
 POSCAR: Au Cu
  positions in cartesian coordinates
  No initial velocities read in
 exchange correlation table for  LEXCH =        8
   RHO(1)=    0.500       N(1)  =     2000
   RHO(2)=  100.500       N(2)  =     4000
 


--------------------------------------------------------------------------------------------------------


 ion  position               nearest neighbor table
   1  0.594  0.464  0.574-   6 2.45   7 2.45   5 2.48
   2  0.461  0.593  0.556-   5 2.45   8 2.46   6 2.47
   3  0.415  0.424  0.534-   8 2.45   5 2.46   7 2.48
   4  0.536  0.498  0.413-   6 2.45   7 2.45   8 2.48
   5  0.486  0.490  0.589-   2 2.45   3 2.46   1 2.48   7 2.55   6 2.57   8 2.68
   6  0.552  0.546  0.511-   1 2.45   4 2.45   2 2.47   8 2.55   5 2.57   7 2.68
   7  0.521  0.428  0.499-   1 2.45   4 2.45   3 2.48   5 2.55   8 2.57   6 2.68
   8  0.446  0.515  0.478-   3 2.45   2 2.46   4 2.48   6 2.55   7 2.57   5 2.68
 

IMPORTANT INFORMATION: All symmetrisations will be switched off!
NOSYMM: (Re-)initialisation of all symmetry stuff for point group C_1.


----------------------------------------------------------------------------------------

                                     Primitive cell                                     

  volume of cell :   10755.6941

  direct lattice vectors                    reciprocal lattice vectors
    22.145461681  0.000000000  0.000000000     0.045155979  0.000000000  0.000000000
     0.000000000 21.969907400  0.000000000     0.000000000  0.045516805  0.000000000
     0.000000000  0.000000000 22.106779434     0.000000000  0.000000000  0.045234992

  length of vectors
    22.145461681 21.969907400 22.106779434     0.045155979  0.045516805  0.045234992

  position of ions in fractional coordinates (direct lattice)
     0.593862258  0.464062711  0.574051858
     0.461100306  0.593450256  0.555956443
     0.414912943  0.424411094  0.534270264
     0.535879872  0.497523221  0.412729027
     0.485814866  0.490184507  0.589435626
     0.551902290  0.545546482  0.511387787
     0.520846136  0.428318895  0.498542005
     0.446156657  0.515163942  0.477674675

  ion indices of the primitive-cell ions
   primitive index   ion index
                 1           1
                 2           2
                 3           3
                 4           4
                 5           5
                 6           6
                 7           7
                 8           8

----------------------------------------------------------------------------------------

 
 
 KPOINTS: KPOINTS created by Atomic Simulation Env

Automatic generation of k-mesh.
Space group operators:
 irot       det(A)        alpha          n_x          n_y          n_z        tau_x        tau_y        tau_z
    1     1.000000     0.000000     1.000000     0.000000     0.000000     0.000000     0.000000     0.000000
 
 Subroutine IBZKPT returns following result:
 ===========================================
 
 Found      1 irreducible k-points:
 
 Following reciprocal coordinates:
            Coordinates               Weight
  0.000000  0.000000  0.000000      1.000000
 
 Following cartesian coordinates:
            Coordinates               Weight
  0.000000  0.000000  0.000000      1.000000
 


--------------------------------------------------------------------------------------------------------




 Dimension of arrays:
   k-points           NKPTS =      1   k-points in BZ     NKDIM =      1   number of bands    NBANDS=     56
   number of dos      NEDOS =    301   number of ions     NIONS =      8
   non local maximal  LDIM  =      6   non local SUM 2l+1 LMDIM =     18
   total plane-waves  NPLWV = ******
   max r-space proj   IRMAX =      1   max aug-charges    IRDMAX=   7361
   dimension x,y,z NGX =   108 NGY =  108 NGZ =  108
   dimension x,y,z NGXF=   216 NGYF=  216 NGZF=  216
   support grid    NGXF=   216 NGYF=  216 NGZF=  216
   ions per type =               4   4
   NGX,Y,Z   is equivalent  to a cutoff of   8.11,  8.17,  8.12 a.u.
   NGXF,Y,Z  is equivalent  to a cutoff of  16.22, 16.34, 16.24 a.u.

 SYSTEM =  unknown system                          
 POSCAR =  Au Cu                                   

 Startparameter for this run:
   NWRITE =      2    write-flag & timer
   PREC   = normal    normal or accurate (medium, high low for compatibility)
   ISTART =      0    job   : 0-new  1-cont  2-samecut
   ICHARG =      2    charge: 1-file 2-atom 10-const
   ISPIN  =      2    spin polarized calculation?
   LNONCOLLINEAR =      F non collinear calculations
   LSORBIT =      F    spin-orbit coupling
   INIWAV =      1    electr: 0-lowe 1-rand  2-diag
   LASPH  =      F    aspherical Exc in radial PAW
   METAGGA=      F    non-selfconsistent MetaGGA calc.

 Electronic Relaxation 1
   ENCUT  =  400.0 eV  29.40 Ry    5.42 a.u.  36.11 35.83 36.05*2*pi/ulx,y,z
   ENINI  =  400.0     initial cutoff
   ENAUG  =  587.0 eV  augmentation charge cutoff
   NELM   =     60;   NELMIN=  2; NELMDL=  0     # of ELM steps 
   EDIFF  = 0.1E-03   stopping-criterion for ELM
   LREAL  =      F    real-space projection
   NLSPLINE    = F    spline interpolate recip. space projectors
   LCOMPAT=      F    compatible to vasp.4.4
   GGA_COMPAT  = T    GGA compatible to vasp.4.4-vasp.4.6
   LMAXPAW     = -100 max onsite density
   LMAXMIX     =    2 max onsite mixed and CHGCAR
   VOSKOWN=      0    Vosko Wilk Nusair interpolation
   ROPT   =    0.00000   0.00000
 Ionic relaxation
   EDIFFG = 0.1E-02   stopping-criterion for IOM
   NSW    =   1000    number of steps for IOM
   NBLOCK =      1;   KBLOCK =   1000    inner block; outer block 
   IBRION =      2    ionic relax: 0-MD 1-quasi-New 2-CG
   NFREE  =      1    steps in history (QN), initial steepest desc. (CG)
   ISIF   =      0    stress and relaxation
   IWAVPR =     11    prediction:  0-non 1-charg 2-wave 3-comb
   ISYM   =      0    0-nonsym 1-usesym 2-fastsym
   LCORR  =      T    Harris-Foulkes like correction to forces

   POTIM  = 0.5000    time-step for ionic-motion
   TEIN   =    0.0    initial temperature
   TEBEG  =    0.0;   TEEND  =   0.0 temperature during run
   SMASS  =  -3.00    Nose mass-parameter (am)
   estimated Nose-frequenzy (Omega)   =  0.10E-29 period in steps = 0.13E+47 mass=  -0.112E-25a.u.
   SCALEE = 1.0000    scale energy and forces
   NPACO  =    256;   APACO  = 16.0  distance and # of slots for P.C.
   PSTRESS=    0.0 pullay stress

  Mass of Ions in am
   POMASS = 196.97 63.55
  Ionic Valenz
   ZVAL   =  11.00 11.00
  Atomic Wigner-Seitz radii
   RWIGS  =  -1.00 -1.00
  virtual crystal weights 
   VCA    =   1.00  1.00
   NELECT =      88.0000    total number of electrons
   NUPDOWN=      -1.0000    fix difference up-down

 DOS related values:
   EMIN   =  10.00;   EMAX   =-10.00  energy-range for DOS
   EFERMI =   0.00
   ISMEAR =     1;   SIGMA  =   0.20  broadening in eV -4-tet -1-fermi 0-gaus

 Electronic relaxation 2 (details)
   IALGO  =     38    algorithm
   LDIAG  =      T    sub-space diagonalisation (order eigenvalues)
   LSUBROT=      F    optimize rotation matrix (better conditioning)
   TURBO    =      0    0=normal 1=particle mesh
   IRESTART =      0    0=no restart 2=restart with 2 vectors
   NREBOOT  =      0    no. of reboots
   NMIN     =      0    reboot dimension
   EREF     =   0.00    reference energy to select bands
   IMIX   =      4    mixing-type and parameters
     AMIX     =   0.40;   BMIX     =  1.00
     AMIX_MAG =   1.60;   BMIX_MAG =  1.00
     AMIN     =   0.10
     WC   =   100.;   INIMIX=   1;  MIXPRE=   1;  MAXMIX= -45

 Intra band minimization:
   WEIMIN = 0.0010     energy-eigenvalue tresh-hold
   EBREAK =  0.45E-06  absolut break condition
   DEPER  =   0.30     relativ break condition  

   TIME   =   0.40     timestep for ELM

  volume/ion in A,a.u.               =    1344.46      9072.88
  Fermi-wavevector in a.u.,A,eV,Ry     =   0.329880  0.623383  1.480599  0.108821
  Thomas-Fermi vector in A             =   1.224706
 
 Write flags
   LWAVE        =      F    write WAVECAR
   LDOWNSAMPLE  =      F    k-point downsampling of WAVECAR
   LCHARG       =      F    write CHGCAR
   LVTOT        =      F    write LOCPOT, total local potential
   LVHAR        =      F    write LOCPOT, Hartree potential only
   LELF         =      F    write electronic localiz. function (ELF)
   LORBIT       =      0    0 simple, 1 ext, 2 COOP (PROOUT), +10 PAW based schemes


 Dipole corrections
   LMONO  =      F    monopole corrections only (constant potential shift)
   LDIPOL =      F    correct potential (dipole corrections)
   IDIPOL =      0    1-x, 2-y, 3-z, 4-all directions 
   EPSILON=  1.0000000 bulk dielectric constant

 Exchange correlation treatment:
   GGA     =    PE    GGA type
   LEXCH   =     8    internal setting for exchange type
   VOSKOWN=      0    Vosko Wilk Nusair interpolation
   LHFCALC =     F    Hartree Fock is set to
   LHFONE  =     F    Hartree Fock one center treatment
   AEXX    =    0.0000 exact exchange contribution

 Linear response parameters
   LEPSILON=     F    determine dielectric tensor
   LRPA    =     F    only Hartree local field effects (RPA)
   LNABLA  =     F    use nabla operator in PAW spheres
   LVEL    =     F    velocity operator in full k-point grid
   LINTERFAST=   F  fast interpolation
   KINTER  =     0    interpolate to denser k-point grid
   CSHIFT  =0.1000    complex shift for real part using Kramers Kronig
   OMEGAMAX=  -1.0    maximum frequency
   DEG_THRESHOLD= 0.2000000E-02 threshold for treating states as degnerate
   RTIME   =   -0.100 relaxation time in fs
  (WPLASMAI=    0.000 imaginary part of plasma frequency in eV, 0.658/RTIME)
   DFIELD  = 0.0000000 0.0000000 0.0000000 field for delta impulse in time
 
 Orbital magnetization related:
   ORBITALMAG=     F  switch on orbital magnetization
   LCHIMAG   =     F  perturbation theory with respect to B field
   DQ        =  0.001000  dq finite difference perturbation B field
   LLRAUG    =     F  two centre corrections for induced B field



--------------------------------------------------------------------------------------------------------


 conjugate gradient relaxation of ions
 charge density and potential will be updated during run
 spin polarized calculation
 Variant of blocked Davidson
 Davidson routine will perform the subspace rotation
 perform sub-space diagonalisation
    after iterative eigenvector-optimisation
 modified Broyden-mixing scheme, WC =      100.0
 initial mixing is a Kerker type mixing with AMIX =  0.4000 and BMIX =      1.0000
 Hartree-type preconditioning will be used
 using additional bands            12
 reciprocal scheme for non local part
 use partial core corrections
 calculate Harris-corrections to forces 
   (improved forces if not selfconsistent)
 use gradient corrections 
 use of overlap-Matrix (Vanderbilt PP)
 Methfessel and Paxton  Order N= 1 SIGMA  =   0.20


--------------------------------------------------------------------------------------------------------


  energy-cutoff  :      400.00
  volume of cell :    10755.69
      direct lattice vectors                 reciprocal lattice vectors
    22.145461681  0.000000000  0.000000000     0.045155979  0.000000000  0.000000000
     0.000000000 21.969907400  0.000000000     0.000000000  0.045516805  0.000000000
     0.000000000  0.000000000 22.106779434     0.000000000  0.000000000  0.045234992

  length of vectors
    22.145461681 21.969907400 22.106779434     0.045155979  0.045516805  0.045234992


 
 k-points in units of 2pi/SCALE and weight: KPOINTS created by Atomic Simulation Env
   0.00000000  0.00000000  0.00000000       1.000
 
 k-points in reciprocal lattice and weights: KPOINTS created by Atomic Simulation Env
   0.00000000  0.00000000  0.00000000       1.000
 
 position of ions in fractional coordinates (direct lattice) 
   0.59386226  0.46406271  0.57405186
   0.46110031  0.59345026  0.55595644
   0.41491294  0.42441109  0.53427026
   0.53587987  0.49752322  0.41272903
   0.48581487  0.49018451  0.58943563
   0.55190229  0.54554648  0.51138779
   0.52084614  0.42831890  0.49854201
   0.44615666  0.51516394  0.47767468
 
 position of ions in cartesian coordinates  (Angst):
  13.15135387 10.19541480 12.69043780
  10.21127916 13.03804718 12.29040645
   9.18843868  9.32427244 11.81099488
  11.86730718 10.93053909  9.12410958
  10.75859449 10.76930822 13.03052337
  12.22213102 11.98560568 11.30513702
  11.53437814  9.41012646 11.02115815
   9.88034516 11.31810409 10.55984869
 


--------------------------------------------------------------------------------------------------------


 use parallel FFT for orbitals z direction half grid
 k-point   1 :   0.0000 0.0000 0.0000  plane waves:   97640

 maximum and minimum number of plane-waves per node :     12212    12199

 maximum number of plane-waves:     97640
 maximum index in each direction: 
   IXMAX=   36   IYMAX=   35   IZMAX=   36
   IXMIN=  -36   IYMIN=  -35   IZMIN=    0


 parallel 3D FFT for wavefunctions:
    minimum data exchange during FFTs selected (reduces bandwidth)
 parallel 3D FFT for charge:
    minimum data exchange during FFTs selected (reduces bandwidth)


 total amount of memory used by VASP MPI-rank0   137190. kBytes
=======================================================================

   base      :      30000. kBytes
   nonl-proj :       5076. kBytes
   fftplans  :      25404. kBytes
   grid      :      65753. kBytes
   one-center:         15. kBytes
   wavefun   :      10942. kBytes
 
     INWAV:  cpu time    0.0000: real time    0.0000
 Broyden mixing: mesh for mixing (old mesh)
   NGX = 73   NGY = 71   NGZ = 73
  (NGX  =216   NGY  =216   NGZ  =216)
  gives a total of 378359 points

 initial charge density was supplied:
 charge density of overlapping atoms calculated
 number of electron      88.0000000 magnetization       8.0000000
 keeping initial charge density in first step


--------------------------------------------------------------------------------------------------------


 Maximum index for augmentation-charges           466 (set IRDMAX)


--------------------------------------------------------------------------------------------------------


 First call to EWALD:  gamma=   0.080
 Maximum number of real-space cells 3x 3x 3
 Maximum number of reciprocal cells 3x 3x 3

    FEWALD:  cpu time    0.0011: real time    0.0011


--------------------------------------- Iteration      1(   1)  ---------------------------------------


    POTLOK:  cpu time    1.7414: real time    1.7515
    SETDIJ:  cpu time    0.0158: real time    0.0158
     EDDAV:  cpu time    3.1685: real time    3.1738
       DOS:  cpu time    0.0042: real time    0.0042
    --------------------------------------------
      LOOP:  cpu time    4.9299: real time    4.9453

 eigenvalue-minimisations  :   224
 total energy-change (2. order) : 0.6789019E+03  (-0.1364181E+04)
 number of electron      88.0000000 magnetization       8.0000000
 augmentation part       88.0000000 magnetization       8.0000000

 Free energy of the ion-electron system (eV)
  ---------------------------------------------------
  alpha Z        PSCENC =         5.64128824
  Ewald energy   TEWEN  =      9748.40522894
  -Hartree energ DENC   =    -18349.43689106
  -exchange      EXHF   =         0.00000000
  -V(xc)+E(xc)   XCENC  =       238.92312053
  PAW double counting   =      8408.47588452    -8739.43322972
  entropy T*S    EENTRO =        -0.02475997
  eigenvalues    EBANDS =        98.19865459
  atomic energy  EATOM  =      9268.15263587
  Solvation  Ediel_sol  =         0.00000000
  ---------------------------------------------------
  free energy    TOTEN  =       678.90193194 eV

  energy without entropy =      678.92669191  energy(sigma->0) =      678.91018526


--------------------------------------------------------------------------------------------------------




--------------------------------------- Iteration      1(   2)  ---------------------------------------


     EDDAV:  cpu time    3.9460: real time    3.9498
       DOS:  cpu time    0.0048: real time    0.0048
    --------------------------------------------
      LOOP:  cpu time    3.9508: real time    3.9547

 eigenvalue-minimisations  :   304
 total energy-change (2. order) :-0.3335282E+03  (-0.2924714E+03)
 number of electron      88.0000000 magnetization       8.0000000
 augmentation part       88.0000000 magnetization       8.0000000

 Free energy of the ion-electron system (eV)
  ---------------------------------------------------
  alpha Z        PSCENC =         5.64128824
  Ewald energy   TEWEN  =      9748.40522894
  -Hartree energ DENC   =    -18349.43689106
  -exchange      EXHF   =         0.00000000
  -V(xc)+E(xc)   XCENC  =       238.92312053
  PAW double counting   =      8408.47588452    -8739.43322972
  entropy T*S    EENTRO =        -0.04674014
  eigenvalues    EBANDS =      -235.30752135
  atomic energy  EATOM  =      9268.15263587
  Solvation  Ediel_sol  =         0.00000000
  ---------------------------------------------------
  free energy    TOTEN  =       345.37377582 eV

  energy without entropy =      345.42051596  energy(sigma->0) =      345.38935587


--------------------------------------------------------------------------------------------------------




--------------------------------------- Iteration      1(   3)  ---------------------------------------


     EDDAV:  cpu time    4.4938: real time    4.4983
       DOS:  cpu time    0.0037: real time    0.0037
    --------------------------------------------
      LOOP:  cpu time    4.4975: real time    4.5021

 eigenvalue-minimisations  :   360
 total energy-change (2. order) :-0.2179805E+03  (-0.2090999E+03)
 number of electron      88.0000000 magnetization       8.0000000
 augmentation part       88.0000000 magnetization       8.0000000

 Free energy of the ion-electron system (eV)
  ---------------------------------------------------
  alpha Z        PSCENC =         5.64128824
  Ewald energy   TEWEN  =      9748.40522894
  -Hartree energ DENC   =    -18349.43689106
  -exchange      EXHF   =         0.00000000
  -V(xc)+E(xc)   XCENC  =       238.92312053
  PAW double counting   =      8408.47588452    -8739.43322972
  entropy T*S    EENTRO =         0.03430467
  eigenvalues    EBANDS =      -453.36908990
  atomic energy  EATOM  =      9268.15263587
  Solvation  Ediel_sol  =         0.00000000
  ---------------------------------------------------
  free energy    TOTEN  =       127.39325209 eV

  energy without entropy =      127.35894742  energy(sigma->0) =      127.38181720


--------------------------------------------------------------------------------------------------------




--------------------------------------- Iteration      1(   4)  ---------------------------------------


     EDDAV:  cpu time    4.9608: real time    4.9660
       DOS:  cpu time    0.0037: real time    0.0037
    --------------------------------------------
      LOOP:  cpu time    4.9645: real time    4.9697

 eigenvalue-minimisations  :   408
 total energy-change (2. order) :-0.1178191E+03  (-0.1091764E+03)
 number of electron      88.0000000 magnetization       8.0000000
 augmentation part       88.0000000 magnetization       8.0000000

 Free energy of the ion-electron system (eV)
  ---------------------------------------------------
  alpha Z        PSCENC =         5.64128824
  Ewald energy   TEWEN  =      9748.40522894
  -Hartree energ DENC   =    -18349.43689106
  -exchange      EXHF   =         0.00000000
  -V(xc)+E(xc)   XCENC  =       238.92312053
  PAW double counting   =      8408.47588452    -8739.43322972
  entropy T*S    EENTRO =        -0.04932964
  eigenvalues    EBANDS =      -571.10453610
  atomic energy  EATOM  =      9268.15263587
  Solvation  Ediel_sol  =         0.00000000
  ---------------------------------------------------
  free energy    TOTEN  =         9.57417157 eV

  energy without entropy =        9.62350122  energy(sigma->0) =        9.59061479


--------------------------------------------------------------------------------------------------------




--------------------------------------- Iteration      1(   5)  ---------------------------------------


     EDDAV:  cpu time    4.4761: real time    4.4837
       DOS:  cpu time    0.0037: real time    0.0037
    CHARGE:  cpu time    0.3652: real time    0.3656
    MIXING:  cpu time    0.0281: real time    0.0281
    --------------------------------------------
      LOOP:  cpu time    4.8732: real time    4.8812

 eigenvalue-minimisations  :   360
 total energy-change (2. order) :-0.2921443E+02  (-0.2586984E+02)
 number of electron      87.9999888 magnetization       7.0463790
 augmentation part       42.8908352 magnetization       7.3530069

 Broyden mixing:
  rms(total) = 0.19403E+01    rms(broyden)= 0.19402E+01
  rms(prec ) = 0.19794E+01
  weight for this iteration     100.00

 Free energy of the ion-electron system (eV)
  ---------------------------------------------------
  alpha Z        PSCENC =         5.64128824
  Ewald energy   TEWEN  =      9748.40522894
  -Hartree energ DENC   =    -18349.43689106
  -exchange      EXHF   =         0.00000000
  -V(xc)+E(xc)   XCENC  =       238.92312053
  PAW double counting   =      8408.47588452    -8739.43322972
  entropy T*S    EENTRO =         0.07717685
  eigenvalues    EBANDS =      -600.44547501
  atomic energy  EATOM  =      9268.15263587
  Solvation  Ediel_sol  =         0.00000000
  ---------------------------------------------------
  free energy    TOTEN  =       -19.64026085 eV

  energy without entropy =      -19.71743769  energy(sigma->0) =      -19.66598646


--------------------------------------------------------------------------------------------------------




--------------------------------------- Iteration      1(   6)  ---------------------------------------


    POTLOK:  cpu time    1.7604: real time    1.7654
    SETDIJ:  cpu time    0.0181: real time    0.0182
     EDDAV:  cpu time    4.0118: real time    4.0160
       DOS:  cpu time    0.0029: real time    0.0029
    CHARGE:  cpu time    0.3558: real time    0.3561
    MIXING:  cpu time    0.0324: real time    0.0324
    --------------------------------------------
      LOOP:  cpu time    6.1813: real time    6.1909

 eigenvalue-minimisations  :   312
 total energy-change (2. order) : 0.1392699E+02  (-0.6424439E+01)
 number of electron      87.9999880 magnetization       6.3431837
 augmentation part       45.0919646 magnetization       5.7039792

 Broyden mixing:
  rms(total) = 0.84270E+00    rms(broyden)= 0.84261E+00
  rms(prec ) = 0.88212E+00
  weight for this iteration     100.00

 eigenvalues of (default mixing * dielectric matrix)
  average eigenvalue GAMMA=   0.8584
  0.8584

 Free energy of the ion-electron system (eV)
  ---------------------------------------------------
  alpha Z        PSCENC =         5.64128824
  Ewald energy   TEWEN  =      9748.40522894
  -Hartree energ DENC   =    -18280.96093604
  -exchange      EXHF   =         0.00000000
  -V(xc)+E(xc)   XCENC  =       245.15772992
  PAW double counting   =      8667.15087867    -8992.18845714
  entropy T*S    EENTRO =         0.01565579
  eigenvalues    EBANDS =      -667.08729342
  atomic energy  EATOM  =      9268.15263587
  Solvation  Ediel_sol  =         0.00000000
  ---------------------------------------------------
  free energy    TOTEN  =        -5.71326919 eV

  energy without entropy =       -5.72892498  energy(sigma->0) =       -5.71848778


--------------------------------------------------------------------------------------------------------




--------------------------------------- Iteration      1(   7)  ---------------------------------------


    POTLOK:  cpu time    1.7740: real time    1.7775
    SETDIJ:  cpu time    0.0164: real time    0.0165
     EDDAV:  cpu time    3.7510: real time    3.7548
       DOS:  cpu time    0.0029: real time    0.0029
    CHARGE:  cpu time    0.3675: real time    0.3679
    MIXING:  cpu time    0.0321: real time    0.0321
    --------------------------------------------
      LOOP:  cpu time    5.9439: real time    5.9517

 eigenvalue-minimisations  :   288
 total energy-change (2. order) : 0.1980302E+01  (-0.1040296E+01)
 number of electron      87.9999884 magnetization       5.3383149
 augmentation part       43.9729504 magnetization       4.5478253

 Broyden mixing:
  rms(total) = 0.56158E+00    rms(broyden)= 0.56153E+00
  rms(prec ) = 0.57368E+00
  weight for this iteration     100.00

 eigenvalues of (default mixing * dielectric matrix)
  average eigenvalue GAMMA=   0.9766
  1.3216  0.6317

 Free energy of the ion-electron system (eV)
  ---------------------------------------------------
  alpha Z        PSCENC =         5.64128824
  Ewald energy   TEWEN  =      9748.40522894
  -Hartree energ DENC   =    -18340.25231846
  -exchange      EXHF   =         0.00000000
  -V(xc)+E(xc)   XCENC  =       248.27408558
  PAW double counting   =      8874.21033387    -9217.70020519
  entropy T*S    EENTRO =         0.01843076
  eigenvalues    EBANDS =      -590.48244717
  atomic energy  EATOM  =      9268.15263587
  Solvation  Ediel_sol  =         0.00000000
  ---------------------------------------------------
  free energy    TOTEN  =        -3.73296757 eV

  energy without entropy =       -3.75139833  energy(sigma->0) =       -3.73911115


--------------------------------------------------------------------------------------------------------




--------------------------------------- Iteration      1(   8)  ---------------------------------------


    POTLOK:  cpu time    1.7779: real time    1.7814
    SETDIJ:  cpu time    0.0161: real time    0.0162
     EDDAV:  cpu time    4.2283: real time    4.2325
       DOS:  cpu time    0.0045: real time    0.0045
    CHARGE:  cpu time    0.3617: real time    0.3620
    MIXING:  cpu time    0.0335: real time    0.0336
    --------------------------------------------
      LOOP:  cpu time    6.4221: real time    6.4302

 eigenvalue-minimisations  :   336
 total energy-change (2. order) :-0.2853778E+01  (-0.1896114E+00)
 number of electron      87.9999884 magnetization       4.4826723
 augmentation part       44.2139940 magnetization       3.8497583

 Broyden mixing:
  rms(total) = 0.25573E+00    rms(broyden)= 0.25571E+00
  rms(prec ) = 0.25989E+00
  weight for this iteration     100.00

 eigenvalues of (default mixing * dielectric matrix)
  average eigenvalue GAMMA=   1.0633
  1.3055  1.3055  0.5788

 Free energy of the ion-electron system (eV)
  ---------------------------------------------------
  alpha Z        PSCENC =         5.64128824
  Ewald energy   TEWEN  =      9748.40522894
  -Hartree energ DENC   =    -18344.43550788
  -exchange      EXHF   =         0.00000000
  -V(xc)+E(xc)   XCENC  =       245.61380547
  PAW double counting   =      9079.73693198    -9423.97279129
  entropy T*S    EENTRO =         0.01863135
  eigenvalues    EBANDS =      -585.74696805
  atomic energy  EATOM  =      9268.15263587
  Solvation  Ediel_sol  =         0.00000000
  ---------------------------------------------------
  free energy    TOTEN  =        -6.58674538 eV

  energy without entropy =       -6.60537673  energy(sigma->0) =       -6.59295583


--------------------------------------------------------------------------------------------------------




--------------------------------------- Iteration      1(   9)  ---------------------------------------


    POTLOK:  cpu time    1.7382: real time    1.7475
    SETDIJ:  cpu time    0.0174: real time    0.0174
     EDDAV:  cpu time    3.9382: real time    3.9441
       DOS:  cpu time    0.0040: real time    0.0040
    CHARGE:  cpu time    0.3671: real time    0.3675
    MIXING:  cpu time    0.0374: real time    0.0374
    --------------------------------------------
      LOOP:  cpu time    6.1023: real time    6.1180

 eigenvalue-minimisations  :   304
 total energy-change (2. order) :-0.4459102E+01  (-0.2354057E+00)
 number of electron      87.9999882 magnetization       3.9446892
 augmentation part       44.2816636 magnetization       3.5015307

 Broyden mixing:
  rms(total) = 0.17022E+00    rms(broyden)= 0.17019E+00
  rms(prec ) = 0.17576E+00
  weight for this iteration     100.00

 eigenvalues of (default mixing * dielectric matrix)
  average eigenvalue GAMMA=   1.0844
  1.5866  1.4357  0.6577  0.6577

 Free energy of the ion-electron system (eV)
  ---------------------------------------------------
  alpha Z        PSCENC =         5.64128824
  Ewald energy   TEWEN  =      9748.40522894
  -Hartree energ DENC   =    -18346.66254745
  -exchange      EXHF   =         0.00000000
  -V(xc)+E(xc)   XCENC  =       242.27506847
  PAW double counting   =      9131.12628979    -9475.97948952
  entropy T*S    EENTRO =         0.02388831
  eigenvalues    EBANDS =      -584.02821044
  atomic energy  EATOM  =      9268.15263587
  Solvation  Ediel_sol  =         0.00000000
  ---------------------------------------------------
  free energy    TOTEN  =       -11.04584780 eV

  energy without entropy =      -11.06973611  energy(sigma->0) =      -11.05381057


--------------------------------------------------------------------------------------------------------




--------------------------------------- Iteration      1(  10)  ---------------------------------------


    POTLOK:  cpu time    1.7742: real time    1.7795
    SETDIJ:  cpu time    0.0179: real time    0.0179
     EDDAV:  cpu time    4.0224: real time    4.0304
       DOS:  cpu time    0.0050: real time    0.0050
    CHARGE:  cpu time    0.3638: real time    0.3642
    MIXING:  cpu time    0.0382: real time    0.0382
    --------------------------------------------
      LOOP:  cpu time    6.2214: real time    6.2352

 eigenvalue-minimisations  :   312
 total energy-change (2. order) :-0.2080895E+01  (-0.7818754E-01)
 number of electron      87.9999884 magnetization       3.2219502
 augmentation part       44.2005917 magnetization       2.8347035

 Broyden mixing:
  rms(total) = 0.13465E+00    rms(broyden)= 0.13460E+00
  rms(prec ) = 0.13779E+00
  weight for this iteration     100.00

 eigenvalues of (default mixing * dielectric matrix)
  average eigenvalue GAMMA=   1.1010
  1.7627  1.7627  0.7928  0.5933  0.5933

 Free energy of the ion-electron system (eV)
  ---------------------------------------------------
  alpha Z        PSCENC =         5.64128824
  Ewald energy   TEWEN  =      9748.40522894
  -Hartree energ DENC   =    -18350.02176708
  -exchange      EXHF   =         0.00000000
  -V(xc)+E(xc)   XCENC  =       240.78595107
  PAW double counting   =      9145.14874062    -9491.44308298
  entropy T*S    EENTRO =         0.03356237
  eigenvalues    EBANDS =      -579.82929944
  atomic energy  EATOM  =      9268.15263587
  Solvation  Ediel_sol  =         0.00000000
  ---------------------------------------------------
  free energy    TOTEN  =       -13.12674240 eV

  energy without entropy =      -13.16030477  energy(sigma->0) =      -13.13792986


--------------------------------------------------------------------------------------------------------




--------------------------------------- Iteration      1(  11)  ---------------------------------------


    POTLOK:  cpu time    1.7649: real time    1.7695
    SETDIJ:  cpu time    0.0168: real time    0.0168
     EDDAV:  cpu time    4.0875: real time    4.0916
       DOS:  cpu time    0.0028: real time    0.0028
    CHARGE:  cpu time    0.3777: real time    0.3781
    MIXING:  cpu time    0.0393: real time    0.0394
    --------------------------------------------
      LOOP:  cpu time    6.2890: real time    6.2982

 eigenvalue-minimisations  :   320
 total energy-change (2. order) :-0.2380488E+01  (-0.9615756E-01)
 number of electron      87.9999883 magnetization       2.5932750
 augmentation part       44.2041953 magnetization       2.2557131

 Broyden mixing:
  rms(total) = 0.11309E+00    rms(broyden)= 0.11305E+00
  rms(prec ) = 0.11491E+00
  weight for this iteration     100.00

 eigenvalues of (default mixing * dielectric matrix)
  average eigenvalue GAMMA=   1.1470
  2.1611  2.1611  0.7919  0.6187  0.6187  0.5302

 Free energy of the ion-electron system (eV)
  ---------------------------------------------------
  alpha Z        PSCENC =         5.64128824
  Ewald energy   TEWEN  =      9748.40522894
  -Hartree energ DENC   =    -18347.15613024
  -exchange      EXHF   =         0.00000000
  -V(xc)+E(xc)   XCENC  =       238.86482352
  PAW double counting   =      9126.24939621    -9472.91833250
  entropy T*S    EENTRO =         0.05177699
  eigenvalues    EBANDS =      -582.79791716
  atomic energy  EATOM  =      9268.15263587
  Solvation  Ediel_sol  =         0.00000000
  ---------------------------------------------------
  free energy    TOTEN  =       -15.50723014 eV

  energy without entropy =      -15.55900713  energy(sigma->0) =      -15.52448913


--------------------------------------------------------------------------------------------------------




--------------------------------------- Iteration      1(  12)  ---------------------------------------


    POTLOK:  cpu time    1.7482: real time    1.7549
    SETDIJ:  cpu time    0.0155: real time    0.0155
     EDDAV:  cpu time    3.8518: real time    3.8576
       DOS:  cpu time    0.0027: real time    0.0027
    CHARGE:  cpu time    0.3669: real time    0.3672
    MIXING:  cpu time    0.0415: real time    0.0416
    --------------------------------------------
      LOOP:  cpu time    6.0266: real time    6.0395

 eigenvalue-minimisations  :   296
 total energy-change (2. order) :-0.1567556E+01  (-0.5493542E-01)
 number of electron      87.9999883 magnetization       2.2137636
 augmentation part       44.2554309 magnetization       1.9671014

 Broyden mixing:
  rms(total) = 0.79787E-01    rms(broyden)= 0.79770E-01
  rms(prec ) = 0.81097E-01
  weight for this iteration     100.00

 eigenvalues of (default mixing * dielectric matrix)
  average eigenvalue GAMMA=   1.1398
  2.5878  1.6873  0.9171  0.9171  0.6638  0.6638  0.5416

 Free energy of the ion-electron system (eV)
  ---------------------------------------------------
  alpha Z        PSCENC =         5.64128824
  Ewald energy   TEWEN  =      9748.40522894
  -Hartree energ DENC   =    -18343.93211617
  -exchange      EXHF   =         0.00000000
  -V(xc)+E(xc)   XCENC  =       237.53351776
  PAW double counting   =      9110.11534045    -9456.47691418
  entropy T*S    EENTRO =         0.05829257
  eigenvalues    EBANDS =      -586.57205933
  atomic energy  EATOM  =      9268.15263587
  Solvation  Ediel_sol  =         0.00000000
  ---------------------------------------------------
  free energy    TOTEN  =       -17.07478587 eV

  energy without entropy =      -17.13307843  energy(sigma->0) =      -17.09421672


--------------------------------------------------------------------------------------------------------




--------------------------------------- Iteration      1(  13)  ---------------------------------------


    POTLOK:  cpu time    1.7697: real time    1.7748
    SETDIJ:  cpu time    0.0176: real time    0.0176
     EDDAV:  cpu time    4.1419: real time    4.1520
       DOS:  cpu time    0.0032: real time    0.0032
    CHARGE:  cpu time    0.3461: real time    0.3464
    MIXING:  cpu time    0.0464: real time    0.0464
    --------------------------------------------
      LOOP:  cpu time    6.3248: real time    6.3404

 eigenvalue-minimisations  :   328
 total energy-change (2. order) :-0.5872563E+00  (-0.1357678E-01)
 number of electron      87.9999883 magnetization       1.3648762
 augmentation part       44.2437221 magnetization       1.1504562

 Broyden mixing:
  rms(total) = 0.59236E-01    rms(broyden)= 0.59227E-01
  rms(prec ) = 0.61420E-01
  weight for this iteration     100.00

 eigenvalues of (default mixing * dielectric matrix)
  average eigenvalue GAMMA=   1.3270
  3.4815  2.1029  1.4810  1.0761  0.6438  0.6438  0.5936  0.5936

 Free energy of the ion-electron system (eV)
  ---------------------------------------------------
  alpha Z        PSCENC =         5.64128824
  Ewald energy   TEWEN  =      9748.40522894
  -Hartree energ DENC   =    -18343.56063761
  -exchange      EXHF   =         0.00000000
  -V(xc)+E(xc)   XCENC  =       237.05738091
  PAW double counting   =      9108.48985890    -9454.89522551
  entropy T*S    EENTRO =         0.06141738
  eigenvalues    EBANDS =      -587.01398931
  atomic energy  EATOM  =      9268.15263587
  Solvation  Ediel_sol  =         0.00000000
  ---------------------------------------------------
  free energy    TOTEN  =       -17.66204220 eV

  energy without entropy =      -17.72345958  energy(sigma->0) =      -17.68251466


--------------------------------------------------------------------------------------------------------




--------------------------------------- Iteration      1(  14)  ---------------------------------------


    POTLOK:  cpu time    1.7703: real time    1.7746
    SETDIJ:  cpu time    0.0170: real time    0.0170
     EDDAV:  cpu time    3.8421: real time    3.8463
       DOS:  cpu time    0.0011: real time    0.0011
    CHARGE:  cpu time    0.3805: real time    0.3809
    MIXING:  cpu time    0.0527: real time    0.0528
    --------------------------------------------
      LOOP:  cpu time    6.0637: real time    6.0726

 eigenvalue-minimisations  :   296
 total energy-change (2. order) :-0.1052435E+01  (-0.2611516E-01)
 number of electron      87.9999883 magnetization       1.0561223
 augmentation part       44.2753897 magnetization       0.9179612

 Broyden mixing:
  rms(total) = 0.44253E-01    rms(broyden)= 0.44240E-01
  rms(prec ) = 0.45129E-01
  weight for this iteration     100.00

 eigenvalues of (default mixing * dielectric matrix)
  average eigenvalue GAMMA=   1.3593
  4.1309  1.9918  1.9918  0.8223  0.8223  0.7800  0.6447  0.5250  0.5250

 Free energy of the ion-electron system (eV)
  ---------------------------------------------------
  alpha Z        PSCENC =         5.64128824
  Ewald energy   TEWEN  =      9748.40522894
  -Hartree energ DENC   =    -18336.45190409
  -exchange      EXHF   =         0.00000000
  -V(xc)+E(xc)   XCENC  =       235.99610930
  PAW double counting   =      9072.17228712    -9418.19024387
  entropy T*S    EENTRO =         0.06293251
  eigenvalues    EBANDS =      -594.50281091
  atomic energy  EATOM  =      9268.15263587
  Solvation  Ediel_sol  =         0.00000000
  ---------------------------------------------------
  free energy    TOTEN  =       -18.71447689 eV

  energy without entropy =      -18.77740940  energy(sigma->0) =      -18.73545439


--------------------------------------------------------------------------------------------------------




--------------------------------------- Iteration      1(  15)  ---------------------------------------


    POTLOK:  cpu time    1.7509: real time    1.7550
    SETDIJ:  cpu time    0.0166: real time    0.0166
     EDDAV:  cpu time    4.0956: real time    4.0997
       DOS:  cpu time    0.0007: real time    0.0007
    CHARGE:  cpu time    0.3560: real time    0.3563
    MIXING:  cpu time    0.0542: real time    0.0542
    --------------------------------------------
      LOOP:  cpu time    6.2740: real time    6.2825

 eigenvalue-minimisations  :   320
 total energy-change (2. order) :-0.2164041E+00  (-0.2426861E-02)
 number of electron      87.9999883 magnetization       0.6813294
 augmentation part       44.2717681 magnetization       0.5696558

 Broyden mixing:
  rms(total) = 0.28500E-01    rms(broyden)= 0.28486E-01
  rms(prec ) = 0.29312E-01
  weight for this iteration     100.00

 eigenvalues of (default mixing * dielectric matrix)
  average eigenvalue GAMMA=   1.4102
  4.8510  2.0524  2.0524  0.9862  0.9862  0.7620  0.6011  0.6011  0.6048  0.6048

 Free energy of the ion-electron system (eV)
  ---------------------------------------------------
  alpha Z        PSCENC =         5.64128824
  Ewald energy   TEWEN  =      9748.40522894
  -Hartree energ DENC   =    -18334.63868810
  -exchange      EXHF   =         0.00000000
  -V(xc)+E(xc)   XCENC  =       235.76438214
  PAW double counting   =      9069.56514452    -9415.74121193
  entropy T*S    EENTRO =         0.06519504
  eigenvalues    EBANDS =      -596.14485568
  atomic energy  EATOM  =      9268.15263587
  Solvation  Ediel_sol  =         0.00000000
  ---------------------------------------------------
  free energy    TOTEN  =       -18.93088098 eV

  energy without entropy =      -18.99607602  energy(sigma->0) =      -18.95261266


--------------------------------------------------------------------------------------------------------




--------------------------------------- Iteration      1(  16)  ---------------------------------------


    POTLOK:  cpu time    1.7831: real time    1.7866
    SETDIJ:  cpu time    0.0165: real time    0.0165
     EDDAV:  cpu time    3.8911: real time    3.8974
       DOS:  cpu time    0.0013: real time    0.0013
    CHARGE:  cpu time    0.3376: real time    0.3379
    MIXING:  cpu time    0.0617: real time    0.0617
    --------------------------------------------
      LOOP:  cpu time    6.0913: real time    6.1015

 eigenvalue-minimisations  :   304
 total energy-change (2. order) :-0.2851332E+00  (-0.1933120E-02)
 number of electron      87.9999883 magnetization       0.3697347
 augmentation part       44.2746763 magnetization       0.2982797

 Broyden mixing:
  rms(total) = 0.20647E-01    rms(broyden)= 0.20604E-01
  rms(prec ) = 0.21586E-01
  weight for this iteration     100.00

 eigenvalues of (default mixing * dielectric matrix)
  average eigenvalue GAMMA=   1.5022
  5.7676  2.3268  2.3268  1.0962  1.0962  0.7902  0.7902  0.5979  0.5979  0.5919
  0.5421

 Free energy of the ion-electron system (eV)
  ---------------------------------------------------
  alpha Z        PSCENC =         5.64128824
  Ewald energy   TEWEN  =      9748.40522894
  -Hartree energ DENC   =    -18332.49775927
  -exchange      EXHF   =         0.00000000
  -V(xc)+E(xc)   XCENC  =       235.45535662
  PAW double counting   =      9072.85123501    -9419.09763188
  entropy T*S    EENTRO =         0.06575135
  eigenvalues    EBANDS =      -598.19211900
  atomic energy  EATOM  =      9268.15263587
  Solvation  Ediel_sol  =         0.00000000
  ---------------------------------------------------
  free energy    TOTEN  =       -19.21601414 eV

  energy without entropy =      -19.28176548  energy(sigma->0) =      -19.23793125


--------------------------------------------------------------------------------------------------------




--------------------------------------- Iteration      1(  17)  ---------------------------------------


    POTLOK:  cpu time    1.7862: real time    1.7897
    SETDIJ:  cpu time    0.0177: real time    0.0177
     EDDAV:  cpu time    3.8949: real time    3.9005
       DOS:  cpu time    0.0010: real time    0.0010
    CHARGE:  cpu time    0.3602: real time    0.3605
    MIXING:  cpu time    0.0726: real time    0.0727
    --------------------------------------------
      LOOP:  cpu time    6.1325: real time    6.1420

 eigenvalue-minimisations  :   304
 total energy-change (2. order) :-0.2087424E+00  (-0.6835412E-03)
 number of electron      87.9999883 magnetization       0.1654677
 augmentation part       44.2729061 magnetization       0.1258928

 Broyden mixing:
  rms(total) = 0.10060E-01    rms(broyden)= 0.99910E-02
  rms(prec ) = 0.10774E-01
  weight for this iteration     100.00

 eigenvalues of (default mixing * dielectric matrix)
  average eigenvalue GAMMA=   1.6481
  7.3634  2.5416  2.5416  1.6435  0.9628  0.9628  0.7307  0.7307  0.5875  0.5875
  0.6139  0.5115

 Free energy of the ion-electron system (eV)
  ---------------------------------------------------
  alpha Z        PSCENC =         5.64128824
  Ewald energy   TEWEN  =      9748.40522894
  -Hartree energ DENC   =    -18331.17873185
  -exchange      EXHF   =         0.00000000
  -V(xc)+E(xc)   XCENC  =       235.23821098
  PAW double counting   =      9080.12967624    -9426.38521074
  entropy T*S    EENTRO =         0.06533365
  eigenvalues    EBANDS =      -599.49318790
  atomic energy  EATOM  =      9268.15263587
  Solvation  Ediel_sol  =         0.00000000
  ---------------------------------------------------
  free energy    TOTEN  =       -19.42475658 eV

  energy without entropy =      -19.49009023  energy(sigma->0) =      -19.44653447


--------------------------------------------------------------------------------------------------------




--------------------------------------- Iteration      1(  18)  ---------------------------------------


    POTLOK:  cpu time    1.7733: real time    1.7768
    SETDIJ:  cpu time    0.0173: real time    0.0173
     EDDAV:  cpu time    3.8752: real time    3.8842
       DOS:  cpu time    0.0014: real time    0.0014
    CHARGE:  cpu time    0.3401: real time    0.3404
    MIXING:  cpu time    0.0728: real time    0.0729
    --------------------------------------------
      LOOP:  cpu time    6.0802: real time    6.0931

 eigenvalue-minimisations  :   296
 total energy-change (2. order) :-0.1328579E+00  (-0.3751754E-03)
 number of electron      87.9999883 magnetization       0.0797051
 augmentation part       44.2711712 magnetization       0.0622290

 Broyden mixing:
  rms(total) = 0.61601E-02    rms(broyden)= 0.61094E-02
  rms(prec ) = 0.66765E-02
  weight for this iteration     100.00

 eigenvalues of (default mixing * dielectric matrix)
  average eigenvalue GAMMA=   1.7118
  8.3291  2.6501  2.6501  1.9890  1.0235  0.9147  0.9147  0.8001  0.5894  0.5894
  0.6798  0.6086  0.5150

 Free energy of the ion-electron system (eV)
  ---------------------------------------------------
  alpha Z        PSCENC =         5.64128824
  Ewald energy   TEWEN  =      9748.40522894
  -Hartree energ DENC   =    -18330.28336148
  -exchange      EXHF   =         0.00000000
  -V(xc)+E(xc)   XCENC  =       235.10384403
  PAW double counting   =      9083.21048579    -9429.38884508
  entropy T*S    EENTRO =         0.06482616
  eigenvalues    EBANDS =      -600.46371690
  atomic energy  EATOM  =      9268.15263587
  Solvation  Ediel_sol  =         0.00000000
  ---------------------------------------------------
  free energy    TOTEN  =       -19.55761444 eV

  energy without entropy =      -19.62244060  energy(sigma->0) =      -19.57922316


--------------------------------------------------------------------------------------------------------




--------------------------------------- Iteration      1(  19)  ---------------------------------------


    POTLOK:  cpu time    1.7898: real time    1.7925
    SETDIJ:  cpu time    0.0169: real time    0.0169
     EDDAV:  cpu time    3.2141: real time    3.2176
       DOS:  cpu time    0.0016: real time    0.0016
    CHARGE:  cpu time    0.3361: real time    0.3384
    MIXING:  cpu time    0.0752: real time    0.0753
    --------------------------------------------
      LOOP:  cpu time    5.4337: real time    5.4423

 eigenvalue-minimisations  :   232
 total energy-change (2. order) :-0.4879798E-01  (-0.1427061E-03)
 number of electron      87.9999883 magnetization       0.0415967
 augmentation part       44.2696442 magnetization       0.0333547

 Broyden mixing:
  rms(total) = 0.28886E-02    rms(broyden)= 0.28606E-02
  rms(prec ) = 0.35058E-02
  weight for this iteration     100.00

 eigenvalues of (default mixing * dielectric matrix)
  average eigenvalue GAMMA=   1.7119
  8.7640  2.5984  2.5984  2.3723  1.1940  0.9841  0.9841  0.7814  0.7814  0.5852
  0.5852  0.6121  0.6121  0.5143

 Free energy of the ion-electron system (eV)
  ---------------------------------------------------
  alpha Z        PSCENC =         5.64128824
  Ewald energy   TEWEN  =      9748.40522894
  -Hartree energ DENC   =    -18329.75942265
  -exchange      EXHF   =         0.00000000
  -V(xc)+E(xc)   XCENC  =       235.05435022
  PAW double counting   =      9083.19200286    -9429.33266352
  entropy T*S    EENTRO =         0.06515266
  eigenvalues    EBANDS =      -601.02498504
  atomic energy  EATOM  =      9268.15263587
  Solvation  Ediel_sol  =         0.00000000
  ---------------------------------------------------
  free energy    TOTEN  =       -19.60641243 eV

  energy without entropy =      -19.67156509  energy(sigma->0) =      -19.62812998


--------------------------------------------------------------------------------------------------------




--------------------------------------- Iteration      1(  20)  ---------------------------------------


    POTLOK:  cpu time    1.7617: real time    1.7662
    SETDIJ:  cpu time    0.0168: real time    0.0168
     EDDAV:  cpu time    2.9000: real time    2.9030
       DOS:  cpu time    0.0016: real time    0.0016
    CHARGE:  cpu time    0.3499: real time    0.3503
    MIXING:  cpu time    0.0813: real time    0.0814
    --------------------------------------------
      LOOP:  cpu time    5.1114: real time    5.1193

 eigenvalue-minimisations  :   200
 total energy-change (2. order) :-0.1831264E-01  (-0.5412892E-04)
 number of electron      87.9999883 magnetization       0.0210108
 augmentation part       44.2701407 magnetization       0.0171201

 Broyden mixing:
  rms(total) = 0.20688E-02    rms(broyden)= 0.20580E-02
  rms(prec ) = 0.26796E-02
  weight for this iteration     100.00

 eigenvalues of (default mixing * dielectric matrix)
  average eigenvalue GAMMA=   1.7112
  9.0767  2.9497  2.4411  2.4411  1.4851  0.9546  0.9546  0.8996  0.8996  0.5884
  0.5884  0.6465  0.6465  0.5880  0.5080

 Free energy of the ion-electron system (eV)
  ---------------------------------------------------
  alpha Z        PSCENC =         5.64128824
  Ewald energy   TEWEN  =      9748.40522894
  -Hartree energ DENC   =    -18329.31252541
  -exchange      EXHF   =         0.00000000
  -V(xc)+E(xc)   XCENC  =       235.03210449
  PAW double counting   =      9082.38374221    -9428.50674464
  entropy T*S    EENTRO =         0.06511266
  eigenvalues    EBANDS =      -601.48556743
  atomic energy  EATOM  =      9268.15263587
  Solvation  Ediel_sol  =         0.00000000
  ---------------------------------------------------
  free energy    TOTEN  =       -19.62472507 eV

  energy without entropy =      -19.68983773  energy(sigma->0) =      -19.64642929


--------------------------------------------------------------------------------------------------------




--------------------------------------- Iteration      1(  21)  ---------------------------------------


    POTLOK:  cpu time    1.7435: real time    1.7513
    SETDIJ:  cpu time    0.0171: real time    0.0171
     EDDAV:  cpu time    2.6413: real time    2.6441
       DOS:  cpu time    0.0031: real time    0.0031
    CHARGE:  cpu time    0.3799: real time    0.3803
    MIXING:  cpu time    0.0867: real time    0.0868
    --------------------------------------------
      LOOP:  cpu time    4.8717: real time    4.8828

 eigenvalue-minimisations  :   176
 total energy-change (2. order) :-0.7399846E-02  (-0.2367286E-04)
 number of electron      87.9999883 magnetization       0.0112547
 augmentation part       44.2716888 magnetization       0.0093602

 Broyden mixing:
  rms(total) = 0.15096E-02    rms(broyden)= 0.15055E-02
  rms(prec ) = 0.20236E-02
  weight for this iteration     100.00

 eigenvalues of (default mixing * dielectric matrix)
  average eigenvalue GAMMA=   1.6733
  9.1944  3.1106  2.4101  2.4101  1.7624  0.9594  0.9594  0.9544  0.8120  0.8120
  0.5870  0.5870  0.6148  0.6028  0.5215  0.4756

 Free energy of the ion-electron system (eV)
  ---------------------------------------------------
  alpha Z        PSCENC =         5.64128824
  Ewald energy   TEWEN  =      9748.40522894
  -Hartree energ DENC   =    -18328.92917085
  -exchange      EXHF   =         0.00000000
  -V(xc)+E(xc)   XCENC  =       235.02173851
  PAW double counting   =      9081.80329390    -9427.91694949
  entropy T*S    EENTRO =         0.06491154
  eigenvalues    EBANDS =      -601.87510157
  atomic energy  EATOM  =      9268.15263587
  Solvation  Ediel_sol  =         0.00000000
  ---------------------------------------------------
  free energy    TOTEN  =       -19.63212492 eV

  energy without entropy =      -19.69703645  energy(sigma->0) =      -19.65376210


--------------------------------------------------------------------------------------------------------




--------------------------------------- Iteration      1(  22)  ---------------------------------------


    POTLOK:  cpu time    1.7298: real time    1.7330
    SETDIJ:  cpu time    0.0162: real time    0.0162
     EDDAV:  cpu time    2.5819: real time    2.5882
       DOS:  cpu time    0.0032: real time    0.0032
    CHARGE:  cpu time    0.3588: real time    0.3592
    MIXING:  cpu time    0.0958: real time    0.0959
    --------------------------------------------
      LOOP:  cpu time    4.7858: real time    4.7957

 eigenvalue-minimisations  :   168
 total energy-change (2. order) :-0.3141830E-02  (-0.9929187E-05)
 number of electron      87.9999883 magnetization       0.0064826
 augmentation part       44.2716358 magnetization       0.0052356

 Broyden mixing:
  rms(total) = 0.10040E-02    rms(broyden)= 0.10025E-02
  rms(prec ) = 0.14576E-02
  weight for this iteration     100.00

 eigenvalues of (default mixing * dielectric matrix)
  average eigenvalue GAMMA=   1.6705
  9.2390  3.1289  2.4439  2.4439  2.2124  1.1630  1.0025  1.0025  0.8775  0.8775
  0.5894  0.5894  0.6494  0.6494  0.6052  0.5122  0.4133

 Free energy of the ion-electron system (eV)
  ---------------------------------------------------
  alpha Z        PSCENC =         5.64128824
  Ewald energy   TEWEN  =      9748.40522894
  -Hartree energ DENC   =    -18328.66166435
  -exchange      EXHF   =         0.00000000
  -V(xc)+E(xc)   XCENC  =       235.01798407
  PAW double counting   =      9081.64417380    -9427.76775860
  entropy T*S    EENTRO =         0.06485178
  eigenvalues    EBANDS =      -602.13200649
  atomic energy  EATOM  =      9268.15263587
  Solvation  Ediel_sol  =         0.00000000
  ---------------------------------------------------
  free energy    TOTEN  =       -19.63526675 eV

  energy without entropy =      -19.70011853  energy(sigma->0) =      -19.65688401


--------------------------------------------------------------------------------------------------------




--------------------------------------- Iteration      1(  23)  ---------------------------------------


    POTLOK:  cpu time    1.7497: real time    1.7531
    SETDIJ:  cpu time    0.0161: real time    0.0161
     EDDAV:  cpu time    2.3508: real time    2.3530
       DOS:  cpu time    0.0032: real time    0.0032
    CHARGE:  cpu time    0.3630: real time    0.3633
    MIXING:  cpu time    0.1043: real time    0.1044
    --------------------------------------------
      LOOP:  cpu time    4.5870: real time    4.5930

 eigenvalue-minimisations  :   144
 total energy-change (2. order) :-0.8500623E-03  (-0.1132969E-04)
 number of electron      87.9999883 magnetization       0.0040307
 augmentation part       44.2712447 magnetization       0.0030798

 Broyden mixing:
  rms(total) = 0.82251E-03    rms(broyden)= 0.82206E-03
  rms(prec ) = 0.11002E-02
  weight for this iteration     100.00

 eigenvalues of (default mixing * dielectric matrix)
  average eigenvalue GAMMA=   1.6523
  9.2941  3.5135  2.4713  2.3831  2.3831  1.2307  1.0096  1.0096  0.9002  0.9002
  0.5907  0.5907  0.7117  0.6673  0.6051  0.6051  0.5080  0.3665

 Free energy of the ion-electron system (eV)
  ---------------------------------------------------
  alpha Z        PSCENC =         5.64128824
  Ewald energy   TEWEN  =      9748.40522894
  -Hartree energ DENC   =    -18328.31192045
  -exchange      EXHF   =         0.00000000
  -V(xc)+E(xc)   XCENC  =       235.01619013
  PAW double counting   =      9081.34396618    -9427.48265460
  entropy T*S    EENTRO =         0.06483287
  eigenvalues    EBANDS =      -602.46568399
  atomic energy  EATOM  =      9268.15263587
  Solvation  Ediel_sol  =         0.00000000
  ---------------------------------------------------
  free energy    TOTEN  =       -19.63611681 eV

  energy without entropy =      -19.70094968  energy(sigma->0) =      -19.65772777


--------------------------------------------------------------------------------------------------------




--------------------------------------- Iteration      1(  24)  ---------------------------------------


    POTLOK:  cpu time    1.7277: real time    1.7308
    SETDIJ:  cpu time    0.0172: real time    0.0172
     EDDAV:  cpu time    2.6790: real time    2.6822
       DOS:  cpu time    0.0032: real time    0.0032
    CHARGE:  cpu time    0.3517: real time    0.3521
    MIXING:  cpu time    0.1105: real time    0.1106
    --------------------------------------------
      LOOP:  cpu time    4.8893: real time    4.8961

 eigenvalue-minimisations  :   176
 total energy-change (2. order) : 0.1885044E-03  (-0.5440749E-05)
 number of electron      87.9999883 magnetization       0.0028494
 augmentation part       44.2711531 magnetization       0.0019923

 Broyden mixing:
  rms(total) = 0.65948E-03    rms(broyden)= 0.65911E-03
  rms(prec ) = 0.87304E-03
  weight for this iteration     100.00

 eigenvalues of (default mixing * dielectric matrix)
  average eigenvalue GAMMA=   1.6253
  9.3167  3.7511  2.4176  2.4176  2.4252  1.3375  0.9508  0.9508  1.0124  0.9364
  0.9364  0.5900  0.5900  0.6496  0.6496  0.6045  0.5151  0.4811  0.3482

 Free energy of the ion-electron system (eV)
  ---------------------------------------------------
  alpha Z        PSCENC =         5.64128824
  Ewald energy   TEWEN  =      9748.40522894
  -Hartree energ DENC   =    -18328.15274983
  -exchange      EXHF   =         0.00000000
  -V(xc)+E(xc)   XCENC  =       235.01548836
  PAW double counting   =      9081.48936926    -9427.63117079
  entropy T*S    EENTRO =         0.06483486
  eigenvalues    EBANDS =      -602.62085322
  atomic energy  EATOM  =      9268.15263587
  Solvation  Ediel_sol  =         0.00000000
  ---------------------------------------------------
  free energy    TOTEN  =       -19.63592830 eV

  energy without entropy =      -19.70076317  energy(sigma->0) =      -19.65753993


--------------------------------------------------------------------------------------------------------




--------------------------------------- Iteration      1(  25)  ---------------------------------------


    POTLOK:  cpu time    1.7316: real time    1.7332
    SETDIJ:  cpu time    0.0163: real time    0.0163
     EDDAV:  cpu time    2.5858: real time    2.5904
       DOS:  cpu time    0.0037: real time    0.0037
    CHARGE:  cpu time    0.3701: real time    0.3704
    MIXING:  cpu time    0.1200: real time    0.1201
    --------------------------------------------
      LOOP:  cpu time    4.8275: real time    4.8343

 eigenvalue-minimisations  :   168
 total energy-change (2. order) :-0.1570151E-03  (-0.3463213E-05)
 number of electron      87.9999883 magnetization       0.0020917
 augmentation part       44.2711605 magnetization       0.0013799

 Broyden mixing:
  rms(total) = 0.50690E-03    rms(broyden)= 0.50668E-03
  rms(prec ) = 0.65232E-03
  weight for this iteration     100.00

 eigenvalues of (default mixing * dielectric matrix)
  average eigenvalue GAMMA=   1.6340
  9.3281  4.0959  2.5063  2.5063  2.2312  1.9912  1.2515  0.9719  0.9719  0.8789
  0.8789  0.7660  0.5905  0.5905  0.6370  0.6237  0.6237  0.5095  0.4084  0.3181

 Free energy of the ion-electron system (eV)
  ---------------------------------------------------
  alpha Z        PSCENC =         5.64128824
  Ewald energy   TEWEN  =      9748.40522894
  -Hartree energ DENC   =    -18327.97021166
  -exchange      EXHF   =         0.00000000
  -V(xc)+E(xc)   XCENC  =       235.01358890
  PAW double counting   =      9081.60572415    -9427.74681995
  entropy T*S    EENTRO =         0.06483061
  eigenvalues    EBANDS =      -602.80235042
  atomic energy  EATOM  =      9268.15263587
  Solvation  Ediel_sol  =         0.00000000
  ---------------------------------------------------
  free energy    TOTEN  =       -19.63608532 eV

  energy without entropy =      -19.70091593  energy(sigma->0) =      -19.65769552


--------------------------------------------------------------------------------------------------------




--------------------------------------- Iteration      1(  26)  ---------------------------------------


    POTLOK:  cpu time    1.7094: real time    1.7135
    SETDIJ:  cpu time    0.0165: real time    0.0165
     EDDAV:  cpu time    2.3379: real time    2.3402
       DOS:  cpu time    0.0033: real time    0.0033
    CHARGE:  cpu time    0.3612: real time    0.3615
    MIXING:  cpu time    0.1202: real time    0.1204
    --------------------------------------------
      LOOP:  cpu time    4.5485: real time    4.5554

 eigenvalue-minimisations  :   144
 total energy-change (2. order) :-0.4267296E-03  (-0.3243559E-05)
 number of electron      87.9999883 magnetization       0.0015003
 augmentation part       44.2714555 magnetization       0.0008201

 Broyden mixing:
  rms(total) = 0.39501E-03    rms(broyden)= 0.39484E-03
  rms(prec ) = 0.45884E-03
  weight for this iteration     100.00

 eigenvalues of (default mixing * dielectric matrix)
  average eigenvalue GAMMA=   1.6753
  9.3495  4.9282  2.7191  2.7191  2.2810  2.2810  1.3169  0.9806  0.9806  0.9671
  0.8900  0.8900  0.5917  0.5917  0.6410  0.6410  0.6084  0.6084  0.5083  0.3856
  0.3024

 Free energy of the ion-electron system (eV)
  ---------------------------------------------------
  alpha Z        PSCENC =         5.64128824
  Ewald energy   TEWEN  =      9748.40522894
  -Hartree energ DENC   =    -18327.73212590
  -exchange      EXHF   =         0.00000000
  -V(xc)+E(xc)   XCENC  =       235.01078266
  PAW double counting   =      9081.76017922    -9427.89936334
  entropy T*S    EENTRO =         0.06480485
  eigenvalues    EBANDS =      -603.03994259
  atomic energy  EATOM  =      9268.15263587
  Solvation  Ediel_sol  =         0.00000000
  ---------------------------------------------------
  free energy    TOTEN  =       -19.63651205 eV

  energy without entropy =      -19.70131690  energy(sigma->0) =      -19.65811367


--------------------------------------------------------------------------------------------------------




--------------------------------------- Iteration      1(  27)  ---------------------------------------


    POTLOK:  cpu time    1.7112: real time    1.7177
    SETDIJ:  cpu time    0.0165: real time    0.0166
     EDDAV:  cpu time    2.4098: real time    2.4123
       DOS:  cpu time    0.0031: real time    0.0031
    CHARGE:  cpu time    0.3453: real time    0.3456
    MIXING:  cpu time    0.1278: real time    0.1279
    --------------------------------------------
      LOOP:  cpu time    4.6137: real time    4.6231

 eigenvalue-minimisations  :   152
 total energy-change (2. order) :-0.2930054E-03  (-0.1831361E-05)
 number of electron      87.9999883 magnetization       0.0012746
 augmentation part       44.2716658 magnetization       0.0007096

 Broyden mixing:
  rms(total) = 0.28420E-03    rms(broyden)= 0.28407E-03
  rms(prec ) = 0.32598E-03
  weight for this iteration     100.00

 eigenvalues of (default mixing * dielectric matrix)
  average eigenvalue GAMMA=   1.6719
  9.3605  5.4509  2.6590  2.6590  2.4285  2.4285  1.1968  1.1968  0.9662  0.9662
  1.0368  0.7934  0.7934  0.6905  0.5903  0.5903  0.6245  0.5853  0.5853  0.5070
  0.3755  0.2971

 Free energy of the ion-electron system (eV)
  ---------------------------------------------------
  alpha Z        PSCENC =         5.64128824
  Ewald energy   TEWEN  =      9748.40522894
  -Hartree energ DENC   =    -18327.63230110
  -exchange      EXHF   =         0.00000000
  -V(xc)+E(xc)   XCENC  =       235.00967061
  PAW double counting   =      9081.78626226    -9427.92476122
  entropy T*S    EENTRO =         0.06477686
  eigenvalues    EBANDS =      -603.13960550
  atomic energy  EATOM  =      9268.15263587
  Solvation  Ediel_sol  =         0.00000000
  ---------------------------------------------------
  free energy    TOTEN  =       -19.63680506 eV

  energy without entropy =      -19.70158192  energy(sigma->0) =      -19.65839734


--------------------------------------------------------------------------------------------------------




--------------------------------------- Iteration      1(  28)  ---------------------------------------


    POTLOK:  cpu time    1.7115: real time    1.7129
    SETDIJ:  cpu time    0.0182: real time    0.0183
     EDDAV:  cpu time    2.2625: real time    2.2648
       DOS:  cpu time    0.0032: real time    0.0032
    CHARGE:  cpu time    0.3422: real time    0.3425
    MIXING:  cpu time    0.1370: real time    0.1372
    --------------------------------------------
      LOOP:  cpu time    4.4746: real time    4.4788

 eigenvalue-minimisations  :   136
 total energy-change (2. order) :-0.2745645E-03  (-0.9728163E-06)
 number of electron      87.9999883 magnetization       0.0007871
 augmentation part       44.2715014 magnetization       0.0003452

 Broyden mixing:
  rms(total) = 0.30315E-03    rms(broyden)= 0.30301E-03
  rms(prec ) = 0.33294E-03
  weight for this iteration     100.00

 eigenvalues of (default mixing * dielectric matrix)
[...]
  -Hartree energ DENC   =    -18045.08478941
  -exchange      EXHF   =         0.00000000
  -V(xc)+E(xc)   XCENC  =       234.46986260
  PAW double counting   =      8966.02190592    -9309.96443634
  entropy T*S    EENTRO =         0.10914989
  eigenvalues    EBANDS =      -594.50143189
  atomic energy  EATOM  =      9268.15263587
  Solvation  Ediel_sol  =         0.00000000
  ---------------------------------------------------
  free energy    TOTEN  =       -19.92717051 eV

  energy without entropy =      -20.03632040  energy(sigma->0) =      -19.96355381


--------------------------------------------------------------------------------------------------------




--------------------------------------- Iteration     18(   3)  ---------------------------------------


    POTLOK:  cpu time    1.6878: real time    1.6928
    SETDIJ:  cpu time    0.0170: real time    0.0170
     EDDAV:  cpu time    3.3327: real time    3.3400
       DOS:  cpu time    0.0033: real time    0.0033
    --------------------------------------------
      LOOP:  cpu time    5.0408: real time    5.0531

 eigenvalue-minimisations  :   248
 total energy-change (2. order) : 0.8513682E-04  (-0.6641326E-04)
 number of electron      88.0000051 magnetization       0.0000131
 augmentation part       44.3650088 magnetization       0.0000077

 Free energy of the ion-electron system (eV)
  ---------------------------------------------------
  alpha Z        PSCENC =         5.64128824
  Ewald energy   TEWEN  =      9455.22864462
  -Hartree energ DENC   =    -18045.10319945
  -exchange      EXHF   =         0.00000000
  -V(xc)+E(xc)   XCENC  =       234.47076815
  PAW double counting   =      8966.18765582    -9310.14493201
  entropy T*S    EENTRO =         0.10931406
  eigenvalues    EBANDS =      -594.46926066
  atomic energy  EATOM  =      9268.15263587
  Solvation  Ediel_sol  =         0.00000000
  ---------------------------------------------------
  free energy    TOTEN  =       -19.92708537 eV

  energy without entropy =      -20.03639943  energy(sigma->0) =      -19.96352339


--------------------------------------------------------------------------------------------------------




 average (electrostatic) potential at core
  the test charge radii are     1.2098  0.9430
  (the norm of the test charge is              1.0000)
       1 -76.7609       2 -76.7625       3 -76.7706       4 -76.7655       5 -74.5646
       6 -74.5592       7 -74.5615       8 -74.5669
 
 
 
 E-fermi :  -5.0723     XC(G=0):  -0.3368     alpha+bet : -0.1473


 spin component 1

 k-point     1 :       0.0000    0.0000    0.0000
  band No.  band energies     occupation 
      1     -10.3998      1.00000
      2      -8.6727      1.00000
      3      -8.6700      1.00000
      4      -8.6676      1.00000
      5      -8.0848      1.00000
      6      -8.0810      1.00000
      7      -8.0779      1.00000
      8      -7.7042      1.00000
      9      -7.7004      1.00000
     10      -7.6664      1.00000
     11      -7.6643      1.00000
     12      -7.6589      1.00000
     13      -7.4705      1.00000
     14      -7.4415      1.00000
     15      -7.4381      1.00000
     16      -7.2019      1.00000
     17      -7.1980      1.00000
     18      -7.1954      1.00000
     19      -7.0144      1.00000
     20      -7.0136      1.00000
     21      -7.0114      1.00000
     22      -6.8892      1.00000
     23      -6.7800      1.00000
     24      -6.7754      1.00000
     25      -6.7730      1.00000
     26      -6.1278      1.00000
     27      -6.1202      1.00000
     28      -6.0809      1.00000
     29      -6.0774      1.00000
     30      -6.0720      1.00000
     31      -5.5342      1.00260
     32      -5.5338      1.00262
     33      -5.5015      1.00485
     34      -5.4992      1.00506
     35      -5.4985      1.00512
     36      -5.4616      1.00947
     37      -5.4582      1.00998
     38      -5.4544      1.01056
     39      -5.3115      1.03532
     40      -5.3065      1.03498
     41      -5.3043      1.03475
     42      -5.2081      0.95231
     43      -5.2051      0.94662
     44      -5.2046      0.94576
     45      -3.1666     -0.00000
     46      -2.9052     -0.00000
     47      -2.8992     -0.00000
     48      -2.8938     -0.00000
     49      -1.8473     -0.00000
     50      -1.8434     -0.00000
     51      -0.7371     -0.00000
     52      -0.7320     -0.00000
     53      -0.7295     -0.00000
     54      -0.4846     -0.00000
     55       0.0614     -0.00000
     56       0.0646     -0.00000

 spin component 2

 k-point     1 :       0.0000    0.0000    0.0000
  band No.  band energies     occupation 
      1     -10.3998      1.00000
      2      -8.6727      1.00000
      3      -8.6700      1.00000
      4      -8.6676      1.00000
      5      -8.0848      1.00000
      6      -8.0810      1.00000
      7      -8.0779      1.00000
      8      -7.7042      1.00000
      9      -7.7004      1.00000
     10      -7.6664      1.00000
     11      -7.6643      1.00000
     12      -7.6589      1.00000
     13      -7.4705      1.00000
     14      -7.4415      1.00000
     15      -7.4381      1.00000
     16      -7.2019      1.00000
     17      -7.1980      1.00000
     18      -7.1954      1.00000
     19      -7.0144      1.00000
     20      -7.0136      1.00000
     21      -7.0114      1.00000
     22      -6.8892      1.00000
     23      -6.7800      1.00000
     24      -6.7754      1.00000
     25      -6.7730      1.00000
     26      -6.1278      1.00000
     27      -6.1202      1.00000
     28      -6.0809      1.00000
     29      -6.0774      1.00000
     30      -6.0720      1.00000
     31      -5.5342      1.00260
     32      -5.5338      1.00262
     33      -5.5015      1.00485
     34      -5.4992      1.00506
     35      -5.4985      1.00512
     36      -5.4616      1.00947
     37      -5.4582      1.00998
     38      -5.4544      1.01056
     39      -5.3115      1.03532
     40      -5.3065      1.03498
     41      -5.3043      1.03475
     42      -5.2081      0.95231
     43      -5.2051      0.94661
     44      -5.2046      0.94575
     45      -3.1666     -0.00000
     46      -2.9052     -0.00000
     47      -2.8992     -0.00000
     48      -2.8938     -0.00000
     49      -1.8473     -0.00000
     50      -1.8433     -0.00000
     51      -0.7370     -0.00000
     52      -0.7319     -0.00000
     53      -0.7294     -0.00000
     54      -0.4845     -0.00000
     55       0.0619     -0.00000
     56       0.0645     -0.00000


--------------------------------------------------------------------------------------------------------


 soft charge-density along one line, spin component            1
         0         1         2         3         4         5         6         7         8         9
 total charge-density along one line
 
 soft charge-density along one line, spin component            2
         0         1         2         3         4         5         6         7         8         9
 total charge-density along one line
 
 pseudopotential strength for first ion, spin component:            1
 -9.220  -0.026  -0.016   0.004   0.003  -9.341  -0.026  -0.016
 -0.026  -9.211   0.003   0.010  -0.013  -0.026  -9.332   0.002
 -0.016   0.003  -9.214  -0.017   0.020  -0.016   0.002  -9.335
  0.004   0.010  -0.017  -9.236  -0.019   0.004   0.010  -0.017
  0.003  -0.013   0.020  -0.019  -9.226   0.003  -0.013   0.020
 -9.341  -0.026  -0.016   0.004   0.003  -9.447  -0.025  -0.016
 -0.026  -9.332   0.002   0.010  -0.013  -0.025  -9.438   0.002
 -0.016   0.002  -9.335  -0.017   0.020  -0.016   0.002  -9.441
  0.004   0.010  -0.017  -9.357  -0.019   0.004   0.009  -0.016
  0.003  -0.013   0.020  -0.019  -9.347   0.003  -0.012   0.019
 -0.008  -0.005  -0.001   0.015   0.010  -0.008  -0.005  -0.001
 -0.011  -0.007  -0.002   0.021   0.014  -0.011  -0.007  -0.002
  0.022   0.014   0.004   0.000   0.008   0.021   0.014   0.004
  0.000  -0.007   0.017   0.021  -0.001   0.000  -0.007   0.017
 -0.007   0.000  -0.013   0.013   0.021  -0.007   0.000  -0.012
  0.025   0.017   0.005   0.001   0.009   0.024   0.016   0.005
  0.001  -0.008   0.019   0.024  -0.001   0.001  -0.008   0.019
 -0.008   0.001  -0.014   0.015   0.024  -0.008   0.001  -0.014
 pseudopotential strength for first ion, spin component:            2
 -9.220  -0.026  -0.016   0.004   0.003  -9.341  -0.026  -0.016
 -0.026  -9.211   0.003   0.010  -0.013  -0.026  -9.332   0.002
 -0.016   0.003  -9.214  -0.017   0.020  -0.016   0.002  -9.335
  0.004   0.010  -0.017  -9.236  -0.019   0.004   0.010  -0.017
  0.003  -0.013   0.020  -0.019  -9.226   0.003  -0.013   0.020
 -9.341  -0.026  -0.016   0.004   0.003  -9.447  -0.025  -0.016
 -0.026  -9.332   0.002   0.010  -0.013  -0.025  -9.438   0.002
 -0.016   0.002  -9.335  -0.017   0.020  -0.016   0.002  -9.441
  0.004   0.010  -0.017  -9.357  -0.019   0.004   0.009  -0.016
  0.003  -0.013   0.020  -0.019  -9.347   0.003  -0.012   0.019
 -0.008  -0.005  -0.001   0.015   0.010  -0.008  -0.005  -0.001
 -0.011  -0.007  -0.002   0.021   0.014  -0.011  -0.007  -0.002
  0.022   0.014   0.004   0.000   0.008   0.021   0.014   0.004
  0.000  -0.007   0.017   0.021  -0.001   0.000  -0.007   0.017
 -0.007   0.000  -0.013   0.013   0.021  -0.007   0.000  -0.012
  0.025   0.017   0.005   0.001   0.009   0.024   0.016   0.005
  0.001  -0.008   0.019   0.024  -0.001   0.001  -0.008   0.019
 -0.008   0.001  -0.014   0.015   0.024  -0.008   0.001  -0.014
 total augmentation occupancy for first ion, spin component:            1
  2.859   0.137   0.068  -0.183   0.059  -0.863  -0.255  -0.147   0.141  -0.020   0.372  -0.097   0.110  -0.022  -0.056   0.020
  0.137   2.446  -0.092  -0.180  -0.060  -0.254  -0.546   0.074   0.173  -0.047   0.245  -0.066   0.056  -0.048  -0.022   0.012
  0.068  -0.092   2.837   0.032  -0.097  -0.147   0.074  -0.811  -0.129   0.189   0.063  -0.016   0.018   0.076  -0.064   0.004
 -0.183  -0.180   0.032   2.868   0.341   0.141   0.173  -0.128  -0.970  -0.331  -0.712   0.188  -0.023   0.122   0.121   0.002
  0.059  -0.060  -0.097   0.341   2.708  -0.020  -0.048   0.188  -0.331  -0.806  -0.464   0.121   0.023   0.032   0.123   0.008
 -0.863  -0.254  -0.147   0.141  -0.020   0.833   0.353   0.214  -0.105  -0.011  -0.337   0.094  -0.152   0.014   0.076   0.004
 -0.255  -0.546   0.074   0.173  -0.048   0.353   0.593  -0.061  -0.168   0.137  -0.222   0.063  -0.110   0.060   0.013   0.005
 -0.147   0.074  -0.811  -0.128   0.188   0.214  -0.061   0.757   0.210  -0.265  -0.057   0.015  -0.032  -0.109   0.086   0.001
  0.141   0.173  -0.129  -0.970  -0.331  -0.105  -0.168   0.210   1.020   0.322   0.644  -0.181   0.014  -0.179  -0.140  -0.001
 -0.020  -0.047   0.189  -0.331  -0.806  -0.011   0.137  -0.265   0.322   0.854   0.420  -0.116  -0.040  -0.015  -0.177   0.001
  0.372   0.245   0.063  -0.712  -0.464  -0.337  -0.222  -0.057   0.644   0.420   2.043  -0.236   0.080  -0.154  -0.228  -0.005
 -0.097  -0.066  -0.016   0.188   0.121   0.094   0.063   0.015  -0.181  -0.116  -0.236   0.062  -0.018   0.034   0.050   0.001
  0.110   0.056   0.018  -0.023   0.023  -0.152  -0.110  -0.032   0.014  -0.040   0.080  -0.018   0.039  -0.006  -0.009  -0.002
 -0.022  -0.048   0.076   0.122   0.032   0.014   0.060  -0.109  -0.179  -0.015  -0.154   0.034  -0.006   0.047   0.016   0.000
 -0.056  -0.022  -0.064   0.121   0.123   0.076   0.013   0.086  -0.140  -0.177  -0.228   0.050  -0.009   0.016   0.060   0.001
  0.020   0.012   0.004   0.002   0.008   0.004   0.005   0.001  -0.001   0.001  -0.005   0.001  -0.002   0.000   0.001   0.001
  0.001  -0.006   0.016   0.016  -0.002  -0.001  -0.002   0.003   0.007   0.000   0.009  -0.001   0.000  -0.002  -0.001  -0.000
 -0.004   0.001  -0.011   0.009   0.016  -0.004  -0.001  -0.002   0.006   0.007   0.014  -0.002   0.001  -0.001  -0.003  -0.000
 total augmentation occupancy for first ion, spin component:            2
 -0.000   0.000  -0.000  -0.000  -0.000  -0.000  -0.000   0.000   0.000   0.000   0.000  -0.000  -0.000   0.000   0.000   0.000
  0.000  -0.000  -0.000  -0.000  -0.000  -0.000   0.000   0.000   0.000  -0.000   0.000  -0.000   0.000   0.000  -0.000  -0.000
 -0.000  -0.000   0.000   0.000  -0.000   0.000   0.000   0.000  -0.000   0.000   0.000  -0.000  -0.000  -0.000  -0.000   0.000
 -0.000  -0.000   0.000   0.000   0.000  -0.000   0.000  -0.000  -0.000  -0.000   0.000  -0.000   0.000  -0.000  -0.000  -0.000
 -0.000  -0.000  -0.000   0.000  -0.000   0.000   0.000  -0.000  -0.000  -0.000  -0.000   0.000   0.000  -0.000   0.000  -0.000
 -0.000  -0.000   0.000  -0.000   0.000   0.000  -0.000  -0.000   0.000  -0.000   0.000  -0.000   0.000   0.000  -0.000  -0.000
 -0.000   0.000   0.000   0.000   0.000  -0.000  -0.000  -0.000   0.000  -0.000  -0.000   0.000  -0.000  -0.000  -0.000   0.000
  0.000   0.000   0.000  -0.000  -0.000  -0.000  -0.000  -0.000   0.000   0.000  -0.000   0.000   0.000   0.000   0.000  -0.000
  0.000   0.000  -0.000  -0.000  -0.000   0.000   0.000   0.000   0.000   0.000  -0.000   0.000  -0.000  -0.000  -0.000   0.000
  0.000  -0.000   0.000  -0.000  -0.000  -0.000  -0.000   0.000   0.000   0.000   0.000  -0.000  -0.000  -0.000  -0.000   0.000
  0.000   0.000   0.000   0.000  -0.000   0.000  -0.000  -0.000  -0.000   0.000   0.000  -0.000  -0.000   0.000   0.000   0.000
 -0.000  -0.000  -0.000  -0.000   0.000  -0.000   0.000   0.000   0.000  -0.000  -0.000   0.000   0.000  -0.000   0.000  -0.000
 -0.000   0.000  -0.000   0.000   0.000   0.000  -0.000   0.000  -0.000  -0.000  -0.000   0.000   0.000   0.000   0.000   0.000
  0.000   0.000  -0.000  -0.000  -0.000   0.000  -0.000   0.000  -0.000  -0.000   0.000  -0.000   0.000  -0.000   0.000  -0.000
  0.000  -0.000  -0.000  -0.000   0.000  -0.000  -0.000   0.000  -0.000  -0.000   0.000   0.000   0.000   0.000  -0.000  -0.000
  0.000  -0.000   0.000  -0.000  -0.000  -0.000   0.000  -0.000   0.000   0.000   0.000  -0.000   0.000  -0.000  -0.000   0.000
 -0.000  -0.000   0.000   0.000   0.000  -0.000   0.000  -0.000   0.000   0.000  -0.000  -0.000  -0.000  -0.000  -0.000  -0.000
 -0.000  -0.000   0.000   0.000  -0.000   0.000   0.000  -0.000  -0.000   0.000  -0.000   0.000  -0.000   0.000   0.000   0.000


------------------------ aborting loop because EDIFF is reached ----------------------------------------


    CHARGE:  cpu time    0.3555: real time    0.3577
    FORLOC:  cpu time    0.0628: real time    0.0629
    FORNL :  cpu time    1.6528: real time    1.6555
    FORCOR:  cpu time    1.7111: real time    1.7147
    FORHAR:  cpu time    0.2249: real time    0.2251
    MIXING:  cpu time    0.0307: real time    0.0307
    OFIELD:  cpu time    0.0000: real time    0.0000

 VOLUME and BASIS-vectors are now :
 -----------------------------------------------------------------------------
  energy-cutoff  :      400.00
  volume of cell :    10755.69
      direct lattice vectors                 reciprocal lattice vectors
    22.145461681  0.000000000  0.000000000     0.045155979  0.000000000  0.000000000
     0.000000000 21.969907400  0.000000000     0.000000000  0.045516805  0.000000000
     0.000000000  0.000000000 22.106779434     0.000000000  0.000000000  0.045234992

  length of vectors
    22.145461681 21.969907400 22.106779434     0.045155979  0.045516805  0.045234992


 FORCES acting on ions
    electron-ion (+dipol)            ewald-force                    non-local-force                 convergence-correction
 -----------------------------------------------------------------------------------------------
   -.789E+03 0.277E+03 -.536E+03   0.784E+03 -.275E+03 0.532E+03   0.534E+01 -.186E+01 0.359E+01   -.599E-01 -.905E-02 -.363E-02
   0.312E+03 -.894E+03 -.300E+03   -.310E+03 0.888E+03 0.298E+03   -.212E+01 0.601E+01 0.204E+01   0.246E-01 0.954E-02 -.535E-01
   0.732E+03 0.662E+03 -.123E+03   -.727E+03 -.657E+03 0.122E+03   -.492E+01 -.445E+01 0.851E+00   0.191E-02 -.280E-01 -.383E-01
   -.253E+03 -.450E+02 0.960E+03   0.252E+03 0.447E+02 -.954E+03   0.171E+01 0.293E+00 -.646E+01   -.229E-01 0.219E-01 -.376E-01
   0.249E+03 0.417E+02 -.956E+03   -.247E+03 -.414E+02 0.950E+03   -.170E+01 -.249E+00 0.610E+01   0.134E+00 0.361E-02 -.861E-01
   -.728E+03 -.659E+03 0.119E+03   0.723E+03 0.655E+03 -.118E+03   0.471E+01 0.418E+01 -.772E+00   -.118E+00 -.654E-01 0.536E-01
   -.309E+03 0.890E+03 0.301E+03   0.307E+03 -.884E+03 -.300E+03   0.198E+01 -.570E+01 -.196E+01   -.158E-01 0.700E-01 0.580E-01
   0.785E+03 -.272E+03 0.535E+03   -.781E+03 0.271E+03 -.531E+03   -.503E+01 0.172E+01 -.340E+01   0.102E+00 0.403E-02 0.382E-01
 -----------------------------------------------------------------------------------------------
   -.142E-01 0.192E-01 0.904E-01   -.114E-12 0.000E+00 0.227E-12   -.327E-01 -.463E-01 -.488E-02   0.453E-01 0.669E-02 -.693E-01
 
 
 POSITION                                       TOTAL-FORCE (eV/Angst)
 -----------------------------------------------------------------------------------
     13.17147     10.14315     12.88846        -0.013722      0.018622     -0.029177
     10.28455     13.21660     12.26298         0.003309     -0.025582      0.006859
      9.18762      9.14056     11.79789         0.004449      0.004269      0.007237
     11.76179     10.99048      8.96387         0.001441     -0.011405      0.019196
     10.71754     10.80425     12.96814        -0.011302      0.005414     -0.013760
     12.22816     11.89531     11.29410         0.016740     -0.004660     -0.001477
     11.58167      9.48555     11.01167         0.011260      0.008637      0.004079
      9.88103     11.29553     10.64550        -0.012175      0.004705      0.007043
 -----------------------------------------------------------------------------------
    total drift:                               -0.001529     -0.020385      0.016196


--------------------------------------------------------------------------------------------------------



  FREE ENERGIE OF THE ION-ELECTRON SYSTEM (eV)
  ---------------------------------------------------
  free  energy   TOTEN  =       -19.92708537 eV

  energy  without entropy=      -20.03639943  energy(sigma->0) =      -19.96352339
 
 d Force = 0.1639955E-03[-0.595E-04, 0.387E-03]  d Energy = 0.1459242E-03 0.181E-04
 d Force =-0.9783645E+01[-0.979E+01,-0.977E+01]  d Ewald  =-0.9783638E+01-0.771E-05


--------------------------------------------------------------------------------------------------------


    POTLOK:  cpu time    1.7125: real time    1.7164


--------------------------------------------------------------------------------------------------------




--------------------------------------------------------------------------------------------------------


  
 reached required accuracy - stopping structural energy minimisation
     LOOP+:  cpu time   23.1047: real time   23.1511
    4ORBIT:  cpu time    0.0000: real time    0.0000

 total amount of memory used by VASP MPI-rank0   137190. kBytes
=======================================================================

   base      :      30000. kBytes
   nonl-proj :       5076. kBytes
   fftplans  :      25404. kBytes
   grid      :      65753. kBytes
   one-center:         15. kBytes
   wavefun   :      10942. kBytes
 
  
  
 General timing and accounting informations for this job:
 ========================================================
  
                  Total CPU time used (sec):      820.361
                            User time (sec):      811.447
                          System time (sec):        8.914
                         Elapsed time (sec):      825.512
  
                   Maximum memory used (kb):      269144.
                   Average memory used (kb):           0.
  
                          Minor page faults:      2508640
                          Major page faults:        32647
                 Voluntary context switches:         4330
