unknown system                          
            1
    22.145462    0.000000    0.000000
     0.000000   21.969907    0.000000
     0.000000    0.000000   22.106779
   Au   Cu
     4     4
Direct configuration=     1
   0.59386226  0.46406271  0.57405186
   0.46110031  0.59345026  0.55595644
   0.41491294  0.42441109  0.53427026
   0.53587987  0.49752322  0.41272903
   0.48581487  0.49018451  0.58943563
   0.55190229  0.54554648  0.51138779
   0.52084614  0.42831890  0.49854201
   0.44615666  0.51516394  0.47767468
Direct configuration=     2
   0.59575592  0.46333228  0.57553502
   0.46036890  0.59572806  0.55662429
   0.41319158  0.42270973  0.53455128
   0.53637371  0.49763806  0.41029107
   0.48613199  0.49001777  0.58964037
   0.55181976  0.54598880  0.51149401
   0.52060225  0.42803819  0.49856875
   0.44623122  0.51520822  0.47734289
Direct configuration=     3
   0.59745227  0.46267796  0.57686364
   0.45971371  0.59776853  0.55722256
   0.41164958  0.42118564  0.53480301
   0.53681608  0.49774093  0.40810713
   0.48641607  0.48986841  0.58982378
   0.55174582  0.54638502  0.51158917
   0.52038378  0.42778673  0.49859271
   0.44629801  0.51524789  0.47704568
Direct configuration=     4
   0.59779574  0.46249642  0.57729772
   0.45961074  0.59834106  0.55732294
   0.41132168  0.42071103  0.53485711
   0.53680705  0.49781128  0.40753524
   0.48660659  0.49001797  0.58872018
   0.55105169  0.54554963  0.51170612
   0.52017668  0.42883209  0.49885553
   0.44710516  0.51490163  0.47775284
Direct configuration=     5
   0.59835494  0.46220085  0.57800445
   0.45944310  0.59927320  0.55748637
   0.41078783  0.41993833  0.53494520
   0.53679235  0.49792581  0.40660415
   0.48691677  0.49026146  0.58692342
   0.54992159  0.54418953  0.51189653
   0.51983949  0.43053403  0.49928341
   0.44841926  0.51433789  0.47890416
Direct configuration=     6
   0.59825221  0.46225515  0.57787461
   0.45947390  0.59910196  0.55745635
   0.41088590  0.42008028  0.53492902
   0.53679505  0.49790477  0.40677520
   0.48685979  0.49021673  0.58725350
   0.55012920  0.54443940  0.51186155
   0.51990143  0.43022137  0.49920480
   0.44817785  0.51444146  0.47869265
Direct configuration=     7
   0.59792635  0.46232124  0.57777638
   0.45964586  0.59883312  0.55727515
   0.41121829  0.42022584  0.53486725
   0.53659121  0.49793687  0.40708259
   0.48645227  0.49041660  0.58709426
   0.55038109  0.54404205  0.51176605
   0.52020783  0.43051424  0.49910233
   0.44805243  0.51437115  0.47908368
Direct configuration=     8
   0.59760194  0.46238703  0.57767858
   0.45981706  0.59856547  0.55709477
   0.41154920  0.42037075  0.53480575
   0.53638828  0.49796883  0.40738860
   0.48604656  0.49061558  0.58693573
   0.55063186  0.54364648  0.51167097
   0.52051287  0.43080581  0.49900032
   0.44792757  0.51430116  0.47947296
Direct configuration=     9
   0.59743297  0.46232695  0.57798052
   0.46005647  0.59876598  0.55691033
   0.41170029  0.42007697  0.53473566
   0.53609100  0.49813003  0.40721657
   0.48571236  0.49076329  0.58701863
   0.55096274  0.54342242  0.51157526
   0.52086370  0.43082888  0.49888721
   0.44765579  0.51434659  0.47972351
Direct configuration=    10
   0.59712278  0.46221663  0.57853480
   0.46049598  0.59913407  0.55657174
   0.41197766  0.41953767  0.53460699
   0.53554526  0.49842597  0.40690075
   0.48509884  0.49103446  0.58717081
   0.55157017  0.54301109  0.51139956
   0.52150776  0.43087122  0.49867957
   0.44715687  0.51442999  0.48018347
Direct configuration=    11
   0.59695643  0.46214552  0.57895441
   0.46081254  0.59939978  0.55640490
   0.41219892  0.41921682  0.53452036
   0.53517475  0.49860085  0.40674211
   0.48505674  0.49105967  0.58713588
   0.55156606  0.54290024  0.51135705
   0.52158048  0.43093339  0.49865306
   0.44712942  0.51440483  0.48027991
Direct configuration=    12
   0.59655591  0.46197430  0.57996470
   0.46157471  0.60003953  0.55600321
   0.41273165  0.41844431  0.53431179
   0.53428265  0.49902193  0.40636016
   0.48495537  0.49112038  0.58705178
   0.55155616  0.54263334  0.51125469
   0.52175557  0.43108308  0.49858924
   0.44706331  0.51434424  0.48051211
Direct configuration=    13
   0.59575487  0.46163187  0.58198529
   0.46309905  0.60131904  0.55519982
   0.41379711  0.41689927  0.53389464
   0.53249846  0.49986408  0.40559625
   0.48475262  0.49124178  0.58688359
   0.55153637  0.54209954  0.51104997
   0.52210575  0.43138245  0.49846161
   0.44693110  0.51422307  0.48097652
Direct configuration=    14
   0.59503365  0.46166070  0.58260413
   0.46394247  0.60146856  0.55482632
   0.41444902  0.41634152  0.53371677
   0.53162341  0.50014007  0.40546647
   0.48446066  0.49157311  0.58661370
   0.55173625  0.54159053  0.51105192
   0.52260614  0.43171788  0.49835201
   0.44662373  0.51416874  0.48141636
Direct configuration=    15
   0.59411014  0.46169762  0.58339656
   0.46502246  0.60166000  0.55434806
   0.41528377  0.41562733  0.53348900
   0.53050292  0.50049348  0.40530029
   0.48408682  0.49199736  0.58626811
   0.55199221  0.54093875  0.51105442
   0.52324687  0.43214738  0.49821166
   0.44623014  0.51409917  0.48197958
Direct configuration=    16
   0.59458580  0.46167861  0.58298842
   0.46446621  0.60156140  0.55459439
   0.41485383  0.41599518  0.53360631
   0.53108003  0.50031146  0.40538588
   0.48427937  0.49177885  0.58644611
   0.55186038  0.54127445  0.51105313
   0.52291686  0.43192616  0.49828395
   0.44643286  0.51413501  0.48168949
Direct configuration=    17
   0.59484018  0.46168581  0.58301722
   0.46438757  0.60158351  0.55476147
   0.41488400  0.41606914  0.53370425
   0.53112828  0.50022905  0.40551601
   0.48384106  0.49177340  0.58667665
   0.55229279  0.54149721  0.51082675
   0.52300630  0.43168624  0.49804878
   0.44609515  0.51413675  0.48149656
Direct configuration=    18
   0.59477068  0.46168384  0.58300935
   0.46440905  0.60157747  0.55471582
   0.41487576  0.41604893  0.53367749
   0.53111510  0.50025156  0.40548046
   0.48396080  0.49177489  0.58661367
   0.55217466  0.54143635  0.51088859
   0.52298186  0.43175178  0.49811302
   0.44618741  0.51413627  0.48154927
