  16  16   0   0
  0.8914435E+03  0.2347298E-08  0.2425032E-08  0.2505695E-08  0.5000000E-15
   1.0000000000000000E-004
  CAR 
 unknown system                          
      2.40958912    -11.16607934  301     -4.31991016      1.00000000
    -11.166  0.0000E+00  0.0000E+00  0.0000E+00  0.0000E+00
    -11.121  0.0000E+00  0.0000E+00  0.0000E+00  0.0000E+00
    -11.076  0.0000E+00  0.0000E+00  0.0000E+00  0.0000E+00
    -11.030  0.0000E+00  0.0000E+00  0.0000E+00  0.0000E+00
    -10.985  0.0000E+00  0.0000E+00  0.0000E+00  0.0000E+00
    -10.940  0.0000E+00  0.0000E+00  0.0000E+00  0.0000E+00
    -10.895  0.0000E+00  0.0000E+00  0.0000E+00  0.0000E+00
    -10.849  0.0000E+00  0.0000E+00  0.0000E+00  0.0000E+00
    -10.804 -0.3783E-30  0.0000E+00 -0.1712E-31  0.0000E+00
    -10.759 -0.1385E-28  0.0000E+00 -0.6437E-30  0.0000E+00
    -10.714 -0.4681E-27 -0.6530E-29 -0.2183E-28 -0.2955E-30
    -10.668 -0.1427E-25 -0.2199E-27 -0.6676E-27 -0.1025E-28
    -10.623 -0.3921E-24 -0.6857E-26 -0.1841E-25 -0.3205E-27
    -10.578 -0.9714E-23 -0.1927E-24 -0.4580E-24 -0.9041E-26
    -10.533 -0.2169E-21 -0.4883E-23 -0.1027E-22 -0.2300E-24
    -10.487 -0.4364E-20 -0.1115E-21 -0.2078E-21 -0.5276E-23
    -10.442 -0.7913E-19 -0.2295E-20 -0.3789E-20 -0.1091E-21
    -10.397 -0.1293E-17 -0.4256E-19 -0.6229E-19 -0.2035E-20
    -10.352 -0.1902E-16 -0.7113E-18 -0.9231E-18 -0.3422E-19
    -10.306 -0.2435E-15 -0.1071E-16 -0.1194E-16 -0.5187E-18
    -10.261 -0.2909E-14 -0.1402E-15 -0.1436E-15 -0.6865E-17
    -10.216 -0.3115E-13 -0.1714E-14 -0.1553E-14 -0.8444E-16
    -10.171 -0.3000E-12 -0.1878E-13 -0.1513E-13 -0.9345E-15
    -10.125 -0.2598E-11 -0.1852E-12 -0.1327E-12 -0.9313E-14
    -10.080 -0.2022E-10 -0.1641E-11 -0.1048E-11 -0.8358E-13
    -10.035 -0.1414E-09 -0.1307E-10 -0.7445E-11 -0.6752E-12
     -9.990 -0.8869E-09 -0.9355E-10 -0.4758E-10 -0.4909E-11
     -9.944 -0.4989E-08 -0.6009E-09 -0.2733E-09 -0.3210E-10
     -9.899 -0.2514E-07 -0.3461E-08 -0.1411E-08 -0.1887E-09
     -9.854 -0.1133E-06 -0.1786E-07 -0.6536E-08 -0.9970E-09
     -9.809 -0.4556E-06 -0.8248E-07 -0.2716E-07 -0.4729E-08
     -9.763 -0.1633E-05 -0.3401E-06 -0.1010E-06 -0.2012E-07
     -9.718 -0.5192E-05 -0.1250E-05 -0.3360E-06 -0.7668E-07
     -9.673 -0.1459E-04 -0.4081E-05 -0.9962E-06 -0.2614E-06
     -9.628 -0.3597E-04 -0.1179E-04 -0.2624E-05 -0.7947E-06
     -9.582 -0.7689E-04 -0.2991E-04 -0.6103E-05 -0.2148E-05
     -9.537 -0.1397E-03 -0.6605E-04 -0.1242E-04 -0.5137E-05
     -9.492 -0.2064E-03 -0.1246E-03 -0.2176E-04 -0.1078E-04
     -9.446 -0.2196E-03 -0.1937E-03 -0.3170E-04 -0.1954E-04
     -9.401 -0.7447E-04 -0.2259E-03 -0.3507E-04 -0.2976E-04
     -9.356  0.3533E-03 -0.1259E-03 -0.1908E-04 -0.3546E-04
     -9.311  0.1133E-02  0.2314E-03  0.3221E-04 -0.2499E-04
     -9.265  0.2191E-02  0.9357E-03  0.1314E-03  0.1735E-04
     -9.220  0.3269E-02  0.1950E-02  0.2793E-03  0.1056E-03
     -9.175  0.4006E-02  0.3058E-02  0.4606E-03  0.2440E-03
     -9.130  0.4104E-02  0.3913E-02  0.6463E-03  0.4211E-03
     -9.084  0.3494E-02  0.4194E-02  0.8044E-03  0.6109E-03
     -9.039  0.2375E-02  0.3786E-02  0.9119E-03  0.7822E-03
     -8.994  0.1122E-02  0.2839E-02  0.9627E-03  0.9106E-03
     -8.949  0.1332E-03  0.1677E-02  0.9687E-03  0.9865E-03
     -8.903 -0.2735E-03  0.6231E-03  0.9563E-03  0.1015E-02
     -8.858  0.1072E-03 -0.1312E-03  0.9612E-03  0.1009E-02
     -8.813  0.1341E-02 -0.5309E-03  0.1022E-02  0.9848E-03
     -8.768  0.3308E-02 -0.5656E-03  0.1172E-02  0.9592E-03
     -8.722  0.5671E-02 -0.1822E-03  0.1428E-02  0.9509E-03
     -8.677  0.7969E-02  0.7100E-03  0.1789E-02  0.9830E-03
     -8.632  0.9795E-02  0.2134E-02  0.2232E-02  0.1080E-02
     -8.587  0.1097E-01  0.3919E-02  0.2729E-02  0.1257E-02
     -8.541  0.1155E-01  0.5685E-02  0.3251E-02  0.1514E-02
     -8.496  0.1167E-01  0.7002E-02  0.3779E-02  0.1831E-02
     -8.451  0.1136E-01  0.7653E-02  0.4293E-02  0.2177E-02
     -8.406  0.1052E-01  0.7807E-02  0.4770E-02  0.2531E-02
     -8.360  0.9092E-02  0.7927E-02  0.5181E-02  0.2889E-02
     -8.315  0.7217E-02  0.8431E-02  0.5508E-02  0.3271E-02
     -8.270  0.5344E-02  0.9352E-02  0.5749E-02  0.3694E-02
     -8.225  0.4073E-02  0.1026E-01  0.5934E-02  0.4158E-02
     -8.179  0.3880E-02  0.1056E-01  0.6109E-02  0.4636E-02
     -8.134  0.4853E-02  0.9908E-02  0.6329E-02  0.5085E-02
     -8.089  0.6637E-02  0.8521E-02  0.6629E-02  0.5470E-02
     -8.044  0.8640E-02  0.7064E-02  0.7020E-02  0.5790E-02
     -7.998  0.1036E-01  0.6259E-02  0.7489E-02  0.6073E-02
     -7.953  0.1163E-01  0.6453E-02  0.8016E-02  0.6365E-02
     -7.908  0.1262E-01  0.7423E-02  0.8587E-02  0.6701E-02
     -7.863  0.1361E-01  0.8553E-02  0.9203E-02  0.7088E-02
     -7.817  0.1480E-01  0.9249E-02  0.9872E-02  0.7507E-02
     -7.772  0.1617E-01  0.9320E-02  0.1060E-01  0.7928E-02
     -7.727  0.1761E-01  0.9083E-02  0.1140E-01  0.8339E-02
     -7.682  0.1900E-01  0.9145E-02  0.1226E-01  0.8753E-02
     -7.636  0.2021E-01  0.1001E-01  0.1318E-01  0.9206E-02
     -7.591  0.2113E-01  0.1179E-01  0.1413E-01  0.9740E-02
     -7.546  0.2165E-01  0.1411E-01  0.1511E-01  0.1038E-01
     -7.501  0.2182E-01  0.1644E-01  0.1610E-01  0.1112E-01
     -7.455  0.2189E-01  0.1833E-01  0.1709E-01  0.1195E-01
     -7.410  0.2214E-01  0.1965E-01  0.1809E-01  0.1284E-01
     -7.365  0.2268E-01  0.2051E-01  0.1912E-01  0.1377E-01
     -7.320  0.2326E-01  0.2112E-01  0.2017E-01  0.1473E-01
     -7.274  0.2336E-01  0.2162E-01  0.2123E-01  0.1570E-01
     -7.229  0.2251E-01  0.2208E-01  0.2225E-01  0.1670E-01
     -7.184  0.2062E-01  0.2249E-01  0.2318E-01  0.1772E-01
     -7.139  0.1806E-01  0.2277E-01  0.2400E-01  0.1875E-01
     -7.093  0.1552E-01  0.2275E-01  0.2470E-01  0.1978E-01
     -7.048  0.1362E-01  0.2225E-01  0.2531E-01  0.2079E-01
     -7.003  0.1271E-01  0.2115E-01  0.2589E-01  0.2174E-01
     -6.958  0.1276E-01  0.1953E-01  0.2647E-01  0.2263E-01
     -6.912  0.1353E-01  0.1762E-01  0.2708E-01  0.2342E-01
     -6.867  0.1474E-01  0.1581E-01  0.2775E-01  0.2414E-01
     -6.822  0.1617E-01  0.1448E-01  0.2848E-01  0.2479E-01
     -6.777  0.1765E-01  0.1389E-01  0.2928E-01  0.2542E-01
     -6.731  0.1898E-01  0.1409E-01  0.3014E-01  0.2606E-01
     -6.686  0.1994E-01  0.1488E-01  0.3104E-01  0.2673E-01
     -6.641  0.2029E-01  0.1591E-01  0.3196E-01  0.2745E-01
     -6.596  0.1985E-01  0.1686E-01  0.3285E-01  0.2822E-01
     -6.550  0.1857E-01  0.1752E-01  0.3370E-01  0.2901E-01
     -6.505  0.1660E-01  0.1790E-01  0.3445E-01  0.2982E-01
     -6.460  0.1430E-01  0.1814E-01  0.3509E-01  0.3064E-01
     -6.415  0.1209E-01  0.1834E-01  0.3564E-01  0.3147E-01
     -6.369  0.1035E-01  0.1843E-01  0.3611E-01  0.3231E-01
     -6.324  0.9253E-02  0.1816E-01  0.3653E-01  0.3313E-01
     -6.279  0.8849E-02  0.1725E-01  0.3693E-01  0.3391E-01
     -6.234  0.9145E-02  0.1565E-01  0.3734E-01  0.3462E-01
     -6.188  0.1018E-01  0.1361E-01  0.3780E-01  0.3523E-01
     -6.143  0.1195E-01  0.1153E-01  0.3834E-01  0.3575E-01
     -6.098  0.1426E-01  0.9840E-02  0.3899E-01  0.3620E-01
     -6.053  0.1662E-01  0.8864E-02  0.3974E-01  0.3660E-01
     -6.007  0.1834E-01  0.8822E-02  0.4057E-01  0.3700E-01
     -5.962  0.1885E-01  0.9838E-02  0.4142E-01  0.3744E-01
     -5.917  0.1799E-01  0.1185E-01  0.4224E-01  0.3798E-01
     -5.872  0.1626E-01  0.1449E-01  0.4297E-01  0.3864E-01
     -5.826  0.1456E-01  0.1706E-01  0.4363E-01  0.3941E-01
     -5.781  0.1383E-01  0.1880E-01  0.4426E-01  0.4026E-01
     -5.736  0.1457E-01  0.1917E-01  0.4492E-01  0.4113E-01
     -5.691  0.1669E-01  0.1817E-01  0.4567E-01  0.4195E-01
     -5.645  0.1962E-01  0.1640E-01  0.4656E-01  0.4269E-01
     -5.600  0.2264E-01  0.1473E-01  0.4758E-01  0.4336E-01
     -5.555  0.2519E-01  0.1393E-01  0.4872E-01  0.4399E-01
     -5.510  0.2695E-01  0.1434E-01  0.4994E-01  0.4464E-01
     -5.464  0.2780E-01  0.1584E-01  0.5120E-01  0.4535E-01
     -5.419  0.2782E-01  0.1800E-01  0.5246E-01  0.4617E-01
     -5.374  0.2724E-01  0.2037E-01  0.5369E-01  0.4709E-01
     -5.329  0.2650E-01  0.2266E-01  0.5489E-01  0.4812E-01
     -5.283  0.2609E-01  0.2467E-01  0.5607E-01  0.4923E-01
     -5.238  0.2642E-01  0.2626E-01  0.5727E-01  0.5042E-01
     -5.193  0.2756E-01  0.2720E-01  0.5852E-01  0.5165E-01
     -5.148  0.2923E-01  0.2737E-01  0.5984E-01  0.5289E-01
     -5.102  0.3091E-01  0.2688E-01  0.6124E-01  0.5411E-01
     -5.057  0.3203E-01  0.2617E-01  0.6269E-01  0.5529E-01
     -5.012  0.3230E-01  0.2587E-01  0.6415E-01  0.5646E-01
     -4.967  0.3186E-01  0.2644E-01  0.6559E-01  0.5766E-01
     -4.921  0.3126E-01  0.2793E-01  0.6700E-01  0.5892E-01
     -4.876  0.3114E-01  0.2991E-01  0.6841E-01  0.6028E-01
     -4.831  0.3193E-01  0.3172E-01  0.6986E-01  0.6171E-01
     -4.786  0.3353E-01  0.3276E-01  0.7138E-01  0.6319E-01
     -4.740  0.3534E-01  0.3273E-01  0.7298E-01  0.6467E-01
     -4.695  0.3652E-01  0.3176E-01  0.7463E-01  0.6611E-01
     -4.650  0.3633E-01  0.3034E-01  0.7627E-01  0.6748E-01
     -4.605  0.3447E-01  0.2905E-01  0.7783E-01  0.6880E-01
     -4.559  0.3106E-01  0.2834E-01  0.7924E-01  0.7008E-01
     -4.514  0.2660E-01  0.2824E-01  0.8044E-01  0.7136E-01
     -4.469  0.2175E-01  0.2840E-01  0.8143E-01  0.7264E-01
     -4.423  0.1712E-01  0.2827E-01  0.8220E-01  0.7392E-01
     -4.378  0.1309E-01  0.2745E-01  0.8279E-01  0.7517E-01
     -4.333  0.9808E-02  0.2589E-01  0.8324E-01  0.7634E-01
     -4.288  0.7196E-02  0.2390E-01  0.8356E-01  0.7742E-01
     -4.242  0.5077E-02  0.2196E-01  0.8379E-01  0.7841E-01
     -4.197  0.3306E-02  0.2045E-01  0.8394E-01  0.7934E-01
     -4.152  0.1846E-02  0.1943E-01  0.8402E-01  0.8022E-01
     -4.107  0.7328E-03  0.1862E-01  0.8406E-01  0.8106E-01
     -4.061 -0.4915E-05  0.1750E-01  0.8406E-01  0.8185E-01
     -4.016 -0.4071E-03  0.1566E-01  0.8404E-01  0.8256E-01
     -3.971 -0.5771E-03  0.1297E-01  0.8401E-01  0.8315E-01
     -3.926 -0.6159E-03  0.9690E-02  0.8398E-01  0.8359E-01
     -3.880 -0.5479E-03  0.6304E-02  0.8396E-01  0.8387E-01
     -3.835 -0.2854E-03  0.3324E-02  0.8395E-01  0.8402E-01
     -3.790  0.3366E-03  0.1087E-02  0.8396E-01  0.8407E-01
     -3.745  0.1456E-02 -0.2956E-03  0.8403E-01  0.8406E-01
     -3.699  0.3053E-02 -0.8723E-03  0.8417E-01  0.8402E-01
     -3.654  0.4862E-02 -0.7196E-03  0.8439E-01  0.8399E-01
     -3.609  0.6428E-02  0.1276E-03  0.8468E-01  0.8399E-01
     -3.564  0.7296E-02  0.1628E-02  0.8501E-01  0.8406E-01
     -3.518  0.7252E-02  0.3601E-02  0.8534E-01  0.8423E-01
     -3.473  0.6460E-02  0.5635E-02  0.8563E-01  0.8448E-01
     -3.428  0.5381E-02  0.7165E-02  0.8587E-01  0.8481E-01
     -3.383  0.4523E-02  0.7732E-02  0.8608E-01  0.8516E-01
     -3.337  0.4188E-02  0.7249E-02  0.8627E-01  0.8548E-01
     -3.292  0.4380E-02  0.6084E-02  0.8646E-01  0.8576E-01
     -3.247  0.4917E-02  0.4865E-02  0.8669E-01  0.8598E-01
     -3.202  0.5598E-02  0.4135E-02  0.8694E-01  0.8617E-01
     -3.156  0.6295E-02  0.4107E-02  0.8722E-01  0.8635E-01
     -3.111  0.6898E-02  0.4659E-02  0.8754E-01  0.8656E-01
     -3.066  0.7248E-02  0.5512E-02  0.8786E-01  0.8681E-01
     -3.021  0.7138E-02  0.6412E-02  0.8819E-01  0.8710E-01
     -2.975  0.6418E-02  0.7173E-02  0.8848E-01  0.8743E-01
     -2.930  0.5129E-02  0.7622E-02  0.8871E-01  0.8777E-01
     -2.885  0.3541E-02  0.7572E-02  0.8887E-01  0.8812E-01
     -2.840  0.2083E-02  0.6881E-02  0.8896E-01  0.8843E-01
     -2.794  0.1178E-02  0.5575E-02  0.8902E-01  0.8868E-01
     -2.749  0.1064E-02  0.3900E-02  0.8907E-01  0.8886E-01
     -2.704  0.1687E-02  0.2274E-02  0.8914E-01  0.8896E-01
     -2.659  0.2708E-02  0.1133E-02  0.8926E-01  0.8901E-01
     -2.613  0.3634E-02  0.7656E-03  0.8943E-01  0.8904E-01
     -2.568  0.4035E-02  0.1201E-02  0.8961E-01  0.8910E-01
     -2.523  0.3735E-02  0.2184E-02  0.8978E-01  0.8920E-01
     -2.478  0.2871E-02  0.3261E-02  0.8991E-01  0.8935E-01
     -2.432  0.1781E-02  0.3958E-02  0.8999E-01  0.8952E-01
     -2.387  0.8108E-03  0.3981E-02  0.9003E-01  0.8970E-01
     -2.342  0.1603E-03  0.3338E-02  0.9004E-01  0.8986E-01
     -2.297 -0.1529E-03  0.2299E-02  0.9003E-01  0.8996E-01
     -2.251 -0.2274E-03  0.1234E-02  0.9002E-01  0.9002E-01
     -2.206 -0.1868E-03  0.4198E-03  0.9001E-01  0.9003E-01
     -2.161 -0.1218E-03 -0.4410E-04  0.9000E-01  0.9003E-01
     -2.116 -0.7795E-04 -0.2147E-03  0.9000E-01  0.9002E-01
     -2.070 -0.7159E-04 -0.2153E-03  0.9000E-01  0.9001E-01
     -2.025 -0.1077E-03 -0.1574E-03  0.8999E-01  0.9001E-01
     -1.980 -0.1854E-03 -0.1095E-03  0.8998E-01  0.9000E-01
     -1.935 -0.2860E-03 -0.1022E-03  0.8997E-01  0.9000E-01
     -1.889 -0.3519E-03 -0.1453E-03  0.8996E-01  0.8999E-01
     -1.844 -0.2710E-03 -0.2333E-03  0.8994E-01  0.8998E-01
     -1.799  0.1077E-03 -0.3334E-03  0.8995E-01  0.8996E-01
     -1.754  0.9142E-03 -0.3651E-03  0.8999E-01  0.8995E-01
     -1.708  0.2178E-02 -0.1926E-03  0.9009E-01  0.8994E-01
     -1.663  0.3784E-02  0.3432E-03  0.9026E-01  0.8995E-01
     -1.618  0.5517E-02  0.1353E-02  0.9051E-01  0.9002E-01
     -1.573  0.7179E-02  0.2823E-02  0.9083E-01  0.9014E-01
     -1.527  0.8688E-02  0.4599E-02  0.9123E-01  0.9035E-01
     -1.482  0.1006E-01  0.6460E-02  0.9168E-01  0.9064E-01
     -1.437  0.1126E-01  0.8234E-02  0.9219E-01  0.9102E-01
     -1.392  0.1211E-01  0.9850E-02  0.9274E-01  0.9146E-01
     -1.346  0.1227E-01  0.1126E-01  0.9329E-01  0.9197E-01
     -1.301  0.1150E-01  0.1231E-01  0.9381E-01  0.9253E-01
     -1.256  0.9910E-02  0.1269E-01  0.9426E-01  0.9310E-01
     -1.211  0.8071E-02  0.1210E-01  0.9463E-01  0.9365E-01
     -1.165  0.6773E-02  0.1056E-01  0.9493E-01  0.9413E-01
     -1.120  0.6628E-02  0.8576E-02  0.9523E-01  0.9452E-01
     -1.075  0.7701E-02  0.6997E-02  0.9558E-01  0.9483E-01
     -1.030  0.9442E-02  0.6608E-02  0.9601E-01  0.9513E-01
     -0.984  0.1098E-01  0.7642E-02  0.9651E-01  0.9548E-01
     -0.939  0.1160E-01  0.9586E-02  0.9703E-01  0.9591E-01
     -0.894  0.1108E-01  0.1144E-01  0.9753E-01  0.9643E-01
     -0.849  0.9768E-02  0.1230E-01  0.9798E-01  0.9699E-01
     -0.803  0.8233E-02  0.1177E-01  0.9835E-01  0.9752E-01
     -0.758  0.6973E-02  0.1016E-01  0.9866E-01  0.9798E-01
     -0.713  0.6175E-02  0.8142E-02  0.9894E-01  0.9835E-01
     -0.668  0.5719E-02  0.6345E-02  0.9920E-01  0.9863E-01
     -0.622  0.5316E-02  0.5138E-02  0.9944E-01  0.9887E-01
     -0.577  0.4701E-02  0.4564E-02  0.9966E-01  0.9907E-01
     -0.532  0.3766E-02  0.4423E-02  0.9983E-01  0.9927E-01
     -0.487  0.2603E-02  0.4386E-02  0.9994E-01  0.9947E-01
     -0.441  0.1430E-02  0.4133E-02  0.1000E+00  0.9966E-01
     -0.396  0.4639E-03  0.3491E-02  0.1000E+00  0.9982E-01
     -0.351 -0.1748E-03  0.2505E-02  0.1000E+00  0.9993E-01
     -0.306 -0.4700E-03  0.1397E-02  0.1000E+00  0.9999E-01
     -0.260 -0.4444E-03  0.4292E-03  0.9998E-01  0.1000E+00
     -0.215 -0.1014E-03 -0.2125E-03  0.9998E-01  0.1000E+00
     -0.170  0.5671E-03 -0.4399E-03  0.1000E+00  0.9998E-01
     -0.125  0.1512E-02 -0.2230E-03  0.1001E+00  0.9997E-01
     -0.079  0.2578E-02  0.4430E-03  0.1002E+00  0.9999E-01
     -0.034  0.3547E-02  0.1515E-02  0.1003E+00  0.1001E+00
      0.011  0.4273E-02  0.2858E-02  0.1005E+00  0.1002E+00
      0.056  0.4804E-02  0.4249E-02  0.1008E+00  0.1004E+00
      0.102  0.5379E-02  0.5461E-02  0.1010E+00  0.1006E+00
      0.147  0.6258E-02  0.6387E-02  0.1013E+00  0.1009E+00
      0.192  0.7501E-02  0.7096E-02  0.1016E+00  0.1012E+00
      0.237  0.8865E-02  0.7767E-02  0.1020E+00  0.1016E+00
      0.283  0.9873E-02  0.8510E-02  0.1025E+00  0.1020E+00
      0.328  0.1004E-01  0.9211E-02  0.1029E+00  0.1024E+00
      0.373  0.9140E-02  0.9529E-02  0.1033E+00  0.1028E+00
      0.418  0.7302E-02  0.9080E-02  0.1037E+00  0.1032E+00
      0.464  0.4988E-02  0.7711E-02  0.1039E+00  0.1036E+00
      0.509  0.2763E-02  0.5648E-02  0.1040E+00  0.1038E+00
      0.554  0.1060E-02  0.3404E-02  0.1041E+00  0.1040E+00
      0.599  0.3858E-04  0.1506E-02  0.1041E+00  0.1041E+00
      0.645 -0.3918E-03  0.2572E-03  0.1041E+00  0.1041E+00
      0.690 -0.4468E-03 -0.3382E-03  0.1040E+00  0.1041E+00
      0.735 -0.3386E-03 -0.4735E-03  0.1040E+00  0.1040E+00
      0.781 -0.2051E-03 -0.3842E-03  0.1040E+00  0.1040E+00
      0.826 -0.1050E-03 -0.2413E-03  0.1040E+00  0.1040E+00
      0.871 -0.4658E-04 -0.1264E-03  0.1040E+00  0.1040E+00
      0.916 -0.1813E-04 -0.5686E-04  0.1040E+00  0.1040E+00
      0.962 -0.6241E-05 -0.2233E-04  0.1040E+00  0.1040E+00
      1.007 -0.1909E-05 -0.7725E-05  0.1040E+00  0.1040E+00
      1.052 -0.5205E-06 -0.2368E-05  0.1040E+00  0.1040E+00
      1.097 -0.1269E-06 -0.6460E-06  0.1040E+00  0.1040E+00
      1.143 -0.2769E-07 -0.1572E-06  0.1040E+00  0.1040E+00
      1.188 -0.5417E-08 -0.3421E-07  0.1040E+00  0.1040E+00
      1.233 -0.9512E-09 -0.6666E-08  0.1040E+00  0.1040E+00
      1.278 -0.1500E-09 -0.1165E-08  0.1040E+00  0.1040E+00
      1.324 -0.2126E-10 -0.1827E-09  0.1040E+00  0.1040E+00
      1.369 -0.2709E-11 -0.2574E-10  0.1040E+00  0.1040E+00
      1.414 -0.3106E-12 -0.3261E-11  0.1040E+00  0.1040E+00
      1.459 -0.3205E-13 -0.3715E-12  0.1040E+00  0.1040E+00
      1.505 -0.2974E-14 -0.3807E-13  0.1040E+00  0.1040E+00
      1.550 -0.2502E-15 -0.3513E-14  0.1040E+00  0.1040E+00
      1.595 -0.1963E-16 -0.2944E-15  0.1040E+00  0.1040E+00
      1.640  0.0000E+00 -0.2453E-16  0.1040E+00  0.1040E+00
      1.686  0.0000E+00  0.0000E+00  0.1040E+00  0.1040E+00
      1.731  0.0000E+00  0.0000E+00  0.1040E+00  0.1040E+00
      1.776  0.0000E+00  0.0000E+00  0.1040E+00  0.1040E+00
      1.821  0.0000E+00  0.0000E+00  0.1040E+00  0.1040E+00
      1.867  0.0000E+00  0.0000E+00  0.1040E+00  0.1040E+00
      1.912  0.0000E+00  0.0000E+00  0.1040E+00  0.1040E+00
      1.957  0.0000E+00  0.0000E+00  0.1040E+00  0.1040E+00
      2.002  0.0000E+00  0.0000E+00  0.1040E+00  0.1040E+00
      2.048  0.0000E+00  0.0000E+00  0.1040E+00  0.1040E+00
      2.093  0.0000E+00  0.0000E+00  0.1040E+00  0.1040E+00
      2.138  0.0000E+00  0.0000E+00  0.1040E+00  0.1040E+00
      2.183  0.0000E+00  0.0000E+00  0.1040E+00  0.1040E+00
      2.229  0.0000E+00  0.0000E+00  0.1040E+00  0.1040E+00
      2.274  0.0000E+00  0.0000E+00  0.1040E+00  0.1040E+00
      2.319  0.0000E+00  0.0000E+00  0.1040E+00  0.1040E+00
      2.364  0.0000E+00  0.0000E+00  0.1040E+00  0.1040E+00
      2.410  0.0000E+00  0.0000E+00  0.1040E+00  0.1040E+00
