   16   16 1000    2
  0.8914435E+03  0.2347297E-08  0.2425032E-08  0.2505694E-08  0.5000000E-15
   1.0000000000000000E-004
  CAR 
 unknown system                          
    160      1    104
 
  0.1262379E-14  0.1262379E-14  0.1262379E-14  0.1000000E+01
    1       -9.166079     -9.111005   1.000000   1.000000
    2       -8.680323     -8.524921   1.000000   1.000000
    3       -8.636587     -8.444252   1.000000   1.000000
    4       -8.506026     -8.241207   1.000000   1.000000
    5       -8.435022     -8.213182   1.000000   1.000000
    6       -8.340675     -8.116931   1.000000   1.000000
    7       -8.072523     -7.890500   1.000000   1.000000
    8       -8.018488     -7.845414   1.000000   1.000000
    9       -7.921147     -7.729051   1.000000   1.000000
   10       -7.827967     -7.580472   1.000000   1.000000
   11       -7.778971     -7.525723   1.000000   1.000000
   12       -7.718930     -7.478095   1.000000   1.000000
   13       -7.685847     -7.461693   1.000000   1.000000
   14       -7.587213     -7.346744   1.000000   1.000000
   15       -7.578491     -7.331320   1.000000   1.000000
   16       -7.534603     -7.296551   1.000000   1.000000
   17       -7.510086     -7.253423   1.000000   1.000000
   18       -7.434441     -7.171663   1.000000   1.000000
   19       -7.365781     -7.142934   1.000000   1.000000
   20       -7.353714     -7.110010   1.000000   1.000000
   21       -7.278108     -7.073159   1.000000   1.000000
   22       -7.273255     -7.002401   1.000000   1.000000
   23       -7.227851     -6.974468   1.000000   1.000000
   24       -7.194994     -6.925855   1.000000   1.000000
   25       -7.112683     -6.841983   1.000000   1.000000
   26       -7.030598     -6.768587   1.000000   1.000000
   27       -6.925813     -6.683341   1.000000   1.000000
   28       -6.909641     -6.642642   1.000000   1.000000
   29       -6.797741     -6.573689   1.000000   1.000000
   30       -6.760287     -6.523672   1.000000   1.000000
   31       -6.718058     -6.483749   1.000000   1.000000
   32       -6.666353     -6.400623   1.000000   1.000000
   33       -6.597634     -6.332048   1.000000   1.000000
   34       -6.558902     -6.306338   1.000000   1.000000
   35       -6.538462     -6.280206   1.000000   1.000000
   36       -6.426957     -6.162396   1.000000   1.000000
   37       -6.325141     -6.074198   1.000000   1.000000
   38       -6.221393     -5.949473   1.000000   1.000000
   39       -6.116587     -5.850043   1.000000   1.000000
   40       -6.043501     -5.803210   1.000000   1.000000
   41       -5.994528     -5.774664   1.000000   1.000000
   42       -5.979712     -5.741868   1.000000   1.000000
   43       -5.924976     -5.678505   1.000000   1.000000
   44       -5.864434     -5.599941   1.000000   1.000000
   45       -5.744339     -5.494924   1.000000   1.000000
   46       -5.677782     -5.449115   1.000000   1.000000
   47       -5.641365     -5.403280   1.000000   1.000000
   48       -5.605275     -5.358572   1.000000   1.000000
   49       -5.575431     -5.309495   1.000000   1.000000
   50       -5.514993     -5.260618   1.000000   1.000000
   51       -5.481726     -5.243562   1.000000   1.000000
   52       -5.453525     -5.176237   1.000000   1.000000
   53       -5.421511     -5.163061   1.000000   1.000000
   54       -5.405742     -5.148540   1.000000   1.000000
   55       -5.341245     -5.101416   1.000000   1.000000
   56       -5.319159     -5.059703   1.000000   1.000001
   57       -5.255452     -5.012175   1.000000   1.000006
   58       -5.226446     -4.963531   1.000000   1.000026
   59       -5.192487     -4.904710   1.000000   1.000142
   60       -5.149201     -4.898291   1.000000   1.000169
   61       -5.119104     -4.869028   1.000000   1.000361
   62       -5.087085     -4.841067   1.000000   1.000713
   63       -5.065523     -4.821577   1.000001   1.001116
   64       -5.020150     -4.746657   1.000004   1.005069
   65       -5.006813     -4.741645   1.000007   1.005540
   66       -5.001909     -4.722451   1.000008   1.007671
   67       -4.944537     -4.717854   1.000046   1.008263
   68       -4.898349     -4.646733   1.000168   1.021496
   69       -4.881835     -4.630432   1.000260   1.025258
   70       -4.831710     -4.567193   1.000886   1.035437
   71       -4.797839     -4.536932   1.001869   1.031854
   72       -4.765140     -4.488556   1.003602   1.000295
   73       -4.743719     -4.477705   1.005341   0.987173
   74       -4.718167     -4.429679   1.008222   0.895736
   75       -4.710328     -4.415314   1.009304   0.857216
   76       -4.664586     -4.377988   1.017540   0.734635
   77       -4.648803     -4.314348   1.021024   0.476476
   78       -4.614018     -4.297884   1.028943   0.407421
   79       -4.597078     -4.254604   1.032277   0.239322
   80       -4.547882     -4.164874   1.034215   0.016578
   81       -4.536186     -4.129669   1.031642  -0.019294
   82       -4.463909     -4.071817   0.966660  -0.035421
   83       -4.410786     -4.036675   0.844022  -0.031166
   84       -4.279976     -3.951318   0.334703  -0.012835
   85       -3.617034     -3.441339  -0.000004  -0.000000
   86       -3.521129     -3.373014  -0.000000  -0.000000
   87       -3.280385     -3.118045  -0.000000  -0.000000
   88       -3.104203     -2.953350  -0.000000  -0.000000
   89       -2.980805     -2.838864  -0.000000  -0.000000
   90       -2.593162     -2.436316  -0.000000  -0.000000
   91       -1.616294     -1.497973  -0.000000  -0.000000
   92       -1.506465     -1.394991  -0.000000  -0.000000
   93       -1.373334     -1.260827  -0.000000  -0.000000
   94       -1.353525     -1.252490  -0.000000  -0.000000
   95       -1.261123     -1.160083  -0.000000  -0.000000
   96       -1.043586     -0.918926  -0.000000  -0.000000
   97       -0.965367     -0.880631  -0.000000  -0.000000
   98       -0.943948     -0.858142  -0.000000  -0.000000
   99       -0.775030     -0.684688  -0.000000  -0.000000
  100       -0.602465     -0.468164  -0.000000  -0.000000
  101       -0.012192      0.076344  -0.000000  -0.000000
  102        0.192922      0.220818  -0.000000  -0.000000
  103        0.302486      0.380674  -0.000000  -0.000000
  104        0.364154      0.409589  -0.000000  -0.000000
