       N       E                     dE             d eps       ncg     rms          rms(c)
DAV:   1     0.141307319909E+04    0.14131E+04   -0.27102E+04   416   0.734E+02
DAV:   2     0.738452010903E+03   -0.67462E+03   -0.60324E+03   800   0.871E+01
DAV:   3     0.142717746860E+03   -0.59573E+03   -0.54959E+03   672   0.820E+01
DAV:   4    -0.395869101428E+02   -0.18230E+03   -0.16821E+03   560   0.500E+01
DAV:   5    -0.648572930245E+02   -0.25270E+02   -0.19943E+02   560   0.179E+01    0.235E+01
DAV:   6    -0.573736665425E+02    0.74836E+01   -0.39137E+01   416   0.154E+01    0.151E+01
DAV:   7    -0.569434862152E+02    0.43018E+00   -0.24603E+01   464   0.336E+01    0.218E+01
DAV:   8    -0.500472924069E+02    0.68962E+01   -0.13042E+01   456   0.245E+01    0.154E+01
DAV:   9    -0.480039142426E+02    0.20434E+01   -0.70907E+00   456   0.161E+01    0.817E+00
DAV:  10    -0.485684119001E+02   -0.56450E+00   -0.33769E+00   448   0.104E+01    0.711E+00
DAV:  11    -0.494207776523E+02   -0.85237E+00   -0.15249E+00   464   0.732E+00    0.499E+00
DAV:  12    -0.504563233809E+02   -0.10355E+01   -0.72631E-01   432   0.498E+00    0.327E+00
DAV:  13    -0.524239841059E+02   -0.19677E+01   -0.66953E-01   440   0.376E+00    0.354E+00
DAV:  14    -0.539469333018E+02   -0.15229E+01   -0.63400E-01   440   0.364E+00    0.245E+00
DAV:  15    -0.551334438138E+02   -0.11865E+01   -0.30450E-01   440   0.260E+00    0.145E+00
DAV:  16    -0.566396748966E+02   -0.15062E+01   -0.27138E-01   416   0.184E+00    0.115E+00
DAV:  17    -0.578368962162E+02   -0.11972E+01   -0.22989E-01   448   0.148E+00    0.111E+00
DAV:  18    -0.585460186743E+02   -0.70912E+00   -0.10974E-01   432   0.120E+00    0.792E-01
DAV:  19    -0.595814540486E+02   -0.10354E+01   -0.19398E-01   432   0.114E+00    0.825E-01
DAV:  20    -0.602350208307E+02   -0.65357E+00   -0.91628E-02   464   0.973E-01    0.632E-01
DAV:  21    -0.608487395846E+02   -0.61372E+00   -0.78022E-02   432   0.823E-01    0.496E-01
DAV:  22    -0.611975982386E+02   -0.34886E+00   -0.32110E-02   480   0.603E-01    0.378E-01
DAV:  23    -0.616273818020E+02   -0.42978E+00   -0.26988E-02   432   0.507E-01    0.308E-01
DAV:  24    -0.619427054136E+02   -0.31532E+00   -0.10755E-02   472   0.363E-01    0.220E-01
DAV:  25    -0.622660181081E+02   -0.32331E+00   -0.98603E-03   424   0.295E-01    0.167E-01
DAV:  26    -0.624833041490E+02   -0.21729E+00   -0.67370E-03   480   0.251E-01    0.164E-01
DAV:  27    -0.625981205496E+02   -0.11482E+00   -0.29519E-03   480   0.188E-01    0.906E-02
DAV:  28    -0.626890162715E+02   -0.90896E-01   -0.21564E-03   440   0.120E-01    0.694E-02
DAV:  29    -0.627274655382E+02   -0.38449E-01   -0.55818E-04   384   0.102E-01    0.574E-02
DAV:  30    -0.627602394374E+02   -0.32774E-01   -0.49610E-04   368   0.685E-02    0.327E-02
DAV:  31    -0.627774393559E+02   -0.17200E-01   -0.18337E-04   304   0.423E-02    0.252E-02
DAV:  32    -0.627854125387E+02   -0.79732E-02   -0.96468E-05   296   0.382E-02    0.212E-02
DAV:  33    -0.627906715008E+02   -0.52590E-02   -0.93903E-05   312   0.255E-02    0.150E-02
DAV:  34    -0.627931691811E+02   -0.24977E-02   -0.33864E-05   288   0.193E-02    0.120E-02
DAV:  35    -0.627950139173E+02   -0.18447E-02   -0.32453E-05   304   0.175E-02    0.101E-02
DAV:  36    -0.627965354460E+02   -0.15215E-02   -0.31618E-05   288   0.122E-02    0.572E-03
DAV:  37    -0.627975176635E+02   -0.98222E-03   -0.20015E-05   304   0.742E-03    0.392E-03
DAV:  38    -0.627984297058E+02   -0.91204E-03   -0.13586E-05   288   0.661E-03    0.291E-03
DAV:  39    -0.627991765117E+02   -0.74681E-03   -0.11443E-05   272   0.578E-03    0.227E-03
DAV:  40    -0.627995298901E+02   -0.35338E-03   -0.56722E-06   280   0.476E-03    0.183E-03
DAV:  41    -0.627998073060E+02   -0.27742E-03   -0.36496E-06   256   0.349E-03    0.103E-03
DAV:  42    -0.627999174572E+02   -0.11015E-03   -0.17705E-06   272   0.222E-03    0.691E-04
DAV:  43    -0.627999872301E+02   -0.69773E-04   -0.86676E-07   256   0.156E-03
   1 F= -.62799987E+02 E0= -.62809502E+02  d E =-.628000E+02  mag=     6.7034
       N       E                     dE             d eps       ncg     rms          rms(c)
DAV:   1    -0.628003614631E+02   -0.44401E-03   -0.19283E-01   416   0.115E+00    0.710E-02
DAV:   2    -0.628006650435E+02   -0.30358E-03   -0.31111E-03   448   0.206E-01    0.111E-01
DAV:   3    -0.628006674564E+02   -0.24129E-05   -0.56169E-04   320   0.143E-01
   2 F= -.62800667E+02 E0= -.62810144E+02  d E =-.680226E-03  mag=     6.7015
       N       E                     dE             d eps       ncg     rms          rms(c)
DAV:   1    -0.628007995049E+02   -0.13446E-03   -0.91660E-02   432   0.796E-01    0.739E-02
DAV:   2    -0.628010102296E+02   -0.21072E-03   -0.20203E-03   448   0.219E-01    0.169E-01
DAV:   3    -0.628008159428E+02    0.19429E-03   -0.92157E-04   368   0.176E-01    0.839E-02
DAV:   4    -0.628007922751E+02    0.23668E-04   -0.18250E-04   280   0.769E-02
   3 F= -.62800792E+02 E0= -.62810235E+02  d E =-.805045E-03  mag=     6.6976
