 vasp.6.1.2 22Jul20 (build Aug  2 2021 21:04:21) gamma-only                      
 executed on             LinuxPGI date 2021.12.23  09:40:17
 running on   16 total cores
 distrk:  each k-point on   16 cores,    1 groups
 distr:  one band on NCORE=  16 cores,    1 groups


--------------------------------------------------------------------------------------------------------


 INCAR:
 POTCAR:    PAW_PBE Pd 04Jan2005                  
 -----------------------------------------------------------------------------
|                                                                             |
|           W    W    AA    RRRRR   N    N  II  N    N   GGGG   !!!           |
|           W    W   A  A   R    R  NN   N  II  NN   N  G    G  !!!           |
|           W    W  A    A  R    R  N N  N  II  N N  N  G       !!!           |
|           W WW W  AAAAAA  RRRRR   N  N N  II  N  N N  G  GGG   !            |
|           WW  WW  A    A  R   R   N   NN  II  N   NN  G    G                |
|           W    W  A    A  R    R  N    N  II  N    N   GGGG   !!!           |
|                                                                             |
|     You use a magnetic or noncollinear calculation, but did not specify     |
|     the initial magnetic moment with the MAGMOM tag. Note that a            |
|     default of 1 will be used for all atoms. This ferromagnetic setup       |
|     may break the symmetry of the crystal, in particular it may rule        |
|     out finding an antiferromagnetic solution. Thence, we recommend         |
|     setting the initial magnetic moment manually or verifying carefully     |
|     that this magnetic setup is desired.                                    |
|                                                                             |
 -----------------------------------------------------------------------------

 -----------------------------------------------------------------------------
|                                                                             |
|           W    W    AA    RRRRR   N    N  II  N    N   GGGG   !!!           |
|           W    W   A  A   R    R  NN   N  II  NN   N  G    G  !!!           |
|           W    W  A    A  R    R  N N  N  II  N N  N  G       !!!           |
|           W WW W  AAAAAA  RRRRR   N  N N  II  N  N N  G  GGG   !            |
|           WW  WW  A    A  R   R   N   NN  II  N   NN  G    G                |
|           W    W  A    A  R    R  N    N  II  N    N   GGGG   !!!           |
|                                                                             |
|     For optimal performance we recommend to set                             |
|       NCORE = 4 - approx SQRT(number of cores).                             |
|     NCORE specifies how many cores store one orbital (NPAR=cpu/NCORE).      |
|     This setting can greatly improve the performance of VASP for DFT.       |
|     The default, NCORE=1 might be grossly inefficient on modern             |
|     multi-core architectures or massively parallel machines. Do your        |
|     own testing!!!!                                                         |
|     Unfortunately you need to use the default for GW and RPA                |
|     calculations (for HF NCORE is supported but not extensively tested      |
|     yet).                                                                   |
|                                                                             |
 -----------------------------------------------------------------------------

 POTCAR:    PAW_PBE Pd 04Jan2005                  
   SHA256 =  dd6f6f02930356371984e2b707ff5e456046761dc76b07c1eba30abd15eb3c39 Pd/POTCAR             
   COPYR  = (c) Copyright 04Jan2005 Georg Kresse                                                    
   COPYR  = This file is part of the software VASP. Any use, copying, and all other rights are regul
   COPYR  = If you do not have a valid VASP license, you may not use, copy or distribute this file. 
   VRHFIN =Pd : s1 d9                                                                               
   LEXCH  = PE                                                                                      
   EATOM  =   809.7530 eV,   59.5152 Ry                                                             
                                                                                                    
   TITEL  = PAW_PBE Pd 04Jan2005                                                                    
   LULTRA =        F    use ultrasoft PP ?                                                          
   IUNSCR =        1    unscreen: 0-lin 1-nonlin 2-no                                               
   RPACOR =    2.000    partial core radius                                                         
   POMASS =  106.420; ZVAL   =   10.000    mass and valenz                                          
   RCORE  =    2.600    outmost cutoff radius                                                       
   RWIGS  =    2.710; RWIGS  =    1.434    wigner-seitz radius (au A)                               
   ENMAX  =  250.925; ENMIN  =  188.194 eV                                                          
   ICORE  =        3    local potential                                                             
   LCOR   =        T    correct aug charges                                                         
   LPAW   =        T    paw PP                                                                      
   EAUG   =  416.230                                                                                
   DEXC   =    0.000                                                                                
   RMAX   =    2.653    core radius for proj-oper                                                   
   RAUG   =    1.300    factor for augmentation sphere                                              
   RDEP   =    2.734    radius for radial grids                                                     
   RDEPT  =    2.103    core radius for aug-charge                                                  
                                                                                                    
   Atomic configuration                                                                             
   12 entries                                                                                       
     n  l   j            E        occ.                                                              
     1  0  0.50    -24164.6631   2.0000                                                             
     2  0  0.50     -3530.9218   2.0000                                                             
     2  1  1.50     -3165.6822   6.0000                                                             
     3  0  0.50      -639.4577   2.0000                                                             
     3  1  1.50      -519.4532   6.0000                                                             
     3  2  2.50      -328.9757  10.0000                                                             
     4  0  0.50       -88.7014   2.0000                                                             
     4  1  1.50       -54.4540   6.0000                                                             
     4  2  2.50        -6.6878   9.0000                                                             
     5  0  0.50        -4.3543   1.0000                                                             
     5  1  0.50        -1.3606   0.0000                                                             
     4  3  2.50        -1.3606   0.0000                                                             
   Description                                                                                      
     l       E           TYP  RCUT    TYP  RCUT                                                     
     2     -6.6878251     23  2.400                                                                 
     2     -8.0484077     23  2.400                                                                 
     0     -4.3542939     23  2.400                                                                 
     0      4.3406793     23  2.400                                                                 
     1     -4.0817478     23  2.600                                                                 
     1     15.8380318     23  2.600                                                                 
     3     -4.0817478     23  2.400                                                                 
  local pseudopotential read in
  partial core-charges read in
  partial kinetic energy density read in
  atomic valenz-charges read in
  non local Contribution for L=            2  read in
    real space projection operators read in
  non local Contribution for L=            2  read in
    real space projection operators read in
  non local Contribution for L=            0  read in
    real space projection operators read in
  non local Contribution for L=            0  read in
    real space projection operators read in
  non local Contribution for L=            1  read in
    real space projection operators read in
  non local Contribution for L=            1  read in
    real space projection operators read in
    PAW grid and wavefunctions read in
 
   number of l-projection  operators is LMAX  =            6
   number of lm-projection operators is LMMAX =           18
 
  PAW_PBE Pd 04Jan2005                  :
 energy of atom  1       EATOM= -809.7530
 kinetic energy error for atom=    0.0091 (will be added to EATOM!!)
 
 
 POSCAR: Pd
  positions in cartesian coordinates
  No initial velocities read in
 exchange correlation table for  LEXCH =        8
   RHO(1)=    0.500       N(1)  =     2000
   RHO(2)=  100.500       N(2)  =     4000
 


--------------------------------------------------------------------------------------------------------


 ion  position               nearest neighbor table
   1  0.393  0.459  0.408-   5 2.62   4 2.64   2 2.65   6 2.66
   2  0.452  0.399  0.476-   3 2.63   1 2.65   4 2.67   7 2.68   6 2.69  12 3.25
   3  0.552  0.431  0.513-   9 2.62   2 2.63  12 2.63  11 2.66   7 2.67  14 2.80   4 2.90
   4  0.505  0.472  0.413-  11 2.60  12 2.62   1 2.64   2 2.67   5 2.72   3 2.90
   5  0.432  0.559  0.426-  12 2.60   1 2.62   8 2.67  13 2.69   4 2.72   6 2.91
   6  0.392  0.486  0.510-  12 2.55   1 2.66   2 2.69  10 2.72  13 2.74   7 2.78   5 2.91
   7  0.463  0.428  0.579-  10 2.65   3 2.67   2 2.68  14 2.73   6 2.78  12 3.05
   8  0.498  0.634  0.473-  15 2.67   5 2.67  13 2.68  16 2.69  12 2.80
   9  0.640  0.488  0.546-   3 2.62  15 2.64  14 2.64  11 2.66
  10  0.431  0.529  0.604-   7 2.65  13 2.69  16 2.70  14 2.70   6 2.72  12 2.89
  11  0.608  0.495  0.444-   4 2.60  15 2.64   3 2.66   9 2.66  12 3.15
  12  0.493  0.523  0.505-  15 2.54   6 2.55  14 2.59   5 2.60   4 2.62   3 2.63  13 2.79   8 2.80
                            16 2.81  10 2.89   7 3.05  11 3.15   2 3.25
  13  0.405  0.598  0.523-   8 2.68   5 2.69  10 2.69  16 2.70   6 2.74  12 2.79
  14  0.543  0.507  0.596-  12 2.59   9 2.64  10 2.70  16 2.72   7 2.73   3 2.80  15 2.91
  15  0.586  0.577  0.511-  12 2.54   9 2.64  11 2.64   8 2.67  16 2.70  14 2.91
  16  0.503  0.611  0.578-   8 2.69  10 2.70  13 2.70  15 2.70  14 2.72  12 2.81
 

IMPORTANT INFORMATION: All symmetrisations will be switched off!
NOSYMM: (Re-)initialisation of all symmetry stuff for point group C_1.


----------------------------------------------------------------------------------------

                                     Primitive cell                                     

  volume of cell :   14263.0957

  direct lattice vectors                    reciprocal lattice vectors
    23.472974826  0.000000000  0.000000000     0.042602184  0.000000000  0.000000000
     0.000000000 24.250324000  0.000000000     0.000000000  0.041236562  0.000000000
     0.000000000  0.000000000 25.056944917     0.000000000  0.000000000  0.039909095

  length of vectors
    23.472974826 24.250324000 25.056944917     0.042602184  0.041236562  0.039909095

  position of ions in fractional coordinates (direct lattice)
     0.393111007  0.459284043  0.407613529
     0.452421568  0.398873810  0.476116048
     0.552058052  0.431163011  0.512732421
     0.504592038  0.472321421  0.413435899
     0.432138791  0.558882665  0.426008498
     0.391916665  0.486345254  0.510427546
     0.462961943  0.427749732  0.578742189
     0.498419287  0.634038014  0.473012889
     0.640027635  0.488411227  0.546071465
     0.430610544  0.529053910  0.604248085
     0.607506468  0.495449234  0.444399996
     0.493475738  0.523446835  0.505163104
     0.404937581  0.597767466  0.523273295
     0.543060142  0.507202006  0.596302426
     0.586491001  0.576936283  0.511230293
     0.503069249  0.610972550  0.578004766

  ion indices of the primitive-cell ions
   primitive index   ion index
                 1           1
                 2           2
                 3           3
                 4           4
                 5           5
                 6           6
                 7           7
                 8           8
                 9           9
                10          10
                11          11
                12          12
                13          13
                14          14
                15          15
                16          16

----------------------------------------------------------------------------------------

 
 
 KPOINTS: KPOINTS created by Atomic Simulation Env

Automatic generation of k-mesh.
Space group operators:
 irot       det(A)        alpha          n_x          n_y          n_z        tau_x        tau_y        tau_z
    1     1.000000     0.000000     1.000000     0.000000     0.000000     0.000000     0.000000     0.000000
 
 Subroutine IBZKPT returns following result:
 ===========================================
 
 Found      1 irreducible k-points:
 
 Following reciprocal coordinates:
            Coordinates               Weight
  0.000000  0.000000  0.000000      1.000000
 
 Following cartesian coordinates:
            Coordinates               Weight
  0.000000  0.000000  0.000000      1.000000
 


--------------------------------------------------------------------------------------------------------




 Dimension of arrays:
   k-points           NKPTS =      1   k-points in BZ     NKDIM =      1   number of bands    NBANDS=    104
   number of dos      NEDOS =    301   number of ions     NIONS =     16
   non local maximal  LDIM  =      6   non local SUM 2l+1 LMDIM =     18
   total plane-waves  NPLWV = ******
   max r-space proj   IRMAX =      1   max aug-charges    IRDMAX=   6370
   dimension x,y,z NGX =   120 NGY =  120 NGZ =  126
   dimension x,y,z NGXF=   240 NGYF=  240 NGZF=  252
   support grid    NGXF=   240 NGYF=  240 NGZF=  252
   ions per type =              16
   NGX,Y,Z   is equivalent  to a cutoff of   8.50,  8.23,  8.36 a.u.
   NGXF,Y,Z  is equivalent  to a cutoff of  17.00, 16.45, 16.72 a.u.

 SYSTEM =  unknown system                          
 POSCAR =  Pd                                      

 Startparameter for this run:
   NWRITE =      2    write-flag & timer
   PREC   = normal    normal or accurate (medium, high low for compatibility)
   ISTART =      0    job   : 0-new  1-cont  2-samecut
   ICHARG =      2    charge: 1-file 2-atom 10-const
   ISPIN  =      2    spin polarized calculation?
   LNONCOLLINEAR =      F non collinear calculations
   LSORBIT =      F    spin-orbit coupling
   INIWAV =      1    electr: 0-lowe 1-rand  2-diag
   LASPH  =      F    aspherical Exc in radial PAW
   METAGGA=      F    non-selfconsistent MetaGGA calc.

 Electronic Relaxation 1
   ENCUT  =  400.0 eV  29.40 Ry    5.42 a.u.  38.28 39.55 40.86*2*pi/ulx,y,z
   ENINI  =  400.0     initial cutoff
   ENAUG  =  416.2 eV  augmentation charge cutoff
   NELM   =     60;   NELMIN=  2; NELMDL=  0     # of ELM steps 
   EDIFF  = 0.1E-03   stopping-criterion for ELM
   LREAL  =      F    real-space projection
   NLSPLINE    = F    spline interpolate recip. space projectors
   LCOMPAT=      F    compatible to vasp.4.4
   GGA_COMPAT  = T    GGA compatible to vasp.4.4-vasp.4.6
   LMAXPAW     = -100 max onsite density
   LMAXMIX     =    2 max onsite mixed and CHGCAR
   VOSKOWN=      0    Vosko Wilk Nusair interpolation
   ROPT   =    0.00000
 Ionic relaxation
   EDIFFG = 0.1E-02   stopping-criterion for IOM
   NSW    =   1000    number of steps for IOM
   NBLOCK =      1;   KBLOCK =   1000    inner block; outer block 
   IBRION =      2    ionic relax: 0-MD 1-quasi-New 2-CG
   NFREE  =      1    steps in history (QN), initial steepest desc. (CG)
   ISIF   =      0    stress and relaxation
   IWAVPR =     11    prediction:  0-non 1-charg 2-wave 3-comb
   ISYM   =      0    0-nonsym 1-usesym 2-fastsym
   LCORR  =      T    Harris-Foulkes like correction to forces

   POTIM  = 0.5000    time-step for ionic-motion
   TEIN   =    0.0    initial temperature
   TEBEG  =    0.0;   TEEND  =   0.0 temperature during run
   SMASS  =  -3.00    Nose mass-parameter (am)
   estimated Nose-frequenzy (Omega)   =  0.10E-29 period in steps = 0.13E+47 mass=  -0.126E-25a.u.
   SCALEE = 1.0000    scale energy and forces
   NPACO  =    256;   APACO  = 16.0  distance and # of slots for P.C.
   PSTRESS=    0.0 pullay stress

  Mass of Ions in am
   POMASS = 106.42
  Ionic Valenz
   ZVAL   =  10.00
  Atomic Wigner-Seitz radii
   RWIGS  =  -1.00
  virtual crystal weights 
   VCA    =   1.00
   NELECT =     160.0000    total number of electrons
   NUPDOWN=      -1.0000    fix difference up-down

 DOS related values:
   EMIN   =  10.00;   EMAX   =-10.00  energy-range for DOS
   EFERMI =   0.00
   ISMEAR =     1;   SIGMA  =   0.20  broadening in eV -4-tet -1-fermi 0-gaus

 Electronic relaxation 2 (details)
   IALGO  =     38    algorithm
   LDIAG  =      T    sub-space diagonalisation (order eigenvalues)
   LSUBROT=      F    optimize rotation matrix (better conditioning)
   TURBO    =      0    0=normal 1=particle mesh
   IRESTART =      0    0=no restart 2=restart with 2 vectors
   NREBOOT  =      0    no. of reboots
   NMIN     =      0    reboot dimension
   EREF     =   0.00    reference energy to select bands
   IMIX   =      4    mixing-type and parameters
     AMIX     =   0.40;   BMIX     =  1.00
     AMIX_MAG =   1.60;   BMIX_MAG =  1.00
     AMIN     =   0.10
     WC   =   100.;   INIMIX=   1;  MIXPRE=   1;  MAXMIX= -45

 Intra band minimization:
   WEIMIN = 0.0010     energy-eigenvalue tresh-hold
   EBREAK =  0.24E-06  absolut break condition
   DEPER  =   0.30     relativ break condition  

   TIME   =   0.40     timestep for ELM

  volume/ion in A,a.u.               =     891.44      6015.76
  Fermi-wavevector in a.u.,A,eV,Ry     =   0.366474  0.692536  1.827309  0.134303
  Thomas-Fermi vector in A             =   1.290850
 
 Write flags
   LWAVE        =      F    write WAVECAR
   LDOWNSAMPLE  =      F    k-point downsampling of WAVECAR
   LCHARG       =      F    write CHGCAR
   LVTOT        =      F    write LOCPOT, total local potential
   LVHAR        =      F    write LOCPOT, Hartree potential only
   LELF         =      F    write electronic localiz. function (ELF)
   LORBIT       =      0    0 simple, 1 ext, 2 COOP (PROOUT), +10 PAW based schemes


 Dipole corrections
   LMONO  =      F    monopole corrections only (constant potential shift)
   LDIPOL =      F    correct potential (dipole corrections)
   IDIPOL =      0    1-x, 2-y, 3-z, 4-all directions 
   EPSILON=  1.0000000 bulk dielectric constant

 Exchange correlation treatment:
   GGA     =    PE    GGA type
   LEXCH   =     8    internal setting for exchange type
   VOSKOWN=      0    Vosko Wilk Nusair interpolation
   LHFCALC =     F    Hartree Fock is set to
   LHFONE  =     F    Hartree Fock one center treatment
   AEXX    =    0.0000 exact exchange contribution

 Linear response parameters
   LEPSILON=     F    determine dielectric tensor
   LRPA    =     F    only Hartree local field effects (RPA)
   LNABLA  =     F    use nabla operator in PAW spheres
   LVEL    =     F    velocity operator in full k-point grid
   LINTERFAST=   F  fast interpolation
   KINTER  =     0    interpolate to denser k-point grid
   CSHIFT  =0.1000    complex shift for real part using Kramers Kronig
   OMEGAMAX=  -1.0    maximum frequency
   DEG_THRESHOLD= 0.2000000E-02 threshold for treating states as degnerate
   RTIME   =   -0.100 relaxation time in fs
  (WPLASMAI=    0.000 imaginary part of plasma frequency in eV, 0.658/RTIME)
   DFIELD  = 0.0000000 0.0000000 0.0000000 field for delta impulse in time
 
 Orbital magnetization related:
   ORBITALMAG=     F  switch on orbital magnetization
   LCHIMAG   =     F  perturbation theory with respect to B field
   DQ        =  0.001000  dq finite difference perturbation B field
   LLRAUG    =     F  two centre corrections for induced B field



--------------------------------------------------------------------------------------------------------


 conjugate gradient relaxation of ions
 charge density and potential will be updated during run
 spin polarized calculation
 Variant of blocked Davidson
 Davidson routine will perform the subspace rotation
 perform sub-space diagonalisation
    after iterative eigenvector-optimisation
 modified Broyden-mixing scheme, WC =      100.0
 initial mixing is a Kerker type mixing with AMIX =  0.4000 and BMIX =      1.0000
 Hartree-type preconditioning will be used
 using additional bands            24
 reciprocal scheme for non local part
 use partial core corrections
 calculate Harris-corrections to forces 
   (improved forces if not selfconsistent)
 use gradient corrections 
 use of overlap-Matrix (Vanderbilt PP)
 Methfessel and Paxton  Order N= 1 SIGMA  =   0.20


--------------------------------------------------------------------------------------------------------


  energy-cutoff  :      400.00
  volume of cell :    14263.10
      direct lattice vectors                 reciprocal lattice vectors
    23.472974826  0.000000000  0.000000000     0.042602184  0.000000000  0.000000000
     0.000000000 24.250324000  0.000000000     0.000000000  0.041236562  0.000000000
     0.000000000  0.000000000 25.056944917     0.000000000  0.000000000  0.039909095

  length of vectors
    23.472974826 24.250324000 25.056944917     0.042602184  0.041236562  0.039909095


 
 k-points in units of 2pi/SCALE and weight: KPOINTS created by Atomic Simulation Env
   0.00000000  0.00000000  0.00000000       1.000
 
 k-points in reciprocal lattice and weights: KPOINTS created by Atomic Simulation Env
   0.00000000  0.00000000  0.00000000       1.000
 
 position of ions in fractional coordinates (direct lattice) 
   0.39311101  0.45928404  0.40761353
   0.45242157  0.39887381  0.47611605
   0.55205805  0.43116301  0.51273242
   0.50459204  0.47232142  0.41343590
   0.43213879  0.55888267  0.42600850
   0.39191666  0.48634525  0.51042755
   0.46296194  0.42774973  0.57874219
   0.49841929  0.63403801  0.47301289
   0.64002764  0.48841123  0.54607146
   0.43061054  0.52905391  0.60424808
   0.60750647  0.49544923  0.44440000
   0.49347574  0.52344683  0.50516310
   0.40493758  0.59776747  0.52327329
   0.54306014  0.50720201  0.59630243
   0.58649100  0.57693628  0.51123029
   0.50306925  0.61097255  0.57800477
 
 position of ions in cartesian coordinates  (Angst):
   9.22748476 11.13778684 10.21354973
  10.61968008  9.67281914 11.93001360
  12.95844476 10.45584270 12.84750804
  11.84427620 11.45394749 10.35944055
  10.14358295 13.55308571 10.67447148
   9.19945000 11.79402997 12.78975491
  10.86709404 10.37306960 14.50151116
  11.69938337 15.37562728 11.85225790
  15.02335257 11.84413049 13.68288261
  10.10771046 12.82972874 15.14061097
  14.25998402 12.01480444 11.13530623
  11.58334358 12.69375534 12.65784407
   9.50508964 14.49605472 13.11163012
  12.74723705 12.29981297 14.94151705
  13.76668849 13.99089180 12.80986928
  11.80853183 14.81628228 14.48303358
 


--------------------------------------------------------------------------------------------------------


 use parallel FFT for orbitals z direction half grid
 k-point   1 :   0.0000 0.0000 0.0000  plane waves:  129504

 maximum and minimum number of plane-waves per node :      8104     8087

 maximum number of plane-waves:    129504
 maximum index in each direction: 
   IXMAX=   38   IYMAX=   39   IZMAX=   40
   IXMIN=  -38   IYMIN=  -39   IZMIN=    0


 parallel 3D FFT for wavefunctions:
    minimum data exchange during FFTs selected (reduces bandwidth)
 parallel 3D FFT for charge:
    minimum data exchange during FFTs selected (reduces bandwidth)


 total amount of memory used by VASP MPI-rank0   168914. kBytes
=======================================================================

   base      :      30000. kBytes
   nonl-proj :       3237. kBytes
   fftplans  :      33270. kBytes
   grid      :      75429. kBytes
   one-center:         15. kBytes
   wavefun   :      26963. kBytes
 
     INWAV:  cpu time    0.0000: real time    0.0000
 Broyden mixing: mesh for mixing (old mesh)
   NGX = 77   NGY = 79   NGZ = 81
  (NGX  =240   NGY  =240   NGZ  =252)
  gives a total of 492723 points

 initial charge density was supplied:
 charge density of overlapping atoms calculated
 number of electron     160.0000000 magnetization      16.0000000
 keeping initial charge density in first step


--------------------------------------------------------------------------------------------------------


 Maximum index for augmentation-charges           402 (set IRDMAX)


--------------------------------------------------------------------------------------------------------


 First call to EWALD:  gamma=   0.073
 Maximum number of real-space cells 3x 3x 3
 Maximum number of reciprocal cells 3x 3x 3

    FEWALD:  cpu time    0.0014: real time    0.0014


--------------------------------------- Iteration      1(   1)  ---------------------------------------


    POTLOK:  cpu time    3.1077: real time    3.1233
    SETDIJ:  cpu time    0.0414: real time    0.0414
     EDDAV:  cpu time   15.0214: real time   15.0832
       DOS:  cpu time    0.0017: real time    0.0017
    --------------------------------------------
      LOOP:  cpu time   18.1722: real time   18.2497

 eigenvalue-minimisations  :   416
 total energy-change (2. order) : 0.1413073E+04  (-0.2710244E+04)
 number of electron     160.0000000 magnetization      16.0000000
 augmentation part      160.0000000 magnetization      16.0000000

 Free energy of the ion-electron system (eV)
  ---------------------------------------------------
  alpha Z        PSCENC =        11.69792164
  Ewald energy   TEWEN  =     26568.53623940
  -Hartree energ DENC   =    -38880.21968928
  -exchange      EXHF   =         0.00000000
  -V(xc)+E(xc)   XCENC  =      -480.55019610
  PAW double counting   =     12906.36685261   -11910.91650437
  entropy T*S    EENTRO =         0.02470000
  eigenvalues    EBANDS =       242.23159393
  atomic energy  EATOM  =     12955.90228127
  Solvation  Ediel_sol  =         0.00000000
  ---------------------------------------------------
  free energy    TOTEN  =      1413.07319909 eV

  energy without entropy =     1413.04849909  energy(sigma->0) =     1413.06496576


--------------------------------------------------------------------------------------------------------




--------------------------------------- Iteration      1(   2)  ---------------------------------------


     EDDAV:  cpu time   26.7118: real time   26.9140
       DOS:  cpu time    0.0025: real time    0.0025
    --------------------------------------------
      LOOP:  cpu time   26.7144: real time   26.9166

 eigenvalue-minimisations  :   800
 total energy-change (2. order) :-0.6746212E+03  (-0.6032391E+03)
 number of electron     160.0000000 magnetization      16.0000000
 augmentation part      160.0000000 magnetization      16.0000000

 Free energy of the ion-electron system (eV)
  ---------------------------------------------------
  alpha Z        PSCENC =        11.69792164
  Ewald energy   TEWEN  =     26568.53623940
  -Hartree energ DENC   =    -38880.21968928
  -exchange      EXHF   =         0.00000000
  -V(xc)+E(xc)   XCENC  =      -480.55019610
  PAW double counting   =     12906.36685261   -11910.91650437
  entropy T*S    EENTRO =        -0.04184611
  eigenvalues    EBANDS =      -432.32304816
  atomic energy  EATOM  =     12955.90228127
  Solvation  Ediel_sol  =         0.00000000
  ---------------------------------------------------
  free energy    TOTEN  =       738.45201090 eV

  energy without entropy =      738.49385701  energy(sigma->0) =      738.46595960


--------------------------------------------------------------------------------------------------------




--------------------------------------- Iteration      1(   3)  ---------------------------------------


     EDDAV:  cpu time   23.9509: real time   24.0804
       DOS:  cpu time    0.0015: real time    0.0015
    --------------------------------------------
      LOOP:  cpu time   23.9524: real time   24.0819

 eigenvalue-minimisations  :   672
 total energy-change (2. order) :-0.5957343E+03  (-0.5495871E+03)
 number of electron     160.0000000 magnetization      16.0000000
 augmentation part      160.0000000 magnetization      16.0000000

 Free energy of the ion-electron system (eV)
  ---------------------------------------------------
  alpha Z        PSCENC =        11.69792164
  Ewald energy   TEWEN  =     26568.53623940
  -Hartree energ DENC   =    -38880.21968928
  -exchange      EXHF   =         0.00000000
  -V(xc)+E(xc)   XCENC  =      -480.55019610
  PAW double counting   =     12906.36685261   -11910.91650437
  entropy T*S    EENTRO =         0.02675569
  eigenvalues    EBANDS =     -1028.12591400
  atomic energy  EATOM  =     12955.90228127
  Solvation  Ediel_sol  =         0.00000000
  ---------------------------------------------------
  free energy    TOTEN  =       142.71774686 eV

  energy without entropy =      142.69099117  energy(sigma->0) =      142.70882830


--------------------------------------------------------------------------------------------------------




--------------------------------------- Iteration      1(   4)  ---------------------------------------


     EDDAV:  cpu time   19.7461: real time   19.8370
       DOS:  cpu time    0.0017: real time    0.0017
    --------------------------------------------
      LOOP:  cpu time   19.7477: real time   19.8387

 eigenvalue-minimisations  :   560
 total energy-change (2. order) :-0.1823047E+03  (-0.1682073E+03)
 number of electron     160.0000000 magnetization      16.0000000
 augmentation part      160.0000000 magnetization      16.0000000

 Free energy of the ion-electron system (eV)
  ---------------------------------------------------
  alpha Z        PSCENC =        11.69792164
  Ewald energy   TEWEN  =     26568.53623940
  -Hartree energ DENC   =    -38880.21968928
  -exchange      EXHF   =         0.00000000
  -V(xc)+E(xc)   XCENC  =      -480.55019610
  PAW double counting   =     12906.36685261   -11910.91650437
  entropy T*S    EENTRO =        -0.04969209
  eigenvalues    EBANDS =     -1210.35412322
  atomic energy  EATOM  =     12955.90228127
  Solvation  Ediel_sol  =         0.00000000
  ---------------------------------------------------
  free energy    TOTEN  =       -39.58691014 eV

  energy without entropy =      -39.53721805  energy(sigma->0) =      -39.57034611


--------------------------------------------------------------------------------------------------------




--------------------------------------- Iteration      1(   5)  ---------------------------------------


     EDDAV:  cpu time   19.7562: real time   19.8666
       DOS:  cpu time    0.0014: real time    0.0014
    CHARGE:  cpu time    1.5015: real time    1.5045
    MIXING:  cpu time    0.0810: real time    0.0811
    --------------------------------------------
      LOOP:  cpu time   21.3401: real time   21.4537

 eigenvalue-minimisations  :   560
 total energy-change (2. order) :-0.2527038E+02  (-0.1994278E+02)
 number of electron     160.0000003 magnetization      15.1165620
 augmentation part       67.7469514 magnetization      12.1508671

 Broyden mixing:
  rms(total) = 0.23522E+01    rms(broyden)= 0.23520E+01
  rms(prec ) = 0.24056E+01
  weight for this iteration     100.00

 Free energy of the ion-electron system (eV)
  ---------------------------------------------------
  alpha Z        PSCENC =        11.69792164
  Ewald energy   TEWEN  =     26568.53623940
  -Hartree energ DENC   =    -38880.21968928
  -exchange      EXHF   =         0.00000000
  -V(xc)+E(xc)   XCENC  =      -480.55019610
  PAW double counting   =     12906.36685261   -11910.91650437
  entropy T*S    EENTRO =        -0.03873768
  eigenvalues    EBANDS =     -1235.63546051
  atomic energy  EATOM  =     12955.90228127
  Solvation  Ediel_sol  =         0.00000000
  ---------------------------------------------------
  free energy    TOTEN  =       -64.85729302 eV

  energy without entropy =      -64.81855535  energy(sigma->0) =      -64.84438047


--------------------------------------------------------------------------------------------------------




--------------------------------------- Iteration      1(   6)  ---------------------------------------


    POTLOK:  cpu time    3.4353: real time    3.4582
    SETDIJ:  cpu time    0.0265: real time    0.0265
     EDDAV:  cpu time   16.4342: real time   16.5073
       DOS:  cpu time    0.0016: real time    0.0016
    CHARGE:  cpu time    1.4557: real time    1.4606
    MIXING:  cpu time    0.0686: real time    0.0687
    --------------------------------------------
      LOOP:  cpu time   21.4218: real time   21.5229

 eigenvalue-minimisations  :   416
 total energy-change (2. order) : 0.7483626E+01  (-0.3913747E+01)
 number of electron     160.0000002 magnetization      14.5359417
 augmentation part       68.7386669 magnetization       9.8664847

 Broyden mixing:
  rms(total) = 0.15146E+01    rms(broyden)= 0.15145E+01
  rms(prec ) = 0.16123E+01
  weight for this iteration     100.00

 eigenvalues of (default mixing * dielectric matrix)
  average eigenvalue GAMMA=   0.7299
  0.7299

 Free energy of the ion-electron system (eV)
  ---------------------------------------------------
  alpha Z        PSCENC =        11.69792164
  Ewald energy   TEWEN  =     26568.53623940
  -Hartree energ DENC   =    -38941.77514612
  -exchange      EXHF   =         0.00000000
  -V(xc)+E(xc)   XCENC  =      -477.16783130
  PAW double counting   =     13725.01066121   -12738.90054410
  entropy T*S    EENTRO =         0.05762907
  eigenvalues    EBANDS =     -1160.73487761
  atomic energy  EATOM  =     12955.90228127
  Solvation  Ediel_sol  =         0.00000000
  ---------------------------------------------------
  free energy    TOTEN  =       -57.37366654 eV

  energy without entropy =      -57.43129561  energy(sigma->0) =      -57.39287623


--------------------------------------------------------------------------------------------------------




--------------------------------------- Iteration      1(   7)  ---------------------------------------


    POTLOK:  cpu time    3.0554: real time    3.0816
    SETDIJ:  cpu time    0.0314: real time    0.0316
     EDDAV:  cpu time   16.8070: real time   16.9045
       DOS:  cpu time    0.0016: real time    0.0016
    CHARGE:  cpu time    1.4939: real time    1.5055
    MIXING:  cpu time    0.0965: real time    0.0967
    --------------------------------------------
      LOOP:  cpu time   21.4859: real time   21.6215

 eigenvalue-minimisations  :   464
 total energy-change (2. order) : 0.4301803E+00  (-0.2460332E+01)
 number of electron     160.0000003 magnetization      13.8000341
 augmentation part       68.1110153 magnetization      10.7561469

 Broyden mixing:
  rms(total) = 0.21845E+01    rms(broyden)= 0.21842E+01
  rms(prec ) = 0.24398E+01
  weight for this iteration     100.00

 eigenvalues of (default mixing * dielectric matrix)
  average eigenvalue GAMMA=   0.7550
  1.1913  0.3186

 Free energy of the ion-electron system (eV)
  ---------------------------------------------------
  alpha Z        PSCENC =        11.69792164
  Ewald energy   TEWEN  =     26568.53623940
  -Hartree energ DENC   =    -39000.31887347
  -exchange      EXHF   =         0.00000000
  -V(xc)+E(xc)   XCENC  =      -472.23767789
  PAW double counting   =     14123.24567257   -13139.96406335
  entropy T*S    EENTRO =        -0.00580501
  eigenvalues    EBANDS =     -1103.79918137
  atomic energy  EATOM  =     12955.90228127
  Solvation  Ediel_sol  =         0.00000000
  ---------------------------------------------------
  free energy    TOTEN  =       -56.94348622 eV

  energy without entropy =      -56.93768121  energy(sigma->0) =      -56.94155121


--------------------------------------------------------------------------------------------------------




--------------------------------------- Iteration      1(   8)  ---------------------------------------


    POTLOK:  cpu time    3.6217: real time    3.6491
    SETDIJ:  cpu time    0.0282: real time    0.0283
     EDDAV:  cpu time   17.1916: real time   17.2934
       DOS:  cpu time    0.0055: real time    0.0055
    CHARGE:  cpu time    1.3684: real time    1.3712
    MIXING:  cpu time    0.0811: real time    0.0813
    --------------------------------------------
      LOOP:  cpu time   22.2965: real time   22.4288

 eigenvalue-minimisations  :   456
 total energy-change (2. order) : 0.6896194E+01  (-0.1304185E+01)
 number of electron     160.0000010 magnetization      13.4869327
 augmentation part       68.2618828 magnetization       9.3328780

 Broyden mixing:
  rms(total) = 0.15351E+01    rms(broyden)= 0.15349E+01
  rms(prec ) = 0.16800E+01
  weight for this iteration     100.00

 eigenvalues of (default mixing * dielectric matrix)
  average eigenvalue GAMMA=   0.6748
  1.3995  0.3604  0.2645

 Free energy of the ion-electron system (eV)
  ---------------------------------------------------
  alpha Z        PSCENC =        11.69792164
  Ewald energy   TEWEN  =     26568.53623940
  -Hartree energ DENC   =    -39044.66282164
  -exchange      EXHF   =         0.00000000
  -V(xc)+E(xc)   XCENC  =      -468.96254187
  PAW double counting   =     14465.33394384   -13485.25617000
  entropy T*S    EENTRO =         0.01972016
  eigenvalues    EBANDS =     -1052.65586520
  atomic energy  EATOM  =     12955.90228127
  Solvation  Ediel_sol  =         0.00000000
  ---------------------------------------------------
  free energy    TOTEN  =       -50.04729241 eV

  energy without entropy =      -50.06701256  energy(sigma->0) =      -50.05386579


--------------------------------------------------------------------------------------------------------




--------------------------------------- Iteration      1(   9)  ---------------------------------------


    POTLOK:  cpu time    3.1158: real time    3.1436
    SETDIJ:  cpu time    0.0356: real time    0.0356
     EDDAV:  cpu time   16.8030: real time   16.8877
       DOS:  cpu time    0.0019: real time    0.0019
    CHARGE:  cpu time    1.5481: real time    1.5527
    MIXING:  cpu time    0.1193: real time    0.1195
    --------------------------------------------
      LOOP:  cpu time   21.6236: real time   21.7411

 eigenvalue-minimisations  :   456
 total energy-change (2. order) : 0.2043378E+01  (-0.7090710E+00)
 number of electron     160.0000003 magnetization      13.1889702
 augmentation part       68.4908822 magnetization       9.0831924

 Broyden mixing:
  rms(total) = 0.81717E+00    rms(broyden)= 0.81695E+00
  rms(prec ) = 0.89477E+00
  weight for this iteration     100.00

 eigenvalues of (default mixing * dielectric matrix)
  average eigenvalue GAMMA=   0.6438
  1.5551  0.4056  0.4056  0.2089

 Free energy of the ion-electron system (eV)
  ---------------------------------------------------
  alpha Z        PSCENC =        11.69792164
  Ewald energy   TEWEN  =     26568.53623940
  -Hartree energ DENC   =    -39054.57528775
  -exchange      EXHF   =         0.00000000
  -V(xc)+E(xc)   XCENC  =      -468.77541217
  PAW double counting   =     14569.89408402   -13590.66292307
  entropy T*S    EENTRO =         0.01197042
  eigenvalues    EBANDS =     -1040.03278799
  atomic energy  EATOM  =     12955.90228127
  Solvation  Ediel_sol  =         0.00000000
  ---------------------------------------------------
  free energy    TOTEN  =       -48.00391424 eV

  energy without entropy =      -48.01588467  energy(sigma->0) =      -48.00790438


--------------------------------------------------------------------------------------------------------




--------------------------------------- Iteration      1(  10)  ---------------------------------------


    POTLOK:  cpu time    3.4600: real time    3.4992
    SETDIJ:  cpu time    0.0406: real time    0.0407
     EDDAV:  cpu time   17.2840: real time   17.3495
       DOS:  cpu time    0.0092: real time    0.0092
    CHARGE:  cpu time    1.4869: real time    1.5018
    MIXING:  cpu time    0.1044: real time    0.1046
    --------------------------------------------
      LOOP:  cpu time   22.3851: real time   22.5050

 eigenvalue-minimisations  :   448
 total energy-change (2. order) :-0.5644977E+00  (-0.3376869E+00)
 number of electron     160.0000002 magnetization      12.8745409
 augmentation part       68.4167172 magnetization       8.6690351

 Broyden mixing:
  rms(total) = 0.71135E+00    rms(broyden)= 0.71115E+00
  rms(prec ) = 0.78985E+00
  weight for this iteration     100.00

 eigenvalues of (default mixing * dielectric matrix)
  average eigenvalue GAMMA=   0.6055
  1.6350  0.4837  0.4837  0.2126  0.2126

 Free energy of the ion-electron system (eV)
  ---------------------------------------------------
  alpha Z        PSCENC =        11.69792164
  Ewald energy   TEWEN  =     26568.53623940
  -Hartree energ DENC   =    -39069.02323600
  -exchange      EXHF   =         0.00000000
  -V(xc)+E(xc)   XCENC  =      -469.13670509
  PAW double counting   =     14635.55373664   -13656.55841961
  entropy T*S    EENTRO =         0.01669335
  eigenvalues    EBANDS =     -1025.55692349
  atomic energy  EATOM  =     12955.90228127
  Solvation  Ediel_sol  =         0.00000000
  ---------------------------------------------------
  free energy    TOTEN  =       -48.56841190 eV

  energy without entropy =      -48.58510525  energy(sigma->0) =      -48.57397635


--------------------------------------------------------------------------------------------------------




--------------------------------------- Iteration      1(  11)  ---------------------------------------


    POTLOK:  cpu time    3.5219: real time    3.5558
    SETDIJ:  cpu time    0.0298: real time    0.0298
     EDDAV:  cpu time   17.3006: real time   17.4028
       DOS:  cpu time    0.0087: real time    0.0088
    CHARGE:  cpu time    1.3362: real time    1.3465
    MIXING:  cpu time    0.1329: real time    0.1371
    --------------------------------------------
      LOOP:  cpu time   22.3302: real time   22.4808

 eigenvalue-minimisations  :   464
 total energy-change (2. order) :-0.8523658E+00  (-0.1524857E+00)
 number of electron     160.0000001 magnetization      12.6433302
 augmentation part       68.3270614 magnetization       8.3454635

 Broyden mixing:
  rms(total) = 0.49930E+00    rms(broyden)= 0.49915E+00
  rms(prec ) = 0.54344E+00
  weight for this iteration     100.00

 eigenvalues of (default mixing * dielectric matrix)
  average eigenvalue GAMMA=   0.5690
  1.6536  0.5055  0.5055  0.2903  0.2903  0.1688

 Free energy of the ion-electron system (eV)
  ---------------------------------------------------
  alpha Z        PSCENC =        11.69792164
  Ewald energy   TEWEN  =     26568.53623940
  -Hartree energ DENC   =    -39082.08372503
  -exchange      EXHF   =         0.00000000
  -V(xc)+E(xc)   XCENC  =      -469.77262227
  PAW double counting   =     14684.48262670   -13705.61338802
  entropy T*S    EENTRO =         0.02811752
  eigenvalues    EBANDS =     -1012.59822886
  atomic energy  EATOM  =     12955.90228127
  Solvation  Ediel_sol  =         0.00000000
  ---------------------------------------------------
  free energy    TOTEN  =       -49.42077765 eV

  energy without entropy =      -49.44889518  energy(sigma->0) =      -49.43015016


--------------------------------------------------------------------------------------------------------




--------------------------------------- Iteration      1(  12)  ---------------------------------------


    POTLOK:  cpu time    3.4401: real time    3.4540
    SETDIJ:  cpu time    0.0417: real time    0.0417
     EDDAV:  cpu time   16.8349: real time   16.8816
       DOS:  cpu time    0.0079: real time    0.0079
    CHARGE:  cpu time    1.4885: real time    1.5004
    MIXING:  cpu time    0.1404: real time    0.1407
    --------------------------------------------
      LOOP:  cpu time   21.9535: real time   22.0263

 eigenvalue-minimisations  :   432
 total energy-change (2. order) :-0.1035546E+01  (-0.7263073E-01)
 number of electron     160.0000002 magnetization      12.1388237
 augmentation part       68.3249149 magnetization       8.0022552

 Broyden mixing:
  rms(total) = 0.32744E+00    rms(broyden)= 0.32737E+00
  rms(prec ) = 0.35097E+00
  weight for this iteration     100.00

 eigenvalues of (default mixing * dielectric matrix)
  average eigenvalue GAMMA=   0.6254
  1.7086  0.7957  0.7957  0.4054  0.2650  0.2348  0.1724

 Free energy of the ion-electron system (eV)
  ---------------------------------------------------
  alpha Z        PSCENC =        11.69792164
  Ewald energy   TEWEN  =     26568.53623940
  -Hartree energ DENC   =    -39087.76886592
  -exchange      EXHF   =         0.00000000
  -V(xc)+E(xc)   XCENC  =      -470.58080300
  PAW double counting   =     14705.69126991   -13726.99194521
  entropy T*S    EENTRO =         0.03483966
  eigenvalues    EBANDS =     -1006.97726112
  atomic energy  EATOM  =     12955.90228127
  Solvation  Ediel_sol  =         0.00000000
  ---------------------------------------------------
  free energy    TOTEN  =       -50.45632338 eV

  energy without entropy =      -50.49116304  energy(sigma->0) =      -50.46793660


--------------------------------------------------------------------------------------------------------




--------------------------------------- Iteration      1(  13)  ---------------------------------------


    POTLOK:  cpu time    3.3265: real time    3.3705
    SETDIJ:  cpu time    0.0311: real time    0.0311
     EDDAV:  cpu time   16.8098: real time   16.8840
       DOS:  cpu time    0.0062: real time    0.0062
    CHARGE:  cpu time    1.6631: real time    1.6713
    MIXING:  cpu time    0.1498: real time    0.1501
    --------------------------------------------
      LOOP:  cpu time   21.9865: real time   22.1132

 eigenvalue-minimisations  :   440
 total energy-change (2. order) :-0.1967661E+01  (-0.6695274E-01)
 number of electron     160.0000002 magnetization      11.7704474
 augmentation part       68.2966845 magnetization       7.6392032

 Broyden mixing:
  rms(total) = 0.35390E+00    rms(broyden)= 0.35383E+00
  rms(prec ) = 0.38871E+00
  weight for this iteration     100.00

 eigenvalues of (default mixing * dielectric matrix)
  average eigenvalue GAMMA=   0.6208
  1.7412  1.1698  0.7140  0.4408  0.2621  0.2621  0.2061  0.1700

 Free energy of the ion-electron system (eV)
  ---------------------------------------------------
  alpha Z        PSCENC =        11.69792164
  Ewald energy   TEWEN  =     26568.53623940
  -Hartree energ DENC   =    -39100.04254160
  -exchange      EXHF   =         0.00000000
  -V(xc)+E(xc)   XCENC  =      -471.99102251
  PAW double counting   =     14733.39071023   -13755.00807965
  entropy T*S    EENTRO =         0.02996314
  eigenvalues    EBANDS =      -994.93945601
  atomic energy  EATOM  =     12955.90228127
  Solvation  Ediel_sol  =         0.00000000
  ---------------------------------------------------
  free energy    TOTEN  =       -52.42398411 eV

  energy without entropy =      -52.45394724  energy(sigma->0) =      -52.43397182


--------------------------------------------------------------------------------------------------------




--------------------------------------- Iteration      1(  14)  ---------------------------------------


    POTLOK:  cpu time    3.5775: real time    3.6035
    SETDIJ:  cpu time    0.0337: real time    0.0338
     EDDAV:  cpu time   15.9106: real time   15.9703
       DOS:  cpu time    0.0072: real time    0.0072
    CHARGE:  cpu time    1.4890: real time    1.5007
    MIXING:  cpu time    0.1606: real time    0.1609
    --------------------------------------------
      LOOP:  cpu time   21.1787: real time   21.2763

 eigenvalue-minimisations  :   440
 total energy-change (2. order) :-0.1522949E+01  (-0.6340009E-01)
 number of electron     160.0000002 magnetization      11.3707752
 augmentation part       68.2497885 magnetization       7.5661139

 Broyden mixing:
  rms(total) = 0.24529E+00    rms(broyden)= 0.24516E+00
  rms(prec ) = 0.26633E+00
  weight for this iteration     100.00

 eigenvalues of (default mixing * dielectric matrix)
  average eigenvalue GAMMA=   0.6410
  1.8971  1.3217  0.6420  0.6420  0.3494  0.3494  0.2244  0.1772  0.1662

 Free energy of the ion-electron system (eV)
  ---------------------------------------------------
  alpha Z        PSCENC =        11.69792164
  Ewald energy   TEWEN  =     26568.53623940
  -Hartree energ DENC   =    -39108.36504203
  -exchange      EXHF   =         0.00000000
  -V(xc)+E(xc)   XCENC  =      -473.16229317
  PAW double counting   =     14745.01203228   -13766.83770668
  entropy T*S    EENTRO =         0.03346805
  eigenvalues    EBANDS =      -986.76383406
  atomic energy  EATOM  =     12955.90228127
  Solvation  Ediel_sol  =         0.00000000
  ---------------------------------------------------
  free energy    TOTEN  =       -53.94693330 eV

  energy without entropy =      -53.98040135  energy(sigma->0) =      -53.95808932


--------------------------------------------------------------------------------------------------------




--------------------------------------- Iteration      1(  15)  ---------------------------------------


    POTLOK:  cpu time    3.5604: real time    3.5704
    SETDIJ:  cpu time    0.0402: real time    0.0403
     EDDAV:  cpu time   16.8346: real time   16.8964
       DOS:  cpu time    0.0092: real time    0.0092
    CHARGE:  cpu time    1.4974: real time    1.5003
    MIXING:  cpu time    0.1831: real time    0.1846
    --------------------------------------------
      LOOP:  cpu time   22.1249: real time   22.2012

 eigenvalue-minimisations  :   440
 total energy-change (2. order) :-0.1186511E+01  (-0.3045035E-01)
 number of electron     160.0000001 magnetization      10.8809615
 augmentation part       68.2529622 magnetization       7.1565687

 Broyden mixing:
  rms(total) = 0.14477E+00    rms(broyden)= 0.14475E+00
  rms(prec ) = 0.15245E+00
  weight for this iteration     100.00

 eigenvalues of (default mixing * dielectric matrix)
  average eigenvalue GAMMA=   0.6694
  2.0410  1.4902  0.7650  0.7650  0.3818  0.3818  0.2932  0.2351  0.1706  0.1706

 Free energy of the ion-electron system (eV)
  ---------------------------------------------------
  alpha Z        PSCENC =        11.69792164
  Ewald energy   TEWEN  =     26568.53623940
  -Hartree energ DENC   =    -39114.63451805
  -exchange      EXHF   =         0.00000000
  -V(xc)+E(xc)   XCENC  =      -474.07335028
  PAW double counting   =     14743.37037045   -13765.42301548
  entropy T*S    EENTRO =         0.03476945
  eigenvalues    EBANDS =      -980.54414220
  atomic energy  EATOM  =     12955.90228127
  Solvation  Ediel_sol  =         0.00000000
  ---------------------------------------------------
  free energy    TOTEN  =       -55.13344381 eV

  energy without entropy =      -55.16821326  energy(sigma->0) =      -55.14503363


--------------------------------------------------------------------------------------------------------




--------------------------------------- Iteration      1(  16)  ---------------------------------------


    POTLOK:  cpu time    3.3420: real time    3.3593
    SETDIJ:  cpu time    0.0355: real time    0.0356
     EDDAV:  cpu time   15.3506: real time   15.3922
       DOS:  cpu time    0.0070: real time    0.0070
    CHARGE:  cpu time    1.5198: real time    1.5233
    MIXING:  cpu time    0.1863: real time    0.1882
    --------------------------------------------
      LOOP:  cpu time   20.4413: real time   20.5055

 eigenvalue-minimisations  :   416
 total energy-change (2. order) :-0.1506231E+01  (-0.2713826E-01)
 number of electron     160.0000002 magnetization      10.3826891
 augmentation part       68.2365614 magnetization       6.8020694

 Broyden mixing:
  rms(total) = 0.11499E+00    rms(broyden)= 0.11497E+00
  rms(prec ) = 0.12082E+00
  weight for this iteration     100.00

 eigenvalues of (default mixing * dielectric matrix)
  average eigenvalue GAMMA=   0.7167
  2.2302  1.7602  0.9899  0.6439  0.5369  0.5369  0.3078  0.3078  0.2270  0.1760
  0.1667

 Free energy of the ion-electron system (eV)
  ---------------------------------------------------
  alpha Z        PSCENC =        11.69792164
  Ewald energy   TEWEN  =     26568.53623940
  -Hartree energ DENC   =    -39120.98929345
  -exchange      EXHF   =         0.00000000
  -V(xc)+E(xc)   XCENC  =      -475.26884300
  PAW double counting   =     14731.22998940   -13753.49303811
  entropy T*S    EENTRO =         0.02839095
  eigenvalues    EBANDS =      -974.28332299
  atomic energy  EATOM  =     12955.90228127
  Solvation  Ediel_sol  =         0.00000000
  ---------------------------------------------------
  free energy    TOTEN  =       -56.63967490 eV

  energy without entropy =      -56.66806585  energy(sigma->0) =      -56.64913855


--------------------------------------------------------------------------------------------------------




--------------------------------------- Iteration      1(  17)  ---------------------------------------


    POTLOK:  cpu time    3.2976: real time    3.3304
    SETDIJ:  cpu time    0.0262: real time    0.0262
     EDDAV:  cpu time   16.7013: real time   16.8330
       DOS:  cpu time    0.0089: real time    0.0089
    CHARGE:  cpu time    1.4971: real time    1.5012
    MIXING:  cpu time    0.2071: real time    0.2074
    --------------------------------------------
      LOOP:  cpu time   21.7381: real time   21.9070

 eigenvalue-minimisations  :   448
 total energy-change (2. order) :-0.1197221E+01  (-0.2298892E-01)
 number of electron     160.0000001 magnetization      10.0122317
 augmentation part       68.2170610 magnetization       6.6118434

 Broyden mixing:
  rms(total) = 0.11095E+00    rms(broyden)= 0.11093E+00
  rms(prec ) = 0.11736E+00
  weight for this iteration     100.00

 eigenvalues of (default mixing * dielectric matrix)
  average eigenvalue GAMMA=   0.7288
  2.3727  1.9670  1.0236  0.7118  0.7118  0.3961  0.3961  0.2990  0.2990  0.2267
  0.1753  0.1670

 Free energy of the ion-electron system (eV)
  ---------------------------------------------------
  alpha Z        PSCENC =        11.69792164
  Ewald energy   TEWEN  =     26568.53623940
  -Hartree energ DENC   =    -39125.69308612
  -exchange      EXHF   =         0.00000000
  -V(xc)+E(xc)   XCENC  =      -476.21250061
  PAW double counting   =     14713.52675228   -13736.00799339
  entropy T*S    EENTRO =         0.02562202
  eigenvalues    EBANDS =      -969.61213270
  atomic energy  EATOM  =     12955.90228127
  Solvation  Ediel_sol  =         0.00000000
  ---------------------------------------------------
  free energy    TOTEN  =       -57.83689622 eV

  energy without entropy =      -57.86251824  energy(sigma->0) =      -57.84543689


--------------------------------------------------------------------------------------------------------




--------------------------------------- Iteration      1(  18)  ---------------------------------------


    POTLOK:  cpu time    3.1672: real time    3.1941
    SETDIJ:  cpu time    0.0267: real time    0.0267
     EDDAV:  cpu time   16.6380: real time   16.7293
       DOS:  cpu time    0.0090: real time    0.0090
    CHARGE:  cpu time    1.4585: real time    1.4613
    MIXING:  cpu time    0.1848: real time    0.1850
    --------------------------------------------
      LOOP:  cpu time   21.4841: real time   21.6055

 eigenvalue-minimisations  :   432
 total energy-change (2. order) :-0.7091225E+00  (-0.1097382E-01)
 number of electron     160.0000001 magnetization       9.3894911
 augmentation part       68.2186255 magnetization       6.0740029

 Broyden mixing:
  rms(total) = 0.79242E-01    rms(broyden)= 0.79231E-01
  rms(prec ) = 0.82284E-01
  weight for this iteration     100.00

 eigenvalues of (default mixing * dielectric matrix)
  average eigenvalue GAMMA=   0.7853
  2.9438  1.9659  1.0192  1.0192  0.7911  0.5046  0.5046  0.3311  0.1670  0.1755
  0.2246  0.2810  0.2810

 Free energy of the ion-electron system (eV)
  ---------------------------------------------------
  alpha Z        PSCENC =        11.69792164
  Ewald energy   TEWEN  =     26568.53623940
  -Hartree energ DENC   =    -39127.17645012
  -exchange      EXHF   =         0.00000000
  -V(xc)+E(xc)   XCENC  =      -476.78647459
  PAW double counting   =     14697.13354496   -13719.75455737
  entropy T*S    EENTRO =         0.02517174
  eigenvalues    EBANDS =      -968.12369559
  atomic energy  EATOM  =     12955.90228127
  Solvation  Ediel_sol  =         0.00000000
  ---------------------------------------------------
  free energy    TOTEN  =       -58.54601867 eV

  energy without entropy =      -58.57119041  energy(sigma->0) =      -58.55440925


--------------------------------------------------------------------------------------------------------




--------------------------------------- Iteration      1(  19)  ---------------------------------------


    POTLOK:  cpu time    3.1195: real time    3.1562
    SETDIJ:  cpu time    0.0405: real time    0.0407
     EDDAV:  cpu time   16.6644: real time   16.7638
       DOS:  cpu time    0.0082: real time    0.0083
    CHARGE:  cpu time    1.3703: real time    1.3727
    MIXING:  cpu time    0.2186: real time    0.2191
    --------------------------------------------
      LOOP:  cpu time   21.4217: real time   21.5607

 eigenvalue-minimisations  :   432
 total energy-change (2. order) :-0.1035435E+01  (-0.1939786E-01)
 number of electron     160.0000001 magnetization       8.9347474
 augmentation part       68.2077111 magnetization       5.7244337

 Broyden mixing:
  rms(total) = 0.82512E-01    rms(broyden)= 0.82501E-01
  rms(prec ) = 0.87388E-01
  weight for this iteration     100.00

 eigenvalues of (default mixing * dielectric matrix)
  average eigenvalue GAMMA=   0.8097
  3.3681  2.1271  1.1101  1.0555  0.7061  0.7061  0.4163  0.4163  0.3044  0.3044
  0.1669  0.1756  0.2255  0.2535

 Free energy of the ion-electron system (eV)
  ---------------------------------------------------
  alpha Z        PSCENC =        11.69792164
  Ewald energy   TEWEN  =     26568.53623940
  -Hartree energ DENC   =    -39129.56160785
  -exchange      EXHF   =         0.00000000
  -V(xc)+E(xc)   XCENC  =      -477.66915919
  PAW double counting   =     14675.23892523   -13698.07702530
  entropy T*S    EENTRO =         0.02823185
  eigenvalues    EBANDS =      -965.67726108
  atomic energy  EATOM  =     12955.90228127
  Solvation  Ediel_sol  =         0.00000000
  ---------------------------------------------------
  free energy    TOTEN  =       -59.58145405 eV

  energy without entropy =      -59.60968589  energy(sigma->0) =      -59.59086466


--------------------------------------------------------------------------------------------------------




--------------------------------------- Iteration      1(  20)  ---------------------------------------


    POTLOK:  cpu time    3.5500: real time    3.5614
    SETDIJ:  cpu time    0.0402: real time    0.0403
     EDDAV:  cpu time   15.0546: real time   15.1026
       DOS:  cpu time    0.0066: real time    0.0066
    CHARGE:  cpu time    1.4115: real time    1.4131
    MIXING:  cpu time    0.2378: real time    0.2423
    --------------------------------------------
      LOOP:  cpu time   20.3006: real time   20.3661

 eigenvalue-minimisations  :   464
 total energy-change (2. order) :-0.6535668E+00  (-0.9162787E-02)
 number of electron     160.0000001 magnetization       8.4304616
 augmentation part       68.2103706 magnetization       5.3246190

 Broyden mixing:
  rms(total) = 0.63243E-01    rms(broyden)= 0.63234E-01
  rms(prec ) = 0.67523E-01
  weight for this iteration     100.00

 eigenvalues of (default mixing * dielectric matrix)
  average eigenvalue GAMMA=   0.8834
  4.0861  2.0440  1.8754  0.8289  0.8289  0.8529  0.4934  0.4934  0.3242  0.3242
  0.1670  0.1756  0.2237  0.2675  0.2661

 Free energy of the ion-electron system (eV)
  ---------------------------------------------------
  alpha Z        PSCENC =        11.69792164
  Ewald energy   TEWEN  =     26568.53623940
  -Hartree energ DENC   =    -39129.19612906
  -exchange      EXHF   =         0.00000000
  -V(xc)+E(xc)   XCENC  =      -478.26825478
  PAW double counting   =     14657.25580350   -13680.22882828
  entropy T*S    EENTRO =         0.02630016
  eigenvalues    EBANDS =      -965.96035466
  atomic energy  EATOM  =     12955.90228127
  Solvation  Ediel_sol  =         0.00000000
  ---------------------------------------------------
  free energy    TOTEN  =       -60.23502083 eV

  energy without entropy =      -60.26132099  energy(sigma->0) =      -60.24378755


--------------------------------------------------------------------------------------------------------




--------------------------------------- Iteration      1(  21)  ---------------------------------------


    POTLOK:  cpu time    3.3471: real time    3.3708
    SETDIJ:  cpu time    0.0441: real time    0.0442
     EDDAV:  cpu time   15.6921: real time   15.7360
       DOS:  cpu time    0.0017: real time    0.0017
    CHARGE:  cpu time    1.4834: real time    1.4943
    MIXING:  cpu time    0.2685: real time    0.2690
    --------------------------------------------
      LOOP:  cpu time   20.8370: real time   20.9162

 eigenvalue-minimisations  :   432
 total energy-change (2. order) :-0.6137188E+00  (-0.7802248E-02)
 number of electron     160.0000001 magnetization       8.1096563
 augmentation part       68.2085427 magnetization       5.0862431

 Broyden mixing:
  rms(total) = 0.49578E-01    rms(broyden)= 0.49568E-01
  rms(prec ) = 0.52505E-01
  weight for this iteration     100.00

 eigenvalues of (default mixing * dielectric matrix)
  average eigenvalue GAMMA=   0.9174
  4.8032  1.9972  1.9972  1.0330  0.8181  0.8181  0.5621  0.4663  0.4663  0.3141
  0.3141  0.1669  0.1756  0.2828  0.2227  0.2402

 Free energy of the ion-electron system (eV)
  ---------------------------------------------------
  alpha Z        PSCENC =        11.69792164
  Ewald energy   TEWEN  =     26568.53623940
  -Hartree energ DENC   =    -39128.49433804
  -exchange      EXHF   =         0.00000000
  -V(xc)+E(xc)   XCENC  =      -478.86548685
  PAW double counting   =     14647.18790527   -13670.30250389
  entropy T*S    EENTRO =         0.02623803
  eigenvalues    EBANDS =      -966.53699641
  atomic energy  EATOM  =     12955.90228127
  Solvation  Ediel_sol  =         0.00000000
  ---------------------------------------------------
  free energy    TOTEN  =       -60.84873958 eV

  energy without entropy =      -60.87497761  energy(sigma->0) =      -60.85748559


--------------------------------------------------------------------------------------------------------




--------------------------------------- Iteration      1(  22)  ---------------------------------------


    POTLOK:  cpu time    3.4954: real time    3.5339
    SETDIJ:  cpu time    0.0295: real time    0.0296
     EDDAV:  cpu time   17.2657: real time   17.3650
       DOS:  cpu time    0.0017: real time    0.0018
    CHARGE:  cpu time    1.3726: real time    1.3800
    MIXING:  cpu time    0.3050: real time    0.3055
    --------------------------------------------
      LOOP:  cpu time   22.4698: real time   22.6156

 eigenvalue-minimisations  :   480
 total energy-change (2. order) :-0.3488587E+00  (-0.3210978E-02)
 number of electron     160.0000001 magnetization       7.7818933
 augmentation part       68.2050540 magnetization       4.7942122

 Broyden mixing:
  rms(total) = 0.37807E-01    rms(broyden)= 0.37800E-01
  rms(prec ) = 0.40176E-01
  weight for this iteration     100.00

 eigenvalues of (default mixing * dielectric matrix)
  average eigenvalue GAMMA=   0.9749
  5.8314  1.9365  1.9365  1.5511  0.7902  0.7902  0.6902  0.4950  0.4950  0.3430
  0.3139  0.3139  0.1669  0.1756  0.2234  0.2704  0.2509

 Free energy of the ion-electron system (eV)
  ---------------------------------------------------
  alpha Z        PSCENC =        11.69792164
  Ewald energy   TEWEN  =     26568.53623940
  -Hartree energ DENC   =    -39127.65860658
  -exchange      EXHF   =         0.00000000
  -V(xc)+E(xc)   XCENC  =      -479.20218542
  PAW double counting   =     14643.79398221   -13666.95196982
  entropy T*S    EENTRO =         0.03015426
  eigenvalues    EBANDS =      -967.34541519
  atomic energy  EATOM  =     12955.90228127
  Solvation  Ediel_sol  =         0.00000000
  ---------------------------------------------------
  free energy    TOTEN  =       -61.19759824 eV

  energy without entropy =      -61.22775249  energy(sigma->0) =      -61.20764966


--------------------------------------------------------------------------------------------------------




--------------------------------------- Iteration      1(  23)  ---------------------------------------


    POTLOK:  cpu time    3.4609: real time    3.4815
    SETDIJ:  cpu time    0.0415: real time    0.0415
     EDDAV:  cpu time   15.9098: real time   16.0125
       DOS:  cpu time    0.0015: real time    0.0015
    CHARGE:  cpu time    1.3748: real time    1.3895
    MIXING:  cpu time    0.2666: real time    0.2711
    --------------------------------------------
      LOOP:  cpu time   21.0552: real time   21.1977

 eigenvalue-minimisations  :   432
 total energy-change (2. order) :-0.4297836E+00  (-0.2698778E-02)
 number of electron     160.0000001 magnetization       7.5914084
 augmentation part       68.2010492 magnetization       4.6465412

 Broyden mixing:
  rms(total) = 0.30773E-01    rms(broyden)= 0.30767E-01
  rms(prec ) = 0.32772E-01
  weight for this iteration     100.00

 eigenvalues of (default mixing * dielectric matrix)
  average eigenvalue GAMMA=   0.9947
  6.3008  2.0907  2.0907  1.5349  0.7942  0.7942  0.6764  0.6764  0.4658  0.4658
  0.3222  0.3222  0.1669  0.1756  0.2955  0.2668  0.2231  0.2427

 Free energy of the ion-electron system (eV)
  ---------------------------------------------------
  alpha Z        PSCENC =        11.69792164
  Ewald energy   TEWEN  =     26568.53623940
  -Hartree energ DENC   =    -39126.53086667
  -exchange      EXHF   =         0.00000000
  -V(xc)+E(xc)   XCENC  =      -479.62512565
  PAW double counting   =     14643.79505726   -13666.96597283
  entropy T*S    EENTRO =         0.02869352
  eigenvalues    EBANDS =      -968.46560973
  atomic energy  EATOM  =     12955.90228127
  Solvation  Ediel_sol  =         0.00000000
  ---------------------------------------------------
  free energy    TOTEN  =       -61.62738180 eV

  energy without entropy =      -61.65607532  energy(sigma->0) =      -61.63694631


--------------------------------------------------------------------------------------------------------




--------------------------------------- Iteration      1(  24)  ---------------------------------------


    POTLOK:  cpu time    3.2953: real time    3.3267
    SETDIJ:  cpu time    0.0413: real time    0.0415
     EDDAV:  cpu time   17.8701: real time   17.9347
       DOS:  cpu time    0.0080: real time    0.0080
    CHARGE:  cpu time    1.4931: real time    1.5044
    MIXING:  cpu time    0.3113: real time    0.3159
    --------------------------------------------
      LOOP:  cpu time   23.0191: real time   23.1311

 eigenvalue-minimisations  :   472
 total energy-change (2. order) :-0.3153236E+00  (-0.1075466E-02)
 number of electron     160.0000001 magnetization       7.3813025
 augmentation part       68.2002272 magnetization       4.4516010

 Broyden mixing:
  rms(total) = 0.22042E-01    rms(broyden)= 0.22038E-01
  rms(prec ) = 0.23654E-01
  weight for this iteration     100.00

 eigenvalues of (default mixing * dielectric matrix)
  average eigenvalue GAMMA=   1.0227
  6.7653  2.2719  2.2719  1.4035  0.8990  0.8990  0.7792  0.7792  0.4856  0.4856
  0.4084  0.3179  0.3179  0.1669  0.1756  0.2232  0.2751  0.2641  0.2424

 Free energy of the ion-electron system (eV)
  ---------------------------------------------------
  alpha Z        PSCENC =        11.69792164
  Ewald energy   TEWEN  =     26568.53623940
  -Hartree energ DENC   =    -39124.69187986
  -exchange      EXHF   =         0.00000000
  -V(xc)+E(xc)   XCENC  =      -479.95760772
  PAW double counting   =     14645.04253750   -13668.20820900
  entropy T*S    EENTRO =         0.02895422
  eigenvalues    EBANDS =      -970.29294285
  atomic energy  EATOM  =     12955.90228127
  Solvation  Ediel_sol  =         0.00000000
  ---------------------------------------------------
  free energy    TOTEN  =       -61.94270541 eV

  energy without entropy =      -61.97165963  energy(sigma->0) =      -61.95235682


--------------------------------------------------------------------------------------------------------




--------------------------------------- Iteration      1(  25)  ---------------------------------------


    POTLOK:  cpu time    4.0021: real time    4.0157
    SETDIJ:  cpu time    0.0479: real time    0.0480
     EDDAV:  cpu time   16.4131: real time   16.5217
       DOS:  cpu time    0.0016: real time    0.0016
    CHARGE:  cpu time    1.3376: real time    1.3443
    MIXING:  cpu time    0.2907: real time    0.2913
    --------------------------------------------
      LOOP:  cpu time   22.0930: real time   22.2225

 eigenvalue-minimisations  :   424
 total energy-change (2. order) :-0.3233127E+00  (-0.9860314E-03)
 number of electron     160.0000001 magnetization       7.2000329
 augmentation part       68.2020361 magnetization       4.2864251

 Broyden mixing:
  rms(total) = 0.16739E-01    rms(broyden)= 0.16736E-01
  rms(prec ) = 0.18023E-01
  weight for this iteration     100.00

 eigenvalues of (default mixing * dielectric matrix)
  average eigenvalue GAMMA=   1.0659
  7.2952  2.7510  2.2054  1.4066  1.4066  0.7977  0.7977  0.6888  0.6888  0.4813
  0.4813  0.1669  0.1756  0.3558  0.3128  0.3128  0.2232  0.2642  0.2642  0.2415

 Free energy of the ion-electron system (eV)
  ---------------------------------------------------
  alpha Z        PSCENC =        11.69792164
  Ewald energy   TEWEN  =     26568.53623940
  -Hartree energ DENC   =    -39122.33447556
  -exchange      EXHF   =         0.00000000
  -V(xc)+E(xc)   XCENC  =      -480.30742167
  PAW double counting   =     14647.22487014   -13670.38286564
  entropy T*S    EENTRO =         0.02769149
  eigenvalues    EBANDS =      -972.63025917
  atomic energy  EATOM  =     12955.90228127
  Solvation  Ediel_sol  =         0.00000000
  ---------------------------------------------------
  free energy    TOTEN  =       -62.26601811 eV

  energy without entropy =      -62.29370959  energy(sigma->0) =      -62.27524860


--------------------------------------------------------------------------------------------------------




--------------------------------------- Iteration      1(  26)  ---------------------------------------


    POTLOK:  cpu time    3.2178: real time    3.2267
    SETDIJ:  cpu time    0.0361: real time    0.0361
     EDDAV:  cpu time   17.9648: real time   18.0410
       DOS:  cpu time    0.0100: real time    0.0100
    CHARGE:  cpu time    1.3853: real time    1.3915
    MIXING:  cpu time    0.3420: real time    0.3424
    --------------------------------------------
      LOOP:  cpu time   22.9561: real time   23.0477

 eigenvalue-minimisations  :   480
 total energy-change (2. order) :-0.2172860E+00  (-0.6737039E-03)
 number of electron     160.0000001 magnetization       7.0734797
 augmentation part       68.2036717 magnetization       4.1759172

 Broyden mixing:
  rms(total) = 0.16385E-01    rms(broyden)= 0.16382E-01
  rms(prec ) = 0.17898E-01
  weight for this iteration     100.00

 eigenvalues of (default mixing * dielectric matrix)
  average eigenvalue GAMMA=   1.0728
  7.6616  3.0763  2.1076  1.4871  1.4871  0.7902  0.7902  0.7537  0.7537  0.4834
  0.4834  0.1669  0.1756  0.3719  0.3306  0.3108  0.3108  0.2232  0.2621  0.2621
  0.2406

 Free energy of the ion-electron system (eV)
  ---------------------------------------------------
  alpha Z        PSCENC =        11.69792164
  Ewald energy   TEWEN  =     26568.53623940
  -Hartree energ DENC   =    -39120.23761391
  -exchange      EXHF   =         0.00000000
  -V(xc)+E(xc)   XCENC  =      -480.54984651
  PAW double counting   =     14648.91991512   -13672.07251506
  entropy T*S    EENTRO =         0.02766649
  eigenvalues    EBANDS =      -974.70735257
  atomic energy  EATOM  =     12955.90228127
  Solvation  Ediel_sol  =         0.00000000
  ---------------------------------------------------
  free energy    TOTEN  =       -62.48330415 eV

  energy without entropy =      -62.51097064  energy(sigma->0) =      -62.49252631


--------------------------------------------------------------------------------------------------------




--------------------------------------- Iteration      1(  27)  ---------------------------------------


    POTLOK:  cpu time    3.5949: real time    3.6091
    SETDIJ:  cpu time    0.0307: real time    0.0307
     EDDAV:  cpu time   18.2934: real time   18.3648
       DOS:  cpu time    0.0055: real time    0.0055
    CHARGE:  cpu time    1.5073: real time    1.5103
    MIXING:  cpu time    0.3906: real time    0.3914
    --------------------------------------------
      LOOP:  cpu time   23.8223: real time   23.9118

 eigenvalue-minimisations  :   480
 total energy-change (2. order) :-0.1148164E+00  (-0.2951901E-03)
 number of electron     160.0000001 magnetization       6.9483230
 augmentation part       68.2064598 magnetization       4.0528579

 Broyden mixing:
  rms(total) = 0.90563E-02    rms(broyden)= 0.90541E-02
  rms(prec ) = 0.10007E-01
  weight for this iteration     100.00

 eigenvalues of (default mixing * dielectric matrix)
  average eigenvalue GAMMA=   1.1221
  8.2468  3.3780  2.2591  1.6724  1.5457  0.8999  0.8999  0.7819  0.7819  0.6203
  0.4925  0.4925  0.3689  0.1669  0.1756  0.3142  0.3142  0.2916  0.2232  0.2600
  0.2600  0.2404

 Free energy of the ion-electron system (eV)
  ---------------------------------------------------
  alpha Z        PSCENC =        11.69792164
  Ewald energy   TEWEN  =     26568.53623940
  -Hartree energ DENC   =    -39118.60434079
  -exchange      EXHF   =         0.00000000
  -V(xc)+E(xc)   XCENC  =      -480.67948602
  PAW double counting   =     14650.08613727   -13673.22554672
  entropy T*S    EENTRO =         0.02844224
  eigenvalues    EBANDS =      -976.33976882
  atomic energy  EATOM  =     12955.90228127
  Solvation  Ediel_sol  =         0.00000000
  ---------------------------------------------------
  free energy    TOTEN  =       -62.59812055 eV

  energy without entropy =      -62.62656279  energy(sigma->0) =      -62.60760129


--------------------------------------------------------------------------------------------------------




--------------------------------------- Iteration      1(  28)  ---------------------------------------


    POTLOK:  cpu time    3.4694: real time    3.4822
    SETDIJ:  cpu time    0.0316: real time    0.0316
     EDDAV:  cpu time   16.8812: real time   16.9898
       DOS:  cpu time    0.0104: real time    0.0105
    CHARGE:  cpu time    1.6216: real time    1.6258
    MIXING:  cpu time    0.3657: real time    0.3659
    --------------------------------------------
      LOOP:  cpu time   22.3799: real time   22.5058

 eigenvalue-minimisations  :   440
 total energy-change (2. order) :-0.9089572E-01  (-0.2156356E-03)
 number of electron     160.0000001 magnetization       6.8866595
 augmentation part       68.2060618 magnetization       3.9968319

 Broyden mixing:
  rms(total) = 0.69356E-02    rms(broyden)= 0.69346E-02
  rms(prec ) = 0.77837E-02
  weight for this iteration     100.00

 eigenvalues of (default mixing * dielectric matrix)
  average eigenvalue GAMMA=   1.1389
  8.6680  3.6590  2.3866  1.6926  1.5553  1.0112  0.8766  0.7938  0.7938  0.7138
  0.4903  0.4903  0.4393  0.3813  0.1669  0.1756  0.3141  0.3141  0.2893  0.2232
  0.2598  0.2598  0.2403

 Free energy of the ion-electron system (eV)
  ---------------------------------------------------
  alpha Z        PSCENC =        11.69792164
  Ewald energy   TEWEN  =     26568.53623940
  -Hartree energ DENC   =    -39116.97468174
  -exchange      EXHF   =         0.00000000
  -V(xc)+E(xc)   XCENC  =      -480.78256630
  PAW double counting   =     14652.11213340   -13675.23798903
  entropy T*S    EENTRO =         0.02829734
  eigenvalues    EBANDS =      -977.97065225
  atomic energy  EATOM  =     12955.90228127
  Solvation  Ediel_sol  =         0.00000000
  ---------------------------------------------------
  free energy    TOTEN  =       -62.68901627 eV

  energy without entropy =      -62.71731361  energy(sigma->0) =      -62.69844872


--------------------------------------------------------------------------------------------------------




--------------------------------------- Iteration      1(  29)  ---------------------------------------


    POTLOK:  cpu time    3.4752: real time    3.5099
    SETDIJ:  cpu time    0.0389: real time    0.0390
     EDDAV:  cpu time   15.0561: real time   15.1567
       DOS:  cpu time    0.0100: real time    0.0100
    CHARGE:  cpu time    1.4749: real time    1.4817
    MIXING:  cpu time    0.3636: real time    0.3723
    --------------------------------------------
      LOOP:  cpu time   20.4188: real time   20.5697

 eigenvalue-minimisations  :   384
 total energy-change (2. order) :-0.3844927E-01  (-0.5581777E-04)
 number of electron     160.0000001 magnetization       6.8263114
 augmentation part       68.2060094 magnetization       3.9368386

 Broyden mixing:
  rms(total) = 0.57426E-02    rms(broyden)= 0.57416E-02
  rms(prec ) = 0.64920E-02
  weight for this iteration     100.00

 eigenvalues of (default mixing * dielectric matrix)
  average eigenvalue GAMMA=   1.1684
  9.1468  4.0424  2.4360  1.8950  1.5807  1.1340  0.8381  0.8381  0.7917  0.7917
  0.6243  0.4930  0.4930  0.3802  0.1669  0.1756  0.3140  0.3140  0.3186  0.2232
  0.2850  0.2594  0.2594  0.2402

 Free energy of the ion-electron system (eV)
  ---------------------------------------------------
  alpha Z        PSCENC =        11.69792164
  Ewald energy   TEWEN  =     26568.53623940
  -Hartree energ DENC   =    -39115.99706687
  -exchange      EXHF   =         0.00000000
  -V(xc)+E(xc)   XCENC  =      -480.82655191
[...]
     69      -4.8818      1.00026
     70      -4.8317      1.00089
     71      -4.7978      1.00187
     72      -4.7651      1.00360
     73      -4.7437      1.00534
     74      -4.7182      1.00822
     75      -4.7103      1.00930
     76      -4.6646      1.01754
     77      -4.6488      1.02102
     78      -4.6140      1.02894
     79      -4.5971      1.03228
     80      -4.5479      1.03421
     81      -4.5362      1.03164
     82      -4.4639      0.96666
     83      -4.4108      0.84402
     84      -4.2800      0.33470
     85      -3.6170     -0.00000
     86      -3.5211     -0.00000
     87      -3.2804     -0.00000
     88      -3.1042     -0.00000
     89      -2.9808     -0.00000
     90      -2.5932     -0.00000
     91      -1.6163     -0.00000
     92      -1.5065     -0.00000
     93      -1.3733     -0.00000
     94      -1.3535     -0.00000
     95      -1.2611     -0.00000
     96      -1.0436     -0.00000
     97      -0.9654     -0.00000
     98      -0.9439     -0.00000
     99      -0.7750     -0.00000
    100      -0.6025     -0.00000
    101      -0.0122     -0.00000
    102       0.1929     -0.00000
    103       0.3025     -0.00000
    104       0.3642     -0.00000

 spin component 2

 k-point     1 :       0.0000    0.0000    0.0000
  band No.  band energies     occupation 
      1      -9.1110      1.00000
      2      -8.5249      1.00000
      3      -8.4443      1.00000
      4      -8.2412      1.00000
      5      -8.2132      1.00000
      6      -8.1169      1.00000
      7      -7.8905      1.00000
      8      -7.8454      1.00000
      9      -7.7291      1.00000
     10      -7.5805      1.00000
     11      -7.5257      1.00000
     12      -7.4781      1.00000
     13      -7.4617      1.00000
     14      -7.3467      1.00000
     15      -7.3313      1.00000
     16      -7.2966      1.00000
     17      -7.2534      1.00000
     18      -7.1717      1.00000
     19      -7.1429      1.00000
     20      -7.1100      1.00000
     21      -7.0732      1.00000
     22      -7.0024      1.00000
     23      -6.9745      1.00000
     24      -6.9259      1.00000
     25      -6.8420      1.00000
     26      -6.7686      1.00000
     27      -6.6833      1.00000
     28      -6.6426      1.00000
     29      -6.5737      1.00000
     30      -6.5237      1.00000
     31      -6.4837      1.00000
     32      -6.4006      1.00000
     33      -6.3320      1.00000
     34      -6.3063      1.00000
     35      -6.2802      1.00000
     36      -6.1624      1.00000
     37      -6.0742      1.00000
     38      -5.9495      1.00000
     39      -5.8500      1.00000
     40      -5.8032      1.00000
     41      -5.7747      1.00000
     42      -5.7419      1.00000
     43      -5.6785      1.00000
     44      -5.5999      1.00000
     45      -5.4949      1.00000
     46      -5.4491      1.00000
     47      -5.4033      1.00000
     48      -5.3586      1.00000
     49      -5.3095      1.00000
     50      -5.2606      1.00000
     51      -5.2436      1.00000
     52      -5.1762      1.00000
     53      -5.1631      1.00000
     54      -5.1485      1.00000
     55      -5.1014      1.00000
     56      -5.0597      1.00000
     57      -5.0122      1.00001
     58      -4.9635      1.00003
     59      -4.9047      1.00014
     60      -4.8983      1.00017
     61      -4.8690      1.00036
     62      -4.8411      1.00071
     63      -4.8216      1.00112
     64      -4.7467      1.00507
     65      -4.7416      1.00554
     66      -4.7225      1.00767
     67      -4.7179      1.00826
     68      -4.6467      1.02150
     69      -4.6304      1.02526
     70      -4.5672      1.03544
     71      -4.5369      1.03185
     72      -4.4886      1.00030
     73      -4.4777      0.98717
     74      -4.4297      0.89574
     75      -4.4153      0.85722
     76      -4.3780      0.73463
     77      -4.3143      0.47648
     78      -4.2979      0.40742
     79      -4.2546      0.23932
     80      -4.1649      0.01658
     81      -4.1297     -0.01929
     82      -4.0718     -0.03542
     83      -4.0367     -0.03117
     84      -3.9513     -0.01284
     85      -3.4413     -0.00000
     86      -3.3730     -0.00000
     87      -3.1180     -0.00000
     88      -2.9534     -0.00000
     89      -2.8389     -0.00000
     90      -2.4363     -0.00000
     91      -1.4980     -0.00000
     92      -1.3950     -0.00000
     93      -1.2608     -0.00000
     94      -1.2525     -0.00000
     95      -1.1601     -0.00000
     96      -0.9189     -0.00000
     97      -0.8806     -0.00000
     98      -0.8581     -0.00000
     99      -0.6847     -0.00000
    100      -0.4682     -0.00000
    101       0.0763     -0.00000
    102       0.2208     -0.00000
    103       0.3807     -0.00000
    104       0.4096     -0.00000


--------------------------------------------------------------------------------------------------------


 soft charge-density along one line, spin component            1
         0         1         2         3         4         5         6         7         8         9
 total charge-density along one line
 
 soft charge-density along one line, spin component            2
         0         1         2         3         4         5         6         7         8         9
 total charge-density along one line
 
 pseudopotential strength for first ion, spin component:            1
 -8.632  -0.027   0.022   0.022   0.017  -8.597  -0.026   0.021
 -0.027  -8.632  -0.013   0.022   0.003  -0.026  -8.597  -0.012
  0.022  -0.013  -8.680   0.005   0.003   0.021  -0.012  -8.643
  0.022   0.022   0.005  -8.623   0.006   0.022   0.021   0.005
  0.017   0.003   0.003   0.006  -8.682   0.016   0.003   0.003
 -8.597  -0.026   0.021   0.022   0.016  -8.540  -0.025   0.020
 -0.026  -8.597  -0.012   0.021   0.003  -0.025  -8.540  -0.012
  0.021  -0.012  -8.643   0.005   0.003   0.020  -0.012  -8.584
  0.022   0.021   0.005  -8.588   0.005   0.021   0.020   0.004
  0.016   0.003   0.003   0.005  -8.645   0.015   0.003   0.003
  0.001  -0.002   0.000   0.005  -0.001   0.001  -0.002   0.000
  0.001  -0.003   0.001   0.009  -0.001   0.001  -0.003   0.001
 -0.018  -0.018   0.004  -0.000   0.007  -0.017  -0.017   0.003
 -0.000  -0.008  -0.021  -0.020  -0.000  -0.000  -0.008  -0.020
 -0.008  -0.000   0.010  -0.019  -0.019  -0.007  -0.000   0.010
 -0.019  -0.019   0.004  -0.001   0.007  -0.018  -0.018   0.004
 -0.001  -0.008  -0.022  -0.021  -0.001  -0.001  -0.008  -0.021
 -0.008  -0.001   0.010  -0.020  -0.020  -0.008  -0.001   0.010
 pseudopotential strength for first ion, spin component:            2
 -8.497  -0.005   0.003   0.003  -0.004  -8.468  -0.005   0.003
 -0.005  -8.489   0.005  -0.003  -0.009  -0.005  -8.460   0.005
  0.003   0.005  -8.489  -0.004   0.009   0.003   0.005  -8.460
  0.003  -0.003  -0.004  -8.489  -0.004   0.003  -0.003  -0.004
 -0.004  -0.009   0.009  -0.004  -8.517  -0.004  -0.008   0.009
 -8.468  -0.005   0.003   0.003  -0.004  -8.417  -0.005   0.002
 -0.005  -8.460   0.005  -0.003  -0.008  -0.005  -8.409   0.005
  0.003   0.005  -8.460  -0.004   0.009   0.002   0.005  -8.409
  0.003  -0.003  -0.004  -8.460  -0.004   0.003  -0.003  -0.004
 -0.004  -0.008   0.009  -0.004  -8.487  -0.004  -0.008   0.008
  0.001  -0.003  -0.004   0.004   0.003   0.001  -0.003  -0.004
  0.002  -0.005  -0.007   0.006   0.005   0.002  -0.005  -0.006
 -0.021  -0.021   0.005   0.000   0.009  -0.020  -0.020   0.005
  0.000  -0.009  -0.025  -0.021   0.000   0.000  -0.009  -0.024
 -0.008   0.000   0.012  -0.020  -0.021  -0.008   0.000   0.012
 -0.023  -0.023   0.005   0.001   0.010  -0.022  -0.022   0.005
  0.001  -0.010  -0.028  -0.023   0.000   0.001  -0.009  -0.027
 -0.009   0.001   0.014  -0.023  -0.023  -0.009   0.001   0.013
 total augmentation occupancy for first ion, spin component:            1
  2.219   0.124  -0.037   0.063   0.028  -0.730  -0.247   0.155   0.016   0.030  -0.103   0.026  -0.126   0.011  -0.045  -0.021
  0.124   2.136  -0.086   0.109  -0.130  -0.246  -0.689   0.013   0.000   0.135   0.022  -0.002  -0.122  -0.028   0.020  -0.021
 -0.037  -0.086   1.878   0.147  -0.029   0.154   0.012  -0.692  -0.112   0.068  -0.028   0.005   0.038  -0.108   0.051   0.004
  0.063   0.109   0.147   2.215   0.253   0.016   0.000  -0.112  -0.674  -0.201  -0.307   0.078   0.015  -0.121  -0.115  -0.001
  0.028  -0.130  -0.029   0.253   1.597   0.030   0.136   0.068  -0.199  -0.477  -0.061   0.020   0.047  -0.006  -0.077   0.007
 -0.730  -0.246   0.154   0.016   0.030   1.127   0.332  -0.236  -0.062  -0.065   0.093  -0.020   0.214  -0.030   0.063  -0.020
 -0.247  -0.689   0.012   0.000   0.136   0.332   1.107   0.037  -0.066  -0.136  -0.004  -0.009   0.199   0.047  -0.035  -0.018
  0.155   0.013  -0.692  -0.112   0.068  -0.236   0.037   1.280   0.089  -0.094   0.013  -0.010  -0.070   0.214  -0.127   0.006
  0.016   0.000  -0.112  -0.674  -0.199  -0.062  -0.066   0.089   1.031   0.173   0.233  -0.052  -0.033   0.160   0.158   0.002
  0.030   0.135   0.068  -0.201  -0.477  -0.065  -0.136  -0.094   0.173   1.105   0.020  -0.007  -0.103  -0.012   0.164   0.010
 -0.103   0.022  -0.028  -0.307  -0.061   0.093  -0.004   0.013   0.233   0.020   1.640  -0.205   0.097   0.220   0.227  -0.009
  0.026  -0.002   0.005   0.078   0.020  -0.020  -0.009  -0.010  -0.052  -0.007  -0.205   0.028  -0.014  -0.034  -0.032   0.001
 -0.126  -0.122   0.038   0.015   0.047   0.214   0.199  -0.070  -0.033  -0.103   0.097  -0.014   0.089   0.001   0.005  -0.008
  0.011  -0.028  -0.108  -0.121  -0.006  -0.030   0.047   0.214   0.160  -0.012   0.220  -0.034   0.001   0.092   0.019  -0.000
 -0.045   0.020   0.051  -0.115  -0.077   0.063  -0.035  -0.127   0.158   0.164   0.227  -0.032   0.005   0.019   0.089  -0.001
 -0.021  -0.021   0.004  -0.001   0.007  -0.020  -0.018   0.006   0.002   0.010  -0.009   0.001  -0.008  -0.000  -0.001   0.002
 -0.002  -0.011  -0.023  -0.024  -0.001   0.002  -0.005  -0.023  -0.015   0.001  -0.020   0.003  -0.000  -0.009  -0.002   0.000
 -0.010  -0.001   0.010  -0.022  -0.019  -0.006   0.002   0.014  -0.015  -0.020  -0.020   0.002  -0.001  -0.001  -0.009   0.000
 total augmentation occupancy for first ion, spin component:            2
  0.243   0.115  -0.107  -0.095  -0.121  -0.098  -0.050   0.047   0.040   0.058  -0.007  -0.002  -0.024   0.010   0.002  -0.005
  0.115   0.308   0.105  -0.131  -0.060  -0.051  -0.129  -0.050   0.058   0.026  -0.007  -0.001  -0.024  -0.003   0.008  -0.005
 -0.107   0.105   0.588  -0.062   0.047   0.048  -0.049  -0.263   0.032  -0.023   0.013   0.006   0.012  -0.033   0.022   0.002
 -0.095  -0.131  -0.062   0.228  -0.059   0.041   0.058   0.032  -0.089   0.031   0.003   0.006   0.010  -0.002  -0.002   0.002
 -0.121  -0.060   0.047  -0.059   0.434   0.057   0.023  -0.024   0.029  -0.195   0.001  -0.005   0.022   0.001  -0.009   0.004
 -0.098  -0.051   0.048   0.041   0.057   0.008   0.020  -0.017  -0.015  -0.025   0.004  -0.001   0.007  -0.003  -0.001   0.002
 -0.050  -0.129  -0.049   0.058   0.023   0.020   0.023   0.021  -0.022  -0.007  -0.000   0.001   0.007   0.001  -0.002   0.002
  0.047  -0.050  -0.263   0.032  -0.024  -0.017   0.021   0.080  -0.015   0.012  -0.016   0.005  -0.004   0.010  -0.007  -0.001
  0.040   0.058   0.032  -0.089   0.029  -0.015  -0.022  -0.015   0.005  -0.014  -0.001   0.000  -0.003  -0.001  -0.001  -0.001
  0.058   0.026  -0.023   0.031  -0.195  -0.025  -0.007   0.012  -0.014   0.052   0.010  -0.003  -0.008   0.000   0.001  -0.002
 -0.007  -0.007   0.013   0.003   0.001   0.004  -0.000  -0.016  -0.001   0.010  -0.036   0.008  -0.002  -0.010  -0.001  -0.000
 -0.002  -0.001   0.006   0.006  -0.005  -0.001   0.001   0.005   0.000  -0.003   0.008  -0.001   0.001   0.002  -0.000   0.000
 -0.024  -0.024   0.012   0.010   0.022   0.007   0.007  -0.004  -0.003  -0.008  -0.002   0.001   0.003  -0.001  -0.000   0.001
  0.010  -0.003  -0.033  -0.002   0.001  -0.003   0.001   0.010  -0.001   0.000  -0.010   0.002  -0.001   0.000  -0.001  -0.000
  0.002   0.008   0.022  -0.002  -0.009  -0.001  -0.002  -0.007  -0.001   0.001  -0.001  -0.000  -0.000  -0.001  -0.000  -0.000
 -0.005  -0.005   0.002   0.002   0.004   0.002   0.002  -0.001  -0.001  -0.002  -0.000   0.000   0.001  -0.000  -0.000   0.000
  0.002  -0.001  -0.008  -0.002   0.001  -0.001   0.001   0.004   0.001  -0.000  -0.000  -0.000  -0.000   0.001  -0.000  -0.000
  0.001   0.002   0.004  -0.003  -0.004  -0.000  -0.001  -0.002   0.001   0.002  -0.001   0.000  -0.000  -0.000   0.000  -0.000


------------------------ aborting loop because EDIFF is reached ----------------------------------------


    CHARGE:  cpu time    1.2167: real time    1.2228
    FORLOC:  cpu time    0.1249: real time    0.1251
    FORNL :  cpu time    5.3926: real time    5.4634
    FORCOR:  cpu time    3.4084: real time    3.4331
    FORHAR:  cpu time    0.4517: real time    0.4524
    MIXING:  cpu time    0.0753: real time    0.0754
    OFIELD:  cpu time    0.0000: real time    0.0000

 VOLUME and BASIS-vectors are now :
 -----------------------------------------------------------------------------
  energy-cutoff  :      400.00
  volume of cell :    14263.10
      direct lattice vectors                 reciprocal lattice vectors
    23.472974826  0.000000000  0.000000000     0.042602184  0.000000000  0.000000000
     0.000000000 24.250324000  0.000000000     0.000000000  0.041236562  0.000000000
     0.000000000  0.000000000 25.056944917     0.000000000  0.000000000  0.039909095

  length of vectors
    23.472974826 24.250324000 25.056944917     0.042602184  0.041236562  0.039909095


 FORCES acting on ions
    electron-ion (+dipol)            ewald-force                    non-local-force                 convergence-correction
 -----------------------------------------------------------------------------------------------
   0.701E+03 0.348E+03 0.749E+03   -.696E+03 -.346E+03 -.745E+03   -.490E+01 -.206E+01 -.459E+01   0.636E-02 -.847E-04 -.173E-02
   0.272E+03 0.103E+04 0.219E+03   -.271E+03 -.103E+04 -.218E+03   -.100E+01 -.537E+01 -.832E+00   0.300E-01 0.145E-01 0.210E-01
   -.523E+03 0.886E+03 -.521E+02   0.522E+03 -.883E+03 0.522E+02   0.164E+01 -.356E+01 -.649E-01   -.247E-01 -.103E-01 -.601E-01
   -.224E+03 0.300E+03 0.977E+03   0.222E+03 -.300E+03 -.973E+03   0.175E+01 -.805E+00 -.402E+01   -.813E-03 0.805E-02 -.121E-01
   0.456E+03 -.494E+03 0.839E+03   -.454E+03 0.492E+03 -.835E+03   -.169E+01 0.238E+01 -.389E+01   0.237E-01 -.390E-01 -.278E-01
   0.101E+04 0.246E+03 -.116E+03   -.101E+04 -.246E+03 0.116E+03   -.418E+01 -.573E+00 0.689E+00   0.213E-02 -.279E-01 -.440E-01
   0.259E+03 0.804E+03 -.728E+03   -.258E+03 -.800E+03 0.724E+03   -.118E+01 -.401E+01 0.357E+01   0.240E-01 -.649E-01 -.766E-01
   -.118E+03 -.101E+04 0.433E+03   0.116E+03 0.100E+04 -.429E+03   0.159E+01 0.514E+01 -.355E+01   0.412E-01 -.133E-01 -.630E-01
   -.101E+04 0.197E+03 -.349E+03   0.999E+03 -.196E+03 0.346E+03   0.632E+01 -.126E+01 0.293E+01   0.933E-02 -.171E-01 -.531E-01
   0.578E+03 -.105E+03 -.957E+03   -.575E+03 0.105E+03 0.952E+03   -.317E+01 0.509E+00 0.472E+01   -.102E-01 -.664E-01 -.250E-02
   -.826E+03 0.867E+02 0.685E+03   0.822E+03 -.868E+02 -.680E+03   0.358E+01 0.102E+00 -.492E+01   -.399E-02 -.312E-02 0.207E-01
   -.329E+02 -.101E+03 0.806E+02   0.329E+02 0.102E+03 -.807E+02   0.112E-02 -.527E+00 0.110E+00   0.550E-01 -.584E-01 -.295E-01
   0.829E+03 -.737E+03 -.140E+03   -.824E+03 0.733E+03 0.139E+03   -.491E+01 0.310E+01 0.542E+00   -.521E-01 -.330E-01 -.587E-01
   -.441E+03 0.808E+02 -.979E+03   0.439E+03 -.806E+02 0.975E+03   0.192E+01 -.194E+00 0.402E+01   -.725E-03 -.132E-01 -.474E-02
   -.815E+03 -.672E+03 0.416E+02   0.812E+03 0.668E+03 -.415E+02   0.315E+01 0.326E+01 0.118E-01   0.496E-01 -.557E-01 -.838E-01
   -.125E+03 -.867E+03 -.700E+03   0.123E+03 0.863E+03 0.696E+03   0.140E+01 0.414E+01 0.384E+01   0.474E-01 0.297E-01 -.392E-01
 -----------------------------------------------------------------------------------------------
   -.511E+00 0.770E-01 0.197E+01   -.227E-12 -.455E-12 -.227E-12   0.314E+00 0.275E+00 -.144E+01   0.196E+00 -.350E+00 -.515E+00
 
 
 POSITION                                       TOTAL-FORCE (eV/Angst)
 -----------------------------------------------------------------------------------
      9.22686     11.13872     10.21379        -0.003295      0.005897      0.009585
     10.62068      9.67406     11.93238        -0.002209      0.015128      0.003520
     12.95713     10.45653     12.84635         0.006502      0.010722     -0.005845
     11.84406     11.45551     10.35803        -0.001128      0.016756     -0.010138
     10.14451     13.55221     10.67548         0.014555     -0.006272      0.012976
      9.19910     11.79604     12.79048        -0.004513      0.007675     -0.001040
     10.86804     10.37202     14.49936         0.006582     -0.012419     -0.006251
     11.70039     15.37504     11.85174         0.005054     -0.014662     -0.002096
     15.02371     11.84395     13.68241        -0.005891     -0.008681      0.007292
     10.10812     12.82796     15.14011        -0.005003     -0.010371      0.005278
     14.26010     12.01552     11.13685         0.002649     -0.003202     -0.003344
     11.58461     12.69340     12.66023        -0.004922      0.000893      0.004547
      9.50217     14.49361     13.11119        -0.017654     -0.013613     -0.005848
     12.74456     12.30199     14.94325        -0.000348      0.009316      0.022151
     13.76809     13.98823     12.80788         0.006956     -0.006379     -0.014068
     11.80920     14.81689     14.48165         0.002666      0.009213     -0.016719
 -----------------------------------------------------------------------------------
    total drift:                               -0.001559      0.001491      0.006343


--------------------------------------------------------------------------------------------------------



  FREE ENERGIE OF THE ION-ELECTRON SYSTEM (eV)
  ---------------------------------------------------
  free  energy   TOTEN  =       -62.80079228 eV

  energy  without entropy=      -62.82912156  energy(sigma->0) =      -62.81023537
 
 d Force = 0.1782703E-03[ 0.169E-03, 0.188E-03]  d Energy = 0.1248187E-03 0.535E-04
 d Force =-0.3036282E+01[-0.304E+01,-0.304E+01]  d Ewald  =-0.3036281E+01-0.504E-06


--------------------------------------------------------------------------------------------------------


    POTLOK:  cpu time    3.3236: real time    3.3362


--------------------------------------------------------------------------------------------------------




--------------------------------------------------------------------------------------------------------


  
 reached required accuracy - stopping structural energy minimisation
     LOOP+:  cpu time   92.0257: real time   92.7971
    4ORBIT:  cpu time    0.0000: real time    0.0000

 total amount of memory used by VASP MPI-rank0   168914. kBytes
=======================================================================

   base      :      30000. kBytes
   nonl-proj :       3237. kBytes
   fftplans  :      33270. kBytes
   grid      :      75429. kBytes
   one-center:         15. kBytes
   wavefun   :      26963. kBytes
 
  
  
 General timing and accounting informations for this job:
 ========================================================
  
                  Total CPU time used (sec):     1082.856
                            User time (sec):     1069.232
                          System time (sec):       13.625
                         Elapsed time (sec):     1090.788
  
                   Maximum memory used (kb):      341588.
                   Average memory used (kb):           0.
  
                          Minor page faults:      1036624
                          Major page faults:        41120
                 Voluntary context switches:         8960
