<?xml version="1.0" encoding="ISO-8859-1"?>
<modeling>
 <generator>
  <i name="program" type="string">vasp </i>
  <i name="version" type="string">6.1.2  </i>
  <i name="subversion" type="string">22Jul20 (build Aug  2 2021 21:04:21) gamma-only                       parallel </i>
  <i name="platform" type="string">LinuxPGI </i>
  <i name="date" type="string">2021 12 23 </i>
  <i name="time" type="string">09:40:17 </i>
 </generator>
 <incar>
  <i type="int" name="ISPIN">     2</i>
  <i type="int" name="IBRION">     2</i>
  <i type="int" name="NSW">  1000</i>
  <i type="int" name="ISIF">     0</i>
  <i type="int" name="ISYM">     0</i>
  <i name="ENCUT">    400.00000000</i>
  <i type="logical" name="LREAL"> F  </i>
  <i type="int" name="ISMEAR">     1</i>
  <i name="SIGMA">      0.20000000</i>
  <i type="logical" name="LWAVE"> F  </i>
  <i type="logical" name="LCHARG"> F  </i>
  <i type="int" name="KPAR">     1</i>
  <i type="int" name="NCORE">    16</i>
  <i type="string" name="GGA"> PE</i>
  <i type="int" name="ISPIN">     2</i>
 </incar>
 <structure name="primitive_cell" >
  <crystal>
   <varray name="basis" >
    <v>      23.47297483       0.00000000       0.00000000 </v>
    <v>       0.00000000      24.25032400       0.00000000 </v>
    <v>       0.00000000       0.00000000      25.05694492 </v>
   </varray>
   <i name="volume">  14263.09571788 </i>
   <varray name="rec_basis" >
    <v>       0.04260218       0.00000000       0.00000000 </v>
    <v>       0.00000000       0.04123656       0.00000000 </v>
    <v>       0.00000000       0.00000000       0.03990910 </v>
   </varray>
  </crystal>
  <varray name="positions" >
   <v>       0.39311101       0.45928404       0.40761353 </v>
   <v>       0.45242157       0.39887381       0.47611605 </v>
   <v>       0.55205805       0.43116301       0.51273242 </v>
   <v>       0.50459204       0.47232142       0.41343590 </v>
   <v>       0.43213879       0.55888267       0.42600850 </v>
   <v>       0.39191666       0.48634525       0.51042755 </v>
   <v>       0.46296194       0.42774973       0.57874219 </v>
   <v>       0.49841929       0.63403801       0.47301289 </v>
   <v>       0.64002764       0.48841123       0.54607146 </v>
   <v>       0.43061054       0.52905391       0.60424808 </v>
   <v>       0.60750647       0.49544923       0.44440000 </v>
   <v>       0.49347574       0.52344683       0.50516310 </v>
   <v>       0.40493758       0.59776747       0.52327329 </v>
   <v>       0.54306014       0.50720201       0.59630243 </v>
   <v>       0.58649100       0.57693628       0.51123029 </v>
   <v>       0.50306925       0.61097255       0.57800477 </v>
  </varray>
 </structure>
 <varray name="primitive_index" >
  <v type="int" >        1 </v>
  <v type="int" >        2 </v>
  <v type="int" >        3 </v>
  <v type="int" >        4 </v>
  <v type="int" >        5 </v>
  <v type="int" >        6 </v>
  <v type="int" >        7 </v>
  <v type="int" >        8 </v>
  <v type="int" >        9 </v>
  <v type="int" >       10 </v>
  <v type="int" >       11 </v>
  <v type="int" >       12 </v>
  <v type="int" >       13 </v>
  <v type="int" >       14 </v>
  <v type="int" >       15 </v>
  <v type="int" >       16 </v>
 </varray>
 <kpoints>
  <generation param="Gamma">
   <v type="int" name="divisions">       1        1        1 </v>
   <v name="usershift">      0.00000000       0.00000000       0.00000000 </v>
   <v name="genvec1">      1.00000000       0.00000000       0.00000000 </v>
   <v name="genvec2">      0.00000000       1.00000000       0.00000000 </v>
   <v name="genvec3">      0.00000000       0.00000000       1.00000000 </v>
   <v name="shift">      0.00000000       0.00000000       0.00000000 </v>
  </generation>
  <varray name="kpointlist" >
   <v>       0.00000000       0.00000000       0.00000000 </v>
  </varray>
  <varray name="weights" >
   <v>       1.00000000 </v>
  </varray>
 </kpoints>
 <parameters>
  <separator name="general" >
   <i type="string" name="SYSTEM">unknown system</i>
   <i type="logical" name="LCOMPAT"> F  </i>
  </separator>
  <separator name="electronic" >
   <i type="string" name="PREC">normal</i>
   <i name="ENMAX">    400.00000000</i>
   <i name="ENAUG">    416.23000000</i>
   <i name="EDIFF">      0.00010000</i>
   <i type="int" name="IALGO">    38</i>
   <i type="int" name="IWAVPR">    11</i>
   <i type="int" name="NBANDS">   104</i>
   <i type="int" name="NBANDSLOW">    -1</i>
   <i type="int" name="NBANDSHIGH">    -1</i>
   <i name="NELECT">    160.00000000</i>
   <i type="int" name="TURBO">     0</i>
   <i type="int" name="IRESTART">     0</i>
   <i type="int" name="NREBOOT">     0</i>
   <i type="int" name="NMIN">     0</i>
   <i name="EREF">      0.00000000</i>
   <separator name="electronic smearing" >
    <i type="int" name="ISMEAR">     1</i>
    <i name="SIGMA">      0.20000000</i>
    <i name="KSPACING">      0.50000000</i>
    <i type="logical" name="KGAMMA"> T  </i>
    <i type="logical" name="KBLOWUP"> T  </i>
   </separator>
   <separator name="electronic projectors" >
    <i type="logical" name="LREAL"> F  </i>
    <v name="ROPT">      0.00000000</v>
    <i type="int" name="LMAXPAW">  -100</i>
    <i type="int" name="LMAXMIX">     2</i>
    <i type="logical" name="NLSPLINE"> F  </i>
   </separator>
   <separator name="electronic startup" >
    <i type="int" name="ISTART">     0</i>
    <i type="int" name="ICHARG">     2</i>
    <i type="int" name="INIWAV">     1</i>
   </separator>
   <separator name="electronic spin" >
    <i type="int" name="ISPIN">     2</i>
    <i type="logical" name="LNONCOLLINEAR"> F  </i>
    <v name="MAGMOM">      1.00000000      1.00000000      1.00000000      1.00000000      1.00000000      1.00000000      1.00000000      1.00000000      1.00000000      1.00000000      1.00000000      1.00000000      1.00000000      1.00000000      1.00000000      1.00000000</v>
    <i name="NUPDOWN">     -1.00000000</i>
    <i type="logical" name="LSORBIT"> F  </i>
    <v name="SAXIS">      0.00000000      0.00000000      1.00000000</v>
    <i type="logical" name="LSPIRAL"> F  </i>
    <v name="QSPIRAL">      0.00000000      0.00000000      0.00000000</v>
    <i type="logical" name="LZEROZ"> F  </i>
   </separator>
   <separator name="electronic exchange-correlation" >
    <i type="logical" name="LASPH"> F  </i>
    <i type="logical" name="LMETAGGA"> F  </i>
   </separator>
   <separator name="electronic convergence" >
    <i type="int" name="NELM">    60</i>
    <i type="int" name="NELMDL">     0</i>
    <i type="int" name="NELMIN">     2</i>
    <i name="ENINI">    400.00000000</i>
    <separator name="electronic convergence detail" >
     <i type="logical" name="LDIAG"> T  </i>
     <i type="logical" name="LSUBROT"> F  </i>
     <i name="WEIMIN">      0.00100000</i>
     <i name="EBREAK">      0.00000024</i>
     <i name="DEPER">      0.30000000</i>
     <i type="int" name="NRMM">     4</i>
     <i name="TIME">      0.40000000</i>
    </separator>
   </separator>
   <separator name="electronic mixer" >
    <i name="AMIX">      0.40000000</i>
    <i name="BMIX">      1.00000000</i>
    <i name="AMIN">      0.10000000</i>
    <i name="AMIX_MAG">      1.60000000</i>
    <i name="BMIX_MAG">      1.00000000</i>
    <separator name="electronic mixer details" >
     <i type="int" name="IMIX">     4</i>
     <i type="logical" name="MIXFIRST"> F  </i>
     <i type="int" name="MAXMIX">   -45</i>
     <i name="WC">    100.00000000</i>
     <i type="int" name="INIMIX">     1</i>
     <i type="int" name="MIXPRE">     1</i>
     <i type="int" name="MREMOVE">     5</i>
    </separator>
   </separator>
   <separator name="electronic dipolcorrection" >
    <i type="logical" name="LDIPOL"> F  </i>
    <i type="logical" name="LMONO"> F  </i>
    <i type="int" name="IDIPOL">     0</i>
    <i name="EPSILON">      1.00000000</i>
    <v name="DIPOL">   -100.00000000   -100.00000000   -100.00000000</v>
    <i name="EFIELD">      0.00000000</i>
   </separator>
  </separator>
  <separator name="grids" >
   <i type="int" name="NGX">   120</i>
   <i type="int" name="NGY">   120</i>
   <i type="int" name="NGZ">   126</i>
   <i type="int" name="NGXF">   240</i>
   <i type="int" name="NGYF">   240</i>
   <i type="int" name="NGZF">   252</i>
   <i type="logical" name="ADDGRID"> F  </i>
  </separator>
  <separator name="ionic" >
   <i type="int" name="NSW">  1000</i>
   <i type="int" name="IBRION">     2</i>
   <i type="int" name="MDALGO">     0</i>
   <i type="int" name="ISIF">     0</i>
   <i name="PSTRESS">      0.00000000</i>
   <i name="EDIFFG">      0.00100000</i>
   <i type="int" name="NFREE">     1</i>
   <i name="POTIM">      0.50000000</i>
   <i name="SMASS">     -3.00000000</i>
   <i name="SCALEE">      1.00000000</i>
  </separator>
  <separator name="ionic md" >
   <i name="TEBEG">      0.00010000</i>
   <i name="TEEND">      0.00010000</i>
   <i type="int" name="NBLOCK">     1</i>
   <i type="int" name="KBLOCK">  1000</i>
   <i type="int" name="NPACO">   256</i>
   <i name="APACO">     16.00000000</i>
  </separator>
  <separator name="symmetry" >
   <i type="int" name="ISYM">     0</i>
   <i name="SYMPREC">      0.00001000</i>
  </separator>
  <separator name="dos" >
   <i type="int" name="LORBIT">     0</i>
   <v name="RWIGS">     -1.00000000</v>
   <i type="int" name="NEDOS">   301</i>
   <i name="EMIN">     10.00000000</i>
   <i name="EMAX">    -10.00000000</i>
   <i name="EFERMI">      0.00000000</i>
  </separator>
  <separator name="writing" >
   <i type="int" name="NWRITE">     2</i>
   <i type="logical" name="LWAVE"> F  </i>
   <i type="logical" name="LDOWNSAMPLE"> F  </i>
   <i type="logical" name="LCHARG"> F  </i>
   <i type="logical" name="LPARD"> F  </i>
   <i type="logical" name="LVTOT"> F  </i>
   <i type="logical" name="LVHAR"> F  </i>
   <i type="logical" name="LELF"> F  </i>
   <i type="logical" name="LOPTICS"> F  </i>
   <v name="STM">      0.00000000      0.00000000      0.00000000      0.00000000      0.00000000      0.00000000      0.00000000</v>
  </separator>
  <separator name="performance" >
   <i type="int" name="NPAR">     1</i>
   <i type="int" name="NSIM">     4</i>
   <i type="int" name="NBLK">    -1</i>
   <i type="logical" name="LPLANE"> T  </i>
   <i type="logical" name="LSCALAPACK"> T  </i>
   <i type="logical" name="LSCAAWARE"> F  </i>
   <i type="logical" name="LSCALU"> F  </i>
   <i type="logical" name="LASYNC"> F  </i>
   <i type="logical" name="LORBITALREAL"> F  </i>
  </separator>
  <separator name="miscellaneous" >
   <i type="int" name="IDIOT">     3</i>
   <i type="int" name="PHON_NSTRUCT">    -1</i>
   <i type="logical" name="LMUSIC"> F  </i>
   <v name="POMASS">    106.42000000</v>
   <v name="DARWINR">      0.00000000</v>
   <v name="DARWINV">      1.00000000</v>
   <i type="logical" name="LCORR"> T  </i>
  </separator>
  <i type="logical" name="GGA_COMPAT"> T  </i>
  <i type="logical" name="LBERRY"> F  </i>
  <i type="int" name="ICORELEVEL">     0</i>
  <i type="logical" name="LDAU"> F  </i>
  <i type="int" name="I_CONSTRAINED_M">     0</i>
  <separator name="electronic exchange-correlation" >
   <i type="string" name="GGA">PE</i>
   <i type="int" name="VOSKOWN">     0</i>
   <i type="logical" name="LHFCALC"> F  </i>
   <i type="string" name="PRECFOCK"></i>
   <i type="logical" name="LSYMGRAD"> F  </i>
   <i type="logical" name="LHFONE"> F  </i>
   <i type="logical" name="LRHFCALC"> F  </i>
   <i type="logical" name="LTHOMAS"> F  </i>
   <i type="logical" name="LMODELHF"> F  </i>
   <i type="logical" name="LFOCKACE"> F  </i>
   <i name="ENCUT4O">     -1.00000000</i>
   <i type="int" name="EXXOEP">     0</i>
   <i type="int" name="FOURORBIT">     0</i>
   <i name="AEXX">      0.00000000</i>
   <i name="HFALPHA">      0.00000000</i>
   <i name="MCALPHA">      0.00000000</i>
   <i name="ALDAX">      1.00000000</i>
   <i name="AGGAX">      1.00000000</i>
   <i name="ALDAC">      1.00000000</i>
   <i name="AGGAC">      1.00000000</i>
   <i type="int" name="NKREDX">     1</i>
   <i type="int" name="NKREDY">     1</i>
   <i type="int" name="NKREDZ">     1</i>
   <i type="logical" name="SHIFTRED"> F  </i>
   <i type="logical" name="ODDONLY"> F  </i>
   <i type="logical" name="EVENONLY"> F  </i>
   <i type="int" name="LMAXFOCK">     0</i>
   <i type="int" name="NMAXFOCKAE">     0</i>
   <i type="logical" name="LFOCKAEDFT"> F  </i>
   <i name="HFSCREEN">      0.00000000</i>
   <i name="HFSCREENC">      0.00000000</i>
   <i type="int" name="NBANDSGWLOW">     0</i>
  </separator>
  <separator name="vdW DFT" >
   <i type="logical" name="LUSE_VDW"> F  </i>
   <i name="Zab_VDW">     -0.84910000</i>
   <i name="PARAM1">      0.12340000</i>
   <i name="PARAM2">      1.00000000</i>
   <i name="PARAM3">      0.00000000</i>
  </separator>
  <separator name="model GW" >
   <i type="int" name="MODEL_GW">     0</i>
   <i name="MODEL_EPS0">    534.86608942</i>
   <i name="MODEL_ALPHA">      1.00000000</i>
  </separator>
  <separator name="linear response parameters" >
   <i type="logical" name="LEPSILON"> F  </i>
   <i type="logical" name="LRPA"> F  </i>
   <i type="logical" name="LNABLA"> F  </i>
   <i type="logical" name="LVEL"> F  </i>
   <i type="int" name="KINTER">     0</i>
   <i name="CSHIFT">      0.10000000</i>
   <i name="OMEGAMAX">     -1.00000000</i>
   <i name="DEG_THRESHOLD">      0.00200000</i>
   <i name="RTIME">     -0.10000000</i>
   <i name="WPLASMAI">      0.00000000</i>
   <v name="DFIELD">      0.00000000      0.00000000      0.00000000</v>
   <v name="WPLASMA">      0.00000000      0.00000000      0.00000000      0.00000000      0.00000000      0.00000000      0.00000000      0.00000000      0.00000000</v>
  </separator>
  <separator name="orbital magnetization" >
   <i type="logical" name="NUCIND"> F  </i>
   <v name="MAGPOS">      0.00000000      0.00000000      0.00000000</v>
   <i type="logical" name="LNICSALL"> T  </i>
   <i type="logical" name="ORBITALMAG"> F  </i>
   <i type="logical" name="LMAGBLOCH"> F  </i>
   <i type="logical" name="LCHIMAG"> F  </i>
   <i type="logical" name="LGAUGE"> T  </i>
   <i type="int" name="MAGATOM">     0</i>
   <v name="MAGDIPOL">      0.00000000      0.00000000      0.00000000</v>
   <v name="AVECCONST">      0.00000000      0.00000000      0.00000000</v>
  </separator>
  <separator name="response functions" >
   <i type="logical" name="LFINITE_TEMPERATURE"> F  </i>
   <i type="logical" name="LADDER"> F  </i>
   <i type="logical" name="LRPAFORCE"> F  </i>
   <i type="logical" name="LFXC"> F  </i>
   <i type="logical" name="LHARTREE"> T  </i>
   <i type="int" name="IBSE">     0</i>
   <v type="int" name="KPOINT">    -1     0     0     0</v>
   <i type="logical" name="LTCTC"> F  </i>
   <i type="logical" name="LTCTE"> F  </i>
   <i type="logical" name="LTETE"> F  </i>
   <i type="logical" name="LTRIPLET"> F  </i>
   <i type="logical" name="LFXCEPS"> F  </i>
   <i type="logical" name="LFXHEG"> F  </i>
   <i type="int" name="NATURALO">     2</i>
   <i type="logical" name="LHOLEGF"> F  </i>
   <i type="logical" name="L2ORDER"> F  </i>
   <i type="logical" name="LDMP1"> F  </i>
   <i type="logical" name="LMP2LT"> F  </i>
   <i type="logical" name="LSMP2LT"> F  </i>
   <i type="logical" name="LGWLF"> F  </i>
   <i name="ENCUTGW">     -2.00000000</i>
   <i name="ENCUTGWSOFT">     -2.00000000</i>
   <i name="ENCUTLF">     -1.00000000</i>
   <i type="logical" name="LESF_SPLINES"> F  </i>
   <i type="int" name="LMAXMP2">    -1</i>
   <i name="SCISSOR">      0.00000000</i>
   <i type="int" name="NOMEGA">     0</i>
   <i type="int" name="NOMEGAR">     0</i>
   <i type="int" name="NBANDSGW">    -1</i>
   <i type="int" name="NBANDSO">    -1</i>
   <i type="int" name="NBANDSV">    -1</i>
   <i type="int" name="NELM">     1</i>
   <i type="int" name="NELMHF">     1</i>
   <i type="int" name="DIM">     3</i>
   <i type="int" name="IESPILON">     4</i>
   <i type="int" name="ANTIRES">     0</i>
   <i name="OMEGAMAX">    -30.00000000</i>
   <i name="OMEGAMIN">    -30.00000000</i>
   <i name="OMEGATL">   -200.00000000</i>
   <i type="int" name="OMEGAGRID">     0</i>
   <i name="CSHIFT">     -0.10000000</i>
   <i type="logical" name="LSELFENERGY"> F  </i>
   <i type="logical" name="LSPECTRAL"> F  </i>
   <i type="logical" name="LSPECTRALGW"> F  </i>
   <i type="logical" name="LSINGLES"> F  </i>
   <i type="logical" name="LFERMIGW"> F  </i>
   <i type="logical" name="ODDONLYGW"> F  </i>
   <i type="logical" name="EVENONLYGW"> F  </i>
   <i type="int" name="NKREDLFX">     1</i>
   <i type="int" name="NKREDLFY">     1</i>
   <i type="int" name="NKREDLFZ">     1</i>
   <i type="int" name="MAXMEM">  2800</i>
   <i type="int" name="TELESCOPE">     0</i>
   <i type="int" name="NTAUPAR">    -1</i>
   <i type="int" name="NOMEGAPAR">    -1</i>
   <i name="LAMBDA">      1.00000000</i>
  </separator>
  <separator name="External order field" >
   <i name="OFIELD_KAPPA">      0.00000000</i>
   <v name="OFIELD_K">      0.00000000      0.00000000      0.00000000</v>
   <i name="OFIELD_Q6_NEAR">      0.00000000</i>
   <i name="OFIELD_Q6_FAR">      0.00000000</i>
   <i name="OFIELD_A">      0.00000000</i>
  </separator>
 </parameters>
 <atominfo>
  <atoms>      16 </atoms>
  <types>       1 </types>
  <array name="atoms" >
   <dimension dim="1">ion</dimension>
   <field type="string">element</field>
   <field type="int">atomtype</field>
   <set>
    <rc><c>Pd</c><c>   1</c></rc>
    <rc><c>Pd</c><c>   1</c></rc>
    <rc><c>Pd</c><c>   1</c></rc>
    <rc><c>Pd</c><c>   1</c></rc>
    <rc><c>Pd</c><c>   1</c></rc>
    <rc><c>Pd</c><c>   1</c></rc>
    <rc><c>Pd</c><c>   1</c></rc>
    <rc><c>Pd</c><c>   1</c></rc>
    <rc><c>Pd</c><c>   1</c></rc>
    <rc><c>Pd</c><c>   1</c></rc>
    <rc><c>Pd</c><c>   1</c></rc>
    <rc><c>Pd</c><c>   1</c></rc>
    <rc><c>Pd</c><c>   1</c></rc>
    <rc><c>Pd</c><c>   1</c></rc>
    <rc><c>Pd</c><c>   1</c></rc>
    <rc><c>Pd</c><c>   1</c></rc>
   </set>
  </array>
  <array name="atomtypes" >
   <dimension dim="1">type</dimension>
   <field type="int">atomspertype</field>
   <field type="string">element</field>
   <field>mass</field>
   <field>valence</field>
   <field type="string">pseudopotential</field>
   <set>
    <rc><c>  16</c><c>Pd</c><c>    106.42000000</c><c>     10.00000000</c><c>  PAW_PBE Pd 04Jan2005                  </c></rc>
   </set>
  </array>
 </atominfo>
 <structure name="initialpos" >
  <crystal>
   <varray name="basis" >
    <v>      23.47297483       0.00000000       0.00000000 </v>
    <v>       0.00000000      24.25032400       0.00000000 </v>
    <v>       0.00000000       0.00000000      25.05694492 </v>
   </varray>
   <i name="volume">  14263.09571788 </i>
   <varray name="rec_basis" >
    <v>       0.04260218       0.00000000       0.00000000 </v>
    <v>       0.00000000       0.04123656       0.00000000 </v>
    <v>       0.00000000       0.00000000       0.03990910 </v>
   </varray>
  </crystal>
  <varray name="positions" >
   <v>       0.39311101       0.45928404       0.40761353 </v>
   <v>       0.45242157       0.39887381       0.47611605 </v>
   <v>       0.55205805       0.43116301       0.51273242 </v>
   <v>       0.50459204       0.47232142       0.41343590 </v>
   <v>       0.43213879       0.55888267       0.42600850 </v>
   <v>       0.39191666       0.48634525       0.51042755 </v>
   <v>       0.46296194       0.42774973       0.57874219 </v>
   <v>       0.49841929       0.63403801       0.47301289 </v>
   <v>       0.64002764       0.48841123       0.54607146 </v>
   <v>       0.43061054       0.52905391       0.60424808 </v>
   <v>       0.60750647       0.49544923       0.44440000 </v>
   <v>       0.49347574       0.52344683       0.50516310 </v>
   <v>       0.40493758       0.59776747       0.52327329 </v>
   <v>       0.54306014       0.50720201       0.59630243 </v>
   <v>       0.58649100       0.57693628       0.51123029 </v>
   <v>       0.50306925       0.61097255       0.57800477 </v>
  </varray>
 </structure>
 <calculation>
  <scstep>
   <time name="dav">   15.02   15.08</time>
   <time name="total">   18.17   18.25</time>
   <energy>
    <i name="alphaZ">     11.69792164 </i>
    <i name="ewald">  26568.53623940 </i>
    <i name="hartreedc"> -38880.21968928 </i>
    <i name="XCdc">   -480.55019610 </i>
    <i name="pawpsdc">  12906.36685261 </i>
    <i name="pawaedc"> -11910.91650437 </i>
    <i name="eentropy">      0.02470000 </i>
    <i name="bandstr">    242.23159393 </i>
    <i name="atom">  12955.90228127 </i>
    <i name="e_fr_energy">   1413.07319909 </i>
    <i name="e_wo_entrp">   1413.04849909 </i>
    <i name="e_0_energy">   1413.06496576 </i>
   </energy>
  </scstep>
  <scstep>
   <time name="dav">   26.71   26.91</time>
   <time name="total">   26.71   26.92</time>
   <energy>
    <i name="e_fr_energy">    738.45201090 </i>
    <i name="e_wo_entrp">    738.49385701 </i>
    <i name="e_0_energy">    738.46595960 </i>
   </energy>
  </scstep>
  <scstep>
   <time name="dav">   23.95   24.08</time>
   <time name="total">   23.95   24.08</time>
   <energy>
    <i name="e_fr_energy">    142.71774686 </i>
    <i name="e_wo_entrp">    142.69099117 </i>
    <i name="e_0_energy">    142.70882830 </i>
   </energy>
  </scstep>
  <scstep>
   <time name="dav">   19.75   19.84</time>
   <time name="total">   19.75   19.84</time>
   <energy>
    <i name="e_fr_energy">    -39.58691014 </i>
    <i name="e_wo_entrp">    -39.53721805 </i>
    <i name="e_0_energy">    -39.57034611 </i>
   </energy>
  </scstep>
  <scstep>
   <time name="dav">   19.76   19.87</time>
   <time name="total">   21.34   21.45</time>
   <energy>
    <i name="e_fr_energy">    -64.85729302 </i>
    <i name="e_wo_entrp">    -64.81855535 </i>
    <i name="e_0_energy">    -64.84438047 </i>
   </energy>
  </scstep>
  <scstep>
   <time name="dav">   16.43   16.51</time>
   <time name="total">   21.42   21.52</time>
   <energy>
    <i name="e_fr_energy">    -57.37366654 </i>
    <i name="e_wo_entrp">    -57.43129561 </i>
    <i name="e_0_energy">    -57.39287623 </i>
   </energy>
  </scstep>
  <scstep>
   <time name="dav">   16.81   16.90</time>
   <time name="total">   21.49   21.62</time>
   <energy>
    <i name="e_fr_energy">    -56.94348622 </i>
    <i name="e_wo_entrp">    -56.93768121 </i>
    <i name="e_0_energy">    -56.94155121 </i>
   </energy>
  </scstep>
  <scstep>
   <time name="dav">   17.19   17.29</time>
   <time name="total">   22.30   22.43</time>
   <energy>
    <i name="e_fr_energy">    -50.04729241 </i>
    <i name="e_wo_entrp">    -50.06701256 </i>
    <i name="e_0_energy">    -50.05386579 </i>
   </energy>
  </scstep>
  <scstep>
   <time name="dav">   16.80   16.89</time>
   <time name="total">   21.62   21.74</time>
   <energy>
    <i name="e_fr_energy">    -48.00391424 </i>
    <i name="e_wo_entrp">    -48.01588467 </i>
    <i name="e_0_energy">    -48.00790438 </i>
   </energy>
  </scstep>
  <scstep>
   <time name="dav">   17.28   17.35</time>
   <time name="total">   22.39   22.50</time>
   <energy>
    <i name="e_fr_energy">    -48.56841190 </i>
    <i name="e_wo_entrp">    -48.58510525 </i>
    <i name="e_0_energy">    -48.57397635 </i>
   </energy>
  </scstep>
  <scstep>
   <time name="dav">   17.30   17.40</time>
   <time name="total">   22.33   22.48</time>
   <energy>
    <i name="e_fr_energy">    -49.42077765 </i>
    <i name="e_wo_entrp">    -49.44889518 </i>
    <i name="e_0_energy">    -49.43015016 </i>
   </energy>
  </scstep>
  <scstep>
   <time name="dav">   16.83   16.88</time>
   <time name="total">   21.95   22.03</time>
   <energy>
    <i name="e_fr_energy">    -50.45632338 </i>
    <i name="e_wo_entrp">    -50.49116304 </i>
    <i name="e_0_energy">    -50.46793660 </i>
   </energy>
  </scstep>
  <scstep>
   <time name="dav">   16.81   16.88</time>
   <time name="total">   21.99   22.11</time>
   <energy>
    <i name="e_fr_energy">    -52.42398411 </i>
    <i name="e_wo_entrp">    -52.45394724 </i>
    <i name="e_0_energy">    -52.43397182 </i>
   </energy>
  </scstep>
  <scstep>
   <time name="dav">   15.91   15.97</time>
   <time name="total">   21.18   21.28</time>
   <energy>
    <i name="e_fr_energy">    -53.94693330 </i>
    <i name="e_wo_entrp">    -53.98040135 </i>
    <i name="e_0_energy">    -53.95808932 </i>
   </energy>
  </scstep>
  <scstep>
   <time name="dav">   16.83   16.90</time>
   <time name="total">   22.12   22.20</time>
   <energy>
    <i name="e_fr_energy">    -55.13344381 </i>
    <i name="e_wo_entrp">    -55.16821326 </i>
    <i name="e_0_energy">    -55.14503363 </i>
   </energy>
  </scstep>
  <scstep>
   <time name="dav">   15.35   15.39</time>
   <time name="total">   20.44   20.51</time>
   <energy>
    <i name="e_fr_energy">    -56.63967490 </i>
    <i name="e_wo_entrp">    -56.66806585 </i>
    <i name="e_0_energy">    -56.64913855 </i>
   </energy>
  </scstep>
  <scstep>
   <time name="dav">   16.70   16.83</time>
   <time name="total">   21.74   21.91</time>
   <energy>
    <i name="e_fr_energy">    -57.83689622 </i>
    <i name="e_wo_entrp">    -57.86251824 </i>
    <i name="e_0_energy">    -57.84543689 </i>
   </energy>
  </scstep>
  <scstep>
   <time name="dav">   16.64   16.73</time>
   <time name="total">   21.48   21.61</time>
   <energy>
    <i name="e_fr_energy">    -58.54601867 </i>
    <i name="e_wo_entrp">    -58.57119041 </i>
    <i name="e_0_energy">    -58.55440925 </i>
   </energy>
  </scstep>
  <scstep>
   <time name="dav">   16.66   16.76</time>
   <time name="total">   21.42   21.56</time>
   <energy>
    <i name="e_fr_energy">    -59.58145405 </i>
    <i name="e_wo_entrp">    -59.60968589 </i>
    <i name="e_0_energy">    -59.59086466 </i>
   </energy>
  </scstep>
  <scstep>
   <time name="dav">   15.05   15.10</time>
   <time name="total">   20.30   20.37</time>
   <energy>
    <i name="e_fr_energy">    -60.23502083 </i>
    <i name="e_wo_entrp">    -60.26132099 </i>
    <i name="e_0_energy">    -60.24378755 </i>
   </energy>
  </scstep>
  <scstep>
   <time name="dav">   15.69   15.74</time>
   <time name="total">   20.84   20.92</time>
   <energy>
    <i name="e_fr_energy">    -60.84873958 </i>
    <i name="e_wo_entrp">    -60.87497761 </i>
    <i name="e_0_energy">    -60.85748559 </i>
   </energy>
  </scstep>
  <scstep>
   <time name="dav">   17.27   17.36</time>
   <time name="total">   22.47   22.62</time>
   <energy>
    <i name="e_fr_energy">    -61.19759824 </i>
    <i name="e_wo_entrp">    -61.22775249 </i>
    <i name="e_0_energy">    -61.20764966 </i>
   </energy>
  </scstep>
  <scstep>
   <time name="dav">   15.91   16.01</time>
   <time name="total">   21.06   21.20</time>
   <energy>
    <i name="e_fr_energy">    -61.62738180 </i>
    <i name="e_wo_entrp">    -61.65607532 </i>
    <i name="e_0_energy">    -61.63694631 </i>
   </energy>
  </scstep>
  <scstep>
   <time name="dav">   17.87   17.93</time>
   <time name="total">   23.02   23.13</time>
   <energy>
    <i name="e_fr_energy">    -61.94270541 </i>
    <i name="e_wo_entrp">    -61.97165963 </i>
    <i name="e_0_energy">    -61.95235682 </i>
   </energy>
  </scstep>
  <scstep>
   <time name="dav">   16.41   16.52</time>
   <time name="total">   22.09   22.22</time>
   <energy>
    <i name="e_fr_energy">    -62.26601811 </i>
    <i name="e_wo_entrp">    -62.29370959 </i>
    <i name="e_0_energy">    -62.27524860 </i>
   </energy>
  </scstep>
  <scstep>
   <time name="dav">   17.96   18.04</time>
   <time name="total">   22.96   23.05</time>
   <energy>
    <i name="e_fr_energy">    -62.48330415 </i>
    <i name="e_wo_entrp">    -62.51097064 </i>
    <i name="e_0_energy">    -62.49252631 </i>
   </energy>
  </scstep>
  <scstep>
   <time name="dav">   18.29   18.36</time>
   <time name="total">   23.82   23.91</time>
   <energy>
    <i name="e_fr_energy">    -62.59812055 </i>
    <i name="e_wo_entrp">    -62.62656279 </i>
    <i name="e_0_energy">    -62.60760129 </i>
   </energy>
  </scstep>
  <scstep>
   <time name="dav">   16.88   16.99</time>
   <time name="total">   22.38   22.51</time>
   <energy>
    <i name="e_fr_energy">    -62.68901627 </i>
    <i name="e_wo_entrp">    -62.71731361 </i>
    <i name="e_0_energy">    -62.69844872 </i>
   </energy>
  </scstep>
  <scstep>
   <time name="dav">   15.06   15.16</time>
   <time name="total">   20.42   20.57</time>
   <energy>
    <i name="e_fr_energy">    -62.72746554 </i>
    <i name="e_wo_entrp">    -62.75613613 </i>
    <i name="e_0_energy">    -62.73702240 </i>
   </energy>
  </scstep>
  <scstep>
   <time name="dav">   15.23   15.32</time>
   <time name="total">   20.64   20.76</time>
   <energy>
    <i name="e_fr_energy">    -62.76023944 </i>
    <i name="e_wo_entrp">    -62.78878488 </i>
    <i name="e_0_energy">    -62.76975459 </i>
   </energy>
  </scstep>
  <scstep>
   <time name="dav">   13.42   13.51</time>
   <time name="total">   18.96   19.07</time>
   <energy>
    <i name="e_fr_energy">    -62.77743936 </i>
    <i name="e_wo_entrp">    -62.80604508 </i>
    <i name="e_0_energy">    -62.78697460 </i>
   </energy>
  </scstep>
  <scstep>
   <time name="dav">   13.22   13.27</time>
   <time name="total">   18.70   18.78</time>
   <energy>
    <i name="e_fr_energy">    -62.78541254 </i>
    <i name="e_wo_entrp">    -62.81392377 </i>
    <i name="e_0_energy">    -62.79491628 </i>
   </energy>
  </scstep>
  <scstep>
   <time name="dav">   13.85   13.93</time>
   <time name="total">   19.29   19.41</time>
   <energy>
    <i name="e_fr_energy">    -62.79067150 </i>
    <i name="e_wo_entrp">    -62.81915144 </i>
    <i name="e_0_energy">    -62.80016481 </i>
   </energy>
  </scstep>
  <scstep>
   <time name="dav">   12.40   12.48</time>
   <time name="total">   17.80   17.90</time>
   <energy>
    <i name="e_fr_energy">    -62.79316918 </i>
    <i name="e_wo_entrp">    -62.82171425 </i>
    <i name="e_0_energy">    -62.80268420 </i>
   </energy>
  </scstep>
  <scstep>
   <time name="dav">   13.11   13.17</time>
   <time name="total">   18.55   18.64</time>
   <energy>
    <i name="e_fr_energy">    -62.79501392 </i>
    <i name="e_wo_entrp">    -62.82357197 </i>
    <i name="e_0_energy">    -62.80453327 </i>
   </energy>
  </scstep>
  <scstep>
   <time name="dav">   12.76   12.84</time>
   <time name="total">   18.12   18.25</time>
   <energy>
    <i name="e_fr_energy">    -62.79653545 </i>
    <i name="e_wo_entrp">    -62.82508925 </i>
    <i name="e_0_energy">    -62.80605338 </i>
   </energy>
  </scstep>
  <scstep>
   <time name="dav">   13.16   13.26</time>
   <time name="total">   19.07   19.19</time>
   <energy>
    <i name="e_fr_energy">    -62.79751766 </i>
    <i name="e_wo_entrp">    -62.82605710 </i>
    <i name="e_0_energy">    -62.80703081 </i>
   </energy>
  </scstep>
  <scstep>
   <time name="dav">   12.05   12.15</time>
   <time name="total">   17.48   17.60</time>
   <energy>
    <i name="e_fr_energy">    -62.79842971 </i>
    <i name="e_wo_entrp">    -62.82696208 </i>
    <i name="e_0_energy">    -62.80794050 </i>
   </energy>
  </scstep>
  <scstep>
   <time name="dav">   12.54   12.61</time>
   <time name="total">   17.91   18.01</time>
   <energy>
    <i name="e_fr_energy">    -62.79917651 </i>
    <i name="e_wo_entrp">    -62.82771899 </i>
    <i name="e_0_energy">    -62.80869067 </i>
   </energy>
  </scstep>
  <scstep>
   <time name="dav">   12.51   12.56</time>
   <time name="total">   18.09   18.19</time>
   <energy>
    <i name="e_fr_energy">    -62.79952989 </i>
    <i name="e_wo_entrp">    -62.82807197 </i>
    <i name="e_0_energy">    -62.80904392 </i>
   </energy>
  </scstep>
  <scstep>
   <time name="dav">   11.02   11.05</time>
   <time name="total">   16.87   16.98</time>
   <energy>
    <i name="e_fr_energy">    -62.79980731 </i>
    <i name="e_wo_entrp">    -62.82835157 </i>
    <i name="e_0_energy">    -62.80932206 </i>
   </energy>
  </scstep>
  <scstep>
   <time name="dav">   12.21   12.27</time>
   <time name="total">   17.76   17.84</time>
   <energy>
    <i name="e_fr_energy">    -62.79991746 </i>
    <i name="e_wo_entrp">    -62.82846330 </i>
    <i name="e_0_energy">    -62.80943274 </i>
   </energy>
  </scstep>
  <scstep>
   <time name="dav">   11.82   11.87</time>
   <time name="total">   15.23   15.32</time>
   <energy>
    <i name="alphaZ">     11.69792164 </i>
    <i name="ewald">  26568.53623940 </i>
    <i name="hartreedc"> -39111.77031560 </i>
    <i name="XCdc">   -480.91860924 </i>
    <i name="pawpsdc">  14652.82266234 </i>
    <i name="pawaedc"> -13675.93759083 </i>
    <i name="eentropy">      0.02854543 </i>
    <i name="bandstr">   -983.16112163 </i>
    <i name="atom">  12955.90228127 </i>
    <i name="e_fr_energy">    -62.79998723 </i>
    <i name="e_wo_entrp">    -62.82853266 </i>
    <i name="e_0_energy">    -62.80950237 </i>
   </energy>
  </scstep>
  <structure>
   <crystal>
    <varray name="basis" >
     <v>      23.47297483       0.00000000       0.00000000 </v>
     <v>       0.00000000      24.25032400       0.00000000 </v>
     <v>       0.00000000       0.00000000      25.05694492 </v>
    </varray>
    <i name="volume">  14263.09571788 </i>
    <varray name="rec_basis" >
     <v>       0.04260218       0.00000000       0.00000000 </v>
     <v>       0.00000000       0.04123656       0.00000000 </v>
     <v>       0.00000000       0.00000000       0.03990910 </v>
    </varray>
   </crystal>
   <varray name="positions" >
    <v>       0.39311101       0.45928404       0.40761353 </v>
    <v>       0.45242157       0.39887381       0.47611605 </v>
    <v>       0.55205805       0.43116301       0.51273242 </v>
    <v>       0.50459204       0.47232142       0.41343590 </v>
    <v>       0.43213879       0.55888267       0.42600850 </v>
    <v>       0.39191666       0.48634525       0.51042755 </v>
    <v>       0.46296194       0.42774973       0.57874219 </v>
    <v>       0.49841929       0.63403801       0.47301289 </v>
    <v>       0.64002764       0.48841123       0.54607146 </v>
    <v>       0.43061054       0.52905391       0.60424808 </v>
    <v>       0.60750647       0.49544923       0.44440000 </v>
    <v>       0.49347574       0.52344683       0.50516310 </v>
    <v>       0.40493758       0.59776747       0.52327329 </v>
    <v>       0.54306014       0.50720201       0.59630243 </v>
    <v>       0.58649100       0.57693628       0.51123029 </v>
    <v>       0.50306925       0.61097255       0.57800477 </v>
   </varray>
  </structure>
  <varray name="forces" >
   <v>      -0.00765985       0.01144282       0.00298337 </v>
   <v>       0.01237061       0.01528359       0.02911605 </v>
   <v>      -0.01621512       0.00845543      -0.01425098 </v>
   <v>      -0.00260332       0.01926417      -0.01738246 </v>
   <v>       0.01136158      -0.01082737       0.01247639 </v>
   <v>      -0.00433018       0.02480136       0.00899245 </v>
   <v>       0.01165773      -0.01287773      -0.02654381 </v>
   <v>       0.01239714      -0.00729019      -0.00634358 </v>
   <v>       0.00444534      -0.00227275      -0.00576685 </v>
   <v>       0.00502777      -0.02183768      -0.00614459 </v>
   <v>       0.00144556       0.00884541       0.01900183 </v>
   <v>       0.01555780      -0.00436650       0.02942123 </v>
   <v>      -0.03593824      -0.03016246      -0.00537486 </v>
   <v>      -0.03295653       0.02676909       0.02139591 </v>
   <v>       0.01725367      -0.03275762      -0.02450209 </v>
   <v>       0.00818604       0.00753044      -0.01707801 </v>
  </varray>
  <energy>
   <i name="e_fr_energy">    -62.79998723 </i>
   <i name="e_wo_entrp">    -62.82853266 </i>
   <i name="e_0_energy">    -62.80950237 </i>
  </energy>
  <time name="totalsc">  904.62  909.62</time>
 </calculation>
 <calculation>
  <scstep>
   <time name="dav">   16.68   16.78</time>
   <time name="total">   21.77   21.91</time>
   <energy>
    <i name="alphaZ">     11.69792164 </i>
    <i name="ewald">  26572.98526546 </i>
    <i name="hartreedc"> -39116.16859680 </i>
    <i name="XCdc">   -480.91023674 </i>
    <i name="pawpsdc">  14652.82248447 </i>
    <i name="pawaedc"> -13675.93748338 </i>
    <i name="eentropy">      0.02836067 </i>
    <i name="bandstr">   -983.22035805 </i>
    <i name="atom">  12955.90228127 </i>
    <i name="e_fr_energy">    -62.80036146 </i>
    <i name="e_wo_entrp">    -62.82872214 </i>
    <i name="e_0_energy">    -62.80981502 </i>
   </energy>
  </scstep>
  <scstep>
   <time name="dav">   16.92   17.04</time>
   <time name="total">   22.02   22.15</time>
   <energy>
    <i name="e_fr_energy">    -62.80066504 </i>
    <i name="e_wo_entrp">    -62.82902137 </i>
    <i name="e_0_energy">    -62.81011715 </i>
   </energy>
  </scstep>
  <scstep>
   <time name="dav">   13.67   13.72</time>
   <time name="total">   17.17   17.24</time>
   <energy>
    <i name="alphaZ">     11.69792164 </i>
    <i name="ewald">  26572.98526546 </i>
    <i name="hartreedc"> -39116.13725869 </i>
    <i name="XCdc">   -480.91228556 </i>
    <i name="pawpsdc">  14653.34360774 </i>
    <i name="pawaedc"> -13676.46818420 </i>
    <i name="eentropy">      0.02842985 </i>
    <i name="bandstr">   -983.24044496 </i>
    <i name="atom">  12955.90228127 </i>
    <i name="e_fr_energy">    -62.80066746 </i>
    <i name="e_wo_entrp">    -62.82909731 </i>
    <i name="e_0_energy">    -62.81014407 </i>
   </energy>
  </scstep>
  <structure>
   <crystal>
    <varray name="basis" >
     <v>      23.47297483       0.00000000       0.00000000 </v>
     <v>       0.00000000      24.25032400       0.00000000 </v>
     <v>       0.00000000       0.00000000      25.05694492 </v>
    </varray>
    <i name="volume">  14263.09571788 </i>
    <varray name="rec_basis" >
     <v>       0.04260218       0.00000000       0.00000000 </v>
     <v>       0.00000000       0.04123656       0.00000000 </v>
     <v>       0.00000000       0.00000000       0.03990910 </v>
    </varray>
   </crystal>
   <varray name="positions" >
    <v>       0.39309526       0.45930681       0.40761927 </v>
    <v>       0.45244699       0.39890421       0.47617211 </v>
    <v>       0.55202473       0.43117983       0.51270498 </v>
    <v>       0.50458669       0.47235974       0.41340243 </v>
    <v>       0.43216214       0.55886113       0.42603252 </v>
    <v>       0.39190777       0.48639459       0.51044486 </v>
    <v>       0.46298590       0.42772411       0.57869108 </v>
    <v>       0.49844477       0.63402351       0.47300068 </v>
    <v>       0.64003677       0.48840671       0.54606036 </v>
    <v>       0.43062088       0.52901047       0.60423625 </v>
    <v>       0.60750944       0.49546683       0.44443658 </v>
    <v>       0.49350771       0.52343815       0.50521975 </v>
    <v>       0.40486372       0.59770746       0.52326295 </v>
    <v>       0.54299241       0.50725526       0.59634362 </v>
    <v>       0.58652646       0.57687112       0.51118312 </v>
    <v>       0.50308607       0.61098753       0.57797189 </v>
   </varray>
  </structure>
  <varray name="forces" >
   <v>      -0.00294855       0.00298491       0.00635806 </v>
   <v>       0.00291673       0.01321763       0.00834006 </v>
   <v>       0.00051786       0.01110294      -0.00511250 </v>
   <v>       0.00048183       0.01177292      -0.00749481 </v>
   <v>       0.00946177      -0.00344530       0.00374340 </v>
   <v>      -0.00474199       0.00640461       0.00150763 </v>
   <v>       0.00857866      -0.00821194      -0.01128268 </v>
   <v>       0.00821833      -0.00777105      -0.00422579 </v>
   <v>      -0.00873366      -0.00625518       0.00133040 </v>
   <v>      -0.00119242      -0.01309916       0.00507011 </v>
   <v>       0.00143389      -0.00203044       0.00430010 </v>
   <v>       0.00237958      -0.00047346       0.00932883 </v>
   <v>      -0.02304008      -0.00884849      -0.00228263 </v>
   <v>      -0.00625137       0.00892064       0.01410498 </v>
   <v>       0.00809919      -0.01157810      -0.01221420 </v>
   <v>       0.00482022       0.00730948      -0.01147098 </v>
  </varray>
  <energy>
   <i name="e_fr_energy">    -62.80066746 </i>
   <i name="e_wo_entrp">    -62.82909731 </i>
   <i name="e_0_energy">    -62.81014407 </i>
  </energy>
  <time name="totalsc">   76.50   77.02</time>
 </calculation>
 <calculation>
  <scstep>
   <time name="dav">   16.37   16.46</time>
   <time name="total">   20.92   21.12</time>
   <energy>
    <i name="alphaZ">     11.69792164 </i>
    <i name="ewald">  26576.02154665 </i>
    <i name="hartreedc"> -39119.13464537 </i>
    <i name="XCdc">   -480.90657153 </i>
    <i name="pawpsdc">  14653.46951749 </i>
    <i name="pawaedc"> -13676.59571827 </i>
    <i name="eentropy">      0.02817414 </i>
    <i name="bandstr">   -983.28330550 </i>
    <i name="atom">  12955.90228127 </i>
    <i name="e_fr_energy">    -62.80079950 </i>
    <i name="e_wo_entrp">    -62.82897364 </i>
    <i name="e_0_energy">    -62.81019088 </i>
   </energy>
  </scstep>
  <scstep>
   <time name="dav">   17.31   17.44</time>
   <time name="total">   22.04   22.21</time>
   <energy>
    <i name="e_fr_energy">    -62.80101023 </i>
    <i name="e_wo_entrp">    -62.82985714 </i>
    <i name="e_0_energy">    -62.81062587 </i>
   </energy>
  </scstep>
  <scstep>
   <time name="dav">   14.88   14.97</time>
   <time name="total">   19.81   19.95</time>
   <energy>
    <i name="e_fr_energy">    -62.80081594 </i>
    <i name="e_wo_entrp">    -62.82881816 </i>
    <i name="e_0_energy">    -62.81015002 </i>
   </energy>
  </scstep>
  <scstep>
   <time name="dav">   11.94   12.05</time>
   <time name="total">   15.25   15.39</time>
   <energy>
    <i name="alphaZ">     11.69792164 </i>
    <i name="ewald">  26576.02154665 </i>
    <i name="hartreedc"> -39119.10287972 </i>
    <i name="XCdc">   -480.90798966 </i>
    <i name="pawpsdc">  14654.17048868 </i>
    <i name="pawaedc"> -13677.30710966 </i>
    <i name="eentropy">      0.02832928 </i>
    <i name="bandstr">   -983.30338075 </i>
    <i name="atom">  12955.90228127 </i>
    <i name="e_fr_energy">    -62.80079228 </i>
    <i name="e_wo_entrp">    -62.82912156 </i>
    <i name="e_0_energy">    -62.81023537 </i>
   </energy>
  </scstep>
  <structure>
   <crystal>
    <varray name="basis" >
     <v>      23.47297483       0.00000000       0.00000000 </v>
     <v>       0.00000000      24.25032400       0.00000000 </v>
     <v>       0.00000000       0.00000000      25.05694492 </v>
    </varray>
    <i name="volume">  14263.09571788 </i>
    <varray name="rec_basis" >
     <v>       0.04260218       0.00000000       0.00000000 </v>
     <v>       0.00000000       0.04123656       0.00000000 </v>
     <v>       0.00000000       0.00000000       0.03990910 </v>
    </varray>
   </crystal>
   <varray name="positions" >
    <v>       0.39308452       0.45932234       0.40762319 </v>
    <v>       0.45246434       0.39892496       0.47621036 </v>
    <v>       0.55200199       0.43119131       0.51268626 </v>
    <v>       0.50458304       0.47238589       0.41337960 </v>
    <v>       0.43217808       0.55884643       0.42604891 </v>
    <v>       0.39190169       0.48642826       0.51045667 </v>
    <v>       0.46300225       0.42770663       0.57865621 </v>
    <v>       0.49846215       0.63401362       0.47299234 </v>
    <v>       0.64004301       0.48840362       0.54605279 </v>
    <v>       0.43062793       0.52898082       0.60422818 </v>
    <v>       0.60751147       0.49547884       0.44446154 </v>
    <v>       0.49352953       0.52343222       0.50525840 </v>
    <v>       0.40481332       0.59766652       0.52325588 </v>
    <v>       0.54294619       0.50729160       0.59637173 </v>
    <v>       0.58655066       0.57682665       0.51115093 </v>
    <v>       0.50309755       0.61099775       0.57794945 </v>
   </varray>
  </structure>
  <varray name="forces" >
   <v>      -0.00329528       0.00589659       0.00958524 </v>
   <v>      -0.00220857       0.01512810       0.00351989 </v>
   <v>       0.00650205       0.01072230      -0.00584524 </v>
   <v>      -0.00112828       0.01675558      -0.01013793 </v>
   <v>       0.01455460      -0.00627244       0.01297556 </v>
   <v>      -0.00451315       0.00767475      -0.00104019 </v>
   <v>       0.00658164      -0.01241882      -0.00625051 </v>
   <v>       0.00505354      -0.01466183      -0.00209555 </v>
   <v>      -0.00589099      -0.00868150       0.00729229 </v>
   <v>      -0.00500323      -0.01037057       0.00527765 </v>
   <v>       0.00264896      -0.00320191      -0.00334435 </v>
   <v>      -0.00492227       0.00089326       0.00454691 </v>
   <v>      -0.01765379      -0.01361283      -0.00584831 </v>
   <v>      -0.00034768       0.00931588       0.02215106 </v>
   <v>       0.00695611      -0.00637927      -0.01406751 </v>
   <v>       0.00266634       0.00921270      -0.01671899 </v>
  </varray>
  <energy>
   <i name="e_fr_energy">    -62.80079228 </i>
   <i name="e_wo_entrp">    -62.82912156 </i>
   <i name="e_0_energy">    -62.81023537 </i>
  </energy>
  <time name="totalsc">   92.03   92.80</time>
  <eigenvalues>
   <array>
    <dimension dim="1">band</dimension>
    <dimension dim="2">kpoint</dimension>
    <dimension dim="3">spin</dimension>
    <field>eigene</field>
    <field>occ</field>
    <set>
     <set comment="spin 1">
      <set comment="kpoint 1">
       <r>   -9.1661    1.0000 </r>
       <r>   -8.6803    1.0000 </r>
       <r>   -8.6366    1.0000 </r>
       <r>   -8.5060    1.0000 </r>
       <r>   -8.4350    1.0000 </r>
       <r>   -8.3407    1.0000 </r>
       <r>   -8.0725    1.0000 </r>
       <r>   -8.0185    1.0000 </r>
       <r>   -7.9211    1.0000 </r>
       <r>   -7.8280    1.0000 </r>
       <r>   -7.7790    1.0000 </r>
       <r>   -7.7189    1.0000 </r>
       <r>   -7.6858    1.0000 </r>
       <r>   -7.5872    1.0000 </r>
       <r>   -7.5785    1.0000 </r>
       <r>   -7.5346    1.0000 </r>
       <r>   -7.5101    1.0000 </r>
       <r>   -7.4344    1.0000 </r>
       <r>   -7.3658    1.0000 </r>
       <r>   -7.3537    1.0000 </r>
       <r>   -7.2781    1.0000 </r>
       <r>   -7.2733    1.0000 </r>
       <r>   -7.2279    1.0000 </r>
       <r>   -7.1950    1.0000 </r>
       <r>   -7.1127    1.0000 </r>
       <r>   -7.0306    1.0000 </r>
       <r>   -6.9258    1.0000 </r>
       <r>   -6.9096    1.0000 </r>
       <r>   -6.7977    1.0000 </r>
       <r>   -6.7603    1.0000 </r>
       <r>   -6.7181    1.0000 </r>
       <r>   -6.6664    1.0000 </r>
       <r>   -6.5976    1.0000 </r>
       <r>   -6.5589    1.0000 </r>
       <r>   -6.5385    1.0000 </r>
       <r>   -6.4270    1.0000 </r>
       <r>   -6.3251    1.0000 </r>
       <r>   -6.2214    1.0000 </r>
       <r>   -6.1166    1.0000 </r>
       <r>   -6.0435    1.0000 </r>
       <r>   -5.9945    1.0000 </r>
       <r>   -5.9797    1.0000 </r>
       <r>   -5.9250    1.0000 </r>
       <r>   -5.8644    1.0000 </r>
       <r>   -5.7443    1.0000 </r>
       <r>   -5.6778    1.0000 </r>
       <r>   -5.6414    1.0000 </r>
       <r>   -5.6053    1.0000 </r>
       <r>   -5.5754    1.0000 </r>
       <r>   -5.5150    1.0000 </r>
       <r>   -5.4817    1.0000 </r>
       <r>   -5.4535    1.0000 </r>
       <r>   -5.4215    1.0000 </r>
       <r>   -5.4057    1.0000 </r>
       <r>   -5.3412    1.0000 </r>
       <r>   -5.3192    1.0000 </r>
       <r>   -5.2555    1.0000 </r>
       <r>   -5.2264    1.0000 </r>
       <r>   -5.1925    1.0000 </r>
       <r>   -5.1492    1.0000 </r>
       <r>   -5.1191    1.0000 </r>
       <r>   -5.0871    1.0000 </r>
       <r>   -5.0655    1.0000 </r>
       <r>   -5.0201    1.0000 </r>
       <r>   -5.0068    1.0000 </r>
       <r>   -5.0019    1.0000 </r>
       <r>   -4.9445    1.0000 </r>
       <r>   -4.8983    1.0002 </r>
       <r>   -4.8818    1.0003 </r>
       <r>   -4.8317    1.0009 </r>
       <r>   -4.7978    1.0019 </r>
       <r>   -4.7651    1.0036 </r>
       <r>   -4.7437    1.0053 </r>
       <r>   -4.7182    1.0082 </r>
       <r>   -4.7103    1.0093 </r>
       <r>   -4.6646    1.0175 </r>
       <r>   -4.6488    1.0210 </r>
       <r>   -4.6140    1.0289 </r>
       <r>   -4.5971    1.0323 </r>
       <r>   -4.5479    1.0342 </r>
       <r>   -4.5362    1.0316 </r>
       <r>   -4.4639    0.9667 </r>
       <r>   -4.4108    0.8440 </r>
       <r>   -4.2800    0.3347 </r>
       <r>   -3.6170   -0.0000 </r>
       <r>   -3.5211   -0.0000 </r>
       <r>   -3.2804   -0.0000 </r>
       <r>   -3.1042   -0.0000 </r>
       <r>   -2.9808   -0.0000 </r>
       <r>   -2.5932   -0.0000 </r>
       <r>   -1.6163   -0.0000 </r>
       <r>   -1.5065   -0.0000 </r>
       <r>   -1.3733   -0.0000 </r>
       <r>   -1.3535   -0.0000 </r>
       <r>   -1.2611   -0.0000 </r>
       <r>   -1.0436   -0.0000 </r>
       <r>   -0.9654   -0.0000 </r>
       <r>   -0.9439   -0.0000 </r>
       <r>   -0.7750   -0.0000 </r>
       <r>   -0.6025   -0.0000 </r>
       <r>   -0.0122   -0.0000 </r>
       <r>    0.1929   -0.0000 </r>
       <r>    0.3025   -0.0000 </r>
       <r>    0.3642   -0.0000 </r>
      </set>
     </set>
     <set comment="spin 2">
      <set comment="kpoint 1">
       <r>   -9.1110    1.0000 </r>
       <r>   -8.5249    1.0000 </r>
       <r>   -8.4443    1.0000 </r>
       <r>   -8.2412    1.0000 </r>
       <r>   -8.2132    1.0000 </r>
       <r>   -8.1169    1.0000 </r>
       <r>   -7.8905    1.0000 </r>
       <r>   -7.8454    1.0000 </r>
       <r>   -7.7291    1.0000 </r>
       <r>   -7.5805    1.0000 </r>
       <r>   -7.5257    1.0000 </r>
       <r>   -7.4781    1.0000 </r>
       <r>   -7.4617    1.0000 </r>
       <r>   -7.3467    1.0000 </r>
       <r>   -7.3313    1.0000 </r>
       <r>   -7.2966    1.0000 </r>
       <r>   -7.2534    1.0000 </r>
       <r>   -7.1717    1.0000 </r>
       <r>   -7.1429    1.0000 </r>
       <r>   -7.1100    1.0000 </r>
       <r>   -7.0732    1.0000 </r>
       <r>   -7.0024    1.0000 </r>
       <r>   -6.9745    1.0000 </r>
       <r>   -6.9259    1.0000 </r>
       <r>   -6.8420    1.0000 </r>
       <r>   -6.7686    1.0000 </r>
       <r>   -6.6833    1.0000 </r>
       <r>   -6.6426    1.0000 </r>
       <r>   -6.5737    1.0000 </r>
       <r>   -6.5237    1.0000 </r>
       <r>   -6.4837    1.0000 </r>
       <r>   -6.4006    1.0000 </r>
       <r>   -6.3320    1.0000 </r>
       <r>   -6.3063    1.0000 </r>
       <r>   -6.2802    1.0000 </r>
       <r>   -6.1624    1.0000 </r>
       <r>   -6.0742    1.0000 </r>
       <r>   -5.9495    1.0000 </r>
       <r>   -5.8500    1.0000 </r>
       <r>   -5.8032    1.0000 </r>
       <r>   -5.7747    1.0000 </r>
       <r>   -5.7419    1.0000 </r>
       <r>   -5.6785    1.0000 </r>
       <r>   -5.5999    1.0000 </r>
       <r>   -5.4949    1.0000 </r>
       <r>   -5.4491    1.0000 </r>
       <r>   -5.4033    1.0000 </r>
       <r>   -5.3586    1.0000 </r>
       <r>   -5.3095    1.0000 </r>
       <r>   -5.2606    1.0000 </r>
       <r>   -5.2436    1.0000 </r>
       <r>   -5.1762    1.0000 </r>
       <r>   -5.1631    1.0000 </r>
       <r>   -5.1485    1.0000 </r>
       <r>   -5.1014    1.0000 </r>
       <r>   -5.0597    1.0000 </r>
       <r>   -5.0122    1.0000 </r>
       <r>   -4.9635    1.0000 </r>
       <r>   -4.9047    1.0001 </r>
       <r>   -4.8983    1.0002 </r>
       <r>   -4.8690    1.0004 </r>
       <r>   -4.8411    1.0007 </r>
       <r>   -4.8216    1.0011 </r>
       <r>   -4.7467    1.0051 </r>
       <r>   -4.7416    1.0055 </r>
       <r>   -4.7225    1.0077 </r>
       <r>   -4.7179    1.0083 </r>
       <r>   -4.6467    1.0215 </r>
       <r>   -4.6304    1.0253 </r>
       <r>   -4.5672    1.0354 </r>
       <r>   -4.5369    1.0319 </r>
       <r>   -4.4886    1.0003 </r>
       <r>   -4.4777    0.9872 </r>
       <r>   -4.4297    0.8957 </r>
       <r>   -4.4153    0.8572 </r>
       <r>   -4.3780    0.7346 </r>
       <r>   -4.3143    0.4765 </r>
       <r>   -4.2979    0.4074 </r>
       <r>   -4.2546    0.2393 </r>
       <r>   -4.1649    0.0166 </r>
       <r>   -4.1297   -0.0193 </r>
       <r>   -4.0718   -0.0354 </r>
       <r>   -4.0367   -0.0312 </r>
       <r>   -3.9513   -0.0128 </r>
       <r>   -3.4413   -0.0000 </r>
       <r>   -3.3730   -0.0000 </r>
       <r>   -3.1180   -0.0000 </r>
       <r>   -2.9534   -0.0000 </r>
       <r>   -2.8389   -0.0000 </r>
       <r>   -2.4363   -0.0000 </r>
       <r>   -1.4980   -0.0000 </r>
       <r>   -1.3950   -0.0000 </r>
       <r>   -1.2608   -0.0000 </r>
       <r>   -1.2525   -0.0000 </r>
       <r>   -1.1601   -0.0000 </r>
       <r>   -0.9189   -0.0000 </r>
       <r>   -0.8806   -0.0000 </r>
       <r>   -0.8581   -0.0000 </r>
       <r>   -0.6847   -0.0000 </r>
       <r>   -0.4682   -0.0000 </r>
       <r>    0.0763   -0.0000 </r>
       <r>    0.2208   -0.0000 </r>
       <r>    0.3807   -0.0000 </r>
       <r>    0.4096   -0.0000 </r>
      </set>
     </set>
    </set>
   </array>
  </eigenvalues>
  <separator name="orbital magnetization" >
   <v name="MAGDIPOLOUT">      0.00000000      0.00000000      0.00000000</v>
  </separator>
  <dos>
   <i name="efermi">     -4.31991016 </i>
   <total>
    <array>
     <dimension dim="1">gridpoints</dimension>
     <dimension dim="2">spin</dimension>
     <field>energy</field>
     <field>total</field>
     <field>integrated</field>
     <set>
      <set comment="spin 1">
       <r>   -11.1661     0.0000     0.0000 </r>
       <r>   -11.1208     0.0000     0.0000 </r>
       <r>   -11.0756     0.0000     0.0000 </r>
       <r>   -11.0303     0.0000     0.0000 </r>
       <r>   -10.9851     0.0000     0.0000 </r>
       <r>   -10.9398     0.0000     0.0000 </r>
       <r>   -10.8946     0.0000     0.0000 </r>
       <r>   -10.8493     0.0000     0.0000 </r>
       <r>   -10.8041    -0.0000    -0.0000 </r>
       <r>   -10.7588    -0.0000    -0.0000 </r>
       <r>   -10.7136    -0.0000    -0.0000 </r>
       <r>   -10.6683    -0.0000    -0.0000 </r>
       <r>   -10.6231    -0.0000    -0.0000 </r>
       <r>   -10.5778    -0.0000    -0.0000 </r>
       <r>   -10.5325    -0.0000    -0.0000 </r>
       <r>   -10.4873    -0.0000    -0.0000 </r>
       <r>   -10.4420    -0.0000    -0.0000 </r>
       <r>   -10.3968    -0.0000    -0.0000 </r>
       <r>   -10.3515    -0.0000    -0.0000 </r>
       <r>   -10.3063    -0.0000    -0.0000 </r>
       <r>   -10.2610    -0.0000    -0.0000 </r>
       <r>   -10.2158    -0.0000    -0.0000 </r>
       <r>   -10.1705    -0.0000    -0.0000 </r>
       <r>   -10.1253    -0.0000    -0.0000 </r>
       <r>   -10.0800    -0.0000    -0.0000 </r>
       <r>   -10.0348    -0.0000    -0.0000 </r>
       <r>    -9.9895    -0.0000    -0.0000 </r>
       <r>    -9.9443    -0.0000    -0.0000 </r>
       <r>    -9.8990    -0.0000    -0.0000 </r>
       <r>    -9.8538    -0.0001    -0.0000 </r>
       <r>    -9.8085    -0.0005    -0.0000 </r>
       <r>    -9.7633    -0.0016    -0.0001 </r>
       <r>    -9.7180    -0.0052    -0.0003 </r>
       <r>    -9.6728    -0.0146    -0.0010 </r>
       <r>    -9.6275    -0.0360    -0.0026 </r>
       <r>    -9.5823    -0.0769    -0.0061 </r>
       <r>    -9.5370    -0.1397    -0.0124 </r>
       <r>    -9.4917    -0.2064    -0.0218 </r>
       <r>    -9.4465    -0.2196    -0.0317 </r>
       <r>    -9.4012    -0.0745    -0.0351 </r>
       <r>    -9.3560     0.3533    -0.0191 </r>
       <r>    -9.3107     1.1334     0.0322 </r>
       <r>    -9.2655     2.1910     0.1314 </r>
       <r>    -9.2202     3.2694     0.2793 </r>
       <r>    -9.1750     4.0061     0.4606 </r>
       <r>    -9.1297     4.1041     0.6463 </r>
       <r>    -9.0845     3.4936     0.8044 </r>
       <r>    -9.0392     2.3751     0.9119 </r>
       <r>    -8.9940     1.1224     0.9627 </r>
       <r>    -8.9487     0.1332     0.9687 </r>
       <r>    -8.9035    -0.2735     0.9563 </r>
       <r>    -8.8582     0.1072     0.9612 </r>
       <r>    -8.8130     1.3415     1.0219 </r>
       <r>    -8.7677     3.3076     1.1716 </r>
       <r>    -8.7225     5.6715     1.4282 </r>
       <r>    -8.6772     7.9691     1.7888 </r>
       <r>    -8.6320     9.7952     2.2321 </r>
       <r>    -8.5867    10.9711     2.7285 </r>
       <r>    -8.5415    11.5526     3.2513 </r>
       <r>    -8.4962    11.6710     3.7795 </r>
       <r>    -8.4509    11.3588     4.2935 </r>
       <r>    -8.4057    10.5224     4.7696 </r>
       <r>    -8.3604     9.0916     5.1810 </r>
       <r>    -8.3152     7.2171     5.5076 </r>
       <r>    -8.2699     5.3436     5.7494 </r>
       <r>    -8.2247     4.0731     5.9338 </r>
       <r>    -8.1794     3.8801     6.1093 </r>
       <r>    -8.1342     4.8527     6.3289 </r>
       <r>    -8.0889     6.6373     6.6293 </r>
       <r>    -8.0437     8.6403     7.0203 </r>
       <r>    -7.9984    10.3611     7.4891 </r>
       <r>    -7.9532    11.6333     8.0156 </r>
       <r>    -7.9079    12.6219     8.5867 </r>
       <r>    -7.8627    13.6148     9.2028 </r>
       <r>    -7.8174    14.7971     9.8724 </r>
       <r>    -7.7722    16.1687    10.6041 </r>
       <r>    -7.7269    17.6145    11.4012 </r>
       <r>    -7.6817    19.0031    12.2611 </r>
       <r>    -7.6364    20.2147    13.1759 </r>
       <r>    -7.5912    21.1256    14.1319 </r>
       <r>    -7.5459    21.6454    15.1114 </r>
       <r>    -7.5006    21.8208    16.0988 </r>
       <r>    -7.4554    21.8852    17.0892 </r>
       <r>    -7.4101    22.1352    18.0908 </r>
       <r>    -7.3649    22.6783    19.1171 </r>
       <r>    -7.3196    23.2624    20.1698 </r>
       <r>    -7.2744    23.3650    21.2271 </r>
       <r>    -7.2291    22.5144    22.2459 </r>
       <r>    -7.1839    20.6178    23.1789 </r>
       <r>    -7.1386    18.0605    23.9962 </r>
       <r>    -7.0934    15.5185    24.6984 </r>
       <r>    -7.0481    13.6247    25.3150 </r>
       <r>    -7.0029    12.7105    25.8902 </r>
       <r>    -6.9576    12.7565    26.4674 </r>
       <r>    -6.9124    13.5257    27.0795 </r>
       <r>    -6.8671    14.7399    27.7465 </r>
       <r>    -6.8219    16.1750    28.4785 </r>
       <r>    -6.7766    17.6509    29.2772 </r>
       <r>    -6.7314    18.9792    30.1360 </r>
       <r>    -6.6861    19.9368    31.0382 </r>
       <r>    -6.6409    20.2888    31.9563 </r>
       <r>    -6.5956    19.8507    32.8546 </r>
       <r>    -6.5504    18.5713    33.6950 </r>
       <r>    -6.5051    16.6033    34.4464 </r>
       <r>    -6.4598    14.2976    35.0934 </r>
       <r>    -6.4146    12.0919    35.6405 </r>
       <r>    -6.3693    10.3480    36.1088 </r>
       <r>    -6.3241     9.2527    36.5275 </r>
       <r>    -6.2788     8.8487    36.9279 </r>
       <r>    -6.2336     9.1448    37.3418 </r>
       <r>    -6.1883    10.1780    37.8023 </r>
       <r>    -6.1431    11.9474    38.3430 </r>
       <r>    -6.0978    14.2575    38.9882 </r>
       <r>    -6.0526    16.6191    39.7402 </r>
       <r>    -6.0073    18.3441    40.5703 </r>
       <r>    -5.9621    18.8470    41.4232 </r>
       <r>    -5.9168    17.9931    42.2374 </r>
       <r>    -5.8716    16.2585    42.9732 </r>
       <r>    -5.8263    14.5603    43.6321 </r>
       <r>    -5.7811    13.8291    44.2578 </r>
       <r>    -5.7358    14.5736    44.9173 </r>
       <r>    -5.6906    16.6928    45.6727 </r>
       <r>    -5.6453    19.6172    46.5604 </r>
       <r>    -5.6001    22.6374    47.5848 </r>
       <r>    -5.5548    25.1873    48.7246 </r>
       <r>    -5.5096    26.9455    49.9440 </r>
       <r>    -5.4643    27.8019    51.2021 </r>
       <r>    -5.4190    27.8183    52.4609 </r>
       <r>    -5.3738    27.2407    53.6936 </r>
       <r>    -5.3285    26.4968    54.8926 </r>
       <r>    -5.2833    26.0930    56.0734 </r>
       <r>    -5.2380    26.4180    57.2689 </r>
       <r>    -5.1928    27.5572    58.5159 </r>
       <r>    -5.1475    29.2319    59.8387 </r>
       <r>    -5.1023    30.9063    61.2373 </r>
       <r>    -5.0570    32.0273    62.6866 </r>
       <r>    -5.0118    32.2999    64.1482 </r>
       <r>    -4.9665    31.8640    65.5902 </r>
       <r>    -4.9213    31.2564    67.0046 </r>
       <r>    -4.8760    31.1399    68.4137 </r>
       <r>    -4.8308    31.9297    69.8586 </r>
       <r>    -4.7855    33.5305    71.3760 </r>
       <r>    -4.7403    35.3406    72.9752 </r>
       <r>    -4.6950    36.5161    74.6276 </r>
       <r>    -4.6498    36.3348    76.2719 </r>
       <r>    -4.6045    34.4683    77.8316 </r>
       <r>    -4.5593    31.0568    79.2370 </r>
       <r>    -4.5140    26.5999    80.4407 </r>
       <r>    -4.4687    21.7522    81.4251 </r>
       <r>    -4.4235    17.1150    82.1995 </r>
       <r>    -4.3782    13.0874    82.7918 </r>
       <r>    -4.3330     9.8075    83.2356 </r>
       <r>    -4.2877     7.1962    83.5612 </r>
       <r>    -4.2425     5.0766    83.7910 </r>
       <r>    -4.1972     3.3063    83.9406 </r>
       <r>    -4.1520     1.8463    84.0241 </r>
       <r>    -4.1067     0.7328    84.0573 </r>
       <r>    -4.0615    -0.0049    84.0571 </r>
       <r>    -4.0162    -0.4071    84.0386 </r>
       <r>    -3.9710    -0.5771    84.0125 </r>
       <r>    -3.9257    -0.6159    83.9847 </r>
       <r>    -3.8805    -0.5479    83.9599 </r>
       <r>    -3.8352    -0.2854    83.9469 </r>
       <r>    -3.7900     0.3366    83.9622 </r>
       <r>    -3.7447     1.4564    84.0281 </r>
       <r>    -3.6995     3.0526    84.1662 </r>
       <r>    -3.6542     4.8617    84.3862 </r>
       <r>    -3.6090     6.4281    84.6771 </r>
       <r>    -3.5637     7.2961    85.0073 </r>
       <r>    -3.5185     7.2520    85.3354 </r>
       <r>    -3.4732     6.4596    85.6278 </r>
       <r>    -3.4279     5.3805    85.8712 </r>
       <r>    -3.3827     4.5232    86.0759 </r>
       <r>    -3.3374     4.1881    86.2654 </r>
       <r>    -3.2922     4.3803    86.4637 </r>
       <r>    -3.2469     4.9166    86.6862 </r>
       <r>    -3.2017     5.5984    86.9395 </r>
       <r>    -3.1564     6.2946    87.2243 </r>
       <r>    -3.1112     6.8978    87.5365 </r>
       <r>    -3.0659     7.2480    87.8645 </r>
       <r>    -3.0207     7.1376    88.1875 </r>
       <r>    -2.9754     6.4185    88.4779 </r>
       <r>    -2.9302     5.1289    88.7100 </r>
       <r>    -2.8849     3.5408    88.8702 </r>
       <r>    -2.8397     2.0831    88.9645 </r>
       <r>    -2.7944     1.1777    89.0178 </r>
       <r>    -2.7492     1.0637    89.0659 </r>
       <r>    -2.7039     1.6874    89.1423 </r>
       <r>    -2.6587     2.7085    89.2648 </r>
       <r>    -2.6134     3.6342    89.4293 </r>
       <r>    -2.5682     4.0348    89.6119 </r>
       <r>    -2.5229     3.7350    89.7809 </r>
       <r>    -2.4777     2.8708    89.9108 </r>
       <r>    -2.4324     1.7808    89.9914 </r>
       <r>    -2.3871     0.8108    90.0281 </r>
       <r>    -2.3419     0.1603    90.0353 </r>
       <r>    -2.2966    -0.1529    90.0284 </r>
       <r>    -2.2514    -0.2274    90.0181 </r>
       <r>    -2.2061    -0.1868    90.0097 </r>
       <r>    -2.1609    -0.1218    90.0042 </r>
       <r>    -2.1156    -0.0779    90.0006 </r>
       <r>    -2.0704    -0.0716    89.9974 </r>
       <r>    -2.0251    -0.1077    89.9925 </r>
       <r>    -1.9799    -0.1854    89.9841 </r>
       <r>    -1.9346    -0.2860    89.9712 </r>
       <r>    -1.8894    -0.3519    89.9553 </r>
       <r>    -1.8441    -0.2710    89.9430 </r>
       <r>    -1.7989     0.1077    89.9479 </r>
       <r>    -1.7536     0.9142    89.9892 </r>
       <r>    -1.7084     2.1779    90.0878 </r>
       <r>    -1.6631     3.7838    90.2590 </r>
       <r>    -1.6179     5.5168    90.5087 </r>
       <r>    -1.5726     7.1789    90.8335 </r>
       <r>    -1.5274     8.6877    91.2267 </r>
       <r>    -1.4821    10.0573    91.6818 </r>
       <r>    -1.4369    11.2624    92.1914 </r>
       <r>    -1.3916    12.1090    92.7394 </r>
       <r>    -1.3463    12.2673    93.2945 </r>
       <r>    -1.3011    11.4959    93.8147 </r>
       <r>    -1.2558     9.9103    94.2632 </r>
       <r>    -1.2106     8.0712    94.6284 </r>
       <r>    -1.1653     6.7732    94.9349 </r>
       <r>    -1.1201     6.6284    95.2349 </r>
       <r>    -1.0748     7.7012    95.5834 </r>
       <r>    -1.0296     9.4417    96.0106 </r>
       <r>    -0.9843    10.9791    96.5075 </r>
       <r>    -0.9391    11.5963    97.0322 </r>
       <r>    -0.8938    11.0843    97.5338 </r>
       <r>    -0.8486     9.7679    97.9758 </r>
       <r>    -0.8033     8.2328    98.3484 </r>
       <r>    -0.7581     6.9728    98.6639 </r>
       <r>    -0.7128     6.1754    98.9434 </r>
       <r>    -0.6676     5.7188    99.2022 </r>
       <r>    -0.6223     5.3162    99.4427 </r>
       <r>    -0.5771     4.7011    99.6555 </r>
       <r>    -0.5318     3.7663    99.8259 </r>
       <r>    -0.4866     2.6030    99.9437 </r>
       <r>    -0.4413     1.4298   100.0084 </r>
       <r>    -0.3960     0.4639   100.0294 </r>
       <r>    -0.3508    -0.1748   100.0215 </r>
       <r>    -0.3055    -0.4700   100.0002 </r>
       <r>    -0.2603    -0.4444    99.9801 </r>
       <r>    -0.2150    -0.1014    99.9755 </r>
       <r>    -0.1698     0.5671   100.0012 </r>
       <r>    -0.1245     1.5122   100.0696 </r>
       <r>    -0.0793     2.5785   100.1863 </r>
       <r>    -0.0340     3.5474   100.3468 </r>
       <r>     0.0112     4.2726   100.5402 </r>
       <r>     0.0565     4.8041   100.7576 </r>
       <r>     0.1017     5.3795   101.0010 </r>
       <r>     0.1470     6.2576   101.2842 </r>
       <r>     0.1922     7.5014   101.6236 </r>
       <r>     0.2375     8.8654   102.0248 </r>
       <r>     0.2827     9.8733   102.4716 </r>
       <r>     0.3280    10.0441   102.9261 </r>
       <r>     0.3732     9.1405   103.3397 </r>
       <r>     0.4185     7.3019   103.6702 </r>
       <r>     0.4637     4.9876   103.8959 </r>
       <r>     0.5090     2.7633   104.0209 </r>
       <r>     0.5542     1.0603   104.0689 </r>
       <r>     0.5995     0.0386   104.0706 </r>
       <r>     0.6448    -0.3918   104.0529 </r>
       <r>     0.6900    -0.4468   104.0327 </r>
       <r>     0.7353    -0.3386   104.0174 </r>
       <r>     0.7805    -0.2051   104.0081 </r>
       <r>     0.8258    -0.1050   104.0033 </r>
       <r>     0.8710    -0.0466   104.0012 </r>
       <r>     0.9163    -0.0181   104.0004 </r>
       <r>     0.9615    -0.0062   104.0001 </r>
       <r>     1.0068    -0.0019   104.0000 </r>
       <r>     1.0520    -0.0005   104.0000 </r>
       <r>     1.0973    -0.0001   104.0000 </r>
       <r>     1.1425    -0.0000   104.0000 </r>
       <r>     1.1878    -0.0000   104.0000 </r>
       <r>     1.2330    -0.0000   104.0000 </r>
       <r>     1.2783    -0.0000   104.0000 </r>
       <r>     1.3235    -0.0000   104.0000 </r>
       <r>     1.3688    -0.0000   104.0000 </r>
       <r>     1.4140    -0.0000   104.0000 </r>
       <r>     1.4593    -0.0000   104.0000 </r>
       <r>     1.5045    -0.0000   104.0000 </r>
       <r>     1.5498    -0.0000   104.0000 </r>
       <r>     1.5950    -0.0000   104.0000 </r>
       <r>     1.6403     0.0000   104.0000 </r>
       <r>     1.6856     0.0000   104.0000 </r>
       <r>     1.7308     0.0000   104.0000 </r>
       <r>     1.7761     0.0000   104.0000 </r>
       <r>     1.8213     0.0000   104.0000 </r>
       <r>     1.8666     0.0000   104.0000 </r>
       <r>     1.9118     0.0000   104.0000 </r>
       <r>     1.9571     0.0000   104.0000 </r>
       <r>     2.0023     0.0000   104.0000 </r>
       <r>     2.0476     0.0000   104.0000 </r>
       <r>     2.0928     0.0000   104.0000 </r>
       <r>     2.1381     0.0000   104.0000 </r>
       <r>     2.1833     0.0000   104.0000 </r>
       <r>     2.2286     0.0000   104.0000 </r>
       <r>     2.2738     0.0000   104.0000 </r>
       <r>     2.3191     0.0000   104.0000 </r>
       <r>     2.3643     0.0000   104.0000 </r>
       <r>     2.4096     0.0000   104.0000 </r>
      </set>
      <set comment="spin 2">
       <r>   -11.1661     0.0000     0.0000 </r>
       <r>   -11.1208     0.0000     0.0000 </r>
       <r>   -11.0756     0.0000     0.0000 </r>
       <r>   -11.0303     0.0000     0.0000 </r>
       <r>   -10.9851     0.0000     0.0000 </r>
       <r>   -10.9398     0.0000     0.0000 </r>
       <r>   -10.8946     0.0000     0.0000 </r>
       <r>   -10.8493     0.0000     0.0000 </r>
       <r>   -10.8041     0.0000     0.0000 </r>
       <r>   -10.7588     0.0000     0.0000 </r>
       <r>   -10.7136    -0.0000    -0.0000 </r>
       <r>   -10.6683    -0.0000    -0.0000 </r>
       <r>   -10.6231    -0.0000    -0.0000 </r>
       <r>   -10.5778    -0.0000    -0.0000 </r>
       <r>   -10.5325    -0.0000    -0.0000 </r>
       <r>   -10.4873    -0.0000    -0.0000 </r>
       <r>   -10.4420    -0.0000    -0.0000 </r>
       <r>   -10.3968    -0.0000    -0.0000 </r>
       <r>   -10.3515    -0.0000    -0.0000 </r>
       <r>   -10.3063    -0.0000    -0.0000 </r>
       <r>   -10.2610    -0.0000    -0.0000 </r>
       <r>   -10.2158    -0.0000    -0.0000 </r>
       <r>   -10.1705    -0.0000    -0.0000 </r>
       <r>   -10.1253    -0.0000    -0.0000 </r>
       <r>   -10.0800    -0.0000    -0.0000 </r>
       <r>   -10.0348    -0.0000    -0.0000 </r>
       <r>    -9.9895    -0.0000    -0.0000 </r>
       <r>    -9.9443    -0.0000    -0.0000 </r>
       <r>    -9.8990    -0.0000    -0.0000 </r>
       <r>    -9.8538    -0.0000    -0.0000 </r>
       <r>    -9.8085    -0.0001    -0.0000 </r>
       <r>    -9.7633    -0.0003    -0.0000 </r>
       <r>    -9.7180    -0.0012    -0.0001 </r>
       <r>    -9.6728    -0.0041    -0.0003 </r>
       <r>    -9.6275    -0.0118    -0.0008 </r>
       <r>    -9.5823    -0.0299    -0.0021 </r>
       <r>    -9.5370    -0.0660    -0.0051 </r>
       <r>    -9.4917    -0.1246    -0.0108 </r>
       <r>    -9.4465    -0.1937    -0.0195 </r>
       <r>    -9.4012    -0.2259    -0.0298 </r>
       <r>    -9.3560    -0.1259    -0.0355 </r>
       <r>    -9.3107     0.2314    -0.0250 </r>
       <r>    -9.2655     0.9357     0.0174 </r>
       <r>    -9.2202     1.9504     0.1056 </r>
       <r>    -9.1750     3.0584     0.2440 </r>
       <r>    -9.1297     3.9126     0.4211 </r>
       <r>    -9.0845     4.1941     0.6109 </r>
       <r>    -9.0392     3.7861     0.7822 </r>
       <r>    -8.9940     2.8387     0.9106 </r>
       <r>    -8.9487     1.6768     0.9865 </r>
       <r>    -8.9035     0.6231     1.0147 </r>
       <r>    -8.8582    -0.1312     1.0088 </r>
       <r>    -8.8130    -0.5309     0.9848 </r>
       <r>    -8.7677    -0.5656     0.9592 </r>
       <r>    -8.7225    -0.1822     0.9509 </r>
       <r>    -8.6772     0.7100     0.9830 </r>
       <r>    -8.6320     2.1336     1.0796 </r>
       <r>    -8.5867     3.9185     1.2569 </r>
       <r>    -8.5415     5.6847     1.5142 </r>
       <r>    -8.4962     7.0017     1.8310 </r>
       <r>    -8.4509     7.6527     2.1773 </r>
       <r>    -8.4057     7.8070     2.5306 </r>
       <r>    -8.3604     7.9269     2.8893 </r>
       <r>    -8.3152     8.4315     3.2708 </r>
       <r>    -8.2699     9.3520     3.6940 </r>
       <r>    -8.2247    10.2614     4.1584 </r>
       <r>    -8.1794    10.5582     4.6362 </r>
       <r>    -8.1342     9.9081     5.0845 </r>
       <r>    -8.0889     8.5214     5.4702 </r>
       <r>    -8.0437     7.0637     5.7898 </r>
       <r>    -7.9984     6.2590     6.0730 </r>
       <r>    -7.9532     6.4531     6.3651 </r>
       <r>    -7.9079     7.4233     6.7010 </r>
       <r>    -7.8627     8.5535     7.0880 </r>
       <r>    -7.8174     9.2493     7.5066 </r>
       <r>    -7.7722     9.3197     7.9283 </r>
       <r>    -7.7269     9.0827     8.3393 </r>
       <r>    -7.6817     9.1455     8.7532 </r>
       <r>    -7.6364    10.0142     9.2064 </r>
       <r>    -7.5912    11.7862     9.7397 </r>
       <r>    -7.5459    14.1138    10.3784 </r>
       <r>    -7.5006    16.4414    11.1224 </r>
       <r>    -7.4554    18.3318    11.9520 </r>
       <r>    -7.4101    19.6496    12.8411 </r>
       <r>    -7.3649    20.5129    13.7694 </r>
       <r>    -7.3196    21.1202    14.7251 </r>
       <r>    -7.2744    21.6196    15.7035 </r>
       <r>    -7.2291    22.0774    16.7025 </r>
       <r>    -7.1839    22.4879    17.7202 </r>
       <r>    -7.1386    22.7660    18.7504 </r>
       <r>    -7.0934    22.7477    19.7797 </r>
       <r>    -7.0481    22.2456    20.7864 </r>
       <r>    -7.0029    21.1514    21.7436 </r>
       <r>    -6.9576    19.5255    22.6271 </r>
       <r>    -6.9124    17.6179    23.4244 </r>
       <r>    -6.8671    15.8068    24.1397 </r>
       <r>    -6.8219    14.4788    24.7949 </r>
       <r>    -6.7766    13.8935    25.4236 </r>
       <r>    -6.7314    14.0898    26.0612 </r>
       <r>    -6.6861    14.8759    26.7343 </r>
       <r>    -6.6409    15.9136    27.4545 </r>
       <r>    -6.5956    16.8631    28.2176 </r>
       <r>    -6.5504    17.5248    29.0106 </r>
       <r>    -6.5051    17.9022    29.8207 </r>
       <r>    -6.4598    18.1361    30.6414 </r>
       <r>    -6.4146    18.3369    31.4712 </r>
       <r>    -6.3693    18.4303    32.3052 </r>
       <r>    -6.3241    18.1569    33.1269 </r>
       <r>    -6.2788    17.2491    33.9074 </r>
       <r>    -6.2336    15.6523    34.6157 </r>
       <r>    -6.1883    13.6050    35.2314 </r>
       <r>    -6.1431    11.5275    35.7530 </r>
       <r>    -6.0978     9.8404    36.1983 </r>
       <r>    -6.0526     8.8644    36.5995 </r>
       <r>    -6.0073     8.8224    36.9987 </r>
       <r>    -5.9621     9.8381    37.4439 </r>
       <r>    -5.9168    11.8491    37.9801 </r>
       <r>    -5.8716    14.4855    38.6356 </r>
       <r>    -5.8263    17.0649    39.4078 </r>
       <r>    -5.7811    18.8027    40.2587 </r>
       <r>    -5.7358    19.1677    41.1261 </r>
       <r>    -5.6906    18.1724    41.9484 </r>
       <r>    -5.6453    16.3990    42.6905 </r>
       <r>    -5.6001    14.7281    43.3570 </r>
       <r>    -5.5548    13.9283    43.9873 </r>
       <r>    -5.5096    14.3446    44.6364 </r>
       <r>    -5.4643    15.8439    45.3534 </r>
       <r>    -5.4190    18.0023    46.1680 </r>
       <r>    -5.3738    20.3747    47.0900 </r>
       <r>    -5.3285    22.6581    48.1153 </r>
       <r>    -5.2833    24.6747    49.2319 </r>
       <r>    -5.2380    26.2577    50.4201 </r>
       <r>    -5.1928    27.2020    51.6511 </r>
       <r>    -5.1475    27.3706    52.8897 </r>
       <r>    -5.1023    26.8793    54.1060 </r>
       <r>    -5.0570    26.1734    55.2904 </r>
       <r>    -5.0118    25.8716    56.4612 </r>
       <r>    -4.9665    26.4425    57.6577 </r>
       <r>    -4.9213    27.9292    58.9216 </r>
       <r>    -4.8760    29.9122    60.2752 </r>
       <r>    -4.8308    31.7222    61.7107 </r>
       <r>    -4.7855    32.7558    63.1930 </r>
       <r>    -4.7403    32.7263    64.6739 </r>
       <r>    -4.6950    31.7622    66.1112 </r>
       <r>    -4.6498    30.3368    67.4840 </r>
       <r>    -4.6045    29.0501    68.7986 </r>
       <r>    -4.5593    28.3360    70.0809 </r>
       <r>    -4.5140    28.2382    71.3587 </r>
       <r>    -4.4687    28.3973    72.6438 </r>
       <r>    -4.4235    28.2711    73.9231 </r>
       <r>    -4.3782    27.4529    75.1654 </r>
       <r>    -4.3330    25.8911    76.3370 </r>
       <r>    -4.2877    23.8972    77.4184 </r>
       <r>    -4.2425    21.9551    78.4119 </r>
       <r>    -4.1972    20.4465    79.3372 </r>
       <r>    -4.1520    19.4346    80.2167 </r>
       <r>    -4.1067    18.6208    81.0593 </r>
       <r>    -4.0615    17.5049    81.8514 </r>
       <r>    -4.0162    15.6613    82.5601 </r>
       <r>    -3.9710    12.9725    83.1472 </r>
       <r>    -3.9257     9.6896    83.5856 </r>
       <r>    -3.8805     6.3041    83.8709 </r>
       <r>    -3.8352     3.3240    84.0213 </r>
       <r>    -3.7900     1.0875    84.0705 </r>
       <r>    -3.7447    -0.2956    84.0572 </r>
       <r>    -3.6995    -0.8723    84.0177 </r>
       <r>    -3.6542    -0.7196    83.9851 </r>
       <r>    -3.6090     0.1276    83.9909 </r>
       <r>    -3.5637     1.6284    84.0646 </r>
       <r>    -3.5185     3.6013    84.2276 </r>
       <r>    -3.4732     5.6345    84.4825 </r>
       <r>    -3.4279     7.1649    84.8068 </r>
       <r>    -3.3827     7.7316    85.1566 </r>
       <r>    -3.3374     7.2486    85.4846 </r>
       <r>    -3.2922     6.0841    85.7600 </r>
       <r>    -3.2469     4.8651    85.9801 </r>
       <r>    -3.2017     4.1353    86.1673 </r>
       <r>    -3.1564     4.1072    86.3531 </r>
       <r>    -3.1112     4.6585    86.5639 </r>
       <r>    -3.0659     5.5119    86.8134 </r>
       <r>    -3.0207     6.4121    87.1035 </r>
       <r>    -2.9754     7.1728    87.4281 </r>
       <r>    -2.9302     7.6220    87.7730 </r>
       <r>    -2.8849     7.5716    88.1156 </r>
       <r>    -2.8397     6.8814    88.4270 </r>
       <r>    -2.7944     5.5747    88.6793 </r>
       <r>    -2.7492     3.9000    88.8558 </r>
       <r>    -2.7039     2.2739    88.9587 </r>
       <r>    -2.6587     1.1327    89.0100 </r>
       <r>    -2.6134     0.7656    89.0446 </r>
       <r>    -2.5682     1.2010    89.0989 </r>
       <r>    -2.5229     2.1840    89.1978 </r>
       <r>    -2.4777     3.2613    89.3454 </r>
       <r>    -2.4324     3.9584    89.5245 </r>
       <r>    -2.3871     3.9815    89.7047 </r>
       <r>    -2.3419     3.3379    89.8557 </r>
       <r>    -2.2966     2.2993    89.9597 </r>
       <r>    -2.2514     1.2336    90.0156 </r>
       <r>    -2.2061     0.4198    90.0346 </r>
       <r>    -2.1609    -0.0441    90.0326 </r>
       <r>    -2.1156    -0.2147    90.0229 </r>
       <r>    -2.0704    -0.2153    90.0131 </r>
       <r>    -2.0251    -0.1574    90.0060 </r>
       <r>    -1.9799    -0.1095    90.0010 </r>
       <r>    -1.9346    -0.1022    89.9964 </r>
       <r>    -1.8894    -0.1453    89.9898 </r>
       <r>    -1.8441    -0.2333    89.9793 </r>
       <r>    -1.7989    -0.3334    89.9642 </r>
       <r>    -1.7536    -0.3651    89.9477 </r>
       <r>    -1.7084    -0.1926    89.9389 </r>
       <r>    -1.6631     0.3432    89.9545 </r>
       <r>    -1.6179     1.3530    90.0157 </r>
       <r>    -1.5726     2.8230    90.1434 </r>
       <r>    -1.5274     4.5988    90.3516 </r>
       <r>    -1.4821     6.4595    90.6439 </r>
       <r>    -1.4369     8.2337    91.0165 </r>
       <r>    -1.3916     9.8504    91.4622 </r>
       <r>    -1.3463    11.2626    91.9719 </r>
       <r>    -1.3011    12.3110    92.5290 </r>
       <r>    -1.2558    12.6871    93.1031 </r>
       <r>    -1.2106    12.0993    93.6506 </r>
       <r>    -1.1653    10.5622    94.1286 </r>
       <r>    -1.1201     8.5761    94.5166 </r>
       <r>    -1.0748     6.9973    94.8333 </r>
       <r>    -1.0296     6.6085    95.1323 </r>
       <r>    -0.9843     7.6416    95.4781 </r>
       <r>    -0.9391     9.5857    95.9119 </r>
       <r>    -0.8938    11.4447    96.4298 </r>
       <r>    -0.8486    12.2958    96.9862 </r>
       <r>    -0.8033    11.7721    97.5189 </r>
       <r>    -0.7581    10.1649    97.9789 </r>
       <r>    -0.7128     8.1415    98.3473 </r>
       <r>    -0.6676     6.3446    98.6345 </r>
       <r>    -0.6223     5.1380    98.8670 </r>
       <r>    -0.5771     4.5641    99.0735 </r>
       <r>    -0.5318     4.4228    99.2736 </r>
       <r>    -0.4866     4.3859    99.4721 </r>
       <r>    -0.4413     4.1331    99.6591 </r>
       <r>    -0.3960     3.4906    99.8171 </r>
       <r>    -0.3508     2.5052    99.9305 </r>
       <r>    -0.3055     1.3975    99.9937 </r>
       <r>    -0.2603     0.4292   100.0131 </r>
       <r>    -0.2150    -0.2125   100.0035 </r>
       <r>    -0.1698    -0.4399    99.9836 </r>
       <r>    -0.1245    -0.2230    99.9735 </r>
       <r>    -0.0793     0.4430    99.9936 </r>
       <r>    -0.0340     1.5153   100.0621 </r>
       <r>     0.0112     2.8585   100.1915 </r>
       <r>     0.0565     4.2489   100.3838 </r>
       <r>     0.1017     5.4607   100.6309 </r>
       <r>     0.1470     6.3865   100.9199 </r>
       <r>     0.1922     7.0963   101.2410 </r>
       <r>     0.2375     7.7670   101.5925 </r>
       <r>     0.2827     8.5095   101.9775 </r>
       <r>     0.3280     9.2112   102.3944 </r>
       <r>     0.3732     9.5291   102.8256 </r>
       <r>     0.4185     9.0801   103.2365 </r>
       <r>     0.4637     7.7110   103.5854 </r>
       <r>     0.5090     5.6484   103.8410 </r>
       <r>     0.5542     3.4038   103.9950 </r>
       <r>     0.5995     1.5061   104.0632 </r>
       <r>     0.6448     0.2572   104.0748 </r>
       <r>     0.6900    -0.3382   104.0595 </r>
       <r>     0.7353    -0.4735   104.0381 </r>
       <r>     0.7805    -0.3842   104.0207 </r>
       <r>     0.8258    -0.2413   104.0098 </r>
       <r>     0.8710    -0.1264   104.0041 </r>
       <r>     0.9163    -0.0569   104.0015 </r>
       <r>     0.9615    -0.0223   104.0005 </r>
       <r>     1.0068    -0.0077   104.0001 </r>
       <r>     1.0520    -0.0024   104.0000 </r>
       <r>     1.0973    -0.0006   104.0000 </r>
       <r>     1.1425    -0.0002   104.0000 </r>
       <r>     1.1878    -0.0000   104.0000 </r>
       <r>     1.2330    -0.0000   104.0000 </r>
       <r>     1.2783    -0.0000   104.0000 </r>
       <r>     1.3235    -0.0000   104.0000 </r>
       <r>     1.3688    -0.0000   104.0000 </r>
       <r>     1.4140    -0.0000   104.0000 </r>
       <r>     1.4593    -0.0000   104.0000 </r>
       <r>     1.5045    -0.0000   104.0000 </r>
       <r>     1.5498    -0.0000   104.0000 </r>
       <r>     1.5950    -0.0000   104.0000 </r>
       <r>     1.6403    -0.0000   104.0000 </r>
       <r>     1.6856     0.0000   104.0000 </r>
       <r>     1.7308     0.0000   104.0000 </r>
       <r>     1.7761     0.0000   104.0000 </r>
       <r>     1.8213     0.0000   104.0000 </r>
       <r>     1.8666     0.0000   104.0000 </r>
       <r>     1.9118     0.0000   104.0000 </r>
       <r>     1.9571     0.0000   104.0000 </r>
       <r>     2.0023     0.0000   104.0000 </r>
       <r>     2.0476     0.0000   104.0000 </r>
       <r>     2.0928     0.0000   104.0000 </r>
       <r>     2.1381     0.0000   104.0000 </r>
       <r>     2.1833     0.0000   104.0000 </r>
       <r>     2.2286     0.0000   104.0000 </r>
       <r>     2.2738     0.0000   104.0000 </r>
       <r>     2.3191     0.0000   104.0000 </r>
       <r>     2.3643     0.0000   104.0000 </r>
       <r>     2.4096     0.0000   104.0000 </r>
      </set>
     </set>
    </array>
   </total>
  </dos>
 </calculation>
 <structure name="finalpos" >
  <crystal>
   <varray name="basis" >
    <v>      23.47297483       0.00000000       0.00000000 </v>
    <v>       0.00000000      24.25032400       0.00000000 </v>
    <v>       0.00000000       0.00000000      25.05694492 </v>
   </varray>
   <i name="volume">  14263.09571788 </i>
   <varray name="rec_basis" >
    <v>       0.04260218       0.00000000       0.00000000 </v>
    <v>       0.00000000       0.04123656       0.00000000 </v>
    <v>       0.00000000       0.00000000       0.03990910 </v>
   </varray>
  </crystal>
  <varray name="positions" >
   <v>       0.39308452       0.45932234       0.40762319 </v>
   <v>       0.45246434       0.39892496       0.47621036 </v>
   <v>       0.55200199       0.43119131       0.51268626 </v>
   <v>       0.50458304       0.47238589       0.41337960 </v>
   <v>       0.43217808       0.55884643       0.42604891 </v>
   <v>       0.39190169       0.48642826       0.51045667 </v>
   <v>       0.46300225       0.42770663       0.57865621 </v>
   <v>       0.49846215       0.63401362       0.47299234 </v>
   <v>       0.64004301       0.48840362       0.54605279 </v>
   <v>       0.43062793       0.52898082       0.60422818 </v>
   <v>       0.60751147       0.49547884       0.44446154 </v>
   <v>       0.49352953       0.52343222       0.50525840 </v>
   <v>       0.40481332       0.59766652       0.52325588 </v>
   <v>       0.54294619       0.50729160       0.59637173 </v>
   <v>       0.58655066       0.57682665       0.51115093 </v>
   <v>       0.50309755       0.61099775       0.57794945 </v>
  </varray>
 </structure>
</modeling>
