unknown system                          
            1
    23.472975    0.000000    0.000000
     0.000000   24.250324    0.000000
     0.000000    0.000000   25.056945
   Pd
    16
Direct configuration=     1
   0.39311101  0.45928404  0.40761353
   0.45242157  0.39887381  0.47611605
   0.55205805  0.43116301  0.51273242
   0.50459204  0.47232142  0.41343590
   0.43213879  0.55888267  0.42600850
   0.39191666  0.48634525  0.51042755
   0.46296194  0.42774973  0.57874219
   0.49841929  0.63403801  0.47301289
   0.64002764  0.48841123  0.54607146
   0.43061054  0.52905391  0.60424808
   0.60750647  0.49544923  0.44440000
   0.49347574  0.52344683  0.50516310
   0.40493758  0.59776747  0.52327329
   0.54306014  0.50720201  0.59630243
   0.58649100  0.57693628  0.51123029
   0.50306925  0.61097255  0.57800477
Direct configuration=     2
   0.39309526  0.45930681  0.40761927
   0.45244699  0.39890421  0.47617211
   0.55202473  0.43117983  0.51270498
   0.50458669  0.47235974  0.41340243
   0.43216214  0.55886113  0.42603252
   0.39190777  0.48639459  0.51044486
   0.46298590  0.42772411  0.57869108
   0.49844477  0.63402351  0.47300068
   0.64003677  0.48840671  0.54606036
   0.43062088  0.52901047  0.60423625
   0.60750944  0.49546683  0.44443658
   0.49350771  0.52343815  0.50521975
   0.40486372  0.59770746  0.52326295
   0.54299241  0.50725526  0.59634362
   0.58652646  0.57687112  0.51118312
   0.50308607  0.61098753  0.57797189
Direct configuration=     3
   0.39308452  0.45932234  0.40762319
   0.45246434  0.39892496  0.47621036
   0.55200199  0.43119131  0.51268626
   0.50458304  0.47238589  0.41337960
   0.43217808  0.55884643  0.42604891
   0.39190169  0.48642826  0.51045667
   0.46300225  0.42770663  0.57865621
   0.49846215  0.63401362  0.47299234
   0.64004301  0.48840362  0.54605279
   0.43062793  0.52898082  0.60422818
   0.60751147  0.49547884  0.44446154
   0.49352953  0.52343222  0.50525840
   0.40481332  0.59766652  0.52325588
   0.54294619  0.50729160  0.59637173
   0.58655066  0.57682665  0.51115093
   0.50309755  0.61099775  0.57794945
