   7   7   0   0
  0.1392416E+04  0.2203748E-08  0.2121811E-08  0.2084483E-08  0.5000000E-15
   1.0000000000000000E-004
  CAR 
 unknown system                          
      1.22903252    -14.31785783  301     -4.00557355      1.00000000
    -14.318  0.0000E+00  0.0000E+00  0.0000E+00  0.0000E+00
    -14.266  0.0000E+00  0.0000E+00  0.0000E+00  0.0000E+00
    -14.214  0.0000E+00  0.0000E+00  0.0000E+00  0.0000E+00
    -14.162  0.0000E+00  0.0000E+00  0.0000E+00  0.0000E+00
    -14.111  0.0000E+00  0.0000E+00  0.0000E+00  0.0000E+00
    -14.059  0.0000E+00  0.0000E+00  0.0000E+00  0.0000E+00
    -14.007  0.0000E+00  0.0000E+00  0.0000E+00  0.0000E+00
    -13.955 -0.3509E-30  0.0000E+00 -0.1819E-31  0.0000E+00
    -13.903 -0.2176E-28  0.0000E+00 -0.1146E-29  0.0000E+00
    -13.851 -0.1194E-26 -0.1944E-30 -0.6303E-28 -0.1008E-31
    -13.800 -0.5723E-25 -0.1229E-28 -0.3029E-26 -0.6468E-30
    -13.748 -0.2394E-23 -0.6874E-27 -0.1271E-24 -0.3627E-28
    -13.696 -0.8740E-22 -0.3357E-25 -0.4657E-23 -0.1776E-26
    -13.644 -0.2785E-20 -0.1431E-23 -0.1490E-21 -0.7595E-25
    -13.592 -0.7741E-19 -0.5327E-22 -0.4160E-20 -0.2836E-23
    -13.541 -0.1877E-17 -0.1730E-20 -0.1014E-18 -0.9248E-22
    -13.489 -0.3861E-16 -0.4901E-19 -0.2103E-17 -0.2632E-20
    -13.437 -0.7080E-15 -0.1211E-17 -0.3879E-16 -0.6541E-19
    -13.385 -0.1134E-13 -0.2504E-16 -0.6266E-15 -0.1363E-17
    -13.333 -0.1581E-12 -0.4756E-15 -0.8822E-14 -0.2601E-16
    -13.281 -0.1919E-11 -0.7759E-14 -0.1082E-12 -0.4281E-15
    -13.230 -0.2024E-10 -0.1103E-12 -0.1157E-11 -0.6144E-14
    -13.178 -0.1855E-09 -0.1364E-11 -0.1077E-10 -0.7685E-13
    -13.126 -0.1475E-08 -0.1468E-10 -0.8720E-10 -0.8375E-12
    -13.074 -0.1016E-07 -0.1372E-09 -0.6139E-09 -0.7947E-11
    -13.022 -0.6059E-07 -0.1113E-08 -0.3754E-08 -0.6562E-10
    -12.970 -0.3117E-06 -0.7826E-08 -0.1991E-07 -0.4712E-09
    -12.919 -0.1379E-05 -0.4761E-07 -0.9138E-07 -0.2939E-08
    -12.867 -0.5225E-05 -0.2501E-06 -0.3621E-06 -0.1590E-07
    -12.815 -0.1683E-04 -0.1130E-05 -0.1234E-05 -0.7448E-07
    -12.763 -0.4557E-04 -0.4378E-05 -0.3596E-05 -0.3014E-06
    -12.711 -0.1017E-03 -0.1443E-04 -0.8869E-05 -0.1049E-05
    -12.660 -0.1798E-03 -0.4008E-04 -0.1819E-04 -0.3127E-05
    -12.608 -0.2250E-03 -0.9210E-04 -0.2984E-04 -0.7900E-05
    -12.556 -0.1046E-03 -0.1688E-03 -0.3526E-04 -0.1665E-04
    -12.504  0.3640E-03 -0.2247E-03 -0.1640E-04 -0.2829E-04
    -12.452  0.1288E-02 -0.1382E-03  0.5033E-04 -0.3546E-04
    -12.400  0.2531E-02  0.2716E-03  0.1815E-03 -0.2138E-04
    -12.349  0.3669E-02  0.1133E-02  0.3717E-03  0.3732E-04
    -12.297  0.4188E-02  0.2351E-02  0.5887E-03  0.1592E-03
    -12.245  0.3826E-02  0.3537E-02  0.7870E-03  0.3425E-03
    -12.193  0.2767E-02  0.4167E-02  0.9304E-03  0.5584E-03
    -12.141  0.1504E-02  0.3927E-02  0.1008E-02  0.7620E-03
    -12.089  0.5011E-03  0.2940E-02  0.1034E-02  0.9143E-03
    -12.038 -0.4910E-04  0.1673E-02  0.1032E-02  0.1001E-02
    -11.986 -0.2204E-03  0.6152E-03  0.1020E-02  0.1033E-02
    -11.934 -0.1935E-03  0.1434E-05  0.1010E-02  0.1033E-02
    -11.882 -0.1153E-03 -0.2125E-03  0.1004E-02  0.1022E-02
    -11.830 -0.5373E-04 -0.2029E-03  0.1002E-02  0.1011E-02
    -11.779 -0.2053E-04 -0.1261E-03  0.1000E-02  0.1005E-02
    -11.727 -0.6575E-05 -0.6056E-04  0.1000E-02  0.1002E-02
    -11.675 -0.1788E-05 -0.2375E-04  0.1000E-02  0.1001E-02
    -11.623 -0.4157E-06 -0.7789E-05  0.1000E-02  0.1000E-02
    -11.571 -0.8308E-07 -0.2166E-05  0.1000E-02  0.1000E-02
    -11.519 -0.1432E-07 -0.5145E-06  0.1000E-02  0.1000E-02
    -11.468 -0.2134E-08 -0.1050E-06  0.1000E-02  0.1000E-02
    -11.416 -0.2756E-09 -0.1848E-07  0.1000E-02  0.1000E-02
    -11.364 -0.3088E-10 -0.2810E-08  0.1000E-02  0.1000E-02
    -11.312 -0.3004E-11 -0.3702E-09  0.1000E-02  0.1000E-02
    -11.260 -0.2541E-12 -0.4230E-10  0.1000E-02  0.1000E-02
    -11.208 -0.1871E-13 -0.4198E-11  0.1000E-02  0.1000E-02
    -11.157 -0.1200E-14 -0.3621E-12  0.1000E-02  0.1000E-02
    -11.105 -0.6427E-16 -0.2717E-13  0.1000E-02  0.1000E-02
    -11.053 -0.4285E-17 -0.1774E-14  0.1000E-02  0.1000E-02
    -11.001 -0.6758E-20 -0.1028E-15  0.1000E-02  0.1000E-02
    -10.949 -0.1812E-18 -0.4285E-17  0.1000E-02  0.1000E-02
    -10.898 -0.4239E-17 -0.2245E-23  0.1000E-02  0.1000E-02
    -10.846 -0.8432E-16 -0.8217E-22  0.1000E-02  0.1000E-02
    -10.794 -0.1487E-14 -0.2624E-20  0.1000E-02  0.1000E-02
    -10.742 -0.2297E-13 -0.7312E-19  0.1000E-02  0.1000E-02
    -10.690 -0.3088E-12 -0.1777E-17  0.1000E-02  0.1000E-02
    -10.638 -0.3611E-11 -0.3660E-16  0.1000E-02  0.1000E-02
    -10.587 -0.3671E-10 -0.6735E-15  0.1000E-02  0.1000E-02
    -10.535 -0.3242E-09 -0.1082E-13  0.1000E-02  0.1000E-02
    -10.483 -0.2483E-08 -0.1512E-12  0.1000E-02  0.1000E-02
    -10.431 -0.1648E-07 -0.1839E-11  0.1000E-02  0.1000E-02
    -10.379 -0.9451E-07 -0.1945E-10  0.1000E-02  0.1000E-02
    -10.327 -0.4675E-06 -0.1786E-09  0.1000E-02  0.1000E-02
    -10.276 -0.1987E-05 -0.1424E-08  0.9999E-03  0.1000E-02
    -10.224 -0.7219E-05 -0.9839E-08  0.9995E-03  0.1000E-02
    -10.172 -0.2225E-04 -0.5880E-07  0.9983E-03  0.1000E-02
    -10.120 -0.5741E-04 -0.3033E-06  0.9954E-03  0.1000E-02
    -10.068 -0.1212E-03 -0.1346E-05  0.9891E-03  0.9999E-03
    -10.017 -0.1988E-03 -0.5111E-05  0.9788E-03  0.9996E-03
     -9.965 -0.2166E-03 -0.1651E-04  0.9676E-03  0.9988E-03
     -9.913 -0.2233E-04 -0.4486E-04  0.9664E-03  0.9965E-03
     -9.861  0.5626E-03 -0.1005E-03  0.9956E-03  0.9913E-03
     -9.809  0.1596E-02 -0.1784E-03  0.1078E-02  0.9820E-03
     -9.757  0.2862E-02 -0.2251E-03  0.1227E-02  0.9703E-03
     -9.706  0.3883E-02 -0.1091E-03  0.1428E-02  0.9647E-03
     -9.654  0.4179E-02  0.3519E-03  0.1644E-02  0.9829E-03
     -9.602  0.3598E-02  0.1268E-02  0.1831E-02  0.1049E-02
     -9.550  0.2432E-02  0.2509E-02  0.1957E-02  0.1179E-02
     -9.498  0.1201E-02  0.3653E-02  0.2019E-02  0.1368E-02
     -9.446  0.3089E-03  0.4186E-02  0.2035E-02  0.1585E-02
     -9.395 -0.1358E-03  0.3836E-02  0.2028E-02  0.1784E-02
     -9.343 -0.2628E-03  0.2776E-02  0.2015E-02  0.1928E-02
     -9.291 -0.2738E-03  0.1485E-02  0.2000E-02  0.2005E-02
     -9.239 -0.3146E-03  0.4106E-03  0.1984E-02  0.2026E-02
     -9.187 -0.4172E-03 -0.2686E-03  0.1962E-02  0.2012E-02
     -9.136 -0.4612E-03 -0.6014E-03  0.1939E-02  0.1981E-02
     -9.084 -0.1548E-03 -0.6377E-03  0.1931E-02  0.1948E-02
     -9.032  0.8747E-03 -0.2372E-03  0.1976E-02  0.1935E-02
     -8.980  0.2811E-02  0.8936E-03  0.2121E-02  0.1982E-02
     -8.928  0.5321E-02  0.2903E-02  0.2397E-02  0.2132E-02
     -8.876  0.7513E-02  0.5436E-02  0.2787E-02  0.2414E-02
     -8.825  0.8381E-02  0.7591E-02  0.3221E-02  0.2807E-02
     -8.773  0.7484E-02  0.8378E-02  0.3609E-02  0.3241E-02
     -8.721  0.5276E-02  0.7401E-02  0.3882E-02  0.3625E-02
     -8.669  0.2770E-02  0.5154E-02  0.4026E-02  0.3892E-02
     -8.617  0.8500E-03  0.2658E-02  0.4070E-02  0.4030E-02
     -8.566 -0.1606E-03  0.7795E-03  0.4061E-02  0.4070E-02
     -8.514 -0.4466E-03 -0.1887E-03  0.4038E-02  0.4060E-02
     -8.462 -0.3722E-03 -0.4486E-03  0.4019E-02  0.4037E-02
     -8.410 -0.2157E-03 -0.3650E-03  0.4008E-02  0.4018E-02
     -8.358 -0.9840E-04 -0.2087E-03  0.4003E-02  0.4007E-02
     -8.306 -0.3693E-04 -0.9422E-04  0.4001E-02  0.4003E-02
     -8.255 -0.1164E-04 -0.3503E-04  0.4000E-02  0.4001E-02
     -8.203 -0.3116E-05 -0.1095E-04  0.4000E-02  0.4000E-02
     -8.151 -0.7139E-06 -0.2908E-05  0.4000E-02  0.4000E-02
     -8.099 -0.1407E-06 -0.6613E-06  0.4000E-02  0.4000E-02
     -8.047 -0.2392E-07 -0.1293E-06  0.4000E-02  0.4000E-02
     -7.995 -0.3517E-08 -0.2182E-07  0.4000E-02  0.4000E-02
     -7.944 -0.4481E-09 -0.3186E-08  0.4000E-02  0.4000E-02
     -7.892 -0.4954E-10 -0.4030E-09  0.4000E-02  0.4000E-02
     -7.840 -0.4759E-11 -0.4423E-10  0.4000E-02  0.4000E-02
     -7.788 -0.3975E-12 -0.4218E-11  0.4000E-02  0.4000E-02
     -7.736 -0.3050E-13 -0.3498E-12  0.4000E-02  0.4000E-02
     -7.685 -0.2668E-13 -0.2524E-13  0.4000E-02  0.4000E-02
     -7.633 -0.3329E-12 -0.1585E-14  0.4000E-02  0.4000E-02
     -7.581 -0.3876E-11 -0.8999E-16  0.4000E-02  0.4000E-02
     -7.529 -0.3924E-10 -0.4483E-17  0.4000E-02  0.4000E-02
     -7.477 -0.3451E-09 -0.4618E-17  0.4000E-02  0.4000E-02
     -7.425 -0.2632E-08 -0.9062E-16  0.4000E-02  0.4000E-02
     -7.374 -0.1739E-07 -0.1608E-14  0.4000E-02  0.4000E-02
     -7.322 -0.9932E-07 -0.2473E-13  0.4000E-02  0.4000E-02
     -7.270 -0.4891E-06 -0.3312E-12  0.4000E-02  0.4000E-02
     -7.218 -0.2069E-05 -0.3859E-11  0.4000E-02  0.4000E-02
     -7.166 -0.7482E-05 -0.3908E-10  0.3999E-02  0.4000E-02
     -7.114 -0.2294E-04 -0.3437E-09  0.3998E-02  0.4000E-02
     -7.063 -0.5887E-04 -0.2622E-08  0.3995E-02  0.4000E-02
     -7.011 -0.1235E-03 -0.1733E-07  0.3989E-02  0.4000E-02
     -6.959 -0.2007E-03 -0.9900E-07  0.3978E-02  0.4000E-02
     -6.907 -0.2148E-03 -0.4877E-06  0.3967E-02  0.4000E-02
     -6.855 -0.1136E-04 -0.2064E-05  0.3967E-02  0.4000E-02
     -6.804  0.5871E-03 -0.7465E-05  0.3997E-02  0.3999E-02
     -6.752  0.1632E-02 -0.2290E-04  0.4082E-02  0.3998E-02
     -6.700  0.2899E-02 -0.5878E-04  0.4232E-02  0.3995E-02
     -6.648  0.3904E-02 -0.1233E-03  0.4434E-02  0.3989E-02
     -6.596  0.4173E-02 -0.2007E-03  0.4651E-02  0.3978E-02
     -6.544  0.3565E-02 -0.2155E-03  0.4835E-02  0.3967E-02
     -6.493  0.2379E-02 -0.1468E-04  0.4959E-02  0.3967E-02
     -6.441  0.1123E-02  0.5756E-03  0.5017E-02  0.3996E-02
     -6.389  0.1739E-03  0.1598E-02  0.5026E-02  0.4079E-02
     -6.337 -0.3795E-03  0.2809E-02  0.5006E-02  0.4225E-02
     -6.285 -0.6279E-03  0.3705E-02  0.4974E-02  0.4417E-02
     -6.233 -0.5994E-03  0.3821E-02  0.4943E-02  0.4615E-02
     -6.182 -0.1081E-03  0.3121E-02  0.4937E-02  0.4776E-02
     -6.130  0.1153E-02  0.2168E-02  0.4997E-02  0.4889E-02
     -6.078  0.3278E-02  0.1847E-02  0.5167E-02  0.4984E-02
     -6.026  0.5821E-02  0.2783E-02  0.5468E-02  0.5129E-02
     -5.974  0.7823E-02  0.4834E-02  0.5874E-02  0.5379E-02
     -5.923  0.8342E-02  0.7043E-02  0.6306E-02  0.5744E-02
     -5.871  0.7116E-02  0.8197E-02  0.6675E-02  0.6169E-02
     -5.819  0.4759E-02  0.7616E-02  0.6921E-02  0.6564E-02
     -5.767  0.2313E-02  0.5588E-02  0.7041E-02  0.6853E-02
     -5.715  0.5711E-03  0.3085E-02  0.7071E-02  0.7013E-02
     -5.663 -0.2670E-03  0.1058E-02  0.7057E-02  0.7068E-02
     -5.612 -0.4517E-03 -0.7377E-04  0.7034E-02  0.7064E-02
     -5.560 -0.3485E-03 -0.4398E-03  0.7016E-02  0.7041E-02
     -5.508 -0.2117E-03 -0.4013E-03  0.7005E-02  0.7021E-02
     -5.456 -0.1512E-03 -0.2656E-03  0.6997E-02  0.7007E-02
     -5.404 -0.1950E-03 -0.1921E-03  0.6987E-02  0.6997E-02
     -5.352 -0.3336E-03 -0.2321E-03  0.6969E-02  0.6985E-02
     -5.301 -0.4977E-03 -0.3756E-03  0.6944E-02  0.6965E-02
     -5.249 -0.4892E-03 -0.5333E-03  0.6918E-02  0.6938E-02
     -5.197  0.5513E-04 -0.4698E-03  0.6921E-02  0.6913E-02
     -5.145  0.1550E-02  0.2162E-03  0.7001E-02  0.6925E-02
     -5.093  0.4159E-02  0.1939E-02  0.7217E-02  0.7025E-02
     -5.042  0.7456E-02  0.4782E-02  0.7603E-02  0.7273E-02
     -4.990  0.1039E-01  0.8171E-02  0.8142E-02  0.7696E-02
     -4.938  0.1174E-01  0.1093E-01  0.8750E-02  0.8263E-02
     -4.886  0.1087E-01  0.1185E-01  0.9313E-02  0.8877E-02
     -4.834  0.8154E-02  0.1049E-01  0.9736E-02  0.9421E-02
     -4.782  0.4765E-02  0.7471E-02  0.9983E-02  0.9808E-02
     -4.731  0.1893E-02  0.4059E-02  0.1008E-01  0.1002E-01
     -4.679  0.1470E-03  0.1389E-02  0.1009E-01  0.1009E-01
     -4.627 -0.5520E-03 -0.8892E-04  0.1006E-01  0.1009E-01
     -4.575 -0.6414E-03 -0.5717E-03  0.1003E-01  0.1006E-01
     -4.523 -0.5326E-03 -0.5212E-03  0.9999E-02  0.1003E-01
     -4.471 -0.4095E-03 -0.3200E-03  0.9978E-02  0.1001E-01
     -4.420 -0.2163E-03 -0.1536E-03  0.9966E-02  0.1000E-01
     -4.368  0.2403E-03 -0.6055E-04  0.9979E-02  0.1000E-01
     -4.316  0.1117E-02 -0.2004E-04  0.1004E-01  0.1000E-01
     -4.264  0.2340E-02 -0.5640E-05  0.1016E-01  0.1000E-01
     -4.212  0.3529E-02 -0.1359E-05  0.1034E-01  0.1000E-01
     -4.161  0.4165E-02 -0.2850E-06  0.1056E-01  0.1000E-01
     -4.109  0.3933E-02 -0.7234E-07  0.1076E-01  0.1000E-01
     -4.057  0.2949E-02 -0.1309E-06  0.1091E-01  0.1000E-01
     -4.005  0.1683E-02 -0.5969E-06  0.1100E-01  0.1000E-01
     -3.953  0.6206E-03 -0.2479E-05  0.1103E-01  0.1000E-01
     -3.901 -0.5334E-06 -0.8824E-05  0.1103E-01  0.9999E-02
     -3.850 -0.2296E-03 -0.2671E-04  0.1102E-01  0.9998E-02
     -3.798 -0.2561E-03 -0.6800E-04  0.1101E-01  0.9994E-02
     -3.746 -0.2584E-03 -0.1430E-03  0.1099E-01  0.9987E-02
     -3.694 -0.3287E-03 -0.2397E-03  0.1098E-01  0.9975E-02
     -3.642 -0.4408E-03 -0.2904E-03  0.1095E-01  0.9960E-02
     -3.591 -0.4151E-03 -0.1538E-03  0.1093E-01  0.9952E-02
     -3.539  0.8175E-04  0.3479E-03  0.1094E-01  0.9970E-02
     -3.487  0.1392E-02  0.1336E-02  0.1101E-01  0.1004E-01
     -3.435  0.3551E-02  0.2796E-02  0.1119E-01  0.1018E-01
     -3.383  0.6018E-02  0.4583E-02  0.1150E-01  0.1042E-01
     -3.331  0.7798E-02  0.6474E-02  0.1191E-01  0.1076E-01
     -3.280  0.8048E-02  0.8160E-02  0.1233E-01  0.1118E-01
     -3.228  0.6735E-02  0.9215E-02  0.1268E-01  0.1166E-01
     -3.176  0.4738E-02  0.9236E-02  0.1292E-01  0.1214E-01
     -3.124  0.3222E-02  0.8191E-02  0.1309E-01  0.1256E-01
     -3.072  0.2814E-02  0.6592E-02  0.1323E-01  0.1290E-01
     -3.020  0.3249E-02  0.5194E-02  0.1340E-01  0.1317E-01
     -2.969  0.3727E-02  0.4402E-02  0.1360E-01  0.1340E-01
     -2.917  0.3585E-02  0.4010E-02  0.1378E-01  0.1361E-01
     -2.865  0.2725E-02  0.3511E-02  0.1392E-01  0.1379E-01
     -2.813  0.1529E-02  0.2631E-02  0.1400E-01  0.1393E-01
     -2.761  0.4618E-03  0.1519E-02  0.1403E-01  0.1400E-01
     -2.710 -0.2440E-03  0.5258E-03  0.1401E-01  0.1403E-01
     -2.658 -0.5985E-03 -0.1335E-03  0.1398E-01  0.1402E-01
     -2.606 -0.6372E-03 -0.4787E-03  0.1395E-01  0.1400E-01
     -2.554 -0.2230E-03 -0.6213E-03  0.1394E-01  0.1397E-01
     -2.502  0.9257E-03 -0.5474E-03  0.1398E-01  0.1394E-01
     -2.450  0.2942E-02 -0.2008E-04  0.1414E-01  0.1394E-01
     -2.399  0.5463E-02  0.1286E-02  0.1442E-01  0.1400E-01
     -2.347  0.7588E-02  0.3444E-02  0.1481E-01  0.1418E-01
     -2.295  0.8345E-02  0.5969E-02  0.1525E-01  0.1449E-01
     -2.243  0.7354E-02  0.7889E-02  0.1563E-01  0.1490E-01
     -2.191  0.5114E-02  0.8292E-02  0.1589E-01  0.1533E-01
     -2.139  0.2633E-02  0.6973E-02  0.1603E-01  0.1569E-01
     -2.088  0.7584E-03  0.4579E-02  0.1607E-01  0.1593E-01
     -2.036 -0.2332E-03  0.2139E-02  0.1606E-01  0.1604E-01
     -1.984 -0.5515E-03  0.3968E-03  0.1603E-01  0.1606E-01
     -1.932 -0.5485E-03 -0.4713E-03  0.1600E-01  0.1604E-01
     -1.880 -0.4311E-03 -0.6691E-03  0.1598E-01  0.1600E-01
     -1.829 -0.1737E-03 -0.4158E-03  0.1597E-01  0.1598E-01
     -1.777  0.3924E-03  0.2350E-03  0.1599E-01  0.1599E-01
     -1.725  0.1379E-02  0.1291E-02  0.1606E-01  0.1606E-01
     -1.673  0.2642E-02  0.2594E-02  0.1620E-01  0.1619E-01
     -1.621  0.3747E-02  0.3724E-02  0.1639E-01  0.1639E-01
     -1.569  0.4192E-02  0.4190E-02  0.1661E-01  0.1660E-01
     -1.518  0.3754E-02  0.3768E-02  0.1680E-01  0.1680E-01
     -1.466  0.2654E-02  0.2677E-02  0.1694E-01  0.1694E-01
     -1.414  0.1398E-02  0.1420E-02  0.1701E-01  0.1701E-01
     -1.362  0.4278E-03  0.4450E-03  0.1703E-01  0.1703E-01
     -1.310 -0.9527E-04 -0.7839E-04  0.1703E-01  0.1703E-01
     -1.258 -0.2716E-03 -0.2434E-03  0.1702E-01  0.1702E-01
     -1.207 -0.2934E-03 -0.2421E-03  0.1700E-01  0.1701E-01
     -1.155 -0.2933E-03 -0.2254E-03  0.1699E-01  0.1699E-01
     -1.103 -0.2738E-03 -0.2440E-03  0.1697E-01  0.1698E-01
     -1.051 -0.1057E-03 -0.2394E-03  0.1697E-01  0.1697E-01
     -0.999  0.4032E-03 -0.5513E-04  0.1699E-01  0.1697E-01
     -0.948  0.1359E-02  0.4995E-03  0.1706E-01  0.1699E-01
     -0.896  0.2612E-02  0.1504E-02  0.1719E-01  0.1707E-01
     -0.844  0.3726E-02  0.2767E-02  0.1739E-01  0.1721E-01
     -0.792  0.4192E-02  0.3826E-02  0.1760E-01  0.1741E-01
     -0.740  0.3775E-02  0.4188E-02  0.1780E-01  0.1763E-01
     -0.688  0.2687E-02  0.3669E-02  0.1794E-01  0.1782E-01
     -0.637  0.1429E-02  0.2531E-02  0.1801E-01  0.1795E-01
     -0.585  0.4523E-03  0.1288E-02  0.1803E-01  0.1802E-01
     -0.533 -0.6954E-04  0.3640E-03  0.1803E-01  0.1804E-01
     -0.481 -0.2226E-03 -0.1046E-03  0.1802E-01  0.1803E-01
     -0.429 -0.1890E-03 -0.2250E-03  0.1801E-01  0.1802E-01
     -0.377 -0.1106E-03 -0.1798E-03  0.1800E-01  0.1801E-01
     -0.326 -0.5083E-04 -0.1017E-03  0.1800E-01  0.1800E-01
     -0.274 -0.1919E-04 -0.4557E-04  0.1800E-01  0.1800E-01
     -0.222 -0.6081E-05 -0.1683E-04  0.1800E-01  0.1800E-01
     -0.170 -0.1637E-05 -0.5225E-05  0.1800E-01  0.1800E-01
     -0.118 -0.3769E-06 -0.1379E-05  0.1800E-01  0.1800E-01
     -0.067 -0.7461E-07 -0.3117E-06  0.1800E-01  0.1800E-01
     -0.015 -0.1274E-07 -0.6059E-07  0.1800E-01  0.1800E-01
      0.037 -0.1882E-08 -0.1016E-07  0.1800E-01  0.1800E-01
      0.089 -0.2408E-09 -0.1475E-08  0.1800E-01  0.1800E-01
      0.141 -0.2673E-10 -0.1855E-09  0.1800E-01  0.1800E-01
      0.193 -0.2578E-11 -0.2024E-10  0.1800E-01  0.1800E-01
      0.244 -0.2162E-12 -0.1919E-11  0.1800E-01  0.1800E-01
      0.296 -0.1577E-13 -0.1581E-12  0.1800E-01  0.1800E-01
      0.348 -0.1003E-14 -0.1135E-13  0.1800E-01  0.1800E-01
      0.400 -0.5142E-16 -0.7027E-15  0.1800E-01  0.1800E-01
      0.452 -0.4285E-17 -0.4285E-16  0.1800E-01  0.1800E-01
      0.504  0.0000E+00  0.0000E+00  0.1800E-01  0.1800E-01
      0.555  0.0000E+00  0.0000E+00  0.1800E-01  0.1800E-01
      0.607  0.0000E+00  0.0000E+00  0.1800E-01  0.1800E-01
      0.659  0.0000E+00  0.0000E+00  0.1800E-01  0.1800E-01
      0.711  0.0000E+00  0.0000E+00  0.1800E-01  0.1800E-01
      0.763  0.0000E+00  0.0000E+00  0.1800E-01  0.1800E-01
      0.814  0.0000E+00  0.0000E+00  0.1800E-01  0.1800E-01
      0.866  0.0000E+00  0.0000E+00  0.1800E-01  0.1800E-01
      0.918  0.0000E+00  0.0000E+00  0.1800E-01  0.1800E-01
      0.970  0.0000E+00  0.0000E+00  0.1800E-01  0.1800E-01
      1.022  0.0000E+00  0.0000E+00  0.1800E-01  0.1800E-01
      1.074  0.0000E+00  0.0000E+00  0.1800E-01  0.1800E-01
      1.125  0.0000E+00  0.0000E+00  0.1800E-01  0.1800E-01
      1.177  0.0000E+00  0.0000E+00  0.1800E-01  0.1800E-01
      1.229  0.0000E+00  0.0000E+00  0.1800E-01  0.1800E-01
