    7    7 1000    2
  0.1392416E+04  0.2203748E-08  0.2121811E-08  0.2084483E-08  0.5000000E-15
   1.0000000000000000E-004
  CAR 
 unknown system                          
     21      1     18
 
  0.1262379E-14  0.1262379E-14  0.1262379E-14  0.1000000E+01
    1      -12.317858    -12.206960   1.000000   1.000000
    2       -9.688499     -9.466689   1.000000   1.000000
    3       -8.854317     -8.804396   1.000000   1.000000
    4       -8.847665     -8.798946   1.000000   1.000000
    5       -6.632481     -6.269622   1.000000   1.000000
    6       -5.960772     -5.890254   1.000000   1.000000
    7       -5.957989     -5.889395   1.000000   1.000000
    8       -5.017510     -4.972024   1.000000   1.000000
    9       -4.931928     -4.891854   1.000000   1.000000
   10       -4.929895     -4.891621   1.000000   1.000000
   11       -4.173999     -3.374264   1.000054  -0.000038
   12       -3.328396     -3.193737  -0.000009  -0.000000
   13       -3.316851     -3.192982  -0.000006  -0.000000
   14       -2.983757     -2.926130  -0.000000  -0.000000
   15       -2.334462     -2.239345  -0.000000  -0.000000
   16       -2.314527     -2.223414  -0.000000  -0.000000
   17       -1.595111     -1.594183  -0.000000  -0.000000
   18       -0.816456     -0.770967  -0.000000  -0.000000
