       N       E                     dE             d eps       ncg     rms          rms(c)
DAV:   1     0.525254350051E+02    0.52525E+02   -0.33190E+03   104   0.429E+02
DAV:   2    -0.664158714495E+01   -0.59167E+02   -0.58883E+02    96   0.680E+01
DAV:   3    -0.188928181686E+02   -0.12251E+02   -0.12201E+02    94   0.278E+01
DAV:   4    -0.192573679569E+02   -0.36455E+00   -0.36384E+00    96   0.785E+00
DAV:   5    -0.192758034270E+02   -0.18435E-01   -0.18432E-01   118   0.209E+00    0.705E+00
DAV:   6    -0.862974919888E+01    0.10646E+02   -0.20117E+01    72   0.159E+01    0.373E+00
DAV:   7    -0.602447596189E+01    0.26053E+01   -0.52769E+00    74   0.798E+00    0.196E+00
DAV:   8    -0.824348844263E+01   -0.22190E+01   -0.97092E-01    90   0.476E+00    0.154E+00
DAV:   9    -0.113797589276E+02   -0.31363E+01   -0.12565E+00    74   0.410E+00    0.101E+00
DAV:  10    -0.138603093830E+02   -0.24806E+01   -0.10526E+00    82   0.313E+00    0.711E-01
DAV:  11    -0.152430041259E+02   -0.13827E+01   -0.44714E-01    74   0.207E+00    0.541E-01
DAV:  12    -0.166268512960E+02   -0.13838E+01   -0.55633E-01    74   0.235E+00    0.325E-01
DAV:  13    -0.169372261062E+02   -0.31037E+00   -0.91250E-02    74   0.109E+00    0.230E-01
DAV:  14    -0.172048768352E+02   -0.26765E+00   -0.23937E-02    76   0.639E-01    0.149E-01
DAV:  15    -0.175866765617E+02   -0.38180E+00   -0.29056E-02    84   0.511E-01    0.773E-02
DAV:  16    -0.176977614760E+02   -0.11108E+00   -0.69401E-03    82   0.283E-01    0.494E-02
DAV:  17    -0.177423881704E+02   -0.44627E-01   -0.21590E-03    74   0.162E-01    0.287E-02
DAV:  18    -0.177875438379E+02   -0.45156E-01   -0.21178E-03    82   0.132E-01    0.160E-02
DAV:  19    -0.177956646261E+02   -0.81208E-02   -0.19524E-04    84   0.460E-02    0.968E-03
DAV:  20    -0.177989218396E+02   -0.32572E-02   -0.14283E-04    76   0.397E-02    0.644E-03
DAV:  21    -0.178003159036E+02   -0.13941E-02   -0.49273E-05    60   0.237E-02    0.416E-03
DAV:  22    -0.178015506827E+02   -0.12348E-02   -0.48981E-05    68   0.203E-02    0.252E-03
DAV:  23    -0.178021473737E+02   -0.59669E-03   -0.15927E-05    52   0.111E-02    0.144E-03
DAV:  24    -0.178023996259E+02   -0.25225E-03   -0.61682E-06    42   0.686E-03    0.881E-04
DAV:  25    -0.178024662413E+02   -0.66615E-04   -0.29527E-06    50   0.456E-03
   1 F= -.17802466E+02 E0= -.17804414E+02  d E =-.178025E+02  mag=     1.0007
