unknown system                          
            1
    22.037481    0.000000    0.000000
     0.000000   21.218110    0.000000
     0.000000    0.000000   20.844829
   Al
     7
Direct configuration=     1
   0.50105117  0.57402244  0.56716604
   0.42897923  0.54283816  0.47441913
   0.53806909  0.57560769  0.44246448
   0.41194233  0.41927668  0.46877631
   0.52154056  0.45502280  0.43072941
   0.48381294  0.45342669  0.56462242
   0.58863469  0.49287000  0.52554082
