   8   8   0   0
  0.1390437E+04  0.2161721E-08  0.2265703E-08  0.2271113E-08  0.5000000E-15
   1.0000000000000000E-004
  CAR 
 unknown system                          
      1.82022718    -13.03339553  301     -5.42281914      1.00000000
    -13.033  0.0000E+00  0.0000E+00  0.0000E+00  0.0000E+00
    -12.984  0.0000E+00  0.0000E+00  0.0000E+00  0.0000E+00
    -12.934  0.0000E+00  0.0000E+00  0.0000E+00  0.0000E+00
    -12.885  0.0000E+00  0.0000E+00  0.0000E+00  0.0000E+00
    -12.835  0.0000E+00  0.0000E+00  0.0000E+00  0.0000E+00
    -12.786  0.0000E+00  0.0000E+00  0.0000E+00  0.0000E+00
    -12.736  0.0000E+00  0.0000E+00  0.0000E+00  0.0000E+00
    -12.687  0.0000E+00  0.0000E+00  0.0000E+00  0.0000E+00
    -12.637 -0.5360E-29 -0.5357E-29 -0.2654E-30 -0.2652E-30
    -12.588 -0.2537E-27 -0.2535E-27 -0.1283E-28 -0.1282E-28
    -12.538 -0.1080E-25 -0.1080E-25 -0.5478E-27 -0.5475E-27
    -12.489 -0.4065E-24 -0.4063E-24 -0.2067E-25 -0.2066E-25
    -12.439 -0.1351E-22 -0.1350E-22 -0.6895E-24 -0.6891E-24
    -12.390 -0.3964E-21 -0.3962E-21 -0.2031E-22 -0.2030E-22
    -12.340 -0.1027E-19 -0.1026E-19 -0.5288E-21 -0.5285E-21
    -12.291 -0.2349E-18 -0.2348E-18 -0.1216E-19 -0.1215E-19
    -12.241 -0.4743E-17 -0.4740E-17 -0.2470E-18 -0.2469E-18
    -12.192 -0.8225E-16 -0.8221E-16 -0.4319E-17 -0.4317E-17
    -12.142 -0.1285E-14 -0.1285E-14 -0.6795E-16 -0.6792E-16
    -12.093 -0.1775E-13 -0.1775E-13 -0.9469E-15 -0.9466E-15
    -12.043 -0.2161E-12 -0.2160E-12 -0.1165E-13 -0.1164E-13
    -11.994 -0.2317E-11 -0.2316E-11 -0.1264E-12 -0.1263E-12
    -11.944 -0.2186E-10 -0.2185E-10 -0.1209E-11 -0.1208E-11
    -11.895 -0.1814E-09 -0.1813E-09 -0.1019E-10 -0.1018E-10
    -11.845 -0.1322E-08 -0.1321E-08 -0.7563E-10 -0.7561E-10
    -11.796 -0.8454E-08 -0.8452E-08 -0.4942E-09 -0.4941E-09
    -11.746 -0.4737E-07 -0.4736E-07 -0.2840E-08 -0.2839E-08
    -11.697 -0.2321E-06 -0.2320E-06 -0.1433E-07 -0.1433E-07
    -11.647 -0.9915E-06 -0.9913E-06 -0.6342E-07 -0.6341E-07
    -11.598 -0.3680E-05 -0.3679E-05 -0.2456E-06 -0.2456E-06
    -11.548 -0.1180E-04 -0.1180E-04 -0.8298E-06 -0.8297E-06
    -11.499 -0.3242E-04 -0.3242E-04 -0.2435E-05 -0.2435E-05
    -11.449 -0.7527E-04 -0.7527E-04 -0.6162E-05 -0.6161E-05
    -11.399 -0.1439E-03 -0.1439E-03 -0.1329E-04 -0.1328E-04
    -11.350 -0.2135E-03 -0.2134E-03 -0.2386E-04 -0.2385E-04
    -11.300 -0.2017E-03 -0.2017E-03 -0.3384E-04 -0.3384E-04
    -11.251  0.3712E-04  0.3705E-04 -0.3200E-04 -0.3201E-04
    -11.201  0.6536E-03  0.6535E-03  0.3562E-06  0.3471E-06
    -11.152  0.1675E-02  0.1675E-02  0.8329E-04  0.8327E-04
    -11.102  0.2889E-02  0.2888E-02  0.2263E-03  0.2263E-03
    -11.053  0.3869E-02  0.3869E-02  0.4179E-03  0.4178E-03
    -11.003  0.4191E-02  0.4191E-02  0.6254E-03  0.6253E-03
    -10.954  0.3704E-02  0.3704E-02  0.8088E-03  0.8087E-03
    -10.904  0.2635E-02  0.2635E-02  0.9392E-03  0.9392E-03
    -10.855  0.1432E-02  0.1432E-02  0.1010E-02  0.1010E-02
    -10.805  0.4869E-03  0.4870E-03  0.1034E-02  0.1034E-02
    -10.756 -0.4187E-04 -0.4182E-04  0.1032E-02  0.1032E-02
    -10.706 -0.2217E-03 -0.2217E-03  0.1021E-02  0.1021E-02
    -10.657 -0.2151E-03 -0.2151E-03  0.1011E-02  0.1011E-02
    -10.607 -0.1644E-03 -0.1644E-03  0.1002E-02  0.1002E-02
    -10.558 -0.1489E-03 -0.1489E-03  0.9950E-03  0.9950E-03
    -10.508 -0.1901E-03 -0.1901E-03  0.9856E-03  0.9856E-03
    -10.459 -0.2596E-03 -0.2596E-03  0.9727E-03  0.9727E-03
    -10.409 -0.2681E-03 -0.2681E-03  0.9595E-03  0.9595E-03
    -10.360 -0.6273E-04 -0.6276E-04  0.9563E-03  0.9563E-03
    -10.310  0.5286E-03  0.5285E-03  0.9825E-03  0.9825E-03
    -10.261  0.1595E-02  0.1595E-02  0.1061E-02  0.1061E-02
    -10.211  0.3043E-02  0.3043E-02  0.1212E-02  0.1212E-02
    -10.162  0.4586E-02  0.4586E-02  0.1439E-02  0.1439E-02
    -10.112  0.5844E-02  0.5844E-02  0.1729E-02  0.1729E-02
    -10.063  0.6495E-02  0.6495E-02  0.2050E-02  0.2050E-02
    -10.013  0.6372E-02  0.6372E-02  0.2366E-02  0.2366E-02
     -9.964  0.5505E-02  0.5506E-02  0.2638E-02  0.2638E-02
     -9.914  0.4113E-02  0.4113E-02  0.2842E-02  0.2842E-02
     -9.865  0.2542E-02  0.2542E-02  0.2968E-02  0.2968E-02
     -9.815  0.1150E-02  0.1150E-02  0.3025E-02  0.3025E-02
     -9.766  0.1624E-03  0.1624E-03  0.3033E-02  0.3033E-02
     -9.716 -0.3730E-03 -0.3729E-03  0.3014E-02  0.3014E-02
     -9.667 -0.5169E-03 -0.5169E-03  0.2989E-02  0.2989E-02
     -9.617 -0.3123E-03 -0.3124E-03  0.2973E-02  0.2973E-02
     -9.568  0.2637E-03  0.2635E-03  0.2986E-02  0.2986E-02
     -9.518  0.1224E-02  0.1223E-02  0.3047E-02  0.3047E-02
     -9.469  0.2451E-02  0.2451E-02  0.3168E-02  0.3168E-02
     -9.419  0.3681E-02  0.3680E-02  0.3350E-02  0.3350E-02
     -9.370  0.4625E-02  0.4625E-02  0.3579E-02  0.3579E-02
     -9.320  0.5124E-02  0.5124E-02  0.3833E-02  0.3833E-02
     -9.270  0.5174E-02  0.5174E-02  0.4089E-02  0.4089E-02
     -9.221  0.4823E-02  0.4824E-02  0.4328E-02  0.4328E-02
     -9.171  0.4156E-02  0.4156E-02  0.4534E-02  0.4534E-02
     -9.122  0.3418E-02  0.3418E-02  0.4703E-02  0.4703E-02
     -9.072  0.3134E-02  0.3134E-02  0.4858E-02  0.4858E-02
     -9.023  0.3945E-02  0.3945E-02  0.5054E-02  0.5054E-02
     -8.973  0.6162E-02  0.6161E-02  0.5359E-02  0.5359E-02
     -8.924  0.9374E-02  0.9373E-02  0.5823E-02  0.5823E-02
     -8.874  0.1249E-01  0.1249E-01  0.6441E-02  0.6441E-02
     -8.825  0.1423E-01  0.1423E-01  0.7146E-02  0.7146E-02
     -8.775  0.1381E-01  0.1381E-01  0.7830E-02  0.7829E-02
     -8.726  0.1132E-01  0.1132E-01  0.8390E-02  0.8390E-02
     -8.676  0.7610E-02  0.7610E-02  0.8767E-02  0.8767E-02
     -8.627  0.3906E-02  0.3906E-02  0.8960E-02  0.8960E-02
     -8.577  0.1258E-02  0.1259E-02  0.9022E-02  0.9022E-02
     -8.528  0.2580E-03  0.2580E-03  0.9035E-02  0.9035E-02
     -8.478  0.9623E-03  0.9621E-03  0.9083E-02  0.9083E-02
     -8.429  0.2961E-02  0.2961E-02  0.9229E-02  0.9229E-02
     -8.379  0.5513E-02  0.5512E-02  0.9502E-02  0.9502E-02
     -8.330  0.7798E-02  0.7798E-02  0.9888E-02  0.9888E-02
     -8.280  0.9267E-02  0.9267E-02  0.1035E-01  0.1035E-01
     -8.231  0.9885E-02  0.9885E-02  0.1084E-01  0.1084E-01
     -8.181  0.1005E-01  0.1005E-01  0.1133E-01  0.1133E-01
     -8.132  0.1021E-01  0.1021E-01  0.1184E-01  0.1184E-01
     -8.082  0.1051E-01  0.1051E-01  0.1236E-01  0.1236E-01
     -8.033  0.1071E-01  0.1071E-01  0.1289E-01  0.1289E-01
     -7.983  0.1047E-01  0.1047E-01  0.1341E-01  0.1341E-01
     -7.934  0.9694E-02  0.9694E-02  0.1389E-01  0.1389E-01
     -7.884  0.8747E-02  0.8748E-02  0.1432E-01  0.1432E-01
     -7.835  0.8226E-02  0.8226E-02  0.1473E-01  0.1473E-01
     -7.785  0.8562E-02  0.8562E-02  0.1515E-01  0.1515E-01
     -7.736  0.9653E-02  0.9653E-02  0.1563E-01  0.1563E-01
     -7.686  0.1088E-01  0.1088E-01  0.1617E-01  0.1617E-01
     -7.637  0.1155E-01  0.1155E-01  0.1674E-01  0.1674E-01
     -7.587  0.1147E-01  0.1148E-01  0.1731E-01  0.1731E-01
     -7.538  0.1107E-01  0.1107E-01  0.1786E-01  0.1786E-01
     -7.488  0.1096E-01  0.1096E-01  0.1840E-01  0.1840E-01
     -7.439  0.1141E-01  0.1141E-01  0.1897E-01  0.1897E-01
     -7.389  0.1215E-01  0.1215E-01  0.1957E-01  0.1957E-01
     -7.340  0.1279E-01  0.1279E-01  0.2020E-01  0.2020E-01
     -7.290  0.1326E-01  0.1326E-01  0.2086E-01  0.2086E-01
     -7.240  0.1391E-01  0.1391E-01  0.2155E-01  0.2155E-01
     -7.191  0.1516E-01  0.1516E-01  0.2230E-01  0.2230E-01
     -7.141  0.1702E-01  0.1702E-01  0.2314E-01  0.2314E-01
     -7.092  0.1888E-01  0.1888E-01  0.2407E-01  0.2407E-01
     -7.042  0.1975E-01  0.1975E-01  0.2505E-01  0.2505E-01
     -6.993  0.1889E-01  0.1889E-01  0.2599E-01  0.2599E-01
     -6.943  0.1650E-01  0.1650E-01  0.2680E-01  0.2680E-01
     -6.894  0.1382E-01  0.1382E-01  0.2749E-01  0.2749E-01
     -6.844  0.1248E-01  0.1248E-01  0.2811E-01  0.2811E-01
     -6.795  0.1341E-01  0.1341E-01  0.2877E-01  0.2877E-01
     -6.745  0.1613E-01  0.1613E-01  0.2957E-01  0.2957E-01
     -6.696  0.1902E-01  0.1902E-01  0.3051E-01  0.3051E-01
     -6.646  0.2046E-01  0.2046E-01  0.3152E-01  0.3152E-01
     -6.597  0.1980E-01  0.1980E-01  0.3250E-01  0.3250E-01
     -6.547  0.1751E-01  0.1751E-01  0.3337E-01  0.3337E-01
     -6.498  0.1457E-01  0.1457E-01  0.3409E-01  0.3409E-01
     -6.448  0.1172E-01  0.1172E-01  0.3467E-01  0.3467E-01
     -6.399  0.9220E-02  0.9220E-02  0.3513E-01  0.3513E-01
     -6.349  0.7144E-02  0.7144E-02  0.3548E-01  0.3548E-01
     -6.300  0.5747E-02  0.5745E-02  0.3577E-01  0.3577E-01
     -6.250  0.5514E-02  0.5509E-02  0.3604E-01  0.3604E-01
     -6.201  0.6811E-02  0.6803E-02  0.3638E-01  0.3638E-01
     -6.151  0.9465E-02  0.9456E-02  0.3685E-01  0.3684E-01
     -6.102  0.1267E-01  0.1266E-01  0.3747E-01  0.3747E-01
     -6.052  0.1536E-01  0.1535E-01  0.3823E-01  0.3823E-01
     -6.003  0.1676E-01  0.1676E-01  0.3906E-01  0.3906E-01
     -5.953  0.1674E-01  0.1675E-01  0.3989E-01  0.3989E-01
     -5.904  0.1565E-01  0.1566E-01  0.4067E-01  0.4067E-01
     -5.854  0.1393E-01  0.1394E-01  0.4136E-01  0.4136E-01
     -5.805  0.1191E-01  0.1191E-01  0.4195E-01  0.4195E-01
     -5.755  0.9817E-02  0.9816E-02  0.4243E-01  0.4243E-01
     -5.706  0.7921E-02  0.7917E-02  0.4282E-01  0.4282E-01
     -5.656  0.6445E-02  0.6439E-02  0.4314E-01  0.4314E-01
     -5.607  0.5407E-02  0.5402E-02  0.4341E-01  0.4341E-01
     -5.557  0.4574E-02  0.4574E-02  0.4364E-01  0.4364E-01
     -5.508  0.3657E-02  0.3661E-02  0.4382E-01  0.4382E-01
     -5.458  0.2555E-02  0.2562E-02  0.4394E-01  0.4394E-01
     -5.409  0.1422E-02  0.1429E-02  0.4402E-01  0.4401E-01
     -5.359  0.5076E-03  0.5128E-03  0.4404E-01  0.4404E-01
     -5.310 -0.3823E-04 -0.3560E-04  0.4404E-01  0.4404E-01
     -5.260 -0.2422E-03 -0.2415E-03  0.4403E-01  0.4403E-01
     -5.210 -0.2374E-03 -0.2377E-03  0.4401E-01  0.4401E-01
     -5.161 -0.1583E-03 -0.1587E-03  0.4401E-01  0.4401E-01
     -5.111 -0.8314E-04 -0.8350E-04  0.4400E-01  0.4400E-01
     -5.062 -0.3616E-04 -0.3636E-04  0.4400E-01  0.4400E-01
     -5.012 -0.1332E-04 -0.1341E-04  0.4400E-01  0.4400E-01
     -4.963 -0.4210E-05 -0.4240E-05  0.4400E-01  0.4400E-01
     -4.913 -0.1150E-05 -0.1159E-05  0.4400E-01  0.4400E-01
     -4.864 -0.2730E-06 -0.2754E-06  0.4400E-01  0.4400E-01
     -4.814 -0.5713E-07 -0.5768E-07  0.4400E-01  0.4400E-01
     -4.765 -0.1458E-07 -0.1469E-07  0.4400E-01  0.4400E-01
     -4.715 -0.2725E-07 -0.2728E-07  0.4400E-01  0.4400E-01
     -4.666 -0.1321E-06 -0.1322E-06  0.4400E-01  0.4400E-01
     -4.616 -0.5927E-06 -0.5930E-06  0.4400E-01  0.4400E-01
     -4.567 -0.2317E-05 -0.2318E-05  0.4400E-01  0.4400E-01
     -4.517 -0.7845E-05 -0.7848E-05  0.4400E-01  0.4400E-01
     -4.468 -0.2284E-04 -0.2285E-04  0.4400E-01  0.4400E-01
     -4.418 -0.5656E-04 -0.5657E-04  0.4400E-01  0.4400E-01
     -4.369 -0.1168E-03 -0.1168E-03  0.4399E-01  0.4399E-01
     -4.319 -0.1931E-03 -0.1931E-03  0.4398E-01  0.4398E-01
     -4.270 -0.2291E-03 -0.2291E-03  0.4397E-01  0.4397E-01
     -4.220 -0.1051E-03 -0.1050E-03  0.4396E-01  0.4396E-01
     -4.171  0.3280E-03  0.3282E-03  0.4398E-01  0.4398E-01
     -4.121  0.1142E-02  0.1142E-02  0.4404E-01  0.4404E-01
     -4.072  0.2207E-02  0.2208E-02  0.4415E-01  0.4415E-01
     -4.022  0.3190E-02  0.3190E-02  0.4430E-01  0.4430E-01
     -3.973  0.3755E-02  0.3756E-02  0.4449E-01  0.4449E-01
     -3.923  0.3875E-02  0.3875E-02  0.4468E-01  0.4468E-01
     -3.874  0.3940E-02  0.3939E-02  0.4488E-01  0.4488E-01
     -3.824  0.4490E-02  0.4489E-02  0.4510E-01  0.4510E-01
     -3.775  0.5710E-02  0.5710E-02  0.4538E-01  0.4538E-01
     -3.725  0.7143E-02  0.7143E-02  0.4574E-01  0.4574E-01
     -3.676  0.7928E-02  0.7928E-02  0.4613E-01  0.4613E-01
     -3.626  0.7419E-02  0.7419E-02  0.4650E-01  0.4650E-01
     -3.577  0.5668E-02  0.5667E-02  0.4678E-01  0.4678E-01
     -3.527  0.3395E-02  0.3395E-02  0.4694E-01  0.4694E-01
     -3.478  0.1536E-02  0.1536E-02  0.4702E-01  0.4702E-01
     -3.428  0.7349E-03  0.7336E-03  0.4706E-01  0.4706E-01
     -3.379  0.1090E-02  0.1088E-02  0.4711E-01  0.4711E-01
     -3.329  0.2199E-02  0.2197E-02  0.4722E-01  0.4722E-01
     -3.280  0.3386E-02  0.3384E-02  0.4739E-01  0.4739E-01
     -3.230  0.4018E-02  0.4018E-02  0.4759E-01  0.4759E-01
     -3.180  0.3799E-02  0.3800E-02  0.4777E-01  0.4777E-01
     -3.131  0.2873E-02  0.2875E-02  0.4792E-01  0.4792E-01
     -3.081  0.1680E-02  0.1682E-02  0.4800E-01  0.4800E-01
     -3.032  0.6612E-03  0.6625E-03  0.4803E-01  0.4803E-01
     -2.982  0.4153E-04  0.4219E-04  0.4803E-01  0.4803E-01
     -2.933 -0.2006E-03 -0.2005E-03  0.4802E-01  0.4802E-01
     -2.883 -0.2141E-03 -0.2142E-03  0.4801E-01  0.4801E-01
     -2.834 -0.1449E-03 -0.1450E-03  0.4801E-01  0.4801E-01
     -2.784 -0.7598E-04 -0.7607E-04  0.4800E-01  0.4800E-01
     -2.735 -0.3280E-04 -0.3285E-04  0.4800E-01  0.4800E-01
     -2.685 -0.1196E-04 -0.1198E-04  0.4800E-01  0.4800E-01
     -2.636 -0.3737E-05 -0.3744E-05  0.4800E-01  0.4800E-01
     -2.586 -0.1010E-05 -0.1012E-05  0.4800E-01  0.4800E-01
     -2.537 -0.2438E-06 -0.2444E-06  0.4800E-01  0.4800E-01
     -2.487 -0.8976E-07 -0.9003E-07  0.4800E-01  0.4800E-01
     -2.438 -0.2137E-06 -0.2144E-06  0.4800E-01  0.4800E-01
     -2.388 -0.8873E-06 -0.8900E-06  0.4800E-01  0.4800E-01
     -2.339 -0.3327E-05 -0.3336E-05  0.4800E-01  0.4800E-01
     -2.289 -0.1080E-04 -0.1082E-04  0.4800E-01  0.4800E-01
     -2.240 -0.3005E-04 -0.3011E-04  0.4800E-01  0.4800E-01
     -2.190 -0.7079E-04 -0.7090E-04  0.4799E-01  0.4799E-01
     -2.141 -0.1377E-03 -0.1378E-03  0.4799E-01  0.4799E-01
     -2.091 -0.2094E-03 -0.2095E-03  0.4798E-01  0.4798E-01
     -2.042 -0.2093E-03 -0.2091E-03  0.4797E-01  0.4797E-01
     -1.992  0.3556E-05  0.4361E-05  0.4797E-01  0.4797E-01
     -1.943  0.5810E-03  0.5826E-03  0.4800E-01  0.4800E-01
     -1.893  0.1559E-02  0.1561E-02  0.4807E-01  0.4807E-01
     -1.844  0.2733E-02  0.2735E-02  0.4821E-01  0.4821E-01
     -1.794  0.3669E-02  0.3670E-02  0.4839E-01  0.4839E-01
     -1.745  0.3922E-02  0.3921E-02  0.4858E-01  0.4858E-01
     -1.695  0.3354E-02  0.3352E-02  0.4875E-01  0.4875E-01
     -1.646  0.2315E-02  0.2313E-02  0.4886E-01  0.4886E-01
     -1.596  0.1528E-02  0.1528E-02  0.4894E-01  0.4894E-01
     -1.547  0.1705E-02  0.1710E-02  0.4902E-01  0.4903E-01
     -1.497  0.3111E-02  0.3119E-02  0.4918E-01  0.4918E-01
     -1.448  0.5307E-02  0.5316E-02  0.4944E-01  0.4944E-01
     -1.398  0.7304E-02  0.7310E-02  0.4980E-01  0.4980E-01
     -1.349  0.8087E-02  0.8087E-02  0.5020E-01  0.5021E-01
     -1.299  0.7238E-02  0.7233E-02  0.5056E-01  0.5056E-01
     -1.250  0.5206E-02  0.5198E-02  0.5082E-01  0.5082E-01
     -1.200  0.3016E-02  0.3009E-02  0.5097E-01  0.5097E-01
     -1.150  0.1653E-02  0.1648E-02  0.5105E-01  0.5105E-01
     -1.101  0.1556E-02  0.1552E-02  0.5113E-01  0.5113E-01
     -1.051  0.2512E-02  0.2506E-02  0.5125E-01  0.5125E-01
     -1.002  0.3920E-02  0.3909E-02  0.5145E-01  0.5145E-01
     -0.952  0.5164E-02  0.5147E-02  0.5170E-01  0.5170E-01
     -0.903  0.5877E-02  0.5859E-02  0.5199E-01  0.5199E-01
     -0.853  0.6023E-02  0.6012E-02  0.5229E-01  0.5229E-01
     -0.804  0.5817E-02  0.5820E-02  0.5258E-01  0.5258E-01
     -0.754  0.5595E-02  0.5613E-02  0.5286E-01  0.5285E-01
     -0.705  0.5640E-02  0.5671E-02  0.5314E-01  0.5314E-01
     -0.655  0.6024E-02  0.6060E-02  0.5343E-01  0.5344E-01
     -0.606  0.6529E-02  0.6560E-02  0.5376E-01  0.5376E-01
     -0.556  0.6746E-02  0.6766E-02  0.5409E-01  0.5409E-01
     -0.507  0.6329E-02  0.6333E-02  0.5440E-01  0.5441E-01
     -0.457  0.5241E-02  0.5230E-02  0.5466E-01  0.5467E-01
     -0.408  0.3846E-02  0.3822E-02  0.5485E-01  0.5486E-01
     -0.358  0.2727E-02  0.2698E-02  0.5499E-01  0.5499E-01
     -0.309  0.2346E-02  0.2317E-02  0.5511E-01  0.5510E-01
     -0.259  0.2735E-02  0.2712E-02  0.5524E-01  0.5524E-01
     -0.210  0.3458E-02  0.3446E-02  0.5541E-01  0.5541E-01
     -0.160  0.3896E-02  0.3895E-02  0.5561E-01  0.5560E-01
     -0.111  0.3647E-02  0.3657E-02  0.5579E-01  0.5578E-01
     -0.061  0.2757E-02  0.2771E-02  0.5592E-01  0.5592E-01
     -0.012  0.1607E-02  0.1621E-02  0.5600E-01  0.5600E-01
      0.038  0.6231E-03  0.6326E-03  0.5603E-01  0.5603E-01
      0.087  0.2554E-04  0.3015E-04  0.5603E-01  0.5603E-01
      0.137 -0.2048E-03 -0.2037E-03  0.5602E-01  0.5602E-01
      0.186 -0.2134E-03 -0.2140E-03  0.5601E-01  0.5601E-01
      0.236 -0.1432E-03 -0.1440E-03  0.5601E-01  0.5601E-01
      0.285 -0.7467E-04 -0.7530E-04  0.5600E-01  0.5600E-01
      0.335 -0.3209E-04 -0.3242E-04  0.5600E-01  0.5600E-01
      0.384 -0.1166E-04 -0.1180E-04  0.5600E-01  0.5600E-01
      0.434 -0.3630E-05 -0.3680E-05  0.5600E-01  0.5600E-01
      0.483 -0.9764E-06 -0.9915E-06  0.5600E-01  0.5600E-01
      0.533 -0.2282E-06 -0.2321E-06  0.5600E-01  0.5600E-01
      0.582 -0.4651E-07 -0.4737E-07  0.5600E-01  0.5600E-01
      0.632 -0.8288E-08 -0.8454E-08  0.5600E-01  0.5600E-01
      0.681 -0.1294E-08 -0.1322E-08  0.5600E-01  0.5600E-01
      0.731 -0.1773E-09 -0.1814E-09  0.5600E-01  0.5600E-01
      0.780 -0.2134E-10 -0.2186E-10  0.5600E-01  0.5600E-01
      0.830 -0.2258E-11 -0.2317E-11  0.5600E-01  0.5600E-01
      0.879 -0.2104E-12 -0.2161E-12  0.5600E-01  0.5600E-01
      0.929 -0.1726E-13 -0.1775E-13  0.5600E-01  0.5600E-01
      0.979 -0.1247E-14 -0.1287E-14  0.5600E-01  0.5600E-01
      1.028 -0.8072E-16 -0.8072E-16  0.5600E-01  0.5600E-01
      1.078 -0.4485E-17 -0.4485E-17  0.5600E-01  0.5600E-01
      1.127  0.0000E+00  0.0000E+00  0.5600E-01  0.5600E-01
      1.177  0.0000E+00  0.0000E+00  0.5600E-01  0.5600E-01
      1.226  0.0000E+00  0.0000E+00  0.5600E-01  0.5600E-01
      1.276  0.0000E+00  0.0000E+00  0.5600E-01  0.5600E-01
      1.325  0.0000E+00  0.0000E+00  0.5600E-01  0.5600E-01
      1.375  0.0000E+00  0.0000E+00  0.5600E-01  0.5600E-01
      1.424  0.0000E+00  0.0000E+00  0.5600E-01  0.5600E-01
      1.474  0.0000E+00  0.0000E+00  0.5600E-01  0.5600E-01
      1.523  0.0000E+00  0.0000E+00  0.5600E-01  0.5600E-01
      1.573  0.0000E+00  0.0000E+00  0.5600E-01  0.5600E-01
      1.622  0.0000E+00  0.0000E+00  0.5600E-01  0.5600E-01
      1.672  0.0000E+00  0.0000E+00  0.5600E-01  0.5600E-01
      1.721  0.0000E+00  0.0000E+00  0.5600E-01  0.5600E-01
      1.771  0.0000E+00  0.0000E+00  0.5600E-01  0.5600E-01
      1.820  0.0000E+00  0.0000E+00  0.5600E-01  0.5600E-01
