    8    8 1000    2
  0.1390437E+04  0.2161721E-08  0.2265703E-08  0.2271113E-08  0.5000000E-15
   1.0000000000000000E-004
  CAR 
 unknown system                          
     88      1     56
 
  0.1262379E-14  0.1262379E-14  0.1262379E-14  0.1000000E+01
    1      -11.033396    -11.033387   1.000000   1.000000
    2      -10.147298    -10.147294   1.000000   1.000000
    3       -9.993312     -9.993309   1.000000   1.000000
    4       -9.391729     -9.391716   1.000000   1.000000
    5       -9.190963     -9.190955   1.000000   1.000000
    6       -8.897826     -8.897818   1.000000   1.000000
    7       -8.883594     -8.883590   1.000000   1.000000
    8       -8.792681     -8.792675   1.000000   1.000000
    9       -8.761094     -8.761088   1.000000   1.000000
   10       -8.347715     -8.347710   1.000000   1.000000
   11       -8.296135     -8.296128   1.000000   1.000000
   12       -8.161064     -8.161062   1.000000   1.000000
   13       -8.051111     -8.051094   1.000000   1.000000
   14       -7.994597     -7.994587   1.000000   1.000000
   15       -7.876260     -7.876255   1.000000   1.000000
   16       -7.701082     -7.701079   1.000000   1.000000
   17       -7.672911     -7.672880   1.000000   1.000000
   18       -7.606023     -7.606019   1.000000   1.000000
   19       -7.442593     -7.442586   1.000000   1.000000
   20       -7.399700     -7.399692   1.000000   1.000000
   21       -7.342650     -7.342647   1.000000   1.000000
   22       -7.222570     -7.222545   1.000000   1.000000
   23       -7.192027     -7.192023   1.000000   1.000000
   24       -7.081258     -7.081247   1.000000   1.000000
   25       -7.067781     -7.067777   1.000000   1.000000
   26       -7.019607     -7.019603   1.000000   1.000000
   27       -6.995873     -6.995868   1.000000   1.000000
   28       -6.939643     -6.939611   1.000000   1.000000
   29       -6.741517     -6.741513   1.000000   1.000000
   30       -6.734154     -6.734151   1.000000   1.000000
   31       -6.683327     -6.683322   1.000000   1.000000
   32       -6.678861     -6.678857   1.000000   1.000000
   33       -6.624085     -6.624077   1.000000   1.000000
   34       -6.541847     -6.541841   1.000000   1.000000
   35       -6.460213     -6.460211   1.000000   1.000000
   36       -6.366094     -6.366066   1.000000   1.000000
   37       -6.158498     -6.158462   1.000001   1.000001
   38       -6.054333     -6.054134   1.000038   1.000038
   39       -6.049940     -6.049752   1.000043   1.000043
   40       -6.018769     -6.018763   1.000105   1.000105
   41       -5.876992     -5.876956   1.003030   1.003032
   42       -5.873928     -5.873889   1.003216   1.003219
   43       -5.756600     -5.756564   1.019922   1.019930
   44       -5.571337     -5.571041   0.973868   0.973411
   45       -3.984585     -3.984601  -0.000000  -0.000000
   46       -3.710887     -3.710891  -0.000000  -0.000000
   47       -3.666245     -3.666250  -0.000000  -0.000000
   48       -3.248905     -3.248826  -0.000000  -0.000000
   49       -1.770623     -1.770730  -0.000000  -0.000000
   50       -1.378478     -1.378679  -0.000000  -0.000000
   51       -1.369470     -1.369649  -0.000000  -0.000000
   52       -0.988298     -0.988299  -0.000000  -0.000000
   53       -0.826770     -0.826045  -0.000000  -0.000000
   54       -0.630508     -0.630725  -0.000000  -0.000000
   55       -0.500478     -0.501251  -0.000000  -0.000000
   56       -0.180320     -0.179773  -0.000000  -0.000000
