       N       E                     dE             d eps       ncg     rms          rms(c)
DAV:   1     0.730472591103E+03    0.73047E+03   -0.13377E+04   224   0.709E+02
DAV:   2     0.442455165815E+03   -0.28802E+03   -0.27050E+03   448   0.768E+01
DAV:   3     0.124864784211E+03   -0.31759E+03   -0.29935E+03   392   0.685E+01
DAV:   4     0.208247377706E+01   -0.12278E+03   -0.11687E+03   312   0.534E+01
DAV:   5    -0.164779110874E+02   -0.18560E+02   -0.14830E+02   272   0.192E+01    0.175E+01
DAV:   6    -0.275099733125E+01    0.13727E+02   -0.45015E+01   232   0.196E+01    0.112E+01
DAV:   7    -0.199534770546E+01    0.75565E+00   -0.18269E+00   248   0.442E+00    0.583E+00
DAV:   8    -0.778977562636E+01   -0.57944E+01   -0.22902E+00   248   0.401E+00    0.254E+00
DAV:   9    -0.103647509657E+02   -0.25750E+01   -0.66614E-01   256   0.222E+00    0.137E+00
DAV:  10    -0.129880876565E+02   -0.26233E+01   -0.93881E-01   240   0.258E+00    0.956E-01
DAV:  11    -0.142867219262E+02   -0.12986E+01   -0.34702E-01   240   0.143E+00    0.683E-01
DAV:  12    -0.154116969466E+02   -0.11250E+01   -0.33593E-01   240   0.150E+00    0.411E-01
DAV:  13    -0.159805899029E+02   -0.56889E+00   -0.79290E-02   240   0.710E-01    0.280E-01
DAV:  14    -0.163564437746E+02   -0.37585E+00   -0.30933E-02   248   0.490E-01    0.190E-01
DAV:  15    -0.166639858731E+02   -0.30754E+00   -0.15378E-02   240   0.402E-01    0.982E-02
DAV:  16    -0.167806215986E+02   -0.11664E+00   -0.27780E-03   256   0.188E-01    0.527E-02
DAV:  17    -0.168276277917E+02   -0.47006E-01   -0.11510E-03   216   0.888E-02    0.378E-02
DAV:  18    -0.168506024648E+02   -0.22975E-01   -0.40081E-04   224   0.537E-02    0.176E-02
DAV:  19    -0.168600865091E+02   -0.94840E-02   -0.11702E-04   160   0.309E-02    0.119E-02
DAV:  20    -0.168647343954E+02   -0.46479E-02   -0.61180E-05   168   0.211E-02    0.865E-03
DAV:  21    -0.168673243141E+02   -0.25899E-02   -0.45827E-05   168   0.185E-02    0.640E-03
DAV:  22    -0.168688469476E+02   -0.15226E-02   -0.21834E-05   168   0.134E-02    0.459E-03
DAV:  23    -0.168701307965E+02   -0.12838E-02   -0.24715E-05   168   0.129E-02    0.309E-03
DAV:  24    -0.168705885718E+02   -0.45778E-03   -0.85816E-06   168   0.744E-03    0.235E-03
DAV:  25    -0.168708888190E+02   -0.30025E-03   -0.40165E-06   144   0.535E-03    0.171E-03
DAV:  26    -0.168710365890E+02   -0.14777E-03   -0.20532E-06   152   0.355E-03    0.129E-03
DAV:  27    -0.168711797628E+02   -0.14317E-03   -0.13009E-06   136   0.269E-03    0.103E-03
DAV:  28    -0.168713165187E+02   -0.13676E-03   -0.16141E-06   144   0.279E-03    0.708E-04
DAV:  29    -0.168714261611E+02   -0.10964E-03   -0.14645E-06   152   0.251E-03    0.440E-04
DAV:  30    -0.168714744443E+02   -0.48283E-04   -0.92591E-07   160   0.190E-03
   1 F= -.16871474E+02 E0= -.16880211E+02  d E =-.168715E+02  mag=     0.0005
       N       E                     dE             d eps       ncg     rms          rms(c)
DAV:   1    -0.168715896365E+02   -0.16348E-03   -0.63633E-02   232   0.876E-01    0.315E-02
DAV:   2    -0.168716594993E+02   -0.69863E-04   -0.73715E-04   256   0.130E-01
   2 F= -.16871659E+02 E0= -.16880250E+02  d E =-.185055E-03  mag=     0.0005
       N       E                     dE             d eps       ncg     rms          rms(c)
DAV:   1    -0.168716470795E+02   -0.57443E-04   -0.46008E-04   224   0.728E-02    0.110E-02
DAV:   2    -0.168716489918E+02   -0.19123E-05   -0.97426E-06   112   0.138E-02
   3 F= -.16871649E+02 E0= -.16880201E+02  d E =-.174547E-03  mag=     0.0005
