 vasp.6.1.2 22Jul20 (build Aug  2 2021 21:04:21) gamma-only                      
 executed on             LinuxPGI date 2021.12.28  19:09:47
 running on    8 total cores
 distrk:  each k-point on    8 cores,    1 groups
 distr:  one band on NCORE=   8 cores,    1 groups


--------------------------------------------------------------------------------------------------------


 INCAR:
 POTCAR:    PAW_PBE Au 04Oct2007                  
 -----------------------------------------------------------------------------
|                                                                             |
|           W    W    AA    RRRRR   N    N  II  N    N   GGGG   !!!           |
|           W    W   A  A   R    R  NN   N  II  NN   N  G    G  !!!           |
|           W    W  A    A  R    R  N N  N  II  N N  N  G       !!!           |
|           W WW W  AAAAAA  RRRRR   N  N N  II  N  N N  G  GGG   !            |
|           WW  WW  A    A  R   R   N   NN  II  N   NN  G    G                |
|           W    W  A    A  R    R  N    N  II  N    N   GGGG   !!!           |
|                                                                             |
|     You use a magnetic or noncollinear calculation, but did not specify     |
|     the initial magnetic moment with the MAGMOM tag. Note that a            |
|     default of 1 will be used for all atoms. This ferromagnetic setup       |
|     may break the symmetry of the crystal, in particular it may rule        |
|     out finding an antiferromagnetic solution. Thence, we recommend         |
|     setting the initial magnetic moment manually or verifying carefully     |
|     that this magnetic setup is desired.                                    |
|                                                                             |
 -----------------------------------------------------------------------------

 -----------------------------------------------------------------------------
|                                                                             |
|           W    W    AA    RRRRR   N    N  II  N    N   GGGG   !!!           |
|           W    W   A  A   R    R  NN   N  II  NN   N  G    G  !!!           |
|           W    W  A    A  R    R  N N  N  II  N N  N  G       !!!           |
|           W WW W  AAAAAA  RRRRR   N  N N  II  N  N N  G  GGG   !            |
|           WW  WW  A    A  R   R   N   NN  II  N   NN  G    G                |
|           W    W  A    A  R    R  N    N  II  N    N   GGGG   !!!           |
|                                                                             |
|     For optimal performance we recommend to set                             |
|       NCORE = 4 - approx SQRT(number of cores).                             |
|     NCORE specifies how many cores store one orbital (NPAR=cpu/NCORE).      |
|     This setting can greatly improve the performance of VASP for DFT.       |
|     The default, NCORE=1 might be grossly inefficient on modern             |
|     multi-core architectures or massively parallel machines. Do your        |
|     own testing!!!!                                                         |
|     Unfortunately you need to use the default for GW and RPA                |
|     calculations (for HF NCORE is supported but not extensively tested      |
|     yet).                                                                   |
|                                                                             |
 -----------------------------------------------------------------------------

 POTCAR:    PAW_PBE Au 04Oct2007                  
   SHA256 =  d0044ae04e2bdce24051b198fc5c053d722a5bc6fe3c3b100514a13fc5d2db88 Au/POTCAR             
   COPYR  = (c) Copyright 04Oct2007 Georg Kresse                                                    
   COPYR  = This file is part of the software VASP. Any use, copying, and all other rights are regul
   COPYR  = If you do not have a valid VASP license, you may not use, copy or distribute this file. 
   VRHFIN =Au: s1d10                                                                                
   LEXCH  = PE                                                                                      
   EATOM  =   926.0867 eV,   68.0654 Ry                                                             
                                                                                                    
   TITEL  = PAW_PBE Au 04Oct2007                                                                    
   LULTRA =        F    use ultrasoft PP ?                                                          
   IUNSCR =        1    unscreen: 0-lin 1-nonlin 2-no                                               
   RPACOR =    2.330    partial core radius                                                         
   POMASS =  196.966; ZVAL   =   11.000    mass and valenz                                          
   RCORE  =    2.500    outmost cutoff radius                                                       
   RWIGS  =    2.840; RWIGS  =    1.503    wigner-seitz radius (au A)                               
   ENMAX  =  229.943; ENMIN  =  172.457 eV                                                          
   ICORE  =        3    local potential                                                             
   LCOR   =        T    correct aug charges                                                         
   LPAW   =        T    paw PP                                                                      
   EAUG   =  356.670                                                                                
   DEXC   =    0.000                                                                                
   RMAX   =    2.562    core radius for proj-oper                                                   
   RAUG   =    1.300    factor for augmentation sphere                                              
   RDEP   =    2.598    radius for radial grids                                                     
   RDEPT  =    2.193    core radius for aug-charge                                                  
                                                                                                    
   Atomic configuration                                                                             
   16 entries                                                                                       
     n  l   j            E        occ.                                                              
     1  0  0.50    -80748.5001   2.0000                                                             
     2  0  0.50    -14244.7466   2.0000                                                             
     2  1  1.50    -12310.9591   6.0000                                                             
     3  0  0.50     -3362.1768   2.0000                                                             
     3  1  1.50     -2801.5463   6.0000                                                             
     3  2  2.50     -2203.8206  10.0000                                                             
     4  0  0.50      -729.8168   2.0000                                                             
     4  1  1.50      -546.0527   6.0000                                                             
     4  2  2.50      -325.7302  10.0000                                                             
     4  3  3.50       -81.1472  14.0000                                                             
     5  0  0.50      -108.3201   2.0000                                                             
     5  1  1.50       -59.7479   6.0000                                                             
     5  2  2.50        -6.8783  10.0000                                                             
     6  0  0.50        -5.7602   1.0000                                                             
     6  1  1.50        -6.8029   0.0000                                                             
     5  3  2.50        -1.3606   0.0000                                                             
   Description                                                                                      
     l       E           TYP  RCUT    TYP  RCUT                                                     
     2     -6.8782861     23  2.500                                                                 
     2     -8.2388687     23  2.500                                                                 
     0     -5.7601759     23  2.500                                                                 
     0     -0.8493231     23  2.500                                                                 
     1     -2.7211652     23  2.500                                                                 
     1     27.2116520     23  2.500                                                                 
     3     -1.3605826     23  2.500                                                                 
  local pseudopotential read in
  partial core-charges read in
  partial kinetic energy density read in
  atomic valenz-charges read in
  non local Contribution for L=            2  read in
    real space projection operators read in
  non local Contribution for L=            2  read in
    real space projection operators read in
  non local Contribution for L=            0  read in
    real space projection operators read in
  non local Contribution for L=            0  read in
    real space projection operators read in
  non local Contribution for L=            1  read in
    real space projection operators read in
  non local Contribution for L=            1  read in
    real space projection operators read in
    PAW grid and wavefunctions read in
 
   number of l-projection  operators is LMAX  =            6
   number of lm-projection operators is LMMAX =           18
 
  PAW_PBE Au 04Oct2007                  :
 energy of atom  1       EATOM= -926.0867
 kinetic energy error for atom=    0.0062 (will be added to EATOM!!)
 
 
 POSCAR: Au
  positions in cartesian coordinates
  No initial velocities read in
 exchange correlation table for  LEXCH =        8
   RHO(1)=    0.500       N(1)  =     2000
   RHO(2)=  100.500       N(2)  =     4000
 


--------------------------------------------------------------------------------------------------------


 ion  position               nearest neighbor table
   1  0.399  0.482  0.561-   7 2.63   8 2.63   4 2.78   5 2.79
   2  0.541  0.537  0.430-   6 2.53   3 2.68   4 2.78   5 2.79
   3  0.604  0.476  0.512-   2 2.68   4 2.70   5 2.70
   4  0.489  0.439  0.484-   8 2.62   3 2.70   2 2.78   1 2.78   5 2.83
   5  0.510  0.545  0.548-   7 2.62   3 2.70   2 2.79   1 2.79   4 2.83
   6  0.507  0.597  0.342-   2 2.53
   7  0.421  0.581  0.618-   5 2.62   1 2.63
   8  0.382  0.387  0.498-   4 2.62   1 2.63
 

IMPORTANT INFORMATION: All symmetrisations will be switched off!
NOSYMM: (Re-)initialisation of all symmetry stuff for point group C_1.


----------------------------------------------------------------------------------------

                                     Primitive cell                                     

  volume of cell :   11123.4927

  direct lattice vectors                    reciprocal lattice vectors
    21.617208572  0.000000000  0.000000000     0.046259442  0.000000000  0.000000000
     0.000000000 22.657025112  0.000000000     0.000000000  0.044136421  0.000000000
     0.000000000  0.000000000 22.711126418     0.000000000  0.000000000  0.044031281

  length of vectors
    21.617208572 22.657025112 22.711126418     0.046259442  0.044136421  0.044031281

  position of ions in fractional coordinates (direct lattice)
     0.399438499  0.482329486  0.561342722
     0.541398872  0.537205106  0.429759237
     0.604374894  0.476296816  0.511528753
     0.489016264  0.439424538  0.484487144
     0.509690174  0.544749065  0.548440088
     0.506671607  0.596919321  0.341888071
     0.420741414  0.581496855  0.617565047
     0.382341376  0.386598429  0.498225936

  ion indices of the primitive-cell ions
   primitive index   ion index
                 1           1
                 2           2
                 3           3
                 4           4
                 5           5
                 6           6
                 7           7
                 8           8

----------------------------------------------------------------------------------------

 
 
 KPOINTS: KPOINTS created by Atomic Simulation Env

Automatic generation of k-mesh.
Space group operators:
 irot       det(A)        alpha          n_x          n_y          n_z        tau_x        tau_y        tau_z
    1     1.000000     0.000000     1.000000     0.000000     0.000000     0.000000     0.000000     0.000000
 
 Subroutine IBZKPT returns following result:
 ===========================================
 
 Found      1 irreducible k-points:
 
 Following reciprocal coordinates:
            Coordinates               Weight
  0.000000  0.000000  0.000000      1.000000
 
 Following cartesian coordinates:
            Coordinates               Weight
  0.000000  0.000000  0.000000      1.000000
 


--------------------------------------------------------------------------------------------------------




 Dimension of arrays:
   k-points           NKPTS =      1   k-points in BZ     NKDIM =      1   number of bands    NBANDS=     56
   number of dos      NEDOS =    301   number of ions     NIONS =      8
   non local maximal  LDIM  =      6   non local SUM 2l+1 LMDIM =     18
   total plane-waves  NPLWV = ******
   max r-space proj   IRMAX =      1   max aug-charges    IRDMAX=   7647
   dimension x,y,z NGX =   108 NGY =  112 NGZ =  112
   dimension x,y,z NGXF=   216 NGYF=  224 NGZF=  224
   support grid    NGXF=   216 NGYF=  224 NGZF=  224
   ions per type =               8
   NGX,Y,Z   is equivalent  to a cutoff of   8.31,  8.22,  8.20 a.u.
   NGXF,Y,Z  is equivalent  to a cutoff of  16.61, 16.44, 16.40 a.u.

 SYSTEM =  unknown system                          
 POSCAR =  Au                                      

 Startparameter for this run:
   NWRITE =      2    write-flag & timer
   PREC   = normal    normal or accurate (medium, high low for compatibility)
   ISTART =      0    job   : 0-new  1-cont  2-samecut
   ICHARG =      2    charge: 1-file 2-atom 10-const
   ISPIN  =      2    spin polarized calculation?
   LNONCOLLINEAR =      F non collinear calculations
   LSORBIT =      F    spin-orbit coupling
   INIWAV =      1    electr: 0-lowe 1-rand  2-diag
   LASPH  =      F    aspherical Exc in radial PAW
   METAGGA=      F    non-selfconsistent MetaGGA calc.

 Electronic Relaxation 1
   ENCUT  =  400.0 eV  29.40 Ry    5.42 a.u.  35.25 36.95 37.04*2*pi/ulx,y,z
   ENINI  =  400.0     initial cutoff
   ENAUG  =  356.7 eV  augmentation charge cutoff
   NELM   =     60;   NELMIN=  2; NELMDL=  0     # of ELM steps 
   EDIFF  = 0.1E-03   stopping-criterion for ELM
   LREAL  =      F    real-space projection
   NLSPLINE    = F    spline interpolate recip. space projectors
   LCOMPAT=      F    compatible to vasp.4.4
   GGA_COMPAT  = T    GGA compatible to vasp.4.4-vasp.4.6
   LMAXPAW     = -100 max onsite density
   LMAXMIX     =    2 max onsite mixed and CHGCAR
   VOSKOWN=      0    Vosko Wilk Nusair interpolation
   ROPT   =    0.00000
 Ionic relaxation
   EDIFFG = 0.1E-02   stopping-criterion for IOM
   NSW    =   1000    number of steps for IOM
   NBLOCK =      1;   KBLOCK =   1000    inner block; outer block 
   IBRION =      2    ionic relax: 0-MD 1-quasi-New 2-CG
   NFREE  =      1    steps in history (QN), initial steepest desc. (CG)
   ISIF   =      0    stress and relaxation
   IWAVPR =     11    prediction:  0-non 1-charg 2-wave 3-comb
   ISYM   =      0    0-nonsym 1-usesym 2-fastsym
   LCORR  =      T    Harris-Foulkes like correction to forces

   POTIM  = 0.5000    time-step for ionic-motion
   TEIN   =    0.0    initial temperature
   TEBEG  =    0.0;   TEEND  =   0.0 temperature during run
   SMASS  =  -3.00    Nose mass-parameter (am)
   estimated Nose-frequenzy (Omega)   =  0.10E-29 period in steps = 0.13E+47 mass=  -0.107E-25a.u.
   SCALEE = 1.0000    scale energy and forces
   NPACO  =    256;   APACO  = 16.0  distance and # of slots for P.C.
   PSTRESS=    0.0 pullay stress

  Mass of Ions in am
   POMASS = 196.97
  Ionic Valenz
   ZVAL   =  11.00
  Atomic Wigner-Seitz radii
   RWIGS  =  -1.00
  virtual crystal weights 
   VCA    =   1.00
   NELECT =      88.0000    total number of electrons
   NUPDOWN=      -1.0000    fix difference up-down

 DOS related values:
   EMIN   =  10.00;   EMAX   =-10.00  energy-range for DOS
   EFERMI =   0.00
   ISMEAR =     1;   SIGMA  =   0.20  broadening in eV -4-tet -1-fermi 0-gaus

 Electronic relaxation 2 (details)
   IALGO  =     38    algorithm
   LDIAG  =      T    sub-space diagonalisation (order eigenvalues)
   LSUBROT=      F    optimize rotation matrix (better conditioning)
   TURBO    =      0    0=normal 1=particle mesh
   IRESTART =      0    0=no restart 2=restart with 2 vectors
   NREBOOT  =      0    no. of reboots
   NMIN     =      0    reboot dimension
   EREF     =   0.00    reference energy to select bands
   IMIX   =      4    mixing-type and parameters
     AMIX     =   0.40;   BMIX     =  1.00
     AMIX_MAG =   1.60;   BMIX_MAG =  1.00
     AMIN     =   0.10
     WC   =   100.;   INIMIX=   1;  MIXPRE=   1;  MAXMIX= -45

 Intra band minimization:
   WEIMIN = 0.0010     energy-eigenvalue tresh-hold
   EBREAK =  0.45E-06  absolut break condition
   DEPER  =   0.30     relativ break condition  

   TIME   =   0.40     timestep for ELM

  volume/ion in A,a.u.               =    1390.44      9383.13
  Fermi-wavevector in a.u.,A,eV,Ry     =   0.326204  0.616435  1.447779  0.106409
  Thomas-Fermi vector in A             =   1.217862
 
 Write flags
   LWAVE        =      F    write WAVECAR
   LDOWNSAMPLE  =      F    k-point downsampling of WAVECAR
   LCHARG       =      F    write CHGCAR
   LVTOT        =      F    write LOCPOT, total local potential
   LVHAR        =      F    write LOCPOT, Hartree potential only
   LELF         =      F    write electronic localiz. function (ELF)
   LORBIT       =      0    0 simple, 1 ext, 2 COOP (PROOUT), +10 PAW based schemes


 Dipole corrections
   LMONO  =      F    monopole corrections only (constant potential shift)
   LDIPOL =      F    correct potential (dipole corrections)
   IDIPOL =      0    1-x, 2-y, 3-z, 4-all directions 
   EPSILON=  1.0000000 bulk dielectric constant

 Exchange correlation treatment:
   GGA     =    PE    GGA type
   LEXCH   =     8    internal setting for exchange type
   VOSKOWN=      0    Vosko Wilk Nusair interpolation
   LHFCALC =     F    Hartree Fock is set to
   LHFONE  =     F    Hartree Fock one center treatment
   AEXX    =    0.0000 exact exchange contribution

 Linear response parameters
   LEPSILON=     F    determine dielectric tensor
   LRPA    =     F    only Hartree local field effects (RPA)
   LNABLA  =     F    use nabla operator in PAW spheres
   LVEL    =     F    velocity operator in full k-point grid
   LINTERFAST=   F  fast interpolation
   KINTER  =     0    interpolate to denser k-point grid
   CSHIFT  =0.1000    complex shift for real part using Kramers Kronig
   OMEGAMAX=  -1.0    maximum frequency
   DEG_THRESHOLD= 0.2000000E-02 threshold for treating states as degnerate
   RTIME   =   -0.100 relaxation time in fs
  (WPLASMAI=    0.000 imaginary part of plasma frequency in eV, 0.658/RTIME)
   DFIELD  = 0.0000000 0.0000000 0.0000000 field for delta impulse in time
 
 Orbital magnetization related:
   ORBITALMAG=     F  switch on orbital magnetization
   LCHIMAG   =     F  perturbation theory with respect to B field
   DQ        =  0.001000  dq finite difference perturbation B field
   LLRAUG    =     F  two centre corrections for induced B field



--------------------------------------------------------------------------------------------------------


 conjugate gradient relaxation of ions
 charge density and potential will be updated during run
 spin polarized calculation
 Variant of blocked Davidson
 Davidson routine will perform the subspace rotation
 perform sub-space diagonalisation
    after iterative eigenvector-optimisation
 modified Broyden-mixing scheme, WC =      100.0
 initial mixing is a Kerker type mixing with AMIX =  0.4000 and BMIX =      1.0000
 Hartree-type preconditioning will be used
 using additional bands            12
 reciprocal scheme for non local part
 use partial core corrections
 calculate Harris-corrections to forces 
   (improved forces if not selfconsistent)
 use gradient corrections 
 use of overlap-Matrix (Vanderbilt PP)
 Methfessel and Paxton  Order N= 1 SIGMA  =   0.20


--------------------------------------------------------------------------------------------------------


  energy-cutoff  :      400.00
  volume of cell :    11123.49
      direct lattice vectors                 reciprocal lattice vectors
    21.617208572  0.000000000  0.000000000     0.046259442  0.000000000  0.000000000
     0.000000000 22.657025112  0.000000000     0.000000000  0.044136421  0.000000000
     0.000000000  0.000000000 22.711126418     0.000000000  0.000000000  0.044031281

  length of vectors
    21.617208572 22.657025112 22.711126418     0.046259442  0.044136421  0.044031281


 
 k-points in units of 2pi/SCALE and weight: KPOINTS created by Atomic Simulation Env
   0.00000000  0.00000000  0.00000000       1.000
 
 k-points in reciprocal lattice and weights: KPOINTS created by Atomic Simulation Env
   0.00000000  0.00000000  0.00000000       1.000
 
 position of ions in fractional coordinates (direct lattice) 
   0.39943850  0.48232949  0.56134272
   0.54139887  0.53720511  0.42975924
   0.60437489  0.47629682  0.51152875
   0.48901626  0.43942454  0.48448714
   0.50969017  0.54474907  0.54844009
   0.50667161  0.59691932  0.34188807
   0.42074141  0.58149685  0.61756505
   0.38234138  0.38659843  0.49822594
 
 position of ions in cartesian coordinates  (Angst):
   8.63474534 10.92815128 12.74872551
  11.70353235 12.17146957  9.76031637
  13.06489814 10.79146891 11.61739418
  10.57116658  9.95605279 11.00324877
  11.01807880 12.34239325 12.45569218
  10.95282581 13.52441604  7.76466319
   9.09525489 13.17498884 14.02559786
   8.26515327  8.75917031 11.31527221
 


--------------------------------------------------------------------------------------------------------


 use parallel FFT for orbitals z direction half grid
 k-point   1 :   0.0000 0.0000 0.0000  plane waves:  100931

 maximum and minimum number of plane-waves per node :     12623    12608

 maximum number of plane-waves:    100931
 maximum index in each direction: 
   IXMAX=   35   IYMAX=   36   IZMAX=   37
   IXMIN=  -35   IYMIN=  -36   IZMIN=    0


 parallel 3D FFT for wavefunctions:
    minimum data exchange during FFTs selected (reduces bandwidth)
 parallel 3D FFT for charge:
    minimum data exchange during FFTs selected (reduces bandwidth)


 total amount of memory used by VASP MPI-rank0   218037. kBytes
=======================================================================

   base      :      30000. kBytes
   nonl-proj :       3433. kBytes
   fftplans  :      49637. kBytes
   grid      :     112318. kBytes
   one-center:         15. kBytes
   wavefun   :      22634. kBytes
 
     INWAV:  cpu time    0.0000: real time    0.0000
 Broyden mixing: mesh for mixing (old mesh)
   NGX = 71   NGY = 73   NGZ = 75
  (NGX  =216   NGY  =224   NGZ  =224)
  gives a total of 388725 points

 initial charge density was supplied:
 charge density of overlapping atoms calculated
 number of electron      88.0000000 magnetization       8.0000000
 keeping initial charge density in first step


--------------------------------------------------------------------------------------------------------


 Maximum index for augmentation-charges           933 (set IRDMAX)


--------------------------------------------------------------------------------------------------------


 First call to EWALD:  gamma=   0.079
 Maximum number of real-space cells 3x 3x 3
 Maximum number of reciprocal cells 3x 3x 3

    FEWALD:  cpu time    0.0011: real time    0.0011


--------------------------------------- Iteration      1(   1)  ---------------------------------------


    POTLOK:  cpu time    3.6735: real time    3.6807
    SETDIJ:  cpu time    0.0253: real time    0.0253
     EDDAV:  cpu time    5.8290: real time    5.8375
       DOS:  cpu time    0.0094: real time    0.0094
    --------------------------------------------
      LOOP:  cpu time    9.5372: real time    9.5528

 eigenvalue-minimisations  :   224
 total energy-change (2. order) : 0.7304726E+03  (-0.1337719E+04)
 number of electron      88.0000000 magnetization       8.0000000
 augmentation part       88.0000000 magnetization       8.0000000

 Free energy of the ion-electron system (eV)
  ---------------------------------------------------
  alpha Z        PSCENC =         6.70175720
  Ewald energy   TEWEN  =      6571.19269525
  -Hartree energ DENC   =    -13664.20599535
  -exchange      EXHF   =         0.00000000
  -V(xc)+E(xc)   XCENC  =       116.46246477
  PAW double counting   =      6992.17180065    -6807.49900724
  entropy T*S    EENTRO =        -0.01428134
  eigenvalues    EBANDS =       107.01900702
  atomic energy  EATOM  =      7408.64415014
  Solvation  Ediel_sol  =         0.00000000
  ---------------------------------------------------
  free energy    TOTEN  =       730.47259110 eV

  energy without entropy =      730.48687245  energy(sigma->0) =      730.47735155


--------------------------------------------------------------------------------------------------------




--------------------------------------- Iteration      1(   2)  ---------------------------------------


     EDDAV:  cpu time   10.0792: real time   10.0925
       DOS:  cpu time    0.0095: real time    0.0095
    --------------------------------------------
      LOOP:  cpu time   10.0887: real time   10.1020

 eigenvalue-minimisations  :   448
 total energy-change (2. order) :-0.2880174E+03  (-0.2704959E+03)
 number of electron      88.0000000 magnetization       8.0000000
 augmentation part       88.0000000 magnetization       8.0000000

 Free energy of the ion-electron system (eV)
  ---------------------------------------------------
  alpha Z        PSCENC =         6.70175720
  Ewald energy   TEWEN  =      6571.19269525
  -Hartree energ DENC   =    -13664.20599535
  -exchange      EXHF   =         0.00000000
  -V(xc)+E(xc)   XCENC  =       116.46246477
  PAW double counting   =      6992.17180065    -6807.49900724
  entropy T*S    EENTRO =        -0.01317874
  eigenvalues    EBANDS =      -180.99952087
  atomic energy  EATOM  =      7408.64415014
  Solvation  Ediel_sol  =         0.00000000
  ---------------------------------------------------
  free energy    TOTEN  =       442.45516582 eV

  energy without entropy =      442.46834455  energy(sigma->0) =      442.45955873


--------------------------------------------------------------------------------------------------------




--------------------------------------- Iteration      1(   3)  ---------------------------------------


     EDDAV:  cpu time    8.8472: real time    8.8564
       DOS:  cpu time    0.0095: real time    0.0095
    --------------------------------------------
      LOOP:  cpu time    8.8567: real time    8.8659

 eigenvalue-minimisations  :   392
 total energy-change (2. order) :-0.3175904E+03  (-0.2993516E+03)
 number of electron      88.0000000 magnetization       8.0000000
 augmentation part       88.0000000 magnetization       8.0000000

 Free energy of the ion-electron system (eV)
  ---------------------------------------------------
  alpha Z        PSCENC =         6.70175720
  Ewald energy   TEWEN  =      6571.19269525
  -Hartree energ DENC   =    -13664.20599535
  -exchange      EXHF   =         0.00000000
  -V(xc)+E(xc)   XCENC  =       116.46246477
  PAW double counting   =      6992.17180065    -6807.49900724
  entropy T*S    EENTRO =        -0.02084197
  eigenvalues    EBANDS =      -498.58223924
  atomic energy  EATOM  =      7408.64415014
  Solvation  Ediel_sol  =         0.00000000
  ---------------------------------------------------
  free energy    TOTEN  =       124.86478421 eV

  energy without entropy =      124.88562618  energy(sigma->0) =      124.87173153


--------------------------------------------------------------------------------------------------------




--------------------------------------- Iteration      1(   4)  ---------------------------------------


     EDDAV:  cpu time    7.3095: real time    7.3177
       DOS:  cpu time    0.0097: real time    0.0097
    --------------------------------------------
      LOOP:  cpu time    7.3192: real time    7.3274

 eigenvalue-minimisations  :   312
 total energy-change (2. order) :-0.1227823E+03  (-0.1168722E+03)
 number of electron      88.0000000 magnetization       8.0000000
 augmentation part       88.0000000 magnetization       8.0000000

 Free energy of the ion-electron system (eV)
  ---------------------------------------------------
  alpha Z        PSCENC =         6.70175720
  Ewald energy   TEWEN  =      6571.19269525
  -Hartree energ DENC   =    -13664.20599535
  -exchange      EXHF   =         0.00000000
  -V(xc)+E(xc)   XCENC  =       116.46246477
  PAW double counting   =      6992.17180065    -6807.49900724
  entropy T*S    EENTRO =        -0.03480302
  eigenvalues    EBANDS =      -621.35058863
  atomic energy  EATOM  =      7408.64415014
  Solvation  Ediel_sol  =         0.00000000
  ---------------------------------------------------
  free energy    TOTEN  =         2.08247378 eV

  energy without entropy =        2.11727680  energy(sigma->0) =        2.09407478


--------------------------------------------------------------------------------------------------------




--------------------------------------- Iteration      1(   5)  ---------------------------------------


     EDDAV:  cpu time    6.5570: real time    6.5651
       DOS:  cpu time    0.0094: real time    0.0094
    CHARGE:  cpu time    0.7454: real time    0.7459
    MIXING:  cpu time    0.0609: real time    0.0609
    --------------------------------------------
      LOOP:  cpu time    7.3728: real time    7.3814

 eigenvalue-minimisations  :   272
 total energy-change (2. order) :-0.1856038E+02  (-0.1482994E+02)
 number of electron      88.0000019 magnetization       7.0899643
 augmentation part       31.3477286 magnetization       7.2025922

 Broyden mixing:
  rms(total) = 0.17462E+01    rms(broyden)= 0.17462E+01
  rms(prec ) = 0.17738E+01
  weight for this iteration     100.00

 Free energy of the ion-electron system (eV)
  ---------------------------------------------------
  alpha Z        PSCENC =         6.70175720
  Ewald energy   TEWEN  =      6571.19269525
  -Hartree energ DENC   =    -13664.20599535
  -exchange      EXHF   =         0.00000000
  -V(xc)+E(xc)   XCENC  =       116.46246477
  PAW double counting   =      6992.17180065    -6807.49900724
  entropy T*S    EENTRO =         0.02624828
  eigenvalues    EBANDS =      -639.97202480
  atomic energy  EATOM  =      7408.64415014
  Solvation  Ediel_sol  =         0.00000000
  ---------------------------------------------------
  free energy    TOTEN  =       -16.47791109 eV

  energy without entropy =      -16.50415937  energy(sigma->0) =      -16.48666052


--------------------------------------------------------------------------------------------------------




--------------------------------------- Iteration      1(   6)  ---------------------------------------


    POTLOK:  cpu time    3.6786: real time    3.6866
    SETDIJ:  cpu time    0.0252: real time    0.0252
     EDDAV:  cpu time    5.8329: real time    5.8402
       DOS:  cpu time    0.0057: real time    0.0057
    CHARGE:  cpu time    0.7168: real time    0.7173
    MIXING:  cpu time    0.0786: real time    0.0787
    --------------------------------------------
      LOOP:  cpu time   10.3379: real time   10.3536

 eigenvalue-minimisations  :   232
 total energy-change (2. order) : 0.1372691E+02  (-0.4501500E+01)
 number of electron      88.0000019 magnetization       6.2344216
 augmentation part       32.3408468 magnetization       5.7129915

 Broyden mixing:
  rms(total) = 0.11217E+01    rms(broyden)= 0.11217E+01
  rms(prec ) = 0.11279E+01
  weight for this iteration     100.00

 eigenvalues of (default mixing * dielectric matrix)
  average eigenvalue GAMMA=   0.9423
  0.9423

 Free energy of the ion-electron system (eV)
  ---------------------------------------------------
  alpha Z        PSCENC =         6.70175720
  Ewald energy   TEWEN  =      6571.19269525
  -Hartree energ DENC   =    -13620.18856119
  -exchange      EXHF   =         0.00000000
  -V(xc)+E(xc)   XCENC  =       124.59563410
  PAW double counting   =      7274.88458171    -7097.05760631
  entropy T*S    EENTRO =         0.00584172
  eigenvalues    EBANDS =      -671.52948995
  atomic energy  EATOM  =      7408.64415014
  Solvation  Ediel_sol  =         0.00000000
  ---------------------------------------------------
  free energy    TOTEN  =        -2.75099733 eV

  energy without entropy =       -2.75683905  energy(sigma->0) =       -2.75294457


--------------------------------------------------------------------------------------------------------




--------------------------------------- Iteration      1(   7)  ---------------------------------------


    POTLOK:  cpu time    3.6448: real time    3.6502
    SETDIJ:  cpu time    0.0291: real time    0.0291
     EDDAV:  cpu time    6.1545: real time    6.1590
       DOS:  cpu time    0.0059: real time    0.0059
    CHARGE:  cpu time    0.7317: real time    0.7322
    MIXING:  cpu time    0.0816: real time    0.0817
    --------------------------------------------
      LOOP:  cpu time   10.6476: real time   10.6581

 eigenvalue-minimisations  :   248
 total energy-change (2. order) : 0.7556496E+00  (-0.1826902E+00)
 number of electron      88.0000018 magnetization       5.1033216
 augmentation part       32.2664030 magnetization       4.6421030

 Broyden mixing:
  rms(total) = 0.58278E+00    rms(broyden)= 0.58278E+00
  rms(prec ) = 0.58644E+00
  weight for this iteration     100.00

 eigenvalues of (default mixing * dielectric matrix)
  average eigenvalue GAMMA=   1.0760
  1.3932  0.7587

 Free energy of the ion-electron system (eV)
  ---------------------------------------------------
  alpha Z        PSCENC =         6.70175720
  Ewald energy   TEWEN  =      6571.19269525
  -Hartree energ DENC   =    -13636.69778223
  -exchange      EXHF   =         0.00000000
  -V(xc)+E(xc)   XCENC  =       125.87931967
  PAW double counting   =      7523.83852899    -7349.30874887
  entropy T*S    EENTRO =         0.00581450
  eigenvalues    EBANDS =      -652.25108235
  atomic energy  EATOM  =      7408.64415014
  Solvation  Ediel_sol  =         0.00000000
  ---------------------------------------------------
  free energy    TOTEN  =        -1.99534771 eV

  energy without entropy =       -2.00116220  energy(sigma->0) =       -1.99728587


--------------------------------------------------------------------------------------------------------




--------------------------------------- Iteration      1(   8)  ---------------------------------------


    POTLOK:  cpu time    3.6529: real time    3.6597
    SETDIJ:  cpu time    0.0247: real time    0.0247
     EDDAV:  cpu time    6.1192: real time    6.1238
       DOS:  cpu time    0.0103: real time    0.0103
    CHARGE:  cpu time    0.7047: real time    0.7052
    MIXING:  cpu time    0.0725: real time    0.0726
    --------------------------------------------
      LOOP:  cpu time   10.5843: real time   10.5963

 eigenvalue-minimisations  :   248
 total energy-change (2. order) :-0.5794428E+01  (-0.2290237E+00)
 number of electron      88.0000018 magnetization       4.4426865
 augmentation part       32.1711827 magnetization       4.1224489

 Broyden mixing:
  rms(total) = 0.25405E+00    rms(broyden)= 0.25405E+00
  rms(prec ) = 0.25655E+00
  weight for this iteration     100.00

 eigenvalues of (default mixing * dielectric matrix)
  average eigenvalue GAMMA=   1.2103
  1.9821  1.0208  0.6279

 Free energy of the ion-electron system (eV)
  ---------------------------------------------------
  alpha Z        PSCENC =         6.70175720
  Ewald energy   TEWEN  =      6571.19269525
  -Hartree energ DENC   =    -13649.41259434
  -exchange      EXHF   =         0.00000000
  -V(xc)+E(xc)   XCENC  =       121.74753400
  PAW double counting   =      7753.72055642    -7582.07853138
  entropy T*S    EENTRO =         0.00626443
  eigenvalues    EBANDS =      -638.31160733
  atomic energy  EATOM  =      7408.64415014
  Solvation  Ediel_sol  =         0.00000000
  ---------------------------------------------------
  free energy    TOTEN  =        -7.78977563 eV

  energy without entropy =       -7.79604006  energy(sigma->0) =       -7.79186377


--------------------------------------------------------------------------------------------------------




--------------------------------------- Iteration      1(   9)  ---------------------------------------


    POTLOK:  cpu time    3.6351: real time    3.6411
    SETDIJ:  cpu time    0.0251: real time    0.0251
     EDDAV:  cpu time    6.2550: real time    6.2598
       DOS:  cpu time    0.0059: real time    0.0059
    CHARGE:  cpu time    0.7300: real time    0.7306
    MIXING:  cpu time    0.0766: real time    0.0767
    --------------------------------------------
      LOOP:  cpu time   10.7277: real time   10.7391

 eigenvalue-minimisations  :   256
 total energy-change (2. order) :-0.2574975E+01  (-0.6661386E-01)
 number of electron      88.0000018 magnetization       3.5000290
 augmentation part       32.1871304 magnetization       3.2515852

 Broyden mixing:
  rms(total) = 0.13746E+00    rms(broyden)= 0.13746E+00
  rms(prec ) = 0.14005E+00
  weight for this iteration     100.00

 eigenvalues of (default mixing * dielectric matrix)
  average eigenvalue GAMMA=   1.3185
  2.3258  1.4472  0.8731  0.6278

 Free energy of the ion-electron system (eV)
  ---------------------------------------------------
  alpha Z        PSCENC =         6.70175720
  Ewald energy   TEWEN  =      6571.19269525
  -Hartree energ DENC   =    -13648.36809354
  -exchange      EXHF   =         0.00000000
  -V(xc)+E(xc)   XCENC  =       119.71727931
  PAW double counting   =      7802.14556576    -7631.30067652
  entropy T*S    EENTRO =         0.00830367
  eigenvalues    EBANDS =      -639.10573223
  atomic energy  EATOM  =      7408.64415014
  Solvation  Ediel_sol  =         0.00000000
  ---------------------------------------------------
  free energy    TOTEN  =       -10.36475097 eV

  energy without entropy =      -10.37305463  energy(sigma->0) =      -10.36751886


--------------------------------------------------------------------------------------------------------




--------------------------------------- Iteration      1(  10)  ---------------------------------------


    POTLOK:  cpu time    3.6629: real time    3.6657
    SETDIJ:  cpu time    0.0253: real time    0.0253
     EDDAV:  cpu time    6.0063: real time    6.0136
       DOS:  cpu time    0.0010: real time    0.0010
    CHARGE:  cpu time    0.7276: real time    0.7282
    MIXING:  cpu time    0.0850: real time    0.0850
    --------------------------------------------
      LOOP:  cpu time   10.5080: real time   10.5188

 eigenvalue-minimisations  :   240
 total energy-change (2. order) :-0.2623337E+01  (-0.9388116E-01)
 number of electron      88.0000018 magnetization       2.7640403
 augmentation part       32.2423829 magnetization       2.5812588

 Broyden mixing:
  rms(total) = 0.95570E-01    rms(broyden)= 0.95568E-01
  rms(prec ) = 0.97066E-01
  weight for this iteration     100.00

 eigenvalues of (default mixing * dielectric matrix)
  average eigenvalue GAMMA=   1.3147
  2.6563  1.5020  0.8891  0.8891  0.6372

 Free energy of the ion-electron system (eV)
  ---------------------------------------------------
  alpha Z        PSCENC =         6.70175720
  Ewald energy   TEWEN  =      6571.19269525
  -Hartree energ DENC   =    -13643.76642240
  -exchange      EXHF   =         0.00000000
  -V(xc)+E(xc)   XCENC  =       117.55156718
  PAW double counting   =      7802.35073020    -7631.91527663
  entropy T*S    EENTRO =         0.01359199
  eigenvalues    EBANDS =      -643.76088060
  atomic energy  EATOM  =      7408.64415014
  Solvation  Ediel_sol  =         0.00000000
  ---------------------------------------------------
  free energy    TOTEN  =       -12.98808766 eV

  energy without entropy =      -13.00167965  energy(sigma->0) =      -12.99261832


--------------------------------------------------------------------------------------------------------




--------------------------------------- Iteration      1(  11)  ---------------------------------------


    POTLOK:  cpu time    3.6657: real time    3.6712
    SETDIJ:  cpu time    0.0248: real time    0.0248
     EDDAV:  cpu time    5.9425: real time    5.9499
       DOS:  cpu time    0.0049: real time    0.0049
    CHARGE:  cpu time    0.7540: real time    0.7572
    MIXING:  cpu time    0.0955: real time    0.0956
    --------------------------------------------
      LOOP:  cpu time   10.4873: real time   10.5035

 eigenvalue-minimisations  :   240
 total energy-change (2. order) :-0.1298634E+01  (-0.3470209E-01)
 number of electron      88.0000018 magnetization       1.7444046
 augmentation part       32.2468468 magnetization       1.5770337

 Broyden mixing:
  rms(total) = 0.68338E-01    rms(broyden)= 0.68337E-01
  rms(prec ) = 0.69687E-01
  weight for this iteration     100.00

 eigenvalues of (default mixing * dielectric matrix)
  average eigenvalue GAMMA=   1.4687
  3.0104  2.0682  1.3516  0.6499  0.7526  0.9795

 Free energy of the ion-electron system (eV)
  ---------------------------------------------------
  alpha Z        PSCENC =         6.70175720
  Ewald energy   TEWEN  =      6571.19269525
  -Hartree energ DENC   =    -13642.22380271
  -exchange      EXHF   =         0.00000000
  -V(xc)+E(xc)   XCENC  =       116.46903958
  PAW double counting   =      7787.30821899    -7616.82037957
  entropy T*S    EENTRO =         0.01731327
  eigenvalues    EBANDS =      -645.57571407
  atomic energy  EATOM  =      7408.64415014
  Solvation  Ediel_sol  =         0.00000000
  ---------------------------------------------------
  free energy    TOTEN  =       -14.28672193 eV

  energy without entropy =      -14.30403519  energy(sigma->0) =      -14.29249302


--------------------------------------------------------------------------------------------------------




--------------------------------------- Iteration      1(  12)  ---------------------------------------


    POTLOK:  cpu time    3.7139: real time    3.7170
    SETDIJ:  cpu time    0.0254: real time    0.0254
     EDDAV:  cpu time    6.1369: real time    6.1470
       DOS:  cpu time    0.0009: real time    0.0009
    CHARGE:  cpu time    0.7656: real time    0.7661
    MIXING:  cpu time    0.1015: real time    0.1016
    --------------------------------------------
      LOOP:  cpu time   10.7443: real time   10.7581

 eigenvalue-minimisations  :   240
 total energy-change (2. order) :-0.1124975E+01  (-0.3359267E-01)
 number of electron      88.0000018 magnetization       1.1899074
 augmentation part       32.2653234 magnetization       1.0583236

 Broyden mixing:
  rms(total) = 0.41128E-01    rms(broyden)= 0.41126E-01
  rms(prec ) = 0.41851E-01
  weight for this iteration     100.00

 eigenvalues of (default mixing * dielectric matrix)
  average eigenvalue GAMMA=   1.5619
  4.1157  2.4097  1.2579  1.0819  0.7885  0.6398  0.6398

 Free energy of the ion-electron system (eV)
  ---------------------------------------------------
  alpha Z        PSCENC =         6.70175720
  Ewald energy   TEWEN  =      6571.19269525
  -Hartree energ DENC   =    -13638.32624838
  -exchange      EXHF   =         0.00000000
  -V(xc)+E(xc)   XCENC  =       115.40495095
  PAW double counting   =      7752.43737884    -7581.58002485
  entropy T*S    EENTRO =         0.02004242
  eigenvalues    EBANDS =      -649.90639852
  atomic energy  EATOM  =      7408.64415014
  Solvation  Ediel_sol  =         0.00000000
  ---------------------------------------------------
  free energy    TOTEN  =       -15.41169695 eV

  energy without entropy =      -15.43173937  energy(sigma->0) =      -15.41837775


--------------------------------------------------------------------------------------------------------




--------------------------------------- Iteration      1(  13)  ---------------------------------------


    POTLOK:  cpu time    3.6659: real time    3.6726
    SETDIJ:  cpu time    0.0251: real time    0.0251
     EDDAV:  cpu time    5.9471: real time    5.9544
       DOS:  cpu time    0.0011: real time    0.0011
    CHARGE:  cpu time    0.7215: real time    0.7221
    MIXING:  cpu time    0.1007: real time    0.1007
    --------------------------------------------
      LOOP:  cpu time   10.4613: real time   10.4759

 eigenvalue-minimisations  :   240
 total energy-change (2. order) :-0.5688930E+00  (-0.7929039E-02)
 number of electron      88.0000018 magnetization       0.6939240
 augmentation part       32.2746814 magnetization       0.5848413

 Broyden mixing:
  rms(total) = 0.27966E-01    rms(broyden)= 0.27965E-01
  rms(prec ) = 0.28706E-01
  weight for this iteration     100.00

 eigenvalues of (default mixing * dielectric matrix)
  average eigenvalue GAMMA=   1.6865
  5.0914  2.3935  1.7248  1.2084  1.0187  0.7974  0.6288  0.6288

 Free energy of the ion-electron system (eV)
  ---------------------------------------------------
  alpha Z        PSCENC =         6.70175720
  Ewald energy   TEWEN  =      6571.19269525
  -Hartree energ DENC   =    -13636.26145147
  -exchange      EXHF   =         0.00000000
  -V(xc)+E(xc)   XCENC  =       114.83068382
  PAW double counting   =      7743.81283770    -7572.83503515
  entropy T*S    EENTRO =         0.02133833
  eigenvalues    EBANDS =      -652.08756572
  atomic energy  EATOM  =      7408.64415014
  Solvation  Ediel_sol  =         0.00000000
  ---------------------------------------------------
  free energy    TOTEN  =       -15.98058990 eV

  energy without entropy =      -16.00192823  energy(sigma->0) =      -15.98770268


--------------------------------------------------------------------------------------------------------




--------------------------------------- Iteration      1(  14)  ---------------------------------------


    POTLOK:  cpu time    3.6467: real time    3.6558
    SETDIJ:  cpu time    0.0250: real time    0.0250
     EDDAV:  cpu time    6.1105: real time    6.1179
       DOS:  cpu time    0.0048: real time    0.0048
    CHARGE:  cpu time    0.7102: real time    0.7133
    MIXING:  cpu time    0.1130: real time    0.1131
    --------------------------------------------
      LOOP:  cpu time   10.6102: real time   10.6300

 eigenvalue-minimisations  :   248
 total energy-change (2. order) :-0.3758539E+00  (-0.3093284E-02)
 number of electron      88.0000018 magnetization       0.3520102
 augmentation part       32.2719315 magnetization       0.2749779

 Broyden mixing:
  rms(total) = 0.19034E-01    rms(broyden)= 0.19033E-01
  rms(prec ) = 0.19570E-01
  weight for this iteration     100.00

 eigenvalues of (default mixing * dielectric matrix)
  average eigenvalue GAMMA=   1.7870
  5.9588  2.5613  1.9410  1.6477  0.9720  0.9720  0.7590  0.6354  0.6354

 Free energy of the ion-electron system (eV)
  ---------------------------------------------------
  alpha Z        PSCENC =         6.70175720
  Ewald energy   TEWEN  =      6571.19269525
  -Hartree energ DENC   =    -13634.76851211
  -exchange      EXHF   =         0.00000000
  -V(xc)+E(xc)   XCENC  =       114.44777259
  PAW double counting   =      7753.59199492    -7582.58625195
  entropy T*S    EENTRO =         0.02251343
  eigenvalues    EBANDS =      -653.60256323
  atomic energy  EATOM  =      7408.64415014
  Solvation  Ediel_sol  =         0.00000000
  ---------------------------------------------------
  free energy    TOTEN  =       -16.35644377 eV

  energy without entropy =      -16.37895720  energy(sigma->0) =      -16.36394825


--------------------------------------------------------------------------------------------------------




--------------------------------------- Iteration      1(  15)  ---------------------------------------


    POTLOK:  cpu time    3.6194: real time    3.6414
    SETDIJ:  cpu time    0.0244: real time    0.0245
     EDDAV:  cpu time    5.9297: real time    5.9397
       DOS:  cpu time    0.0035: real time    0.0035
    CHARGE:  cpu time    0.7276: real time    0.7309
    MIXING:  cpu time    0.1335: real time    0.1336
    --------------------------------------------
      LOOP:  cpu time   10.4383: real time   10.4736

 eigenvalue-minimisations  :   240
 total energy-change (2. order) :-0.3075421E+00  (-0.1537850E-02)
 number of electron      88.0000018 magnetization       0.2104131
 augmentation part       32.2785575 magnetization       0.1570779

 Broyden mixing:
  rms(total) = 0.98229E-02    rms(broyden)= 0.98208E-02
  rms(prec ) = 0.10244E-01
  weight for this iteration     100.00

 eigenvalues of (default mixing * dielectric matrix)
  average eigenvalue GAMMA=   1.8777
  7.1083  3.1075  2.3523  1.4474  1.1358  0.8452  0.8452  0.7009  0.6296  0.6048

 Free energy of the ion-electron system (eV)
  ---------------------------------------------------
  alpha Z        PSCENC =         6.70175720
  Ewald energy   TEWEN  =      6571.19269525
  -Hartree energ DENC   =    -13632.98608842
  -exchange      EXHF   =         0.00000000
  -V(xc)+E(xc)   XCENC  =       114.11602987
  PAW double counting   =      7760.23180183    -7589.20181416
  entropy T*S    EENTRO =         0.02325152
  eigenvalues    EBANDS =      -655.38576909
  atomic energy  EATOM  =      7408.64415014
  Solvation  Ediel_sol  =         0.00000000
  ---------------------------------------------------
  free energy    TOTEN  =       -16.66398587 eV

  energy without entropy =      -16.68723739  energy(sigma->0) =      -16.67173638


--------------------------------------------------------------------------------------------------------




--------------------------------------- Iteration      1(  16)  ---------------------------------------


    POTLOK:  cpu time    3.6437: real time    3.6475
    SETDIJ:  cpu time    0.0247: real time    0.0247
     EDDAV:  cpu time    6.2057: real time    6.2164
       DOS:  cpu time    0.0049: real time    0.0049
    CHARGE:  cpu time    0.7221: real time    0.7226
    MIXING:  cpu time    0.1288: real time    0.1289
    --------------------------------------------
      LOOP:  cpu time   10.7298: real time   10.7451

 eigenvalue-minimisations  :   256
 total energy-change (2. order) :-0.1166357E+00  (-0.2777997E-03)
 number of electron      88.0000018 magnetization       0.1255938
 augmentation part       32.2782675 magnetization       0.0837628

 Broyden mixing:
  rms(total) = 0.52696E-02    rms(broyden)= 0.52678E-02
  rms(prec ) = 0.57762E-02
  weight for this iteration     100.00

 eigenvalues of (default mixing * dielectric matrix)
  average eigenvalue GAMMA=   1.8931
  7.8988  3.2873  2.3948  1.5430  1.1720  0.8991  0.8991  0.7742  0.7153  0.6203
  0.6203

 Free energy of the ion-electron system (eV)
  ---------------------------------------------------
  alpha Z        PSCENC =         6.70175720
  Ewald energy   TEWEN  =      6571.19269525
  -Hartree energ DENC   =    -13632.42290907
  -exchange      EXHF   =         0.00000000
  -V(xc)+E(xc)   XCENC  =       113.99407703
  PAW double counting   =      7762.65783352    -7591.61966023
  entropy T*S    EENTRO =         0.02383016
  eigenvalues    EBANDS =      -655.95239560
  atomic energy  EATOM  =      7408.64415014
  Solvation  Ediel_sol  =         0.00000000
  ---------------------------------------------------
  free energy    TOTEN  =       -16.78062160 eV

  energy without entropy =      -16.80445176  energy(sigma->0) =      -16.78856499


--------------------------------------------------------------------------------------------------------




--------------------------------------- Iteration      1(  17)  ---------------------------------------


    POTLOK:  cpu time    3.6321: real time    3.6393
    SETDIJ:  cpu time    0.0243: real time    0.0243
     EDDAV:  cpu time    5.5301: real time    5.5371
       DOS:  cpu time    0.0053: real time    0.0053
    CHARGE:  cpu time    0.7186: real time    0.7191
    MIXING:  cpu time    0.1382: real time    0.1383
    --------------------------------------------
      LOOP:  cpu time   10.0487: real time   10.0634

 eigenvalue-minimisations  :   216
 total energy-change (2. order) :-0.4700619E-01  (-0.1151028E-03)
 number of electron      88.0000018 magnetization       0.0751065
 augmentation part       32.2803890 magnetization       0.0411910

 Broyden mixing:
  rms(total) = 0.37802E-02    rms(broyden)= 0.37797E-02
  rms(prec ) = 0.42026E-02
  weight for this iteration     100.00

 eigenvalues of (default mixing * dielectric matrix)
  average eigenvalue GAMMA=   1.9261
  8.3118  3.5981  2.4431  1.7906  1.4600  1.0299  0.9491  0.9491  0.7412  0.6344
  0.6344  0.5721

 Free energy of the ion-electron system (eV)
  ---------------------------------------------------
  alpha Z        PSCENC =         6.70175720
  Ewald energy   TEWEN  =      6571.19269525
  -Hartree energ DENC   =    -13631.96396214
  -exchange      EXHF   =         0.00000000
  -V(xc)+E(xc)   XCENC  =       113.94350185
  PAW double counting   =      7762.71806996    -7591.67658265
  entropy T*S    EENTRO =         0.02424314
  eigenvalues    EBANDS =      -656.41150054
  atomic energy  EATOM  =      7408.64415014
  Solvation  Ediel_sol  =         0.00000000
  ---------------------------------------------------
  free energy    TOTEN  =       -16.82762779 eV

  energy without entropy =      -16.85187093  energy(sigma->0) =      -16.83570884


--------------------------------------------------------------------------------------------------------




--------------------------------------- Iteration      1(  18)  ---------------------------------------


    POTLOK:  cpu time    3.5844: real time    3.5871
    SETDIJ:  cpu time    0.0247: real time    0.0247
     EDDAV:  cpu time    5.6554: real time    5.6597
       DOS:  cpu time    0.0049: real time    0.0049
    CHARGE:  cpu time    0.7036: real time    0.7042
    MIXING:  cpu time    0.1487: real time    0.1487
    --------------------------------------------
      LOOP:  cpu time   10.1216: real time   10.1293

 eigenvalue-minimisations  :   224
 total energy-change (2. order) :-0.2297467E-01  (-0.4008089E-04)
 number of electron      88.0000018 magnetization       0.0512788
 augmentation part       32.2801515 magnetization       0.0237816

 Broyden mixing:
  rms(total) = 0.17589E-02    rms(broyden)= 0.17586E-02
  rms(prec ) = 0.21544E-02
  weight for this iteration     100.00

 eigenvalues of (default mixing * dielectric matrix)
  average eigenvalue GAMMA=   1.9623
  8.6868  4.0945  2.3661  2.3661  1.4961  1.1035  1.0141  1.0141  0.8352  0.6856
  0.6310  0.6310  0.5863

 Free energy of the ion-electron system (eV)
  ---------------------------------------------------
  alpha Z        PSCENC =         6.70175720
  Ewald energy   TEWEN  =      6571.19269525
  -Hartree energ DENC   =    -13631.72675843
  -exchange      EXHF   =         0.00000000
  -V(xc)+E(xc)   XCENC  =       113.92423158
  PAW double counting   =      7762.77550430    -7591.73165818
  entropy T*S    EENTRO =         0.02479579
  eigenvalues    EBANDS =      -656.65532012
  atomic energy  EATOM  =      7408.64415014
  Solvation  Ediel_sol  =         0.00000000
  ---------------------------------------------------
  free energy    TOTEN  =       -16.85060246 eV

  energy without entropy =      -16.87539826  energy(sigma->0) =      -16.85886773


--------------------------------------------------------------------------------------------------------




--------------------------------------- Iteration      1(  19)  ---------------------------------------


    POTLOK:  cpu time    3.6038: real time    3.6160
    SETDIJ:  cpu time    0.0250: real time    0.0250
     EDDAV:  cpu time    4.5461: real time    4.5604
       DOS:  cpu time    0.0009: real time    0.0009
    CHARGE:  cpu time    0.7275: real time    0.7280
    MIXING:  cpu time    0.1657: real time    0.1658
    --------------------------------------------
      LOOP:  cpu time    9.0690: real time    9.0960

 eigenvalue-minimisations  :   160
 total energy-change (2. order) :-0.9484044E-02  (-0.1170162E-04)
 number of electron      88.0000018 magnetization       0.0371555
 augmentation part       32.2804966 magnetization       0.0140167

 Broyden mixing:
  rms(total) = 0.11941E-02    rms(broyden)= 0.11940E-02
  rms(prec ) = 0.14930E-02
  weight for this iteration     100.00

 eigenvalues of (default mixing * dielectric matrix)
  average eigenvalue GAMMA=   1.9440
  8.8356  4.2357  2.6164  2.3962  1.6885  1.2954  1.1009  0.8572  0.8333  0.8333
  0.6764  0.6380  0.6380  0.5709

 Free energy of the ion-electron system (eV)
  ---------------------------------------------------
  alpha Z        PSCENC =         6.70175720
  Ewald energy   TEWEN  =      6571.19269525
  -Hartree energ DENC   =    -13631.53785923
  -exchange      EXHF   =         0.00000000
  -V(xc)+E(xc)   XCENC  =       113.91556676
  PAW double counting   =      7762.32222864    -7591.27246963
  entropy T*S    EENTRO =         0.02516421
  eigenvalues    EBANDS =      -656.85131984
  atomic energy  EATOM  =      7408.64415014
  Solvation  Ediel_sol  =         0.00000000
  ---------------------------------------------------
  free energy    TOTEN  =       -16.86008651 eV

  energy without entropy =      -16.88525071  energy(sigma->0) =      -16.86847458


--------------------------------------------------------------------------------------------------------




--------------------------------------- Iteration      1(  20)  ---------------------------------------


    POTLOK:  cpu time    3.6090: real time    3.6162
    SETDIJ:  cpu time    0.0261: real time    0.0261
     EDDAV:  cpu time    4.7555: real time    4.7618
       DOS:  cpu time    0.0081: real time    0.0081
    CHARGE:  cpu time    0.7428: real time    0.7434
    MIXING:  cpu time    0.1770: real time    0.1771
    --------------------------------------------
      LOOP:  cpu time    9.3184: real time    9.3327

 eigenvalue-minimisations  :   168
 total energy-change (2. order) :-0.4647886E-02  (-0.6118033E-05)
 number of electron      88.0000018 magnetization       0.0262214
 augmentation part       32.2809507 magnetization       0.0066858

 Broyden mixing:
  rms(total) = 0.86535E-03    rms(broyden)= 0.86525E-03
  rms(prec ) = 0.10715E-02
  weight for this iteration     100.00

 eigenvalues of (default mixing * dielectric matrix)
  average eigenvalue GAMMA=   1.9630
  8.9961  4.5245  2.8415  2.2889  2.2889  1.4181  1.1346  0.9087  0.9087  0.9318
  0.7454  0.6385  0.6385  0.5905  0.5905

 Free energy of the ion-electron system (eV)
  ---------------------------------------------------
  alpha Z        PSCENC =         6.70175720
  Ewald energy   TEWEN  =      6571.19269525
  -Hartree energ DENC   =    -13631.37720271
  -exchange      EXHF   =         0.00000000
  -V(xc)+E(xc)   XCENC  =       113.91034060
  PAW double counting   =      7761.83954582    -7590.78448107
  entropy T*S    EENTRO =         0.02543243
  eigenvalues    EBANDS =      -657.01697204
  atomic energy  EATOM  =      7408.64415014
  Solvation  Ediel_sol  =         0.00000000
  ---------------------------------------------------
  free energy    TOTEN  =       -16.86473440 eV

  energy without entropy =      -16.89016682  energy(sigma->0) =      -16.87321187


--------------------------------------------------------------------------------------------------------




--------------------------------------- Iteration      1(  21)  ---------------------------------------


    POTLOK:  cpu time    3.5951: real time    3.6023
    SETDIJ:  cpu time    0.0246: real time    0.0246
     EDDAV:  cpu time    4.6604: real time    4.6644
       DOS:  cpu time    0.0009: real time    0.0009
    CHARGE:  cpu time    0.7296: real time    0.7301
    MIXING:  cpu time    0.1871: real time    0.1872
    --------------------------------------------
      LOOP:  cpu time    9.1977: real time    9.2095

 eigenvalue-minimisations  :   168
 total energy-change (2. order) :-0.2589919E-02  (-0.4582748E-05)
 number of electron      88.0000018 magnetization       0.0194316
 augmentation part       32.2813108 magnetization       0.0037635

 Broyden mixing:
  rms(total) = 0.63950E-03    rms(broyden)= 0.63938E-03
  rms(prec ) = 0.75632E-03
  weight for this iteration     100.00

 eigenvalues of (default mixing * dielectric matrix)
  average eigenvalue GAMMA=   1.9827
  9.1092  4.8554  2.8296  2.8296  2.4358  1.4871  1.2178  1.0041  1.0041  0.9397
  0.7769  0.7524  0.6396  0.6330  0.6330  0.5755

 Free energy of the ion-electron system (eV)
  ---------------------------------------------------
  alpha Z        PSCENC =         6.70175720
  Ewald energy   TEWEN  =      6571.19269525
  -Hartree energ DENC   =    -13631.22651473
  -exchange      EXHF   =         0.00000000
  -V(xc)+E(xc)   XCENC  =       113.90689293
  PAW double counting   =      7761.82282926    -7590.76421391
  entropy T*S    EENTRO =         0.02567844
  eigenvalues    EBANDS =      -657.17059889
  atomic energy  EATOM  =      7408.64415014
  Solvation  Ediel_sol  =         0.00000000
  ---------------------------------------------------
  free energy    TOTEN  =       -16.86732431 eV

  energy without entropy =      -16.89300276  energy(sigma->0) =      -16.87588380


--------------------------------------------------------------------------------------------------------




--------------------------------------- Iteration      1(  22)  ---------------------------------------


    POTLOK:  cpu time    3.7116: real time    3.7223
    SETDIJ:  cpu time    0.0253: real time    0.0253
     EDDAV:  cpu time    4.8040: real time    4.8105
       DOS:  cpu time    0.0077: real time    0.0077
    CHARGE:  cpu time    0.7396: real time    0.7429
    MIXING:  cpu time    0.2067: real time    0.2069
    --------------------------------------------
      LOOP:  cpu time    9.4949: real time    9.5155

 eigenvalue-minimisations  :   168
 total energy-change (2. order) :-0.1522633E-02  (-0.2183356E-05)
 number of electron      88.0000018 magnetization       0.0127843
 augmentation part       32.2815270 magnetization       0.0001573

 Broyden mixing:
  rms(total) = 0.45900E-03    rms(broyden)= 0.45888E-03
  rms(prec ) = 0.52164E-03
  weight for this iteration     100.00

 eigenvalues of (default mixing * dielectric matrix)
  average eigenvalue GAMMA=   2.0683
  9.3063  5.8287  3.7249  2.8792  2.4807  1.6686  1.3641  1.0980  1.0980  0.8536
  0.8536  0.8564  0.6881  0.6415  0.6415  0.5891  0.5891

 Free energy of the ion-electron system (eV)
  ---------------------------------------------------
  alpha Z        PSCENC =         6.70175720
  Ewald energy   TEWEN  =      6571.19269525
  -Hartree energ DENC   =    -13631.12446602
  -exchange      EXHF   =         0.00000000
  -V(xc)+E(xc)   XCENC  =       113.90474614
  PAW double counting   =      7761.98260856    -7590.92156930
  entropy T*S    EENTRO =         0.02585834
  eigenvalues    EBANDS =      -657.27462725
  atomic energy  EATOM  =      7408.64415014
  Solvation  Ediel_sol  =         0.00000000
  ---------------------------------------------------
  free energy    TOTEN  =       -16.86884695 eV

  energy without entropy =      -16.89470528  energy(sigma->0) =      -16.87746639


--------------------------------------------------------------------------------------------------------




--------------------------------------- Iteration      1(  23)  ---------------------------------------


    POTLOK:  cpu time    3.6646: real time    3.6680
    SETDIJ:  cpu time    0.0254: real time    0.0254
     EDDAV:  cpu time    4.7609: real time    4.7645
       DOS:  cpu time    0.0010: real time    0.0010
    CHARGE:  cpu time    0.7142: real time    0.7148
    MIXING:  cpu time    0.2105: real time    0.2134
    --------------------------------------------
      LOOP:  cpu time    9.3765: real time    9.3870

 eigenvalue-minimisations  :   168
 total energy-change (2. order) :-0.1283849E-02  (-0.2471524E-05)
 number of electron      88.0000018 magnetization       0.0093798
 augmentation part       32.2817522 magnetization       0.0001321

 Broyden mixing:
  rms(total) = 0.30934E-03    rms(broyden)= 0.30916E-03
  rms(prec ) = 0.33264E-03
  weight for this iteration     100.00

 eigenvalues of (default mixing * dielectric matrix)
  average eigenvalue GAMMA=   2.1326
  9.7760  7.0128  4.1505  2.7844  2.5227  1.8877  1.3399  1.3399  1.0997  0.8731
  0.8731  0.8686  0.7512  0.5765  0.6459  0.6459  0.6190  0.6190

 Free energy of the ion-electron system (eV)
  ---------------------------------------------------
  alpha Z        PSCENC =         6.70175720
  Ewald energy   TEWEN  =      6571.19269525
  -Hartree energ DENC   =    -13631.03278374
  -exchange      EXHF   =         0.00000000
  -V(xc)+E(xc)   XCENC  =       113.90292426
  PAW double counting   =      7762.10815597    -7591.04495924
  entropy T*S    EENTRO =         0.02602820
  eigenvalues    EBANDS =      -657.36809883
  atomic energy  EATOM  =      7408.64415014
  Solvation  Ediel_sol  =         0.00000000
  ---------------------------------------------------
  free energy    TOTEN  =       -16.87013080 eV

  energy without entropy =      -16.89615899  energy(sigma->0) =      -16.87880686


--------------------------------------------------------------------------------------------------------




--------------------------------------- Iteration      1(  24)  ---------------------------------------


    POTLOK:  cpu time    3.6377: real time    3.6427
    SETDIJ:  cpu time    0.0248: real time    0.0249
     EDDAV:  cpu time    4.6853: real time    4.6888
       DOS:  cpu time    0.0067: real time    0.0067
    CHARGE:  cpu time    0.7153: real time    0.7212
    MIXING:  cpu time    0.2343: real time    0.2345
    --------------------------------------------
      LOOP:  cpu time    9.3041: real time    9.3187

 eigenvalue-minimisations  :   168
 total energy-change (2. order) :-0.4577753E-03  (-0.8581578E-06)
 number of electron      88.0000018 magnetization       0.0065901
 augmentation part       32.2818213 magnetization      -0.0007522

 Broyden mixing:
  rms(total) = 0.23543E-03    rms(broyden)= 0.23534E-03
  rms(prec ) = 0.24966E-03
  weight for this iteration     100.00

 eigenvalues of (default mixing * dielectric matrix)
  average eigenvalue GAMMA=   2.1899
 10.5641  7.7352  4.3016  2.8036  2.6368  2.0627  1.5385  1.4275  1.1254  0.9385
  0.9385  0.8955  0.8078  0.7243  0.6541  0.6438  0.6438  0.5831  0.5831

 Free energy of the ion-electron system (eV)
  ---------------------------------------------------
  alpha Z        PSCENC =         6.70175720
  Ewald energy   TEWEN  =      6571.19269525
  -Hartree energ DENC   =    -13630.99990885
  -exchange      EXHF   =         0.00000000
  -V(xc)+E(xc)   XCENC  =       113.90241909
  PAW double counting   =      7762.15566544    -7591.09141115
  entropy T*S    EENTRO =         0.02610531
  eigenvalues    EBANDS =      -657.40206101
  atomic energy  EATOM  =      7408.64415014
  Solvation  Ediel_sol  =         0.00000000
  ---------------------------------------------------
  free energy    TOTEN  =       -16.87058857 eV

  energy without entropy =      -16.89669388  energy(sigma->0) =      -16.87929034


--------------------------------------------------------------------------------------------------------




--------------------------------------- Iteration      1(  25)  ---------------------------------------


    POTLOK:  cpu time    3.6319: real time    3.6390
    SETDIJ:  cpu time    0.0247: real time    0.0247
     EDDAV:  cpu time    4.2540: real time    4.2627
       DOS:  cpu time    0.0009: real time    0.0009
    CHARGE:  cpu time    0.7158: real time    0.7163
    MIXING:  cpu time    0.2436: real time    0.2438
    --------------------------------------------
      LOOP:  cpu time    8.8709: real time    8.8874

 eigenvalue-minimisations  :   144
 total energy-change (2. order) :-0.3002472E-03  (-0.4016491E-06)
 number of electron      88.0000018 magnetization       0.0048639
 augmentation part       32.2818428 magnetization      -0.0007689

 Broyden mixing:
  rms(total) = 0.17099E-03    rms(broyden)= 0.17091E-03
  rms(prec ) = 0.18078E-03
  weight for this iteration     100.00

 eigenvalues of (default mixing * dielectric matrix)
  average eigenvalue GAMMA=   2.2331
 11.4140  8.0161  4.5488  2.8292  2.8292  2.3017  1.8310  1.4435  1.1756  0.9840
  0.9840  0.9132  0.8004  0.8004  0.7246  0.6359  0.6359  0.6097  0.6097  0.5749

 Free energy of the ion-electron system (eV)
  ---------------------------------------------------
  alpha Z        PSCENC =         6.70175720
  Ewald energy   TEWEN  =      6571.19269525
  -Hartree energ DENC   =    -13630.98503913
  -exchange      EXHF   =         0.00000000
  -V(xc)+E(xc)   XCENC  =       113.90225699
  PAW double counting   =      7762.22106780    -7591.15633912
  entropy T*S    EENTRO =         0.02615736
  eigenvalues    EBANDS =      -657.41759530
  atomic energy  EATOM  =      7408.64415014
  Solvation  Ediel_sol  =         0.00000000
  ---------------------------------------------------
  free energy    TOTEN  =       -16.87088882 eV

  energy without entropy =      -16.89704617  energy(sigma->0) =      -16.87960794


--------------------------------------------------------------------------------------------------------




--------------------------------------- Iteration      1(  26)  ---------------------------------------


    POTLOK:  cpu time    3.6310: real time    3.6370
    SETDIJ:  cpu time    0.0251: real time    0.0252
     EDDAV:  cpu time    4.3790: real time    4.3856
       DOS:  cpu time    0.0009: real time    0.0009
    CHARGE:  cpu time    0.7067: real time    0.7072
    MIXING:  cpu time    0.2577: real time    0.2579
    --------------------------------------------
      LOOP:  cpu time    9.0005: real time    9.0139

 eigenvalue-minimisations  :   152
 total energy-change (2. order) :-0.1477700E-03  (-0.2053176E-06)
 number of electron      88.0000018 magnetization       0.0036489
 augmentation part       32.2818567 magnetization      -0.0008091

 Broyden mixing:
  rms(total) = 0.12876E-03    rms(broyden)= 0.12871E-03
  rms(prec ) = 0.13629E-03
  weight for this iteration     100.00

 eigenvalues of (default mixing * dielectric matrix)
  average eigenvalue GAMMA=   2.2265
 11.7609  8.0835  4.7071  2.9493  2.9493  2.4129  1.9834  1.4788  1.2128  1.0793
  1.0793  0.9068  0.8506  0.8506  0.7168  0.6591  0.6591  0.6305  0.6305  0.5783
  0.5783

 Free energy of the ion-electron system (eV)
  ---------------------------------------------------
  alpha Z        PSCENC =         6.70175720
  Ewald energy   TEWEN  =      6571.19269525
  -Hartree energ DENC   =    -13630.98233987
  -exchange      EXHF   =         0.00000000
  -V(xc)+E(xc)   XCENC  =       113.90219458
  PAW double counting   =      7762.20345468    -7591.13831256
  entropy T*S    EENTRO =         0.02618044
  eigenvalues    EBANDS =      -657.42081645
  atomic energy  EATOM  =      7408.64415014
  Solvation  Ediel_sol  =         0.00000000
  ---------------------------------------------------
  free energy    TOTEN  =       -16.87103659 eV

  energy without entropy =      -16.89721703  energy(sigma->0) =      -16.87976340


--------------------------------------------------------------------------------------------------------




--------------------------------------- Iteration      1(  27)  ---------------------------------------


    POTLOK:  cpu time    3.6325: real time    3.6372
    SETDIJ:  cpu time    0.0249: real time    0.0249
     EDDAV:  cpu time    4.1140: real time    4.1197
       DOS:  cpu time    0.0010: real time    0.0010
    CHARGE:  cpu time    0.7131: real time    0.7136
    MIXING:  cpu time    0.2552: real time    0.2553
    --------------------------------------------
      LOOP:  cpu time    8.7406: real time    8.7517

 eigenvalue-minimisations  :   136
 total energy-change (2. order) :-0.1431738E-03  (-0.1300904E-06)
 number of electron      88.0000018 magnetization       0.0021841
 augmentation part       32.2818648 magnetization      -0.0012343

 Broyden mixing:
  rms(total) = 0.10292E-03    rms(broyden)= 0.10288E-03
  rms(prec ) = 0.10740E-03
  weight for this iteration     100.00

 eigenvalues of (default mixing * dielectric matrix)
  average eigenvalue GAMMA=   2.2881
 12.5994  8.2322  5.1345  3.7257  2.9434  2.3450  2.3450  1.4671  1.4671  1.0853
  1.0853  0.8895  0.8895  0.9306  0.7515  0.6990  0.6990  0.6394  0.6394  0.5971
  0.5971  0.5749

 Free energy of the ion-electron system (eV)
  ---------------------------------------------------
  alpha Z        PSCENC =         6.70175720
  Ewald energy   TEWEN  =      6571.19269525
  -Hartree energ DENC   =    -13630.98588394
  -exchange      EXHF   =         0.00000000
  -V(xc)+E(xc)   XCENC  =       113.90218062
  PAW double counting   =      7762.17942142    -7591.11416118
  entropy T*S    EENTRO =         0.02619154
  eigenvalues    EBANDS =      -657.41753081
  atomic energy  EATOM  =      7408.64415014
  Solvation  Ediel_sol  =         0.00000000
  ---------------------------------------------------
  free energy    TOTEN  =       -16.87117976 eV

  energy without entropy =      -16.89737130  energy(sigma->0) =      -16.87991027


--------------------------------------------------------------------------------------------------------




--------------------------------------- Iteration      1(  28)  ---------------------------------------


    POTLOK:  cpu time    3.6185: real time    3.6245
    SETDIJ:  cpu time    0.0251: real time    0.0251
     EDDAV:  cpu time    4.2673: real time    4.2706
       DOS:  cpu time    0.0083: real time    0.0083
    CHARGE:  cpu time    0.7215: real time    0.7220
    MIXING:  cpu time    0.2847: real time    0.2876
    --------------------------------------------
      LOOP:  cpu time    8.9253: real time    8.9381

 eigenvalue-minimisations  :   144
 total energy-change (2. order) :-0.1367559E-03  (-0.1614110E-06)
 number of electron      88.0000018 magnetization       0.0011491
 augmentation part       32.2818663 magnetization      -0.0010579

 Broyden mixing:
  rms(total) = 0.70799E-04    rms(broyden)= 0.70721E-04
  rms(prec ) = 0.74228E-04
  weight for this iteration     100.00

 eigenvalues of (default mixing * dielectric matrix)
  average eigenvalue GAMMA=   2.3361
 13.3533  8.3259  5.8804  4.1078  2.9947  2.4137  2.4137  1.5364  1.5364  1.2058
  1.1420  0.9369  0.9369  0.8606  0.8233  0.8233  0.7430  0.6463  0.6463  0.6211
  0.6211  0.5781  0.5825

 Free energy of the ion-electron system (eV)
  ---------------------------------------------------
  alpha Z        PSCENC =         6.70175720
  Ewald energy   TEWEN  =      6571.19269525
  -Hartree energ DENC   =    -13630.99037794
  -exchange      EXHF   =         0.00000000
  -V(xc)+E(xc)   XCENC  =       113.90220386
  PAW double counting   =      7762.17476044    -7591.10952379
  entropy T*S    EENTRO =         0.02620362
  eigenvalues    EBANDS =      -657.41318529
  atomic energy  EATOM  =      7408.64415014
  Solvation  Ediel_sol  =         0.00000000
  ---------------------------------------------------
  free energy    TOTEN  =       -16.87131652 eV

  energy without entropy =      -16.89752013  energy(sigma->0) =      -16.88005106


--------------------------------------------------------------------------------------------------------




--------------------------------------- Iteration      1(  29)  ---------------------------------------


    POTLOK:  cpu time    3.5949: real time    3.6007
    SETDIJ:  cpu time    0.0250: real time    0.0250
     EDDAV:  cpu time    4.3966: real time    4.3999
       DOS:  cpu time    0.0009: real time    0.0009
    CHARGE:  cpu time    0.7172: real time    0.7177
    MIXING:  cpu time    0.2957: real time    0.2960
    --------------------------------------------
      LOOP:  cpu time    9.0305: real time    9.0402

 eigenvalue-minimisations  :   152
 total energy-change (2. order) :-0.1096424E-03  (-0.1464534E-06)
 number of electron      88.0000018 magnetization       0.0006306
 augmentation part       32.2818780 magnetization      -0.0006651

 Broyden mixing:
  rms(total) = 0.43969E-04    rms(broyden)= 0.43887E-04
  rms(prec ) = 0.47344E-04
  weight for this iteration     100.00

 eigenvalues of (default mixing * dielectric matrix)
  average eigenvalue GAMMA=   2.4013
 14.4283  8.4908  6.8914  4.3251  3.0530  2.4657  2.4657  1.8387  1.5818  1.3482
  1.1359  0.9570  0.9570  0.8882  0.8882  0.8501  0.6726  0.6726  0.6714  0.6406
  0.6406  0.5725  0.5984  0.5984

 Free energy of the ion-electron system (eV)
  ---------------------------------------------------
  alpha Z        PSCENC =         6.70175720
  Ewald energy   TEWEN  =      6571.19269525
  -Hartree energ DENC   =    -13630.99456627
  -exchange      EXHF   =         0.00000000
  -V(xc)+E(xc)   XCENC  =       113.90215213
  PAW double counting   =      7762.16307900    -7591.09779363
  entropy T*S    EENTRO =         0.02620822
  eigenvalues    EBANDS =      -657.40910819
  atomic energy  EATOM  =      7408.64415014
  Solvation  Ediel_sol  =         0.00000000
  ---------------------------------------------------
  free energy    TOTEN  =       -16.87142616 eV

  energy without entropy =      -16.89763438  energy(sigma->0) =      -16.88016223


--------------------------------------------------------------------------------------------------------




--------------------------------------- Iteration      1(  30)  ---------------------------------------


    POTLOK:  cpu time    3.5916: real time    3.5971
    SETDIJ:  cpu time    0.0245: real time    0.0245
     EDDAV:  cpu time    4.5567: real time    4.5602
       DOS:  cpu time    0.0020: real time    0.0020
    --------------------------------------------
      LOOP:  cpu time    8.1747: real time    8.1838

 eigenvalue-minimisations  :   160
 total energy-change (2. order) :-0.4828323E-04  (-0.9259128E-07)
 number of electron      88.0000018 magnetization       0.0006306
 augmentation part       32.2818780 magnetization      -0.0006651

 Free energy of the ion-electron system (eV)
  ---------------------------------------------------
  alpha Z        PSCENC =         6.70175720
  Ewald energy   TEWEN  =      6571.19269525
  -Hartree energ DENC   =    -13630.99827817
  -exchange      EXHF   =         0.00000000
  -V(xc)+E(xc)   XCENC  =       113.90214217
  PAW double counting   =      7762.16076827    -7591.09545080
  entropy T*S    EENTRO =         0.02620860
  eigenvalues    EBANDS =      -657.40546710
  atomic energy  EATOM  =      7408.64415014
  Solvation  Ediel_sol  =         0.00000000
[...]
  -Hartree energ DENC   =    -13629.02342104
  -exchange      EXHF   =         0.00000000
  -V(xc)+E(xc)   XCENC  =       113.89573546
  PAW double counting   =      7761.31666301    -7590.24371880
  entropy T*S    EENTRO =         0.02572371
  eigenvalues    EBANDS =      -657.39017461
  atomic energy  EATOM  =      7408.64415014
  Solvation  Ediel_sol  =         0.00000000
  ---------------------------------------------------
  free energy    TOTEN  =       -16.87164708 eV

  energy without entropy =      -16.89737079  energy(sigma->0) =      -16.88022165


--------------------------------------------------------------------------------------------------------




--------------------------------------- Iteration      3(   2)  ---------------------------------------


    POTLOK:  cpu time    3.5780: real time    3.5856
    SETDIJ:  cpu time    0.0248: real time    0.0248
     EDDAV:  cpu time    3.6746: real time    3.6799
       DOS:  cpu time    0.0060: real time    0.0060
    --------------------------------------------
      LOOP:  cpu time    7.2834: real time    7.2963

 eigenvalue-minimisations  :   112
 total energy-change (2. order) :-0.1912309E-05  (-0.9742645E-06)
 number of electron      88.0000019 magnetization       0.0004794
 augmentation part       32.2821575 magnetization      -0.0000070

 Free energy of the ion-electron system (eV)
  ---------------------------------------------------
  alpha Z        PSCENC =         6.70175720
  Ewald energy   TEWEN  =      6569.20163785
  -Hartree energ DENC   =    -13629.01795792
  -exchange      EXHF   =         0.00000000
  -V(xc)+E(xc)   XCENC  =       113.89553693
  PAW double counting   =      7761.14779058    -7590.07402864
  entropy T*S    EENTRO =         0.02565747
  eigenvalues    EBANDS =      -657.39619261
  atomic energy  EATOM  =      7408.64415014
  Solvation  Ediel_sol  =         0.00000000
  ---------------------------------------------------
  free energy    TOTEN  =       -16.87164899 eV

  energy without entropy =      -16.89730647  energy(sigma->0) =      -16.88020148


--------------------------------------------------------------------------------------------------------




 average (electrostatic) potential at core
  the test charge radii are     1.2098
  (the norm of the test charge is              1.0000)
       1 -77.0858       2 -77.0347       3 -77.3063       4 -77.2536       5 -77.2517
       6 -75.9195       7 -77.0365       8 -77.0348
 
 
 
 E-fermi :  -5.4228     XC(G=0):  -0.3709     alpha+bet : -0.1708


 spin component 1

 k-point     1 :       0.0000    0.0000    0.0000
  band No.  band energies     occupation 
      1     -11.0334      1.00000
      2     -10.1473      1.00000
      3      -9.9933      1.00000
      4      -9.3917      1.00000
      5      -9.1910      1.00000
      6      -8.8978      1.00000
      7      -8.8836      1.00000
      8      -8.7927      1.00000
      9      -8.7611      1.00000
     10      -8.3477      1.00000
     11      -8.2961      1.00000
     12      -8.1611      1.00000
     13      -8.0511      1.00000
     14      -7.9946      1.00000
     15      -7.8763      1.00000
     16      -7.7011      1.00000
     17      -7.6729      1.00000
     18      -7.6060      1.00000
     19      -7.4426      1.00000
     20      -7.3997      1.00000
     21      -7.3427      1.00000
     22      -7.2226      1.00000
     23      -7.1920      1.00000
     24      -7.0813      1.00000
     25      -7.0678      1.00000
     26      -7.0196      1.00000
     27      -6.9959      1.00000
     28      -6.9396      1.00000
     29      -6.7415      1.00000
     30      -6.7342      1.00000
     31      -6.6833      1.00000
     32      -6.6789      1.00000
     33      -6.6241      1.00000
     34      -6.5418      1.00000
     35      -6.4602      1.00000
     36      -6.3661      1.00000
     37      -6.1585      1.00000
     38      -6.0543      1.00004
     39      -6.0499      1.00004
     40      -6.0188      1.00010
     41      -5.8770      1.00303
     42      -5.8739      1.00322
     43      -5.7566      1.01992
     44      -5.5713      0.97387
     45      -3.9846     -0.00000
     46      -3.7109     -0.00000
     47      -3.6662     -0.00000
     48      -3.2489     -0.00000
     49      -1.7706     -0.00000
     50      -1.3785     -0.00000
     51      -1.3695     -0.00000
     52      -0.9883     -0.00000
     53      -0.8268     -0.00000
     54      -0.6305     -0.00000
     55      -0.5005     -0.00000
     56      -0.1803     -0.00000

 spin component 2

 k-point     1 :       0.0000    0.0000    0.0000
  band No.  band energies     occupation 
      1     -11.0334      1.00000
      2     -10.1473      1.00000
      3      -9.9933      1.00000
      4      -9.3917      1.00000
      5      -9.1910      1.00000
      6      -8.8978      1.00000
      7      -8.8836      1.00000
      8      -8.7927      1.00000
      9      -8.7611      1.00000
     10      -8.3477      1.00000
     11      -8.2961      1.00000
     12      -8.1611      1.00000
     13      -8.0511      1.00000
     14      -7.9946      1.00000
     15      -7.8763      1.00000
     16      -7.7011      1.00000
     17      -7.6729      1.00000
     18      -7.6060      1.00000
     19      -7.4426      1.00000
     20      -7.3997      1.00000
     21      -7.3426      1.00000
     22      -7.2225      1.00000
     23      -7.1920      1.00000
     24      -7.0812      1.00000
     25      -7.0678      1.00000
     26      -7.0196      1.00000
     27      -6.9959      1.00000
     28      -6.9396      1.00000
     29      -6.7415      1.00000
     30      -6.7342      1.00000
     31      -6.6833      1.00000
     32      -6.6789      1.00000
     33      -6.6241      1.00000
     34      -6.5418      1.00000
     35      -6.4602      1.00000
     36      -6.3661      1.00000
     37      -6.1585      1.00000
     38      -6.0541      1.00004
     39      -6.0498      1.00004
     40      -6.0188      1.00010
     41      -5.8770      1.00303
     42      -5.8739      1.00322
     43      -5.7566      1.01993
     44      -5.5710      0.97341
     45      -3.9846     -0.00000
     46      -3.7109     -0.00000
     47      -3.6663     -0.00000
     48      -3.2488     -0.00000
     49      -1.7707     -0.00000
     50      -1.3787     -0.00000
     51      -1.3696     -0.00000
     52      -0.9883     -0.00000
     53      -0.8260     -0.00000
     54      -0.6307     -0.00000
     55      -0.5013     -0.00000
     56      -0.1798     -0.00000


--------------------------------------------------------------------------------------------------------


 soft charge-density along one line, spin component            1
         0         1         2         3         4         5         6         7         8         9
 total charge-density along one line
 
 soft charge-density along one line, spin component            2
         0         1         2         3         4         5         6         7         8         9
 total charge-density along one line
 
 pseudopotential strength for first ion, spin component:            1
 -9.380   0.008   0.023  -0.041   0.002  -9.498   0.008   0.023
  0.008  -9.382  -0.020  -0.016   0.048   0.008  -9.500  -0.020
  0.023  -0.020  -9.348   0.007  -0.016   0.023  -0.020  -9.466
 -0.041  -0.016   0.007  -9.344   0.014  -0.040  -0.016   0.007
  0.002   0.048  -0.016   0.014  -9.380   0.002   0.047  -0.015
 -9.498   0.008   0.023  -0.040   0.002  -9.600   0.008   0.022
  0.008  -9.500  -0.020  -0.016   0.047   0.008  -9.602  -0.019
  0.023  -0.020  -9.466   0.007  -0.015   0.022  -0.019  -9.569
 -0.040  -0.016   0.007  -9.463   0.013  -0.039  -0.015   0.007
  0.002   0.047  -0.015   0.013  -9.498   0.002   0.046  -0.015
  0.014   0.035  -0.009  -0.006  -0.015   0.014   0.035  -0.009
  0.020   0.050  -0.013  -0.009  -0.022   0.020   0.050  -0.013
 -0.011   0.006   0.000   0.000   0.002  -0.010   0.006   0.000
  0.000  -0.002   0.007  -0.011  -0.000   0.001  -0.002   0.007
 -0.001   0.000   0.007   0.006  -0.012  -0.001   0.001   0.006
 -0.012   0.007   0.000   0.001   0.002  -0.012   0.007   0.000
  0.001  -0.003   0.008  -0.013   0.000   0.001  -0.003   0.008
 -0.001   0.001   0.007   0.007  -0.014  -0.001   0.001   0.007
 pseudopotential strength for first ion, spin component:            2
 -9.380   0.008   0.023  -0.041   0.002  -9.498   0.008   0.023
  0.008  -9.382  -0.020  -0.016   0.048   0.008  -9.500  -0.020
  0.023  -0.020  -9.348   0.007  -0.016   0.023  -0.020  -9.466
 -0.041  -0.016   0.007  -9.344   0.014  -0.040  -0.016   0.007
  0.002   0.048  -0.016   0.014  -9.380   0.002   0.047  -0.015
 -9.498   0.008   0.023  -0.040   0.002  -9.600   0.008   0.022
  0.008  -9.500  -0.020  -0.016   0.047   0.008  -9.602  -0.019
  0.023  -0.020  -9.466   0.007  -0.015   0.022  -0.019  -9.569
 -0.040  -0.016   0.007  -9.463   0.013  -0.039  -0.015   0.007
  0.002   0.047  -0.015   0.013  -9.498   0.002   0.046  -0.015
  0.014   0.035  -0.009  -0.006  -0.015   0.014   0.035  -0.009
  0.020   0.050  -0.013  -0.008  -0.022   0.020   0.050  -0.013
 -0.011   0.006   0.000   0.000   0.002  -0.010   0.006   0.000
  0.000  -0.002   0.007  -0.011  -0.000   0.001  -0.002   0.007
 -0.001   0.000   0.007   0.006  -0.012  -0.001   0.001   0.006
 -0.012   0.007   0.000   0.001   0.002  -0.012   0.007   0.000
  0.001  -0.003   0.008  -0.013   0.000   0.001  -0.003   0.008
 -0.001   0.001   0.007   0.007  -0.014  -0.001   0.001   0.007
 total augmentation occupancy for first ion, spin component:            1
  3.574   0.023  -0.246   0.333  -0.035  -1.566  -0.040   0.339  -0.447   0.068  -0.644   0.123  -0.170  -0.067  -0.052  -0.003
  0.023   3.789   0.174   0.132  -0.573  -0.040  -1.888  -0.186  -0.164   0.805  -1.621   0.261   0.076   0.033   0.021   0.003
 -0.246   0.174   3.317   0.032   0.112   0.339  -0.186  -1.162  -0.002  -0.148   0.427  -0.095   0.084   0.049   0.080  -0.003
  0.333   0.132   0.032   3.383  -0.309  -0.448  -0.165  -0.002  -1.257   0.370   0.287  -0.122  -0.054  -0.127   0.124   0.003
 -0.035  -0.573   0.112  -0.309   3.858   0.068   0.805  -0.149   0.370  -1.857   0.699  -0.040  -0.005   0.051  -0.164   0.002
 -1.566  -0.040   0.339  -0.448   0.068   1.505   0.058  -0.410   0.535  -0.096   0.571  -0.127   0.167   0.055   0.054  -0.006
 -0.040  -1.888  -0.186  -0.165   0.805   0.058   1.920   0.193   0.190  -0.990   1.447  -0.285  -0.076  -0.031  -0.013   0.002
  0.339  -0.186  -1.162  -0.002  -0.149  -0.410   0.193   0.990  -0.022   0.178  -0.380   0.096  -0.078  -0.051  -0.087   0.003
 -0.447  -0.164  -0.002  -1.257   0.370   0.535   0.190  -0.022   1.106  -0.417  -0.250   0.108   0.045   0.137  -0.134  -0.002
  0.068   0.805  -0.148   0.370  -1.857  -0.096  -0.990   0.178  -0.417   1.808  -0.628   0.066   0.002  -0.050   0.172  -0.000
 -0.644  -1.621   0.427   0.287   0.699   0.571   1.447  -0.380  -0.250  -0.628   2.245  -0.456   0.018  -0.074   0.144  -0.001
  0.123   0.261  -0.095  -0.122  -0.040  -0.127  -0.285   0.096   0.108   0.066  -0.456   0.108  -0.006   0.025  -0.051   0.000
 -0.170   0.076   0.084  -0.054  -0.005   0.167  -0.076  -0.078   0.045   0.002   0.018  -0.006   0.148   0.074   0.027  -0.004
 -0.067   0.033   0.049  -0.127   0.051   0.055  -0.031  -0.051   0.137  -0.050  -0.074   0.025   0.074   0.079  -0.005  -0.002
 -0.052   0.021   0.080   0.124  -0.164   0.054  -0.013  -0.087  -0.134   0.172   0.144  -0.051   0.027  -0.005   0.070  -0.001
 -0.003   0.003  -0.003   0.003   0.002  -0.006   0.002   0.003  -0.002  -0.000  -0.001   0.000  -0.004  -0.002  -0.001   0.000
  0.003  -0.005   0.005  -0.005  -0.001  -0.002   0.003   0.001  -0.004   0.001   0.005  -0.001  -0.002  -0.003   0.000   0.000
  0.002   0.003   0.003   0.002  -0.007  -0.003  -0.002   0.003   0.004  -0.004  -0.010   0.002  -0.001   0.000  -0.003   0.000
 total augmentation occupancy for first ion, spin component:            2
  0.000   0.000   0.000   0.000  -0.000  -0.000  -0.000   0.000  -0.000   0.000  -0.000  -0.000  -0.000  -0.000   0.000   0.000
  0.000   0.000   0.000   0.000  -0.000  -0.000  -0.000  -0.000  -0.000   0.000  -0.000   0.000  -0.000   0.000   0.000   0.000
  0.000   0.000   0.000   0.000  -0.000   0.000  -0.000  -0.000  -0.000   0.000  -0.000  -0.000   0.000   0.000   0.000   0.000
  0.000   0.000   0.000   0.000  -0.000  -0.000  -0.000  -0.000  -0.000   0.000  -0.000  -0.000  -0.000  -0.000   0.000   0.000
 -0.000  -0.000  -0.000  -0.000   0.000   0.000   0.000   0.000   0.000  -0.000   0.000   0.000   0.000   0.000  -0.000  -0.000
 -0.000  -0.000   0.000  -0.000   0.000   0.000   0.000  -0.000   0.000  -0.000   0.000   0.000   0.000   0.000  -0.000  -0.000
 -0.000  -0.000  -0.000  -0.000   0.000   0.000   0.000   0.000   0.000  -0.000   0.000   0.000   0.000  -0.000  -0.000  -0.000
  0.000  -0.000  -0.000  -0.000   0.000  -0.000   0.000   0.000   0.000  -0.000   0.000   0.000  -0.000  -0.000  -0.000   0.000
 -0.000  -0.000  -0.000  -0.000   0.000   0.000   0.000   0.000   0.000  -0.000   0.000   0.000   0.000  -0.000  -0.000  -0.000
  0.000   0.000   0.000   0.000  -0.000  -0.000  -0.000  -0.000  -0.000   0.000  -0.000  -0.000  -0.000  -0.000   0.000   0.000
 -0.000  -0.000  -0.000  -0.000   0.000   0.000   0.000   0.000   0.000  -0.000   0.000   0.000   0.000  -0.000  -0.000  -0.000
 -0.000   0.000  -0.000  -0.000   0.000   0.000   0.000   0.000   0.000  -0.000   0.000   0.000  -0.000   0.000  -0.000   0.000
 -0.000  -0.000   0.000  -0.000   0.000   0.000   0.000  -0.000   0.000  -0.000   0.000  -0.000   0.000   0.000  -0.000   0.000
 -0.000   0.000   0.000  -0.000   0.000   0.000  -0.000  -0.000  -0.000  -0.000  -0.000   0.000   0.000  -0.000  -0.000  -0.000
  0.000   0.000   0.000   0.000  -0.000  -0.000  -0.000  -0.000  -0.000   0.000  -0.000  -0.000  -0.000  -0.000   0.000   0.000
  0.000   0.000   0.000   0.000  -0.000  -0.000  -0.000   0.000  -0.000   0.000  -0.000   0.000   0.000  -0.000   0.000  -0.000
 -0.000  -0.000  -0.000  -0.000   0.000   0.000   0.000   0.000   0.000  -0.000   0.000  -0.000  -0.000   0.000  -0.000  -0.000
  0.000   0.000   0.000   0.000  -0.000  -0.000  -0.000  -0.000  -0.000   0.000  -0.000  -0.000  -0.000  -0.000   0.000   0.000


------------------------ aborting loop because EDIFF is reached ----------------------------------------


    CHARGE:  cpu time    0.7159: real time    0.7165
    FORLOC:  cpu time    0.1037: real time    0.1064
    FORNL :  cpu time    3.4050: real time    3.4181
    FORCOR:  cpu time    3.4513: real time    3.4627
    FORHAR:  cpu time    0.4360: real time    0.4417
    MIXING:  cpu time    0.0663: real time    0.0691
    OFIELD:  cpu time    0.0000: real time    0.0000

 VOLUME and BASIS-vectors are now :
 -----------------------------------------------------------------------------
  energy-cutoff  :      400.00
  volume of cell :    11123.49
      direct lattice vectors                 reciprocal lattice vectors
    21.617208572  0.000000000  0.000000000     0.046259442  0.000000000  0.000000000
     0.000000000 22.657025112  0.000000000     0.000000000  0.044136421  0.000000000
     0.000000000  0.000000000 22.711126418     0.000000000  0.000000000  0.044031281

  length of vectors
    21.617208572 22.657025112 22.711126418     0.046259442  0.044136421  0.044031281


 FORCES acting on ions
    electron-ion (+dipol)            ewald-force                    non-local-force                 convergence-correction
 -----------------------------------------------------------------------------------------------
   0.507E+03 0.828E+02 -.291E+03   -.505E+03 -.826E+02 0.290E+03   -.139E+01 -.193E+00 0.746E+00   0.836E-03 0.275E-02 -.516E-02
   -.239E+03 -.196E+03 0.396E+03   0.238E+03 0.197E+03 -.397E+03   0.141E+01 -.787E+00 0.877E+00   -.223E-02 -.508E-02 0.129E-01
   -.729E+03 0.228E+03 -.150E+03   0.722E+03 -.226E+03 0.148E+03   0.649E+01 -.244E+01 0.203E+01   0.196E-02 0.869E-03 -.153E-02
   -.535E+02 0.504E+03 0.239E+03   0.527E+02 -.503E+03 -.237E+03   0.815E+00 -.741E+00 -.110E+01   0.502E-02 -.414E-02 -.378E-03
   -.223E+03 -.408E+03 -.313E+03   0.221E+03 0.406E+03 0.313E+03   0.114E+01 0.106E+01 -.342E-01   0.337E-02 -.319E-02 0.889E-03
   0.607E+02 -.301E+03 0.474E+03   -.585E+02 0.297E+03 -.468E+03   -.223E+01 0.389E+01 -.571E+01   0.216E-02 0.442E-03 -.304E-02
   0.247E+03 -.443E+03 -.476E+03   -.245E+03 0.438E+03 0.471E+03   -.253E+01 0.521E+01 0.475E+01   0.313E-03 -.263E-02 0.247E-02
   0.430E+03 0.533E+03 0.122E+03   -.426E+03 -.527E+03 -.120E+03   -.458E+01 -.561E+01 -.192E+01   -.886E-03 -.706E-03 0.488E-02
 -----------------------------------------------------------------------------------------------
   0.867E+00 -.368E+00 0.343E+00   -.568E-13 0.114E-12 0.711E-13   -.878E+00 0.379E+00 -.357E+00   0.106E-01 -.117E-01 0.110E-01
 
 
 POSITION                                       TOTAL-FORCE (eV/Angst)
 -----------------------------------------------------------------------------------
      8.63408     10.92869     12.74810        -0.010611      0.013406     -0.018953
     11.70292     12.17156      9.76122        -0.019356      0.012924      0.004372
     13.06554     10.79148     11.61731         0.016527     -0.000511     -0.001626
     10.57218      9.95544     11.00275         0.011222     -0.018745     -0.006055
     11.01881     12.34239     12.45553         0.007613      0.000049      0.004001
     10.95298     13.52489      7.76379         0.008908      0.002852     -0.008396
      9.09482     13.17487     14.02619        -0.004391     -0.007030      0.008667
      8.26433      8.75879     11.31603        -0.009913     -0.002945      0.017989
 -----------------------------------------------------------------------------------
    total drift:                               -0.000112     -0.001290     -0.002722


--------------------------------------------------------------------------------------------------------



  FREE ENERGIE OF THE ION-ELECTRON SYSTEM (eV)
  ---------------------------------------------------
  free  energy   TOTEN  =       -16.87164899 eV

  energy  without entropy=      -16.89730647  energy(sigma->0) =      -16.88020148
 
 d Force =-0.5699413E-05[-0.135E-04, 0.211E-05]  d Energy =-0.1050745E-04 0.481E-05
 d Force =-0.2145892E+00[-0.215E+00,-0.215E+00]  d Ewald  =-0.2145892E+00-0.829E-11


--------------------------------------------------------------------------------------------------------


    POTLOK:  cpu time    3.6190: real time    3.6249


--------------------------------------------------------------------------------------------------------




--------------------------------------------------------------------------------------------------------


  
 reached required accuracy - stopping structural energy minimisation
     LOOP+:  cpu time   29.2574: real time   29.3642
    4ORBIT:  cpu time    0.0000: real time    0.0000

 total amount of memory used by VASP MPI-rank0   218037. kBytes
=======================================================================

   base      :      30000. kBytes
   nonl-proj :       3433. kBytes
   fftplans  :      49637. kBytes
   grid      :     112318. kBytes
   one-center:         15. kBytes
   wavefun   :      22634. kBytes
 
  
  
 General timing and accounting informations for this job:
 ========================================================
  
                  Total CPU time used (sec):      369.674
                            User time (sec):      365.240
                          System time (sec):        4.434
                         Elapsed time (sec):      372.605
  
                   Maximum memory used (kb):      443356.
                   Average memory used (kb):           0.
  
                          Minor page faults:      1815037
                          Major page faults:         7218
                 Voluntary context switches:         2934
