<?xml version="1.0" encoding="ISO-8859-1"?>
<modeling>
 <generator>
  <i name="program" type="string">vasp </i>
  <i name="version" type="string">6.1.2  </i>
  <i name="subversion" type="string">22Jul20 (build Aug  2 2021 21:04:21) gamma-only                       parallel </i>
  <i name="platform" type="string">LinuxPGI </i>
  <i name="date" type="string">2021 12 28 </i>
  <i name="time" type="string">19:09:47 </i>
 </generator>
 <incar>
  <i type="int" name="ISPIN">     2</i>
  <i type="int" name="IBRION">     2</i>
  <i type="int" name="NSW">  1000</i>
  <i type="int" name="ISIF">     0</i>
  <i type="int" name="ISYM">     0</i>
  <i name="ENCUT">    400.00000000</i>
  <i type="logical" name="LREAL"> F  </i>
  <i type="int" name="ISMEAR">     1</i>
  <i name="SIGMA">      0.20000000</i>
  <i type="logical" name="LWAVE"> F  </i>
  <i type="logical" name="LCHARG"> F  </i>
  <i type="int" name="KPAR">     1</i>
  <i type="int" name="NCORE">     8</i>
  <i type="string" name="GGA"> PE</i>
  <i type="int" name="ISPIN">     2</i>
 </incar>
 <structure name="primitive_cell" >
  <crystal>
   <varray name="basis" >
    <v>      21.61720857       0.00000000       0.00000000 </v>
    <v>       0.00000000      22.65702511       0.00000000 </v>
    <v>       0.00000000       0.00000000      22.71112642 </v>
   </varray>
   <i name="volume">  11123.49268554 </i>
   <varray name="rec_basis" >
    <v>       0.04625944       0.00000000       0.00000000 </v>
    <v>       0.00000000       0.04413642       0.00000000 </v>
    <v>       0.00000000       0.00000000       0.04403128 </v>
   </varray>
  </crystal>
  <varray name="positions" >
   <v>       0.39943850       0.48232949       0.56134272 </v>
   <v>       0.54139887       0.53720511       0.42975924 </v>
   <v>       0.60437489       0.47629682       0.51152875 </v>
   <v>       0.48901626       0.43942454       0.48448714 </v>
   <v>       0.50969017       0.54474907       0.54844009 </v>
   <v>       0.50667161       0.59691932       0.34188807 </v>
   <v>       0.42074141       0.58149685       0.61756505 </v>
   <v>       0.38234138       0.38659843       0.49822594 </v>
  </varray>
 </structure>
 <varray name="primitive_index" >
  <v type="int" >        1 </v>
  <v type="int" >        2 </v>
  <v type="int" >        3 </v>
  <v type="int" >        4 </v>
  <v type="int" >        5 </v>
  <v type="int" >        6 </v>
  <v type="int" >        7 </v>
  <v type="int" >        8 </v>
 </varray>
 <kpoints>
  <generation param="Gamma">
   <v type="int" name="divisions">       1        1        1 </v>
   <v name="usershift">      0.00000000       0.00000000       0.00000000 </v>
   <v name="genvec1">      1.00000000       0.00000000       0.00000000 </v>
   <v name="genvec2">      0.00000000       1.00000000       0.00000000 </v>
   <v name="genvec3">      0.00000000       0.00000000       1.00000000 </v>
   <v name="shift">      0.00000000       0.00000000       0.00000000 </v>
  </generation>
  <varray name="kpointlist" >
   <v>       0.00000000       0.00000000       0.00000000 </v>
  </varray>
  <varray name="weights" >
   <v>       1.00000000 </v>
  </varray>
 </kpoints>
 <parameters>
  <separator name="general" >
   <i type="string" name="SYSTEM">unknown system</i>
   <i type="logical" name="LCOMPAT"> F  </i>
  </separator>
  <separator name="electronic" >
   <i type="string" name="PREC">normal</i>
   <i name="ENMAX">    400.00000000</i>
   <i name="ENAUG">    356.67000000</i>
   <i name="EDIFF">      0.00010000</i>
   <i type="int" name="IALGO">    38</i>
   <i type="int" name="IWAVPR">    11</i>
   <i type="int" name="NBANDS">    56</i>
   <i type="int" name="NBANDSLOW">    -1</i>
   <i type="int" name="NBANDSHIGH">    -1</i>
   <i name="NELECT">     88.00000000</i>
   <i type="int" name="TURBO">     0</i>
   <i type="int" name="IRESTART">     0</i>
   <i type="int" name="NREBOOT">     0</i>
   <i type="int" name="NMIN">     0</i>
   <i name="EREF">      0.00000000</i>
   <separator name="electronic smearing" >
    <i type="int" name="ISMEAR">     1</i>
    <i name="SIGMA">      0.20000000</i>
    <i name="KSPACING">      0.50000000</i>
    <i type="logical" name="KGAMMA"> T  </i>
    <i type="logical" name="KBLOWUP"> T  </i>
   </separator>
   <separator name="electronic projectors" >
    <i type="logical" name="LREAL"> F  </i>
    <v name="ROPT">      0.00000000</v>
    <i type="int" name="LMAXPAW">  -100</i>
    <i type="int" name="LMAXMIX">     2</i>
    <i type="logical" name="NLSPLINE"> F  </i>
   </separator>
   <separator name="electronic startup" >
    <i type="int" name="ISTART">     0</i>
    <i type="int" name="ICHARG">     2</i>
    <i type="int" name="INIWAV">     1</i>
   </separator>
   <separator name="electronic spin" >
    <i type="int" name="ISPIN">     2</i>
    <i type="logical" name="LNONCOLLINEAR"> F  </i>
    <v name="MAGMOM">      1.00000000      1.00000000      1.00000000      1.00000000      1.00000000      1.00000000      1.00000000      1.00000000</v>
    <i name="NUPDOWN">     -1.00000000</i>
    <i type="logical" name="LSORBIT"> F  </i>
    <v name="SAXIS">      0.00000000      0.00000000      1.00000000</v>
    <i type="logical" name="LSPIRAL"> F  </i>
    <v name="QSPIRAL">      0.00000000      0.00000000      0.00000000</v>
    <i type="logical" name="LZEROZ"> F  </i>
   </separator>
   <separator name="electronic exchange-correlation" >
    <i type="logical" name="LASPH"> F  </i>
    <i type="logical" name="LMETAGGA"> F  </i>
   </separator>
   <separator name="electronic convergence" >
    <i type="int" name="NELM">    60</i>
    <i type="int" name="NELMDL">     0</i>
    <i type="int" name="NELMIN">     2</i>
    <i name="ENINI">    400.00000000</i>
    <separator name="electronic convergence detail" >
     <i type="logical" name="LDIAG"> T  </i>
     <i type="logical" name="LSUBROT"> F  </i>
     <i name="WEIMIN">      0.00100000</i>
     <i name="EBREAK">      0.00000045</i>
     <i name="DEPER">      0.30000000</i>
     <i type="int" name="NRMM">     4</i>
     <i name="TIME">      0.40000000</i>
    </separator>
   </separator>
   <separator name="electronic mixer" >
    <i name="AMIX">      0.40000000</i>
    <i name="BMIX">      1.00000000</i>
    <i name="AMIN">      0.10000000</i>
    <i name="AMIX_MAG">      1.60000000</i>
    <i name="BMIX_MAG">      1.00000000</i>
    <separator name="electronic mixer details" >
     <i type="int" name="IMIX">     4</i>
     <i type="logical" name="MIXFIRST"> F  </i>
     <i type="int" name="MAXMIX">   -45</i>
     <i name="WC">    100.00000000</i>
     <i type="int" name="INIMIX">     1</i>
     <i type="int" name="MIXPRE">     1</i>
     <i type="int" name="MREMOVE">     5</i>
    </separator>
   </separator>
   <separator name="electronic dipolcorrection" >
    <i type="logical" name="LDIPOL"> F  </i>
    <i type="logical" name="LMONO"> F  </i>
    <i type="int" name="IDIPOL">     0</i>
    <i name="EPSILON">      1.00000000</i>
    <v name="DIPOL">   -100.00000000   -100.00000000   -100.00000000</v>
    <i name="EFIELD">      0.00000000</i>
   </separator>
  </separator>
  <separator name="grids" >
   <i type="int" name="NGX">   108</i>
   <i type="int" name="NGY">   112</i>
   <i type="int" name="NGZ">   112</i>
   <i type="int" name="NGXF">   216</i>
   <i type="int" name="NGYF">   224</i>
   <i type="int" name="NGZF">   224</i>
   <i type="logical" name="ADDGRID"> F  </i>
  </separator>
  <separator name="ionic" >
   <i type="int" name="NSW">  1000</i>
   <i type="int" name="IBRION">     2</i>
   <i type="int" name="MDALGO">     0</i>
   <i type="int" name="ISIF">     0</i>
   <i name="PSTRESS">      0.00000000</i>
   <i name="EDIFFG">      0.00100000</i>
   <i type="int" name="NFREE">     1</i>
   <i name="POTIM">      0.50000000</i>
   <i name="SMASS">     -3.00000000</i>
   <i name="SCALEE">      1.00000000</i>
  </separator>
  <separator name="ionic md" >
   <i name="TEBEG">      0.00010000</i>
   <i name="TEEND">      0.00010000</i>
   <i type="int" name="NBLOCK">     1</i>
   <i type="int" name="KBLOCK">  1000</i>
   <i type="int" name="NPACO">   256</i>
   <i name="APACO">     16.00000000</i>
  </separator>
  <separator name="symmetry" >
   <i type="int" name="ISYM">     0</i>
   <i name="SYMPREC">      0.00001000</i>
  </separator>
  <separator name="dos" >
   <i type="int" name="LORBIT">     0</i>
   <v name="RWIGS">     -1.00000000</v>
   <i type="int" name="NEDOS">   301</i>
   <i name="EMIN">     10.00000000</i>
   <i name="EMAX">    -10.00000000</i>
   <i name="EFERMI">      0.00000000</i>
  </separator>
  <separator name="writing" >
   <i type="int" name="NWRITE">     2</i>
   <i type="logical" name="LWAVE"> F  </i>
   <i type="logical" name="LDOWNSAMPLE"> F  </i>
   <i type="logical" name="LCHARG"> F  </i>
   <i type="logical" name="LPARD"> F  </i>
   <i type="logical" name="LVTOT"> F  </i>
   <i type="logical" name="LVHAR"> F  </i>
   <i type="logical" name="LELF"> F  </i>
   <i type="logical" name="LOPTICS"> F  </i>
   <v name="STM">      0.00000000      0.00000000      0.00000000      0.00000000      0.00000000      0.00000000      0.00000000</v>
  </separator>
  <separator name="performance" >
   <i type="int" name="NPAR">     1</i>
   <i type="int" name="NSIM">     4</i>
   <i type="int" name="NBLK">    -1</i>
   <i type="logical" name="LPLANE"> T  </i>
   <i type="logical" name="LSCALAPACK"> T  </i>
   <i type="logical" name="LSCAAWARE"> F  </i>
   <i type="logical" name="LSCALU"> F  </i>
   <i type="logical" name="LASYNC"> F  </i>
   <i type="logical" name="LORBITALREAL"> F  </i>
  </separator>
  <separator name="miscellaneous" >
   <i type="int" name="IDIOT">     3</i>
   <i type="int" name="PHON_NSTRUCT">    -1</i>
   <i type="logical" name="LMUSIC"> F  </i>
   <v name="POMASS">    196.96600000</v>
   <v name="DARWINR">      0.00000000</v>
   <v name="DARWINV">      1.00000000</v>
   <i type="logical" name="LCORR"> T  </i>
  </separator>
  <i type="logical" name="GGA_COMPAT"> T  </i>
  <i type="logical" name="LBERRY"> F  </i>
  <i type="int" name="ICORELEVEL">     0</i>
  <i type="logical" name="LDAU"> F  </i>
  <i type="int" name="I_CONSTRAINED_M">     0</i>
  <separator name="electronic exchange-correlation" >
   <i type="string" name="GGA">PE</i>
   <i type="int" name="VOSKOWN">     0</i>
   <i type="logical" name="LHFCALC"> F  </i>
   <i type="string" name="PRECFOCK"></i>
   <i type="logical" name="LSYMGRAD"> F  </i>
   <i type="logical" name="LHFONE"> F  </i>
   <i type="logical" name="LRHFCALC"> F  </i>
   <i type="logical" name="LTHOMAS"> F  </i>
   <i type="logical" name="LMODELHF"> F  </i>
   <i type="logical" name="LFOCKACE"> F  </i>
   <i name="ENCUT4O">     -1.00000000</i>
   <i type="int" name="EXXOEP">     0</i>
   <i type="int" name="FOURORBIT">     0</i>
   <i name="AEXX">      0.00000000</i>
   <i name="HFALPHA">      0.00000000</i>
   <i name="MCALPHA">      0.00000000</i>
   <i name="ALDAX">      1.00000000</i>
   <i name="AGGAX">      1.00000000</i>
   <i name="ALDAC">      1.00000000</i>
   <i name="AGGAC">      1.00000000</i>
   <i type="int" name="NKREDX">     1</i>
   <i type="int" name="NKREDY">     1</i>
   <i type="int" name="NKREDZ">     1</i>
   <i type="logical" name="SHIFTRED"> F  </i>
   <i type="logical" name="ODDONLY"> F  </i>
   <i type="logical" name="EVENONLY"> F  </i>
   <i type="int" name="LMAXFOCK">     0</i>
   <i type="int" name="NMAXFOCKAE">     0</i>
   <i type="logical" name="LFOCKAEDFT"> F  </i>
   <i name="HFSCREEN">      0.00000000</i>
   <i name="HFSCREENC">      0.00000000</i>
   <i type="int" name="NBANDSGWLOW">     0</i>
  </separator>
  <separator name="vdW DFT" >
   <i type="logical" name="LUSE_VDW"> F  </i>
   <i name="Zab_VDW">     -0.84910000</i>
   <i name="PARAM1">      0.12340000</i>
   <i name="PARAM2">      1.00000000</i>
   <i name="PARAM3">      0.00000000</i>
  </separator>
  <separator name="model GW" >
   <i type="int" name="MODEL_GW">     0</i>
   <i name="MODEL_EPS0">    834.26195142</i>
   <i name="MODEL_ALPHA">      1.00000000</i>
  </separator>
  <separator name="linear response parameters" >
   <i type="logical" name="LEPSILON"> F  </i>
   <i type="logical" name="LRPA"> F  </i>
   <i type="logical" name="LNABLA"> F  </i>
   <i type="logical" name="LVEL"> F  </i>
   <i type="int" name="KINTER">     0</i>
   <i name="CSHIFT">      0.10000000</i>
   <i name="OMEGAMAX">     -1.00000000</i>
   <i name="DEG_THRESHOLD">      0.00200000</i>
   <i name="RTIME">     -0.10000000</i>
   <i name="WPLASMAI">      0.00000000</i>
   <v name="DFIELD">      0.00000000      0.00000000      0.00000000</v>
   <v name="WPLASMA">      0.00000000      0.00000000      0.00000000      0.00000000      0.00000000      0.00000000      0.00000000      0.00000000      0.00000000</v>
  </separator>
  <separator name="orbital magnetization" >
   <i type="logical" name="NUCIND"> F  </i>
   <v name="MAGPOS">      0.00000000      0.00000000      0.00000000</v>
   <i type="logical" name="LNICSALL"> T  </i>
   <i type="logical" name="ORBITALMAG"> F  </i>
   <i type="logical" name="LMAGBLOCH"> F  </i>
   <i type="logical" name="LCHIMAG"> F  </i>
   <i type="logical" name="LGAUGE"> T  </i>
   <i type="int" name="MAGATOM">     0</i>
   <v name="MAGDIPOL">      0.00000000      0.00000000      0.00000000</v>
   <v name="AVECCONST">      0.00000000      0.00000000      0.00000000</v>
  </separator>
  <separator name="response functions" >
   <i type="logical" name="LFINITE_TEMPERATURE"> F  </i>
   <i type="logical" name="LADDER"> F  </i>
   <i type="logical" name="LRPAFORCE"> F  </i>
   <i type="logical" name="LFXC"> F  </i>
   <i type="logical" name="LHARTREE"> T  </i>
   <i type="int" name="IBSE">     0</i>
   <v type="int" name="KPOINT">    -1     0     0     0</v>
   <i type="logical" name="LTCTC"> F  </i>
   <i type="logical" name="LTCTE"> F  </i>
   <i type="logical" name="LTETE"> F  </i>
   <i type="logical" name="LTRIPLET"> F  </i>
   <i type="logical" name="LFXCEPS"> F  </i>
   <i type="logical" name="LFXHEG"> F  </i>
   <i type="int" name="NATURALO">     2</i>
   <i type="logical" name="LHOLEGF"> F  </i>
   <i type="logical" name="L2ORDER"> F  </i>
   <i type="logical" name="LDMP1"> F  </i>
   <i type="logical" name="LMP2LT"> F  </i>
   <i type="logical" name="LSMP2LT"> F  </i>
   <i type="logical" name="LGWLF"> F  </i>
   <i name="ENCUTGW">     -2.00000000</i>
   <i name="ENCUTGWSOFT">     -2.00000000</i>
   <i name="ENCUTLF">     -1.00000000</i>
   <i type="logical" name="LESF_SPLINES"> F  </i>
   <i type="int" name="LMAXMP2">    -1</i>
   <i name="SCISSOR">      0.00000000</i>
   <i type="int" name="NOMEGA">     0</i>
   <i type="int" name="NOMEGAR">     0</i>
   <i type="int" name="NBANDSGW">    -1</i>
   <i type="int" name="NBANDSO">    -1</i>
   <i type="int" name="NBANDSV">    -1</i>
   <i type="int" name="NELM">     1</i>
   <i type="int" name="NELMHF">     1</i>
   <i type="int" name="DIM">     3</i>
   <i type="int" name="IESPILON">     4</i>
   <i type="int" name="ANTIRES">     0</i>
   <i name="OMEGAMAX">    -30.00000000</i>
   <i name="OMEGAMIN">    -30.00000000</i>
   <i name="OMEGATL">   -200.00000000</i>
   <i type="int" name="OMEGAGRID">     0</i>
   <i name="CSHIFT">     -0.10000000</i>
   <i type="logical" name="LSELFENERGY"> F  </i>
   <i type="logical" name="LSPECTRAL"> F  </i>
   <i type="logical" name="LSPECTRALGW"> F  </i>
   <i type="logical" name="LSINGLES"> F  </i>
   <i type="logical" name="LFERMIGW"> F  </i>
   <i type="logical" name="ODDONLYGW"> F  </i>
   <i type="logical" name="EVENONLYGW"> F  </i>
   <i type="int" name="NKREDLFX">     1</i>
   <i type="int" name="NKREDLFY">     1</i>
   <i type="int" name="NKREDLFZ">     1</i>
   <i type="int" name="MAXMEM">  2800</i>
   <i type="int" name="TELESCOPE">     0</i>
   <i type="int" name="NTAUPAR">    -1</i>
   <i type="int" name="NOMEGAPAR">    -1</i>
   <i name="LAMBDA">      1.00000000</i>
  </separator>
  <separator name="External order field" >
   <i name="OFIELD_KAPPA">      0.00000000</i>
   <v name="OFIELD_K">      0.00000000      0.00000000      0.00000000</v>
   <i name="OFIELD_Q6_NEAR">      0.00000000</i>
   <i name="OFIELD_Q6_FAR">      0.00000000</i>
   <i name="OFIELD_A">      0.00000000</i>
  </separator>
 </parameters>
 <atominfo>
  <atoms>       8 </atoms>
  <types>       1 </types>
  <array name="atoms" >
   <dimension dim="1">ion</dimension>
   <field type="string">element</field>
   <field type="int">atomtype</field>
   <set>
    <rc><c>Au</c><c>   1</c></rc>
    <rc><c>Au</c><c>   1</c></rc>
    <rc><c>Au</c><c>   1</c></rc>
    <rc><c>Au</c><c>   1</c></rc>
    <rc><c>Au</c><c>   1</c></rc>
    <rc><c>Au</c><c>   1</c></rc>
    <rc><c>Au</c><c>   1</c></rc>
    <rc><c>Au</c><c>   1</c></rc>
   </set>
  </array>
  <array name="atomtypes" >
   <dimension dim="1">type</dimension>
   <field type="int">atomspertype</field>
   <field type="string">element</field>
   <field>mass</field>
   <field>valence</field>
   <field type="string">pseudopotential</field>
   <set>
    <rc><c>   8</c><c>Au</c><c>    196.96600000</c><c>     11.00000000</c><c>  PAW_PBE Au 04Oct2007                  </c></rc>
   </set>
  </array>
 </atominfo>
 <structure name="initialpos" >
  <crystal>
   <varray name="basis" >
    <v>      21.61720857       0.00000000       0.00000000 </v>
    <v>       0.00000000      22.65702511       0.00000000 </v>
    <v>       0.00000000       0.00000000      22.71112642 </v>
   </varray>
   <i name="volume">  11123.49268554 </i>
   <varray name="rec_basis" >
    <v>       0.04625944       0.00000000       0.00000000 </v>
    <v>       0.00000000       0.04413642       0.00000000 </v>
    <v>       0.00000000       0.00000000       0.04403128 </v>
   </varray>
  </crystal>
  <varray name="positions" >
   <v>       0.39943850       0.48232949       0.56134272 </v>
   <v>       0.54139887       0.53720511       0.42975924 </v>
   <v>       0.60437489       0.47629682       0.51152875 </v>
   <v>       0.48901626       0.43942454       0.48448714 </v>
   <v>       0.50969017       0.54474907       0.54844009 </v>
   <v>       0.50667161       0.59691932       0.34188807 </v>
   <v>       0.42074141       0.58149685       0.61756505 </v>
   <v>       0.38234138       0.38659843       0.49822594 </v>
  </varray>
 </structure>
 <calculation>
  <scstep>
   <time name="dav">    5.83    5.84</time>
   <time name="total">    9.54    9.55</time>
   <energy>
    <i name="alphaZ">      6.70175720 </i>
    <i name="ewald">   6571.19269525 </i>
    <i name="hartreedc"> -13664.20599535 </i>
    <i name="XCdc">    116.46246477 </i>
    <i name="pawpsdc">   6992.17180065 </i>
    <i name="pawaedc">  -6807.49900724 </i>
    <i name="eentropy">     -0.01428134 </i>
    <i name="bandstr">    107.01900702 </i>
    <i name="atom">   7408.64415014 </i>
    <i name="e_fr_energy">    730.47259110 </i>
    <i name="e_wo_entrp">    730.48687245 </i>
    <i name="e_0_energy">    730.47735155 </i>
   </energy>
  </scstep>
  <scstep>
   <time name="dav">   10.08   10.09</time>
   <time name="total">   10.09   10.10</time>
   <energy>
    <i name="e_fr_energy">    442.45516582 </i>
    <i name="e_wo_entrp">    442.46834455 </i>
    <i name="e_0_energy">    442.45955873 </i>
   </energy>
  </scstep>
  <scstep>
   <time name="dav">    8.85    8.86</time>
   <time name="total">    8.86    8.87</time>
   <energy>
    <i name="e_fr_energy">    124.86478421 </i>
    <i name="e_wo_entrp">    124.88562618 </i>
    <i name="e_0_energy">    124.87173153 </i>
   </energy>
  </scstep>
  <scstep>
   <time name="dav">    7.31    7.32</time>
   <time name="total">    7.32    7.33</time>
   <energy>
    <i name="e_fr_energy">      2.08247378 </i>
    <i name="e_wo_entrp">      2.11727680 </i>
    <i name="e_0_energy">      2.09407478 </i>
   </energy>
  </scstep>
  <scstep>
   <time name="dav">    6.56    6.57</time>
   <time name="total">    7.37    7.38</time>
   <energy>
    <i name="e_fr_energy">    -16.47791109 </i>
    <i name="e_wo_entrp">    -16.50415937 </i>
    <i name="e_0_energy">    -16.48666052 </i>
   </energy>
  </scstep>
  <scstep>
   <time name="dav">    5.83    5.84</time>
   <time name="total">   10.34   10.35</time>
   <energy>
    <i name="e_fr_energy">     -2.75099733 </i>
    <i name="e_wo_entrp">     -2.75683905 </i>
    <i name="e_0_energy">     -2.75294457 </i>
   </energy>
  </scstep>
  <scstep>
   <time name="dav">    6.15    6.16</time>
   <time name="total">   10.65   10.66</time>
   <energy>
    <i name="e_fr_energy">     -1.99534771 </i>
    <i name="e_wo_entrp">     -2.00116220 </i>
    <i name="e_0_energy">     -1.99728587 </i>
   </energy>
  </scstep>
  <scstep>
   <time name="dav">    6.12    6.12</time>
   <time name="total">   10.58   10.60</time>
   <energy>
    <i name="e_fr_energy">     -7.78977563 </i>
    <i name="e_wo_entrp">     -7.79604006 </i>
    <i name="e_0_energy">     -7.79186377 </i>
   </energy>
  </scstep>
  <scstep>
   <time name="dav">    6.26    6.26</time>
   <time name="total">   10.73   10.74</time>
   <energy>
    <i name="e_fr_energy">    -10.36475097 </i>
    <i name="e_wo_entrp">    -10.37305463 </i>
    <i name="e_0_energy">    -10.36751886 </i>
   </energy>
  </scstep>
  <scstep>
   <time name="dav">    6.01    6.01</time>
   <time name="total">   10.51   10.52</time>
   <energy>
    <i name="e_fr_energy">    -12.98808766 </i>
    <i name="e_wo_entrp">    -13.00167965 </i>
    <i name="e_0_energy">    -12.99261832 </i>
   </energy>
  </scstep>
  <scstep>
   <time name="dav">    5.94    5.95</time>
   <time name="total">   10.49   10.50</time>
   <energy>
    <i name="e_fr_energy">    -14.28672193 </i>
    <i name="e_wo_entrp">    -14.30403519 </i>
    <i name="e_0_energy">    -14.29249302 </i>
   </energy>
  </scstep>
  <scstep>
   <time name="dav">    6.14    6.15</time>
   <time name="total">   10.74   10.76</time>
   <energy>
    <i name="e_fr_energy">    -15.41169695 </i>
    <i name="e_wo_entrp">    -15.43173937 </i>
    <i name="e_0_energy">    -15.41837775 </i>
   </energy>
  </scstep>
  <scstep>
   <time name="dav">    5.95    5.95</time>
   <time name="total">   10.46   10.48</time>
   <energy>
    <i name="e_fr_energy">    -15.98058990 </i>
    <i name="e_wo_entrp">    -16.00192823 </i>
    <i name="e_0_energy">    -15.98770268 </i>
   </energy>
  </scstep>
  <scstep>
   <time name="dav">    6.11    6.12</time>
   <time name="total">   10.61   10.63</time>
   <energy>
    <i name="e_fr_energy">    -16.35644377 </i>
    <i name="e_wo_entrp">    -16.37895720 </i>
    <i name="e_0_energy">    -16.36394825 </i>
   </energy>
  </scstep>
  <scstep>
   <time name="dav">    5.93    5.94</time>
   <time name="total">   10.44   10.47</time>
   <energy>
    <i name="e_fr_energy">    -16.66398587 </i>
    <i name="e_wo_entrp">    -16.68723739 </i>
    <i name="e_0_energy">    -16.67173638 </i>
   </energy>
  </scstep>
  <scstep>
   <time name="dav">    6.21    6.22</time>
   <time name="total">   10.73   10.75</time>
   <energy>
    <i name="e_fr_energy">    -16.78062160 </i>
    <i name="e_wo_entrp">    -16.80445176 </i>
    <i name="e_0_energy">    -16.78856499 </i>
   </energy>
  </scstep>
  <scstep>
   <time name="dav">    5.53    5.54</time>
   <time name="total">   10.05   10.06</time>
   <energy>
    <i name="e_fr_energy">    -16.82762779 </i>
    <i name="e_wo_entrp">    -16.85187093 </i>
    <i name="e_0_energy">    -16.83570884 </i>
   </energy>
  </scstep>
  <scstep>
   <time name="dav">    5.66    5.66</time>
   <time name="total">   10.12   10.13</time>
   <energy>
    <i name="e_fr_energy">    -16.85060246 </i>
    <i name="e_wo_entrp">    -16.87539826 </i>
    <i name="e_0_energy">    -16.85886773 </i>
   </energy>
  </scstep>
  <scstep>
   <time name="dav">    4.55    4.56</time>
   <time name="total">    9.07    9.10</time>
   <energy>
    <i name="e_fr_energy">    -16.86008651 </i>
    <i name="e_wo_entrp">    -16.88525071 </i>
    <i name="e_0_energy">    -16.86847458 </i>
   </energy>
  </scstep>
  <scstep>
   <time name="dav">    4.76    4.76</time>
   <time name="total">    9.32    9.33</time>
   <energy>
    <i name="e_fr_energy">    -16.86473440 </i>
    <i name="e_wo_entrp">    -16.89016682 </i>
    <i name="e_0_energy">    -16.87321187 </i>
   </energy>
  </scstep>
  <scstep>
   <time name="dav">    4.66    4.66</time>
   <time name="total">    9.20    9.21</time>
   <energy>
    <i name="e_fr_energy">    -16.86732431 </i>
    <i name="e_wo_entrp">    -16.89300276 </i>
    <i name="e_0_energy">    -16.87588380 </i>
   </energy>
  </scstep>
  <scstep>
   <time name="dav">    4.80    4.81</time>
   <time name="total">    9.49    9.52</time>
   <energy>
    <i name="e_fr_energy">    -16.86884695 </i>
    <i name="e_wo_entrp">    -16.89470528 </i>
    <i name="e_0_energy">    -16.87746639 </i>
   </energy>
  </scstep>
  <scstep>
   <time name="dav">    4.76    4.76</time>
   <time name="total">    9.38    9.39</time>
   <energy>
    <i name="e_fr_energy">    -16.87013080 </i>
    <i name="e_wo_entrp">    -16.89615899 </i>
    <i name="e_0_energy">    -16.87880686 </i>
   </energy>
  </scstep>
  <scstep>
   <time name="dav">    4.69    4.69</time>
   <time name="total">    9.30    9.32</time>
   <energy>
    <i name="e_fr_energy">    -16.87058857 </i>
    <i name="e_wo_entrp">    -16.89669388 </i>
    <i name="e_0_energy">    -16.87929034 </i>
   </energy>
  </scstep>
  <scstep>
   <time name="dav">    4.25    4.26</time>
   <time name="total">    8.87    8.89</time>
   <energy>
    <i name="e_fr_energy">    -16.87088882 </i>
    <i name="e_wo_entrp">    -16.89704617 </i>
    <i name="e_0_energy">    -16.87960794 </i>
   </energy>
  </scstep>
  <scstep>
   <time name="dav">    4.38    4.39</time>
   <time name="total">    9.00    9.01</time>
   <energy>
    <i name="e_fr_energy">    -16.87103659 </i>
    <i name="e_wo_entrp">    -16.89721703 </i>
    <i name="e_0_energy">    -16.87976340 </i>
   </energy>
  </scstep>
  <scstep>
   <time name="dav">    4.11    4.12</time>
   <time name="total">    8.74    8.75</time>
   <energy>
    <i name="e_fr_energy">    -16.87117976 </i>
    <i name="e_wo_entrp">    -16.89737130 </i>
    <i name="e_0_energy">    -16.87991027 </i>
   </energy>
  </scstep>
  <scstep>
   <time name="dav">    4.27    4.27</time>
   <time name="total">    8.93    8.94</time>
   <energy>
    <i name="e_fr_energy">    -16.87131652 </i>
    <i name="e_wo_entrp">    -16.89752013 </i>
    <i name="e_0_energy">    -16.88005106 </i>
   </energy>
  </scstep>
  <scstep>
   <time name="dav">    4.40    4.40</time>
   <time name="total">    9.03    9.04</time>
   <energy>
    <i name="e_fr_energy">    -16.87142616 </i>
    <i name="e_wo_entrp">    -16.89763438 </i>
    <i name="e_0_energy">    -16.88016223 </i>
   </energy>
  </scstep>
  <scstep>
   <time name="dav">    4.56    4.56</time>
   <time name="total">    8.17    8.18</time>
   <energy>
    <i name="alphaZ">      6.70175720 </i>
    <i name="ewald">   6571.19269525 </i>
    <i name="hartreedc"> -13630.99827817 </i>
    <i name="XCdc">    113.90214217 </i>
    <i name="pawpsdc">   7762.16076827 </i>
    <i name="pawaedc">  -7591.09545080 </i>
    <i name="eentropy">      0.02620860 </i>
    <i name="bandstr">   -657.40546710 </i>
    <i name="atom">   7408.64415014 </i>
    <i name="e_fr_energy">    -16.87147444 </i>
    <i name="e_wo_entrp">    -16.89768304 </i>
    <i name="e_0_energy">    -16.88021064 </i>
   </energy>
  </scstep>
  <structure>
   <crystal>
    <varray name="basis" >
     <v>      21.61720857       0.00000000       0.00000000 </v>
     <v>       0.00000000      22.65702511       0.00000000 </v>
     <v>       0.00000000       0.00000000      22.71112642 </v>
    </varray>
    <i name="volume">  11123.49268554 </i>
    <varray name="rec_basis" >
     <v>       0.04625944       0.00000000       0.00000000 </v>
     <v>       0.00000000       0.04413642       0.00000000 </v>
     <v>       0.00000000       0.00000000       0.04403128 </v>
    </varray>
   </crystal>
   <varray name="positions" >
    <v>       0.39943850       0.48232949       0.56134272 </v>
    <v>       0.54139887       0.53720511       0.42975924 </v>
    <v>       0.60437489       0.47629682       0.51152875 </v>
    <v>       0.48901626       0.43942454       0.48448714 </v>
    <v>       0.50969017       0.54474907       0.54844009 </v>
    <v>       0.50667161       0.59691932       0.34188807 </v>
    <v>       0.42074141       0.58149685       0.61756505 </v>
    <v>       0.38234138       0.38659843       0.49822594 </v>
   </varray>
  </structure>
  <varray name="forces" >
   <v>      -0.01536717       0.01245575      -0.01438535 </v>
   <v>      -0.01399462       0.00201198       0.02077805 </v>
   <v>       0.01463472       0.00021397      -0.00200713 </v>
   <v>       0.02323794      -0.01399489      -0.01143235 </v>
   <v>       0.01679540      -0.00005111      -0.00373740 </v>
   <v>       0.00355653       0.01086587      -0.02010813 </v>
   <v>      -0.00992705      -0.00280318       0.01359647 </v>
   <v>      -0.01893575      -0.00869838       0.01729583 </v>
  </varray>
  <energy>
   <i name="e_fr_energy">    -16.87147444 </i>
   <i name="e_wo_entrp">    -16.89768304 </i>
   <i name="e_0_energy">    -16.88021064 </i>
  </energy>
  <time name="totalsc">  300.87  301.34</time>
 </calculation>
 <calculation>
  <scstep>
   <time name="dav">    5.88    5.89</time>
   <time name="total">   10.34   10.35</time>
   <energy>
    <i name="alphaZ">      6.70175720 </i>
    <i name="ewald">   6568.98704863 </i>
    <i name="hartreedc"> -13628.81720204 </i>
    <i name="XCdc">    113.89444136 </i>
    <i name="pawpsdc">   7762.16681249 </i>
    <i name="pawaedc">  -7591.10152313 </i>
    <i name="eentropy">      0.02594663 </i>
    <i name="bandstr">   -657.37302090 </i>
    <i name="atom">   7408.64415014 </i>
    <i name="e_fr_energy">    -16.87158964 </i>
    <i name="e_wo_entrp">    -16.89753626 </i>
    <i name="e_0_energy">    -16.88023851 </i>
   </energy>
  </scstep>
  <scstep>
   <time name="dav">    6.33    6.33</time>
   <time name="total">    9.95    9.96</time>
   <energy>
    <i name="alphaZ">      6.70175720 </i>
    <i name="ewald">   6568.98704863 </i>
    <i name="hartreedc"> -13628.80969788 </i>
    <i name="XCdc">    113.89518967 </i>
    <i name="pawpsdc">   7761.57427201 </i>
    <i name="pawaedc">  -7590.50340464 </i>
    <i name="eentropy">      0.02577299 </i>
    <i name="bandstr">   -657.38674762 </i>
    <i name="atom">   7408.64415014 </i>
    <i name="e_fr_energy">    -16.87165950 </i>
    <i name="e_wo_entrp">    -16.89743249 </i>
    <i name="e_0_energy">    -16.88025050 </i>
   </energy>
  </scstep>
  <structure>
   <crystal>
    <varray name="basis" >
     <v>      21.61720857       0.00000000       0.00000000 </v>
     <v>       0.00000000      22.65702511       0.00000000 </v>
     <v>       0.00000000       0.00000000      22.71112642 </v>
    </varray>
    <i name="volume">  11123.49268554 </i>
    <varray name="rec_basis" >
     <v>       0.04625944       0.00000000       0.00000000 </v>
     <v>       0.00000000       0.04413642       0.00000000 </v>
     <v>       0.00000000       0.00000000       0.04403128 </v>
    </varray>
   </crystal>
   <varray name="positions" >
    <v>       0.39940420       0.48235601       0.56131216 </v>
    <v>       0.54136764       0.53720939       0.42980337 </v>
    <v>       0.60440755       0.47629727       0.51152449 </v>
    <v>       0.48906812       0.43939474       0.48446286 </v>
    <v>       0.50972766       0.54474896       0.54843215 </v>
    <v>       0.50667954       0.59694246       0.34184536 </v>
    <v>       0.42071926       0.58149089       0.61759393 </v>
    <v>       0.38229912       0.38657991       0.49826268 </v>
   </varray>
  </structure>
  <varray name="forces" >
   <v>       0.00215002       0.00471637      -0.00986609 </v>
   <v>      -0.01002891       0.01321789      -0.01323531 </v>
   <v>       0.00531412      -0.00025758      -0.00058485 </v>
   <v>      -0.00852279      -0.00985693       0.00333015 </v>
   <v>      -0.00702348       0.00018861       0.00895879 </v>
   <v>       0.00732545      -0.00671782       0.00827733 </v>
   <v>       0.00448315      -0.00598560      -0.00241966 </v>
   <v>       0.00630245       0.00469506       0.00553965 </v>
  </varray>
  <energy>
   <i name="e_fr_energy">    -16.87165950 </i>
   <i name="e_wo_entrp">    -16.89743249 </i>
   <i name="e_0_energy">    -16.88025050 </i>
  </energy>
  <time name="totalsc">   32.91   32.98</time>
 </calculation>
 <calculation>
  <scstep>
   <time name="dav">    5.69    5.70</time>
   <time name="total">   10.17   10.19</time>
   <energy>
    <i name="alphaZ">      6.70175720 </i>
    <i name="ewald">   6569.20163785 </i>
    <i name="hartreedc"> -13629.02342104 </i>
    <i name="XCdc">    113.89573546 </i>
    <i name="pawpsdc">   7761.31666301 </i>
    <i name="pawaedc">  -7590.24371880 </i>
    <i name="eentropy">      0.02572371 </i>
    <i name="bandstr">   -657.39017461 </i>
    <i name="atom">   7408.64415014 </i>
    <i name="e_fr_energy">    -16.87164708 </i>
    <i name="e_wo_entrp">    -16.89737079 </i>
    <i name="e_0_energy">    -16.88022165 </i>
   </energy>
  </scstep>
  <scstep>
   <time name="dav">    3.67    3.68</time>
   <time name="total">    7.28    7.30</time>
   <energy>
    <i name="alphaZ">      6.70175720 </i>
    <i name="ewald">   6569.20163785 </i>
    <i name="hartreedc"> -13629.01795792 </i>
    <i name="XCdc">    113.89553693 </i>
    <i name="pawpsdc">   7761.14779058 </i>
    <i name="pawaedc">  -7590.07402864 </i>
    <i name="eentropy">      0.02565747 </i>
    <i name="bandstr">   -657.39619261 </i>
    <i name="atom">   7408.64415014 </i>
    <i name="e_fr_energy">    -16.87164899 </i>
    <i name="e_wo_entrp">    -16.89730647 </i>
    <i name="e_0_energy">    -16.88020148 </i>
   </energy>
  </scstep>
  <structure>
   <crystal>
    <varray name="basis" >
     <v>      21.61720857       0.00000000       0.00000000 </v>
     <v>       0.00000000      22.65702511       0.00000000 </v>
     <v>       0.00000000       0.00000000      22.71112642 </v>
    </varray>
    <i name="volume">  11123.49268554 </i>
    <varray name="rec_basis" >
     <v>       0.04625944       0.00000000       0.00000000 </v>
     <v>       0.00000000       0.04413642       0.00000000 </v>
     <v>       0.00000000       0.00000000       0.04403128 </v>
    </varray>
   </crystal>
   <varray name="positions" >
    <v>       0.39940754       0.48235343       0.56131514 </v>
    <v>       0.54137068       0.53720897       0.42979908 </v>
    <v>       0.60440438       0.47629723       0.51152490 </v>
    <v>       0.48906308       0.43939764       0.48446522 </v>
    <v>       0.50972401       0.54474897       0.54843292 </v>
    <v>       0.50667877       0.59694021       0.34184951 </v>
    <v>       0.42072142       0.58149147       0.61759112 </v>
    <v>       0.38230323       0.38658171       0.49825910 </v>
   </varray>
  </structure>
  <varray name="forces" >
   <v>      -0.01061140       0.01340628      -0.01895267 </v>
   <v>      -0.01935570       0.01292364       0.00437241 </v>
   <v>       0.01652724      -0.00051084      -0.00162558 </v>
   <v>       0.01122242      -0.01874505      -0.00605463 </v>
   <v>       0.00761344       0.00004917       0.00400083 </v>
   <v>       0.00890809       0.00285222      -0.00839614 </v>
   <v>      -0.00439141      -0.00703007       0.00866661 </v>
   <v>      -0.00991269      -0.00294535       0.01798916 </v>
  </varray>
  <energy>
   <i name="e_fr_energy">    -16.87164899 </i>
   <i name="e_wo_entrp">    -16.89730647 </i>
   <i name="e_0_energy">    -16.88020148 </i>
  </energy>
  <time name="totalsc">   29.26   29.36</time>
  <eigenvalues>
   <array>
    <dimension dim="1">band</dimension>
    <dimension dim="2">kpoint</dimension>
    <dimension dim="3">spin</dimension>
    <field>eigene</field>
    <field>occ</field>
    <set>
     <set comment="spin 1">
      <set comment="kpoint 1">
       <r>  -11.0334    1.0000 </r>
       <r>  -10.1473    1.0000 </r>
       <r>   -9.9933    1.0000 </r>
       <r>   -9.3917    1.0000 </r>
       <r>   -9.1910    1.0000 </r>
       <r>   -8.8978    1.0000 </r>
       <r>   -8.8836    1.0000 </r>
       <r>   -8.7927    1.0000 </r>
       <r>   -8.7611    1.0000 </r>
       <r>   -8.3477    1.0000 </r>
       <r>   -8.2961    1.0000 </r>
       <r>   -8.1611    1.0000 </r>
       <r>   -8.0511    1.0000 </r>
       <r>   -7.9946    1.0000 </r>
       <r>   -7.8763    1.0000 </r>
       <r>   -7.7011    1.0000 </r>
       <r>   -7.6729    1.0000 </r>
       <r>   -7.6060    1.0000 </r>
       <r>   -7.4426    1.0000 </r>
       <r>   -7.3997    1.0000 </r>
       <r>   -7.3427    1.0000 </r>
       <r>   -7.2226    1.0000 </r>
       <r>   -7.1920    1.0000 </r>
       <r>   -7.0813    1.0000 </r>
       <r>   -7.0678    1.0000 </r>
       <r>   -7.0196    1.0000 </r>
       <r>   -6.9959    1.0000 </r>
       <r>   -6.9396    1.0000 </r>
       <r>   -6.7415    1.0000 </r>
       <r>   -6.7342    1.0000 </r>
       <r>   -6.6833    1.0000 </r>
       <r>   -6.6789    1.0000 </r>
       <r>   -6.6241    1.0000 </r>
       <r>   -6.5418    1.0000 </r>
       <r>   -6.4602    1.0000 </r>
       <r>   -6.3661    1.0000 </r>
       <r>   -6.1585    1.0000 </r>
       <r>   -6.0543    1.0000 </r>
       <r>   -6.0499    1.0000 </r>
       <r>   -6.0188    1.0001 </r>
       <r>   -5.8770    1.0030 </r>
       <r>   -5.8739    1.0032 </r>
       <r>   -5.7566    1.0199 </r>
       <r>   -5.5713    0.9739 </r>
       <r>   -3.9846   -0.0000 </r>
       <r>   -3.7109   -0.0000 </r>
       <r>   -3.6662   -0.0000 </r>
       <r>   -3.2489   -0.0000 </r>
       <r>   -1.7706   -0.0000 </r>
       <r>   -1.3785   -0.0000 </r>
       <r>   -1.3695   -0.0000 </r>
       <r>   -0.9883   -0.0000 </r>
       <r>   -0.8268   -0.0000 </r>
       <r>   -0.6305   -0.0000 </r>
       <r>   -0.5005   -0.0000 </r>
       <r>   -0.1803   -0.0000 </r>
      </set>
     </set>
     <set comment="spin 2">
      <set comment="kpoint 1">
       <r>  -11.0334    1.0000 </r>
       <r>  -10.1473    1.0000 </r>
       <r>   -9.9933    1.0000 </r>
       <r>   -9.3917    1.0000 </r>
       <r>   -9.1910    1.0000 </r>
       <r>   -8.8978    1.0000 </r>
       <r>   -8.8836    1.0000 </r>
       <r>   -8.7927    1.0000 </r>
       <r>   -8.7611    1.0000 </r>
       <r>   -8.3477    1.0000 </r>
       <r>   -8.2961    1.0000 </r>
       <r>   -8.1611    1.0000 </r>
       <r>   -8.0511    1.0000 </r>
       <r>   -7.9946    1.0000 </r>
       <r>   -7.8763    1.0000 </r>
       <r>   -7.7011    1.0000 </r>
       <r>   -7.6729    1.0000 </r>
       <r>   -7.6060    1.0000 </r>
       <r>   -7.4426    1.0000 </r>
       <r>   -7.3997    1.0000 </r>
       <r>   -7.3426    1.0000 </r>
       <r>   -7.2225    1.0000 </r>
       <r>   -7.1920    1.0000 </r>
       <r>   -7.0812    1.0000 </r>
       <r>   -7.0678    1.0000 </r>
       <r>   -7.0196    1.0000 </r>
       <r>   -6.9959    1.0000 </r>
       <r>   -6.9396    1.0000 </r>
       <r>   -6.7415    1.0000 </r>
       <r>   -6.7342    1.0000 </r>
       <r>   -6.6833    1.0000 </r>
       <r>   -6.6789    1.0000 </r>
       <r>   -6.6241    1.0000 </r>
       <r>   -6.5418    1.0000 </r>
       <r>   -6.4602    1.0000 </r>
       <r>   -6.3661    1.0000 </r>
       <r>   -6.1585    1.0000 </r>
       <r>   -6.0541    1.0000 </r>
       <r>   -6.0498    1.0000 </r>
       <r>   -6.0188    1.0001 </r>
       <r>   -5.8770    1.0030 </r>
       <r>   -5.8739    1.0032 </r>
       <r>   -5.7566    1.0199 </r>
       <r>   -5.5710    0.9734 </r>
       <r>   -3.9846   -0.0000 </r>
       <r>   -3.7109   -0.0000 </r>
       <r>   -3.6663   -0.0000 </r>
       <r>   -3.2488   -0.0000 </r>
       <r>   -1.7707   -0.0000 </r>
       <r>   -1.3787   -0.0000 </r>
       <r>   -1.3696   -0.0000 </r>
       <r>   -0.9883   -0.0000 </r>
       <r>   -0.8260   -0.0000 </r>
       <r>   -0.6307   -0.0000 </r>
       <r>   -0.5013   -0.0000 </r>
       <r>   -0.1798   -0.0000 </r>
      </set>
     </set>
    </set>
   </array>
  </eigenvalues>
  <separator name="orbital magnetization" >
   <v name="MAGDIPOLOUT">      0.00000000      0.00000000      0.00000000</v>
  </separator>
  <dos>
   <i name="efermi">     -5.42281914 </i>
   <total>
    <array>
     <dimension dim="1">gridpoints</dimension>
     <dimension dim="2">spin</dimension>
     <field>energy</field>
     <field>total</field>
     <field>integrated</field>
     <set>
      <set comment="spin 1">
       <r>   -13.0334     0.0000     0.0000 </r>
       <r>   -12.9839     0.0000     0.0000 </r>
       <r>   -12.9344     0.0000     0.0000 </r>
       <r>   -12.8849     0.0000     0.0000 </r>
       <r>   -12.8353     0.0000     0.0000 </r>
       <r>   -12.7858     0.0000     0.0000 </r>
       <r>   -12.7363     0.0000     0.0000 </r>
       <r>   -12.6868     0.0000     0.0000 </r>
       <r>   -12.6373    -0.0000    -0.0000 </r>
       <r>   -12.5878    -0.0000    -0.0000 </r>
       <r>   -12.5383    -0.0000    -0.0000 </r>
       <r>   -12.4888    -0.0000    -0.0000 </r>
       <r>   -12.4393    -0.0000    -0.0000 </r>
       <r>   -12.3897    -0.0000    -0.0000 </r>
       <r>   -12.3402    -0.0000    -0.0000 </r>
       <r>   -12.2907    -0.0000    -0.0000 </r>
       <r>   -12.2412    -0.0000    -0.0000 </r>
       <r>   -12.1917    -0.0000    -0.0000 </r>
       <r>   -12.1422    -0.0000    -0.0000 </r>
       <r>   -12.0927    -0.0000    -0.0000 </r>
       <r>   -12.0432    -0.0000    -0.0000 </r>
       <r>   -11.9936    -0.0000    -0.0000 </r>
       <r>   -11.9441    -0.0000    -0.0000 </r>
       <r>   -11.8946    -0.0000    -0.0000 </r>
       <r>   -11.8451    -0.0000    -0.0000 </r>
       <r>   -11.7956    -0.0000    -0.0000 </r>
       <r>   -11.7461    -0.0000    -0.0000 </r>
       <r>   -11.6966    -0.0002    -0.0000 </r>
       <r>   -11.6471    -0.0010    -0.0001 </r>
       <r>   -11.5975    -0.0037    -0.0002 </r>
       <r>   -11.5480    -0.0118    -0.0008 </r>
       <r>   -11.4985    -0.0324    -0.0024 </r>
       <r>   -11.4490    -0.0753    -0.0062 </r>
       <r>   -11.3995    -0.1439    -0.0133 </r>
       <r>   -11.3500    -0.2135    -0.0239 </r>
       <r>   -11.3005    -0.2017    -0.0338 </r>
       <r>   -11.2510     0.0371    -0.0320 </r>
       <r>   -11.2014     0.6536     0.0004 </r>
       <r>   -11.1519     1.6749     0.0833 </r>
       <r>   -11.1024     2.8886     0.2263 </r>
       <r>   -11.0529     3.8686     0.4179 </r>
       <r>   -11.0034     4.1909     0.6254 </r>
       <r>   -10.9539     3.7043     0.8088 </r>
       <r>   -10.9044     2.6350     0.9392 </r>
       <r>   -10.8549     1.4315     1.0101 </r>
       <r>   -10.8054     0.4869     1.0342 </r>
       <r>   -10.7558    -0.0419     1.0321 </r>
       <r>   -10.7063    -0.2217     1.0212 </r>
       <r>   -10.6568    -0.2151     1.0105 </r>
       <r>   -10.6073    -0.1644     1.0024 </r>
       <r>   -10.5578    -0.1489     0.9950 </r>
       <r>   -10.5083    -0.1901     0.9856 </r>
       <r>   -10.4588    -0.2596     0.9727 </r>
       <r>   -10.4093    -0.2681     0.9595 </r>
       <r>   -10.3597    -0.0627     0.9563 </r>
       <r>   -10.3102     0.5286     0.9825 </r>
       <r>   -10.2607     1.5951     1.0615 </r>
       <r>   -10.2112     3.0434     1.2122 </r>
       <r>   -10.1617     4.5861     1.4392 </r>
       <r>   -10.1122     5.8442     1.7286 </r>
       <r>   -10.0627     6.4946     2.0502 </r>
       <r>   -10.0132     6.3718     2.3657 </r>
       <r>    -9.9636     5.5055     2.6382 </r>
       <r>    -9.9141     4.1129     2.8419 </r>
       <r>    -9.8646     2.5421     2.9677 </r>
       <r>    -9.8151     1.1495     3.0247 </r>
       <r>    -9.7656     0.1624     3.0327 </r>
       <r>    -9.7161    -0.3730     3.0142 </r>
       <r>    -9.6666    -0.5169     2.9886 </r>
       <r>    -9.6171    -0.3123     2.9732 </r>
       <r>    -9.5676     0.2637     2.9862 </r>
       <r>    -9.5180     1.2236     3.0468 </r>
       <r>    -9.4685     2.4510     3.1682 </r>
       <r>    -9.4190     3.6807     3.3504 </r>
       <r>    -9.3695     4.6246     3.5794 </r>
       <r>    -9.3200     5.1244     3.8331 </r>
       <r>    -9.2705     5.1735     4.0893 </r>
       <r>    -9.2210     4.8234     4.3281 </r>
       <r>    -9.1715     4.1563     4.5339 </r>
       <r>    -9.1219     3.4180     4.7031 </r>
       <r>    -9.0724     3.1340     4.8583 </r>
       <r>    -9.0229     3.9451     5.0536 </r>
       <r>    -8.9734     6.1616     5.3587 </r>
       <r>    -8.9239     9.3737     5.8228 </r>
       <r>    -8.8744    12.4871     6.4410 </r>
       <r>    -8.8249    14.2303     7.1456 </r>
       <r>    -8.7754    13.8128     7.8295 </r>
       <r>    -8.7258    11.3161     8.3898 </r>
       <r>    -8.6763     7.6097     8.7666 </r>
       <r>    -8.6268     3.9058     8.9600 </r>
       <r>    -8.5773     1.2584     9.0223 </r>
       <r>    -8.5278     0.2580     9.0350 </r>
       <r>    -8.4783     0.9623     9.0827 </r>
       <r>    -8.4288     2.9609     9.2293 </r>
       <r>    -8.3793     5.5125     9.5022 </r>
       <r>    -8.3297     7.7979     9.8883 </r>
       <r>    -8.2802     9.2671    10.3471 </r>
       <r>    -8.2307     9.8847    10.8366 </r>
       <r>    -8.1812    10.0488    11.3341 </r>
       <r>    -8.1317    10.2127    11.8397 </r>
       <r>    -8.0822    10.5141    12.3603 </r>
       <r>    -8.0327    10.7126    12.8907 </r>
       <r>    -7.9832    10.4653    13.4089 </r>
       <r>    -7.9337     9.6937    13.8888 </r>
       <r>    -7.8841     8.7474    14.3219 </r>
       <r>    -7.8346     8.2263    14.7292 </r>
       <r>    -7.7851     8.5620    15.1532 </r>
       <r>    -7.7356     9.6533    15.6311 </r>
       <r>    -7.6861    10.8791    16.1698 </r>
       <r>    -7.6366    11.5531    16.7418 </r>
       <r>    -7.5871    11.4749    17.3099 </r>
       <r>    -7.5376    11.0687    17.8580 </r>
       <r>    -7.4880    10.9602    18.4006 </r>
       <r>    -7.4385    11.4071    18.9654 </r>
       <r>    -7.3890    12.1503    19.5670 </r>
       <r>    -7.3395    12.7911    20.2003 </r>
       <r>    -7.2900    13.2614    20.8569 </r>
       <r>    -7.2405    13.9121    21.5457 </r>
       <r>    -7.1910    15.1610    22.2964 </r>
       <r>    -7.1415    17.0199    23.1391 </r>
       <r>    -7.0919    18.8787    24.0738 </r>
       <r>    -7.0424    19.7470    25.0515 </r>
       <r>    -6.9929    18.8921    25.9869 </r>
       <r>    -6.9434    16.4999    26.8038 </r>
       <r>    -6.8939    13.8153    27.4879 </r>
       <r>    -6.8444    12.4773    28.1056 </r>
       <r>    -6.7949    13.4125    28.7697 </r>
       <r>    -6.7454    16.1291    29.5683 </r>
       <r>    -6.6958    19.0212    30.5101 </r>
       <r>    -6.6463    20.4622    31.5232 </r>
       <r>    -6.5968    19.7989    32.5035 </r>
       <r>    -6.5473    17.5084    33.3704 </r>
       <r>    -6.4978    14.5681    34.0917 </r>
       <r>    -6.4483    11.7181    34.6719 </r>
       <r>    -6.3988     9.2201    35.1284 </r>
       <r>    -6.3493     7.1442    35.4821 </r>
       <r>    -6.2998     5.7469    35.7666 </r>
       <r>    -6.2502     5.5136    36.0396 </r>
       <r>    -6.2007     6.8109    36.3769 </r>
       <r>    -6.1512     9.4654    36.8455 </r>
       <r>    -6.1017    12.6704    37.4728 </r>
       <r>    -6.0522    15.3562    38.2332 </r>
       <r>    -6.0027    16.7587    39.0629 </r>
       <r>    -5.9532    16.7397    39.8917 </r>
       <r>    -5.9037    15.6467    40.6664 </r>
       <r>    -5.8541    13.9294    41.3561 </r>
       <r>    -5.8046    11.9074    41.9457 </r>
       <r>    -5.7551     9.8173    42.4317 </r>
       <r>    -5.7056     7.9211    42.8239 </r>
       <r>    -5.6561     6.4452    43.1430 </r>
       <r>    -5.6066     5.4070    43.4108 </r>
       <r>    -5.5571     4.5742    43.6372 </r>
       <r>    -5.5076     3.6570    43.8183 </r>
       <r>    -5.4580     2.5551    43.9448 </r>
       <r>    -5.4085     1.4216    44.0152 </r>
       <r>    -5.3590     0.5076    44.0403 </r>
       <r>    -5.3095    -0.0382    44.0384 </r>
       <r>    -5.2600    -0.2422    44.0264 </r>
       <r>    -5.2105    -0.2374    44.0147 </r>
       <r>    -5.1610    -0.1583    44.0068 </r>
       <r>    -5.1115    -0.0831    44.0027 </r>
       <r>    -5.0620    -0.0362    44.0009 </r>
       <r>    -5.0124    -0.0133    44.0003 </r>
       <r>    -4.9629    -0.0042    44.0001 </r>
       <r>    -4.9134    -0.0011    44.0000 </r>
       <r>    -4.8639    -0.0003    44.0000 </r>
       <r>    -4.8144    -0.0001    44.0000 </r>
       <r>    -4.7649    -0.0000    44.0000 </r>
       <r>    -4.7154    -0.0000    44.0000 </r>
       <r>    -4.6659    -0.0001    44.0000 </r>
       <r>    -4.6163    -0.0006    44.0000 </r>
       <r>    -4.5668    -0.0023    43.9998 </r>
       <r>    -4.5173    -0.0078    43.9995 </r>
       <r>    -4.4678    -0.0228    43.9983 </r>
       <r>    -4.4183    -0.0566    43.9955 </r>
       <r>    -4.3688    -0.1168    43.9897 </r>
       <r>    -4.3193    -0.1931    43.9802 </r>
       <r>    -4.2698    -0.2291    43.9688 </r>
       <r>    -4.2202    -0.1051    43.9636 </r>
       <r>    -4.1707     0.3280    43.9799 </r>
       <r>    -4.1212     1.1418    44.0364 </r>
       <r>    -4.0717     2.2072    44.1457 </r>
       <r>    -4.0222     3.1898    44.3036 </r>
       <r>    -3.9727     3.7555    44.4896 </r>
       <r>    -3.9232     3.8750    44.6814 </r>
       <r>    -3.8737     3.9397    44.8765 </r>
       <r>    -3.8241     4.4895    45.0988 </r>
       <r>    -3.7746     5.7098    45.3815 </r>
       <r>    -3.7251     7.1427    45.7351 </r>
       <r>    -3.6756     7.9280    46.1277 </r>
       <r>    -3.6261     7.4193    46.4950 </r>
       <r>    -3.5766     5.6676    46.7756 </r>
       <r>    -3.5271     3.3949    46.9437 </r>
       <r>    -3.4776     1.5364    47.0198 </r>
       <r>    -3.4281     0.7349    47.0562 </r>
       <r>    -3.3785     1.0902    47.1101 </r>
       <r>    -3.3290     2.1991    47.2190 </r>
       <r>    -3.2795     3.3856    47.3867 </r>
       <r>    -3.2300     4.0182    47.5856 </r>
       <r>    -3.1805     3.7993    47.7737 </r>
       <r>    -3.1310     2.8733    47.9160 </r>
       <r>    -3.0815     1.6797    47.9991 </r>
       <r>    -3.0320     0.6612    48.0319 </r>
       <r>    -2.9824     0.0415    48.0339 </r>
       <r>    -2.9329    -0.2006    48.0240 </r>
       <r>    -2.8834    -0.2141    48.0134 </r>
       <r>    -2.8339    -0.1449    48.0062 </r>
       <r>    -2.7844    -0.0760    48.0025 </r>
       <r>    -2.7349    -0.0328    48.0008 </r>
       <r>    -2.6854    -0.0120    48.0002 </r>
       <r>    -2.6359    -0.0037    48.0001 </r>
       <r>    -2.5863    -0.0010    48.0000 </r>
       <r>    -2.5368    -0.0002    48.0000 </r>
       <r>    -2.4873    -0.0001    48.0000 </r>
       <r>    -2.4378    -0.0002    48.0000 </r>
       <r>    -2.3883    -0.0009    47.9999 </r>
       <r>    -2.3388    -0.0033    47.9998 </r>
       <r>    -2.2893    -0.0108    47.9992 </r>
       <r>    -2.2398    -0.0301    47.9978 </r>
       <r>    -2.1903    -0.0708    47.9943 </r>
       <r>    -2.1407    -0.1377    47.9874 </r>
       <r>    -2.0912    -0.2094    47.9771 </r>
       <r>    -2.0417    -0.2093    47.9667 </r>
       <r>    -1.9922     0.0036    47.9669 </r>
       <r>    -1.9427     0.5810    47.9956 </r>
       <r>    -1.8932     1.5590    48.0728 </r>
       <r>    -1.8437     2.7328    48.2081 </r>
       <r>    -1.7942     3.6685    48.3898 </r>
       <r>    -1.7446     3.9217    48.5839 </r>
       <r>    -1.6951     3.3538    48.7500 </r>
       <r>    -1.6456     2.3151    48.8646 </r>
       <r>    -1.5961     1.5277    48.9403 </r>
       <r>    -1.5466     1.7053    49.0247 </r>
       <r>    -1.4971     3.1106    49.1787 </r>
       <r>    -1.4476     5.3071    49.4415 </r>
       <r>    -1.3981     7.3040    49.8031 </r>
       <r>    -1.3485     8.0871    50.2035 </r>
       <r>    -1.2990     7.2384    50.5619 </r>
       <r>    -1.2495     5.2061    50.8197 </r>
       <r>    -1.2000     3.0163    50.9690 </r>
       <r>    -1.1505     1.6535    51.0509 </r>
       <r>    -1.1010     1.5556    51.1279 </r>
       <r>    -1.0515     2.5119    51.2523 </r>
       <r>    -1.0020     3.9203    51.4464 </r>
       <r>    -0.9524     5.1637    51.7020 </r>
       <r>    -0.9029     5.8774    51.9930 </r>
       <r>    -0.8534     6.0229    52.2912 </r>
       <r>    -0.8039     5.8172    52.5793 </r>
       <r>    -0.7544     5.5947    52.8563 </r>
       <r>    -0.7049     5.6400    53.1355 </r>
       <r>    -0.6554     6.0241    53.4338 </r>
       <r>    -0.6059     6.5289    53.7571 </r>
       <r>    -0.5564     6.7463    54.0911 </r>
       <r>    -0.5068     6.3286    54.4044 </r>
       <r>    -0.4573     5.2415    54.6639 </r>
       <r>    -0.4078     3.8462    54.8544 </r>
       <r>    -0.3583     2.7274    54.9894 </r>
       <r>    -0.3088     2.3464    55.1056 </r>
       <r>    -0.2593     2.7352    55.2410 </r>
       <r>    -0.2098     3.4584    55.4122 </r>
       <r>    -0.1603     3.8959    55.6051 </r>
       <r>    -0.1107     3.6474    55.7857 </r>
       <r>    -0.0612     2.7565    55.9222 </r>
       <r>    -0.0117     1.6072    56.0018 </r>
       <r>     0.0378     0.6231    56.0326 </r>
       <r>     0.0873     0.0255    56.0339 </r>
       <r>     0.1368    -0.2048    56.0238 </r>
       <r>     0.1863    -0.2134    56.0132 </r>
       <r>     0.2358    -0.1432    56.0061 </r>
       <r>     0.2854    -0.0747    56.0024 </r>
       <r>     0.3349    -0.0321    56.0008 </r>
       <r>     0.3844    -0.0117    56.0002 </r>
       <r>     0.4339    -0.0036    56.0001 </r>
       <r>     0.4834    -0.0010    56.0000 </r>
       <r>     0.5329    -0.0002    56.0000 </r>
       <r>     0.5824    -0.0000    56.0000 </r>
       <r>     0.6319    -0.0000    56.0000 </r>
       <r>     0.6814    -0.0000    56.0000 </r>
       <r>     0.7310    -0.0000    56.0000 </r>
       <r>     0.7805    -0.0000    56.0000 </r>
       <r>     0.8300    -0.0000    56.0000 </r>
       <r>     0.8795    -0.0000    56.0000 </r>
       <r>     0.9290    -0.0000    56.0000 </r>
       <r>     0.9785    -0.0000    56.0000 </r>
       <r>     1.0280    -0.0000    56.0000 </r>
       <r>     1.0775    -0.0000    56.0000 </r>
       <r>     1.1271     0.0000    56.0000 </r>
       <r>     1.1766     0.0000    56.0000 </r>
       <r>     1.2261     0.0000    56.0000 </r>
       <r>     1.2756     0.0000    56.0000 </r>
       <r>     1.3251     0.0000    56.0000 </r>
       <r>     1.3746     0.0000    56.0000 </r>
       <r>     1.4241     0.0000    56.0000 </r>
       <r>     1.4736     0.0000    56.0000 </r>
       <r>     1.5232     0.0000    56.0000 </r>
       <r>     1.5727     0.0000    56.0000 </r>
       <r>     1.6222     0.0000    56.0000 </r>
       <r>     1.6717     0.0000    56.0000 </r>
       <r>     1.7212     0.0000    56.0000 </r>
       <r>     1.7707     0.0000    56.0000 </r>
       <r>     1.8202     0.0000    56.0000 </r>
      </set>
      <set comment="spin 2">
       <r>   -13.0334     0.0000     0.0000 </r>
       <r>   -12.9839     0.0000     0.0000 </r>
       <r>   -12.9344     0.0000     0.0000 </r>
       <r>   -12.8849     0.0000     0.0000 </r>
       <r>   -12.8353     0.0000     0.0000 </r>
       <r>   -12.7858     0.0000     0.0000 </r>
       <r>   -12.7363     0.0000     0.0000 </r>
       <r>   -12.6868     0.0000     0.0000 </r>
       <r>   -12.6373    -0.0000    -0.0000 </r>
       <r>   -12.5878    -0.0000    -0.0000 </r>
       <r>   -12.5383    -0.0000    -0.0000 </r>
       <r>   -12.4888    -0.0000    -0.0000 </r>
       <r>   -12.4393    -0.0000    -0.0000 </r>
       <r>   -12.3897    -0.0000    -0.0000 </r>
       <r>   -12.3402    -0.0000    -0.0000 </r>
       <r>   -12.2907    -0.0000    -0.0000 </r>
       <r>   -12.2412    -0.0000    -0.0000 </r>
       <r>   -12.1917    -0.0000    -0.0000 </r>
       <r>   -12.1422    -0.0000    -0.0000 </r>
       <r>   -12.0927    -0.0000    -0.0000 </r>
       <r>   -12.0432    -0.0000    -0.0000 </r>
       <r>   -11.9936    -0.0000    -0.0000 </r>
       <r>   -11.9441    -0.0000    -0.0000 </r>
       <r>   -11.8946    -0.0000    -0.0000 </r>
       <r>   -11.8451    -0.0000    -0.0000 </r>
       <r>   -11.7956    -0.0000    -0.0000 </r>
       <r>   -11.7461    -0.0000    -0.0000 </r>
       <r>   -11.6966    -0.0002    -0.0000 </r>
       <r>   -11.6471    -0.0010    -0.0001 </r>
       <r>   -11.5975    -0.0037    -0.0002 </r>
       <r>   -11.5480    -0.0118    -0.0008 </r>
       <r>   -11.4985    -0.0324    -0.0024 </r>
       <r>   -11.4490    -0.0753    -0.0062 </r>
       <r>   -11.3995    -0.1439    -0.0133 </r>
       <r>   -11.3500    -0.2134    -0.0239 </r>
       <r>   -11.3005    -0.2017    -0.0338 </r>
       <r>   -11.2510     0.0370    -0.0320 </r>
       <r>   -11.2014     0.6535     0.0003 </r>
       <r>   -11.1519     1.6747     0.0833 </r>
       <r>   -11.1024     2.8884     0.2263 </r>
       <r>   -11.0529     3.8685     0.4178 </r>
       <r>   -11.0034     4.1909     0.6253 </r>
       <r>   -10.9539     3.7045     0.8087 </r>
       <r>   -10.9044     2.6352     0.9392 </r>
       <r>   -10.8549     1.4317     1.0101 </r>
       <r>   -10.8054     0.4870     1.0342 </r>
       <r>   -10.7558    -0.0418     1.0321 </r>
       <r>   -10.7063    -0.2217     1.0212 </r>
       <r>   -10.6568    -0.2151     1.0105 </r>
       <r>   -10.6073    -0.1644     1.0024 </r>
       <r>   -10.5578    -0.1489     0.9950 </r>
       <r>   -10.5083    -0.1901     0.9856 </r>
       <r>   -10.4588    -0.2596     0.9727 </r>
       <r>   -10.4093    -0.2681     0.9595 </r>
       <r>   -10.3597    -0.0628     0.9563 </r>
       <r>   -10.3102     0.5285     0.9825 </r>
       <r>   -10.2607     1.5950     1.0615 </r>
       <r>   -10.2112     3.0433     1.2122 </r>
       <r>   -10.1617     4.5860     1.4392 </r>
       <r>   -10.1122     5.8442     1.7286 </r>
       <r>   -10.0627     6.4946     2.0501 </r>
       <r>   -10.0132     6.3719     2.3656 </r>
       <r>    -9.9636     5.5056     2.6382 </r>
       <r>    -9.9141     4.1130     2.8419 </r>
       <r>    -9.8646     2.5423     2.9677 </r>
       <r>    -9.8151     1.1496     3.0247 </r>
       <r>    -9.7656     0.1624     3.0327 </r>
       <r>    -9.7161    -0.3729     3.0142 </r>
       <r>    -9.6666    -0.5169     2.9886 </r>
       <r>    -9.6171    -0.3124     2.9732 </r>
       <r>    -9.5676     0.2635     2.9862 </r>
       <r>    -9.5180     1.2233     3.0468 </r>
       <r>    -9.4685     2.4507     3.1681 </r>
       <r>    -9.4190     3.6804     3.3504 </r>
       <r>    -9.3695     4.6245     3.5793 </r>
       <r>    -9.3200     5.1245     3.8330 </r>
       <r>    -9.2705     5.1737     4.0892 </r>
       <r>    -9.2210     4.8236     4.3280 </r>
       <r>    -9.1715     4.1565     4.5338 </r>
       <r>    -9.1219     3.4182     4.7031 </r>
       <r>    -9.0724     3.1341     4.8582 </r>
       <r>    -9.0229     3.9450     5.0536 </r>
       <r>    -8.9734     6.1613     5.3586 </r>
       <r>    -8.9239     9.3733     5.8227 </r>
       <r>    -8.8744    12.4868     6.4410 </r>
       <r>    -8.8249    14.2302     7.1455 </r>
       <r>    -8.7754    13.8130     7.8294 </r>
       <r>    -8.7258    11.3165     8.3897 </r>
       <r>    -8.6763     7.6102     8.7665 </r>
       <r>    -8.6268     3.9062     8.9599 </r>
       <r>    -8.5773     1.2586     9.0223 </r>
       <r>    -8.5278     0.2580     9.0350 </r>
       <r>    -8.4783     0.9621     9.0827 </r>
       <r>    -8.4288     2.9606     9.2293 </r>
       <r>    -8.3793     5.5123     9.5022 </r>
       <r>    -8.3297     7.7977     9.8883 </r>
       <r>    -8.2802     9.2670    10.3471 </r>
       <r>    -8.2307     9.8846    10.8365 </r>
       <r>    -8.1812    10.0485    11.3340 </r>
       <r>    -8.1317    10.2123    11.8397 </r>
       <r>    -8.0822    10.5137    12.3602 </r>
       <r>    -8.0327    10.7125    12.8906 </r>
       <r>    -7.9832    10.4655    13.4088 </r>
       <r>    -7.9337     9.6940    13.8887 </r>
       <r>    -7.8841     8.7476    14.3219 </r>
       <r>    -7.8346     8.2263    14.7292 </r>
       <r>    -7.7851     8.5616    15.1531 </r>
       <r>    -7.7356     9.6527    15.6310 </r>
       <r>    -7.6861    10.8787    16.1696 </r>
       <r>    -7.6366    11.5531    16.7416 </r>
       <r>    -7.5871    11.4753    17.3098 </r>
       <r>    -7.5376    11.0692    17.8579 </r>
       <r>    -7.4880    10.9605    18.4005 </r>
       <r>    -7.4385    11.4071    18.9653 </r>
       <r>    -7.3890    12.1501    19.5669 </r>
       <r>    -7.3395    12.7907    20.2002 </r>
       <r>    -7.2900    13.2610    20.8568 </r>
       <r>    -7.2405    13.9117    21.5456 </r>
       <r>    -7.1910    15.1607    22.2962 </r>
       <r>    -7.1415    17.0197    23.1389 </r>
       <r>    -7.0919    18.8785    24.0736 </r>
       <r>    -7.0424    19.7468    25.0513 </r>
       <r>    -6.9929    18.8921    25.9867 </r>
       <r>    -6.9434    16.5002    26.8037 </r>
       <r>    -6.8939    13.8158    27.4877 </r>
       <r>    -6.8444    12.4779    28.1055 </r>
       <r>    -6.7949    13.4130    28.7696 </r>
       <r>    -6.7454    16.1293    29.5682 </r>
       <r>    -6.6958    19.0212    30.5100 </r>
       <r>    -6.6463    20.4622    31.5231 </r>
       <r>    -6.5968    19.7990    32.5034 </r>
       <r>    -6.5473    17.5085    33.3703 </r>
       <r>    -6.4978    14.5683    34.0916 </r>
       <r>    -6.4483    11.7184    34.6718 </r>
       <r>    -6.3988     9.2203    35.1283 </r>
       <r>    -6.3493     7.1440    35.4820 </r>
       <r>    -6.2998     5.7451    35.7665 </r>
       <r>    -6.2502     5.5091    36.0393 </r>
       <r>    -6.2007     6.8032    36.3761 </r>
       <r>    -6.1512     9.4558    36.8443 </r>
       <r>    -6.1017    12.6622    37.4712 </r>
       <r>    -6.0522    15.3527    38.2314 </r>
       <r>    -6.0027    16.7612    39.0612 </r>
       <r>    -5.9532    16.7468    39.8904 </r>
       <r>    -5.9037    15.6552    40.6655 </r>
       <r>    -5.8541    13.9363    41.3555 </r>
       <r>    -5.8046    11.9106    41.9453 </r>
       <r>    -5.7551     9.8162    42.4313 </r>
       <r>    -5.7056     7.9165    42.8232 </r>
       <r>    -5.6561     6.4393    43.1421 </r>
       <r>    -5.6066     5.4025    43.4096 </r>
       <r>    -5.5571     4.5736    43.6360 </r>
       <r>    -5.5076     3.6609    43.8173 </r>
       <r>    -5.4580     2.5619    43.9441 </r>
       <r>    -5.4085     1.4286    44.0148 </r>
       <r>    -5.3590     0.5128    44.0402 </r>
       <r>    -5.3095    -0.0356    44.0385 </r>
       <r>    -5.2600    -0.2415    44.0265 </r>
       <r>    -5.2105    -0.2377    44.0147 </r>
       <r>    -5.1610    -0.1587    44.0069 </r>
       <r>    -5.1115    -0.0835    44.0027 </r>
       <r>    -5.0620    -0.0364    44.0009 </r>
       <r>    -5.0124    -0.0134    44.0003 </r>
       <r>    -4.9629    -0.0042    44.0001 </r>
       <r>    -4.9134    -0.0012    44.0000 </r>
       <r>    -4.8639    -0.0003    44.0000 </r>
       <r>    -4.8144    -0.0001    44.0000 </r>
       <r>    -4.7649    -0.0000    44.0000 </r>
       <r>    -4.7154    -0.0000    44.0000 </r>
       <r>    -4.6659    -0.0001    44.0000 </r>
       <r>    -4.6163    -0.0006    44.0000 </r>
       <r>    -4.5668    -0.0023    43.9998 </r>
       <r>    -4.5173    -0.0078    43.9995 </r>
       <r>    -4.4678    -0.0228    43.9983 </r>
       <r>    -4.4183    -0.0566    43.9955 </r>
       <r>    -4.3688    -0.1168    43.9897 </r>
       <r>    -4.3193    -0.1931    43.9802 </r>
       <r>    -4.2698    -0.2291    43.9688 </r>
       <r>    -4.2202    -0.1050    43.9636 </r>
       <r>    -4.1707     0.3282    43.9799 </r>
       <r>    -4.1212     1.1421    44.0364 </r>
       <r>    -4.0717     2.2076    44.1457 </r>
       <r>    -4.0222     3.1901    44.3037 </r>
       <r>    -3.9727     3.7556    44.4896 </r>
       <r>    -3.9232     3.8748    44.6815 </r>
       <r>    -3.8737     3.9395    44.8765 </r>
       <r>    -3.8241     4.4893    45.0988 </r>
       <r>    -3.7746     5.7098    45.3815 </r>
       <r>    -3.7251     7.1427    45.7352 </r>
       <r>    -3.6756     7.9281    46.1277 </r>
       <r>    -3.6261     7.4193    46.4950 </r>
       <r>    -3.5766     5.6675    46.7757 </r>
       <r>    -3.5271     3.3947    46.9437 </r>
       <r>    -3.4776     1.5357    47.0198 </r>
       <r>    -3.4281     0.7336    47.0561 </r>
       <r>    -3.3785     1.0884    47.1100 </r>
       <r>    -3.3290     2.1972    47.2188 </r>
       <r>    -3.2795     3.3842    47.3863 </r>
       <r>    -3.2300     4.0180    47.5853 </r>
       <r>    -3.1805     3.8004    47.7734 </r>
       <r>    -3.1310     2.8752    47.9158 </r>
       <r>    -3.0815     1.6816    47.9991 </r>
       <r>    -3.0320     0.6625    48.0319 </r>
       <r>    -2.9824     0.0422    48.0339 </r>
       <r>    -2.9329    -0.2005    48.0240 </r>
       <r>    -2.8834    -0.2142    48.0134 </r>
       <r>    -2.8339    -0.1450    48.0062 </r>
       <r>    -2.7844    -0.0761    48.0025 </r>
       <r>    -2.7349    -0.0328    48.0008 </r>
       <r>    -2.6854    -0.0120    48.0003 </r>
       <r>    -2.6359    -0.0037    48.0001 </r>
       <r>    -2.5863    -0.0010    48.0000 </r>
       <r>    -2.5368    -0.0002    48.0000 </r>
       <r>    -2.4873    -0.0001    48.0000 </r>
       <r>    -2.4378    -0.0002    48.0000 </r>
       <r>    -2.3883    -0.0009    47.9999 </r>
       <r>    -2.3388    -0.0033    47.9998 </r>
       <r>    -2.2893    -0.0108    47.9992 </r>
       <r>    -2.2398    -0.0301    47.9978 </r>
       <r>    -2.1903    -0.0709    47.9942 </r>
       <r>    -2.1407    -0.1378    47.9874 </r>
       <r>    -2.0912    -0.2095    47.9770 </r>
       <r>    -2.0417    -0.2091    47.9667 </r>
       <r>    -1.9922     0.0044    47.9669 </r>
       <r>    -1.9427     0.5826    47.9958 </r>
       <r>    -1.8932     1.5614    48.0731 </r>
       <r>    -1.8437     2.7351    48.2085 </r>
       <r>    -1.7942     3.6697    48.3902 </r>
       <r>    -1.7446     3.9210    48.5843 </r>
       <r>    -1.6951     3.3517    48.7503 </r>
       <r>    -1.6456     2.3131    48.8648 </r>
       <r>    -1.5961     1.5281    48.9405 </r>
       <r>    -1.5466     1.7097    49.0251 </r>
       <r>    -1.4971     3.1186    49.1795 </r>
       <r>    -1.4476     5.3162    49.4427 </r>
       <r>    -1.3981     7.3101    49.8047 </r>
       <r>    -1.3485     8.0873    50.2051 </r>
       <r>    -1.2990     7.2328    50.5632 </r>
       <r>    -1.2495     5.1977    50.8205 </r>
       <r>    -1.2000     3.0087    50.9695 </r>
       <r>    -1.1505     1.6483    51.0511 </r>
       <r>    -1.1010     1.5518    51.1279 </r>
       <r>    -1.0515     2.5059    51.2520 </r>
       <r>    -1.0020     3.9090    51.4456 </r>
       <r>    -0.9524     5.1468    51.7004 </r>
       <r>    -0.9029     5.8594    51.9905 </r>
       <r>    -0.8534     6.0117    52.2882 </r>
       <r>    -0.8039     5.8198    52.5763 </r>
       <r>    -0.7544     5.6134    52.8542 </r>
       <r>    -0.7049     5.6709    53.1350 </r>
       <r>    -0.6554     6.0596    53.4350 </r>
       <r>    -0.6059     6.5604    53.7599 </r>
       <r>    -0.5564     6.7665    54.0949 </r>
       <r>    -0.5068     6.3332    54.4084 </r>
       <r>    -0.4573     5.2301    54.6674 </r>
       <r>    -0.4078     3.8225    54.8567 </r>
       <r>    -0.3583     2.6975    54.9902 </r>
       <r>    -0.3088     2.3171    55.1049 </r>
       <r>    -0.2593     2.7121    55.2392 </r>
       <r>    -0.2098     3.4457    55.4098 </r>
       <r>    -0.1603     3.8950    55.6027 </r>
       <r>    -0.1107     3.6565    55.7837 </r>
       <r>    -0.0612     2.7707    55.9209 </r>
       <r>    -0.0117     1.6209    56.0012 </r>
       <r>     0.0378     0.6326    56.0325 </r>
       <r>     0.0873     0.0302    56.0340 </r>
       <r>     0.1368    -0.2037    56.0239 </r>
       <r>     0.1863    -0.2140    56.0133 </r>
       <r>     0.2358    -0.1440    56.0062 </r>
       <r>     0.2854    -0.0753    56.0024 </r>
       <r>     0.3349    -0.0324    56.0008 </r>
       <r>     0.3844    -0.0118    56.0002 </r>
       <r>     0.4339    -0.0037    56.0001 </r>
       <r>     0.4834    -0.0010    56.0000 </r>
       <r>     0.5329    -0.0002    56.0000 </r>
       <r>     0.5824    -0.0000    56.0000 </r>
       <r>     0.6319    -0.0000    56.0000 </r>
       <r>     0.6814    -0.0000    56.0000 </r>
       <r>     0.7310    -0.0000    56.0000 </r>
       <r>     0.7805    -0.0000    56.0000 </r>
       <r>     0.8300    -0.0000    56.0000 </r>
       <r>     0.8795    -0.0000    56.0000 </r>
       <r>     0.9290    -0.0000    56.0000 </r>
       <r>     0.9785    -0.0000    56.0000 </r>
       <r>     1.0280    -0.0000    56.0000 </r>
       <r>     1.0775    -0.0000    56.0000 </r>
       <r>     1.1271     0.0000    56.0000 </r>
       <r>     1.1766     0.0000    56.0000 </r>
       <r>     1.2261     0.0000    56.0000 </r>
       <r>     1.2756     0.0000    56.0000 </r>
       <r>     1.3251     0.0000    56.0000 </r>
       <r>     1.3746     0.0000    56.0000 </r>
       <r>     1.4241     0.0000    56.0000 </r>
       <r>     1.4736     0.0000    56.0000 </r>
       <r>     1.5232     0.0000    56.0000 </r>
       <r>     1.5727     0.0000    56.0000 </r>
       <r>     1.6222     0.0000    56.0000 </r>
       <r>     1.6717     0.0000    56.0000 </r>
       <r>     1.7212     0.0000    56.0000 </r>
       <r>     1.7707     0.0000    56.0000 </r>
       <r>     1.8202     0.0000    56.0000 </r>
      </set>
     </set>
    </array>
   </total>
  </dos>
 </calculation>
 <structure name="finalpos" >
  <crystal>
   <varray name="basis" >
    <v>      21.61720857       0.00000000       0.00000000 </v>
    <v>       0.00000000      22.65702511       0.00000000 </v>
    <v>       0.00000000       0.00000000      22.71112642 </v>
   </varray>
   <i name="volume">  11123.49268554 </i>
   <varray name="rec_basis" >
    <v>       0.04625944       0.00000000       0.00000000 </v>
    <v>       0.00000000       0.04413642       0.00000000 </v>
    <v>       0.00000000       0.00000000       0.04403128 </v>
   </varray>
  </crystal>
  <varray name="positions" >
   <v>       0.39940754       0.48235343       0.56131514 </v>
   <v>       0.54137068       0.53720897       0.42979908 </v>
   <v>       0.60440438       0.47629723       0.51152490 </v>
   <v>       0.48906308       0.43939764       0.48446522 </v>
   <v>       0.50972401       0.54474897       0.54843292 </v>
   <v>       0.50667877       0.59694021       0.34184951 </v>
   <v>       0.42072142       0.58149147       0.61759112 </v>
   <v>       0.38230323       0.38658171       0.49825910 </v>
  </varray>
 </structure>
</modeling>
