unknown system                          
            1
    21.617209    0.000000    0.000000
     0.000000   22.657025    0.000000
     0.000000    0.000000   22.711126
   Au
     8
Direct configuration=     1
   0.39943850  0.48232949  0.56134272
   0.54139887  0.53720511  0.42975924
   0.60437489  0.47629682  0.51152875
   0.48901626  0.43942454  0.48448714
   0.50969017  0.54474907  0.54844009
   0.50667161  0.59691932  0.34188807
   0.42074141  0.58149685  0.61756505
   0.38234138  0.38659843  0.49822594
Direct configuration=     2
   0.39940420  0.48235601  0.56131216
   0.54136764  0.53720939  0.42980337
   0.60440755  0.47629727  0.51152449
   0.48906812  0.43939474  0.48446286
   0.50972766  0.54474896  0.54843215
   0.50667954  0.59694246  0.34184536
   0.42071926  0.58149089  0.61759393
   0.38229912  0.38657991  0.49826268
Direct configuration=     3
   0.39940754  0.48235343  0.56131514
   0.54137068  0.53720897  0.42979908
   0.60440438  0.47629723  0.51152490
   0.48906308  0.43939764  0.48446522
   0.50972401  0.54474897  0.54843292
   0.50667877  0.59694021  0.34184951
   0.42072142  0.58149147  0.61759112
   0.38230323  0.38658171  0.49825910
