   7   7   0   0
  0.1392416E+04  0.2203748E-08  0.2121811E-08  0.2084483E-08  0.5000000E-15
   1.0000000000000000E-004
  CAR 
 unknown system                          
      1.22391217    -14.32254710  301     -3.99210361      1.00000000
    -14.323  0.0000E+00  0.0000E+00  0.0000E+00  0.0000E+00
    -14.271  0.0000E+00  0.0000E+00  0.0000E+00  0.0000E+00
    -14.219  0.0000E+00  0.0000E+00  0.0000E+00  0.0000E+00
    -14.167  0.0000E+00  0.0000E+00  0.0000E+00  0.0000E+00
    -14.115  0.0000E+00  0.0000E+00  0.0000E+00  0.0000E+00
    -14.063  0.0000E+00  0.0000E+00  0.0000E+00  0.0000E+00
    -14.012  0.0000E+00  0.0000E+00  0.0000E+00  0.0000E+00
    -13.960 -0.3507E-30  0.0000E+00 -0.1817E-31  0.0000E+00
    -13.908 -0.2174E-28  0.0000E+00 -0.1145E-29  0.0000E+00
    -13.856 -0.1193E-26 -0.2026E-30 -0.6297E-28 -0.1050E-31
    -13.804 -0.5717E-25 -0.1278E-28 -0.3025E-26 -0.6729E-30
    -13.753 -0.2391E-23 -0.7141E-27 -0.1269E-24 -0.3768E-28
    -13.701 -0.8730E-22 -0.3483E-25 -0.4651E-23 -0.1842E-26
    -13.649 -0.2781E-20 -0.1483E-23 -0.1488E-21 -0.7868E-25
    -13.597 -0.7731E-19 -0.5510E-22 -0.4155E-20 -0.2934E-23
    -13.545 -0.1874E-17 -0.1787E-20 -0.1013E-18 -0.9553E-22
    -13.493 -0.3856E-16 -0.5056E-19 -0.2100E-17 -0.2715E-20
    -13.442 -0.7070E-15 -0.1248E-17 -0.3874E-16 -0.6738E-19
    -13.390 -0.1133E-13 -0.2579E-16 -0.6258E-15 -0.1404E-17
    -13.338 -0.1579E-12 -0.4890E-15 -0.8810E-14 -0.2674E-16
    -13.286 -0.1916E-11 -0.7960E-14 -0.1081E-12 -0.4392E-15
    -13.234 -0.2021E-10 -0.1130E-12 -0.1155E-11 -0.6295E-14
    -13.182 -0.1852E-09 -0.1396E-11 -0.1075E-10 -0.7863E-13
    -13.131 -0.1473E-08 -0.1500E-10 -0.8709E-10 -0.8557E-12
    -13.079 -0.1015E-07 -0.1400E-09 -0.6132E-09 -0.8109E-11
    -13.027 -0.6052E-07 -0.1134E-08 -0.3749E-08 -0.6687E-10
    -12.975 -0.3113E-06 -0.7962E-08 -0.1988E-07 -0.4795E-09
    -12.923 -0.1378E-05 -0.4838E-07 -0.9128E-07 -0.2986E-08
    -12.872 -0.5220E-05 -0.2537E-06 -0.3618E-06 -0.1614E-07
    -12.820 -0.1681E-04 -0.1145E-05 -0.1233E-05 -0.7549E-07
    -12.768 -0.4554E-04 -0.4429E-05 -0.3593E-05 -0.3050E-06
    -12.716 -0.1017E-03 -0.1458E-04 -0.8863E-05 -0.1060E-05
    -12.664 -0.1797E-03 -0.4042E-04 -0.1818E-04 -0.3155E-05
    -12.612 -0.2250E-03 -0.9271E-04 -0.2983E-04 -0.7959E-05
    -12.561 -0.1048E-03 -0.1695E-03 -0.3527E-04 -0.1675E-04
    -12.509  0.3633E-03 -0.2248E-03 -0.1644E-04 -0.2840E-04
    -12.457  0.1287E-02 -0.1363E-03  0.5024E-04 -0.3546E-04
    -12.405  0.2530E-02  0.2772E-03  0.1813E-03 -0.2109E-04
    -12.353  0.3668E-02  0.1142E-02  0.3714E-03  0.3811E-04
    -12.302  0.4188E-02  0.2363E-02  0.5885E-03  0.1606E-03
    -12.250  0.3827E-02  0.3546E-02  0.7868E-03  0.3443E-03
    -12.198  0.2768E-02  0.4169E-02  0.9302E-03  0.5603E-03
    -12.146  0.1505E-02  0.3921E-02  0.1008E-02  0.7636E-03
    -12.094  0.5020E-03  0.2929E-02  0.1034E-02  0.9153E-03
    -12.042 -0.4870E-04  0.1663E-02  0.1032E-02  0.1002E-02
    -11.991 -0.2203E-03  0.6079E-03  0.1020E-02  0.1033E-02
    -11.939 -0.1936E-03 -0.1924E-05  0.1010E-02  0.1033E-02
    -11.887 -0.1154E-03 -0.2131E-03  0.1004E-02  0.1022E-02
    -11.835 -0.5379E-04 -0.2023E-03  0.1002E-02  0.1011E-02
    -11.783 -0.2056E-04 -0.1254E-03  0.1000E-02  0.1005E-02
    -11.731 -0.6586E-05 -0.6012E-04  0.1000E-02  0.1002E-02
    -11.680 -0.1791E-05 -0.2354E-04  0.1000E-02  0.1001E-02
    -11.628 -0.4166E-06 -0.7710E-05  0.1000E-02  0.1000E-02
    -11.576 -0.8328E-07 -0.2141E-05  0.1000E-02  0.1000E-02
    -11.524 -0.1436E-07 -0.5080E-06  0.1000E-02  0.1000E-02
    -11.472 -0.2141E-08 -0.1035E-06  0.1000E-02  0.1000E-02
    -11.421 -0.2765E-09 -0.1820E-07  0.1000E-02  0.1000E-02
    -11.369 -0.3098E-10 -0.2765E-08  0.1000E-02  0.1000E-02
    -11.317 -0.3016E-11 -0.3638E-09  0.1000E-02  0.1000E-02
    -11.265 -0.2552E-12 -0.4152E-10  0.1000E-02  0.1000E-02
    -11.213 -0.1879E-13 -0.4116E-11  0.1000E-02  0.1000E-02
    -11.161 -0.1204E-14 -0.3546E-12  0.1000E-02  0.1000E-02
    -11.110 -0.6427E-16 -0.2658E-13  0.1000E-02  0.1000E-02
    -11.058 -0.4285E-17 -0.1740E-14  0.1000E-02  0.1000E-02
    -11.006 -0.3436E-20 -0.9855E-16  0.1000E-02  0.1000E-02
    -10.954 -0.9469E-19 -0.4285E-17  0.1000E-02  0.1000E-02
    -10.902 -0.2276E-17 -0.1082E-23  0.1000E-02  0.1000E-02
    -10.851 -0.4665E-16 -0.4066E-22  0.1000E-02  0.1000E-02
    -10.799 -0.8443E-15 -0.1334E-20  0.1000E-02  0.1000E-02
    -10.747 -0.1340E-13 -0.3819E-19  0.1000E-02  0.1000E-02
    -10.695 -0.1853E-12 -0.9536E-18  0.1000E-02  0.1000E-02
    -10.643 -0.2228E-11 -0.1970E-16  0.1000E-02  0.1000E-02
    -10.591 -0.2330E-10 -0.3825E-15  0.1000E-02  0.1000E-02
    -10.540 -0.2117E-09 -0.6304E-14  0.1000E-02  0.1000E-02
    -10.488 -0.1668E-08 -0.9055E-13  0.1000E-02  0.1000E-02
    -10.436 -0.1140E-07 -0.1132E-11  0.1000E-02  0.1000E-02
    -10.384 -0.6732E-07 -0.1231E-10  0.1000E-02  0.1000E-02
    -10.332 -0.3431E-06 -0.1163E-09  0.1000E-02  0.1000E-02
    -10.280 -0.1504E-05 -0.9534E-09  0.9999E-03  0.1000E-02
    -10.229 -0.5642E-05 -0.6778E-08  0.9996E-03  0.1000E-02
    -10.177 -0.1798E-04 -0.4170E-07  0.9987E-03  0.1000E-02
    -10.125 -0.4816E-04 -0.2215E-06  0.9962E-03  0.1000E-02
    -10.073 -0.1062E-03 -0.1013E-05  0.9907E-03  0.9999E-03
    -10.021 -0.1845E-03 -0.3970E-05  0.9811E-03  0.9997E-03
     -9.970 -0.2241E-03 -0.1325E-04  0.9695E-03  0.9990E-03
     -9.918 -0.8766E-04 -0.3731E-04  0.9650E-03  0.9971E-03
     -9.866  0.4074E-03 -0.8706E-04  0.9861E-03  0.9926E-03
     -9.814  0.1358E-02 -0.1627E-03  0.1056E-02  0.9842E-03
     -9.762  0.2609E-02 -0.2234E-03  0.1192E-02  0.9726E-03
     -9.710  0.3724E-02 -0.1539E-03  0.1385E-02  0.9646E-03
     -9.659  0.4192E-02  0.2249E-03  0.1602E-02  0.9763E-03
     -9.607  0.3777E-02  0.1051E-02  0.1798E-02  0.1031E-02
     -9.555  0.2690E-02  0.2253E-02  0.1937E-02  0.1147E-02
     -9.503  0.1431E-02  0.3459E-02  0.2011E-02  0.1327E-02
     -9.451  0.4505E-03  0.4147E-02  0.2034E-02  0.1542E-02
     -9.400 -0.8208E-04  0.3973E-02  0.2030E-02  0.1748E-02
     -9.348 -0.2640E-03  0.3018E-02  0.2017E-02  0.1904E-02
     -9.296 -0.2974E-03  0.1724E-02  0.2001E-02  0.1993E-02
     -9.244 -0.3427E-03  0.5684E-03  0.1983E-02  0.2023E-02
     -9.192 -0.4388E-03 -0.2076E-03  0.1961E-02  0.2012E-02
     -9.140 -0.4585E-03 -0.6019E-03  0.1937E-02  0.1981E-02
     -9.089 -0.9758E-04 -0.6417E-03  0.1932E-02  0.1948E-02
     -9.037  0.1014E-02 -0.1862E-03  0.1984E-02  0.1938E-02
     -8.985  0.3027E-02  0.1038E-02  0.2141E-02  0.1992E-02
     -8.933  0.5551E-02  0.3132E-02  0.2429E-02  0.2154E-02
     -8.881  0.7660E-02  0.5679E-02  0.2826E-02  0.2448E-02
     -8.829  0.8371E-02  0.7741E-02  0.3260E-02  0.2849E-02
     -8.778  0.7323E-02  0.8359E-02  0.3639E-02  0.3283E-02
     -8.726  0.5043E-02  0.7222E-02  0.3900E-02  0.3657E-02
     -8.674  0.2560E-02  0.4903E-02  0.4033E-02  0.3911E-02
     -8.622  0.7197E-03  0.2438E-02  0.4070E-02  0.4037E-02
     -8.570 -0.2115E-03  0.6453E-03  0.4060E-02  0.4071E-02
     -8.519 -0.4494E-03 -0.2396E-03  0.4036E-02  0.4058E-02
     -8.467 -0.3584E-03 -0.4500E-03  0.4018E-02  0.4035E-02
     -8.415 -0.2026E-03 -0.3499E-03  0.4007E-02  0.4017E-02
     -8.363 -0.9067E-04 -0.1949E-03  0.4002E-02  0.4007E-02
     -8.311 -0.3347E-04 -0.8625E-04  0.4001E-02  0.4002E-02
     -8.259 -0.1039E-04 -0.3151E-04  0.4000E-02  0.4001E-02
     -8.208 -0.2741E-05 -0.9689E-05  0.4000E-02  0.4000E-02
     -8.156 -0.6195E-06 -0.2535E-05  0.4000E-02  0.4000E-02
     -8.104 -0.1204E-06 -0.5678E-06  0.4000E-02  0.4000E-02
     -8.052 -0.2020E-07 -0.1095E-06  0.4000E-02  0.4000E-02
     -8.000 -0.2932E-08 -0.1821E-07  0.4000E-02  0.4000E-02
     -7.948 -0.3688E-09 -0.2622E-08  0.4000E-02  0.4000E-02
     -7.897 -0.4026E-10 -0.3271E-09  0.4000E-02  0.4000E-02
     -7.845 -0.3819E-11 -0.3542E-10  0.4000E-02  0.4000E-02
     -7.793 -0.3150E-12 -0.3332E-11  0.4000E-02  0.4000E-02
     -7.741 -0.2320E-13 -0.2726E-12  0.4000E-02  0.4000E-02
     -7.689 -0.1105E-13 -0.1941E-13  0.4000E-02  0.4000E-02
     -7.638 -0.1355E-12 -0.1204E-14  0.4000E-02  0.4000E-02
     -7.586 -0.1657E-11 -0.6856E-16  0.4000E-02  0.4000E-02
     -7.534 -0.1763E-10 -0.6355E-19  0.4000E-02  0.4000E-02
     -7.482 -0.1629E-09 -0.1554E-17  0.4000E-02  0.4000E-02
     -7.430 -0.1307E-08 -0.3205E-16  0.4000E-02  0.4000E-02
     -7.378 -0.9082E-08 -0.5963E-15  0.4000E-02  0.4000E-02
     -7.327 -0.5462E-07 -0.9627E-14  0.4000E-02  0.4000E-02
     -7.275 -0.2835E-06 -0.1353E-12  0.4000E-02  0.4000E-02
     -7.223 -0.1266E-05 -0.1656E-11  0.4000E-02  0.4000E-02
     -7.171 -0.4842E-05 -0.1761E-10  0.4000E-02  0.4000E-02
     -7.119 -0.1575E-04 -0.1628E-09  0.3999E-02  0.4000E-02
     -7.068 -0.4313E-04 -0.1306E-08  0.3997E-02  0.4000E-02
     -7.016 -0.9751E-04 -0.9076E-08  0.3992E-02  0.4000E-02
     -6.964 -0.1751E-03 -0.5459E-07  0.3982E-02  0.4000E-02
     -6.912 -0.2252E-03 -0.2833E-06  0.3971E-02  0.4000E-02
     -6.860 -0.1200E-03 -0.1265E-05  0.3965E-02  0.4000E-02
     -6.808  0.3227E-03 -0.4840E-05  0.3981E-02  0.4000E-02
     -6.757  0.1220E-02 -0.1575E-04  0.4045E-02  0.3999E-02
     -6.705  0.2453E-02 -0.4312E-04  0.4172E-02  0.3997E-02
     -6.653  0.3613E-02 -0.9750E-04  0.4359E-02  0.3992E-02
     -6.601  0.4180E-02 -0.1752E-03  0.4576E-02  0.3982E-02
     -6.549  0.3868E-02 -0.2257E-03  0.4776E-02  0.3971E-02
     -6.497  0.2829E-02 -0.1225E-03  0.4923E-02  0.3964E-02
     -6.446  0.1534E-02  0.3133E-03  0.5002E-02  0.3981E-02
     -6.394  0.4372E-03  0.1189E-02  0.5025E-02  0.4042E-02
     -6.342 -0.2666E-03  0.2370E-02  0.5011E-02  0.4165E-02
     -6.290 -0.6112E-03  0.3423E-02  0.4979E-02  0.4342E-02
     -6.238 -0.6323E-03  0.3837E-02  0.4946E-02  0.4541E-02
     -6.187 -0.1805E-03  0.3422E-02  0.4937E-02  0.4719E-02
     -6.135  0.1030E-02  0.2585E-02  0.4990E-02  0.4853E-02
     -6.083  0.3110E-02  0.2171E-02  0.5152E-02  0.4965E-02
     -6.031  0.5652E-02  0.2901E-02  0.5445E-02  0.5116E-02
     -5.979  0.7722E-02  0.4775E-02  0.5845E-02  0.5363E-02
     -5.927  0.8359E-02  0.6931E-02  0.6278E-02  0.5722E-02
     -5.876  0.7241E-02  0.8150E-02  0.6653E-02  0.6144E-02
     -5.824  0.4932E-02  0.7680E-02  0.6909E-02  0.6542E-02
     -5.772  0.2464E-02  0.5728E-02  0.7036E-02  0.6839E-02
     -5.720  0.6618E-03  0.3231E-02  0.7071E-02  0.7007E-02
     -5.668 -0.2332E-03  0.1159E-02  0.7059E-02  0.7067E-02
     -5.617 -0.4514E-03 -0.2815E-04  0.7035E-02  0.7065E-02
     -5.565 -0.3593E-03 -0.4326E-03  0.7017E-02  0.7043E-02
     -5.513 -0.2220E-03 -0.4100E-03  0.7005E-02  0.7022E-02
     -5.461 -0.1591E-03 -0.2764E-03  0.6997E-02  0.7007E-02
     -5.409 -0.2030E-03 -0.2012E-03  0.6986E-02  0.6997E-02
     -5.357 -0.3439E-03 -0.2412E-03  0.6968E-02  0.6984E-02
     -5.306 -0.5088E-03 -0.3868E-03  0.6942E-02  0.6964E-02
     -5.254 -0.4901E-03 -0.5439E-03  0.6917E-02  0.6936E-02
     -5.202  0.8658E-04 -0.4671E-03  0.6921E-02  0.6912E-02
     -5.150  0.1640E-02  0.2558E-03  0.7006E-02  0.6925E-02
     -5.098  0.4317E-02  0.2041E-02  0.7230E-02  0.7031E-02
     -5.046  0.7653E-02  0.4949E-02  0.7626E-02  0.7287E-02
     -4.995  0.1055E-01  0.8364E-02  0.8173E-02  0.7721E-02
     -4.943  0.1180E-01  0.1107E-01  0.8785E-02  0.8295E-02
     -4.891  0.1079E-01  0.1188E-01  0.9344E-02  0.8910E-02
     -4.839  0.7977E-02  0.1039E-01  0.9757E-02  0.9449E-02
     -4.787  0.4568E-02  0.7287E-02  0.9994E-02  0.9826E-02
     -4.736  0.1745E-02  0.3873E-02  0.1008E-01  0.1003E-01
     -4.684  0.7323E-04  0.1259E-02  0.1009E-01  0.1009E-01
     -4.632 -0.5625E-03 -0.1503E-03  0.1006E-01  0.1008E-01
     -4.580 -0.6135E-03 -0.5841E-03  0.1003E-01  0.1005E-01
     -4.528 -0.4916E-03 -0.5123E-03  0.1000E-01  0.1003E-01
     -4.476 -0.3884E-03 -0.3082E-03  0.9981E-02  0.1001E-01
     -4.425 -0.2686E-03 -0.1457E-03  0.9968E-02  0.1000E-01
     -4.373  0.4970E-04 -0.5668E-04  0.9970E-02  0.1000E-01
     -4.321  0.7600E-03 -0.1854E-04  0.1001E-01  0.1000E-01
     -4.269  0.1884E-02 -0.5156E-05  0.1011E-01  0.1000E-01
     -4.217  0.3143E-02 -0.1229E-05  0.1027E-01  0.1000E-01
     -4.166  0.4030E-02 -0.2536E-06  0.1048E-01  0.1000E-01
     -4.114  0.4117E-02 -0.5567E-07  0.1069E-01  0.1000E-01
     -4.062  0.3360E-02 -0.7245E-07  0.1087E-01  0.1000E-01
     -4.010  0.2131E-02 -0.3370E-06  0.1098E-01  0.1000E-01
     -3.958  0.9530E-03 -0.1482E-05  0.1103E-01  0.1000E-01
     -3.906  0.1669E-03 -0.5609E-05  0.1103E-01  0.1000E-01
     -3.855 -0.1863E-03 -0.1812E-04  0.1103E-01  0.9999E-02
     -3.803 -0.2684E-03 -0.4953E-04  0.1101E-01  0.9996E-02
     -3.751 -0.2761E-03 -0.1131E-03  0.1100E-01  0.9990E-02
     -3.699 -0.3324E-03 -0.2105E-03  0.1098E-01  0.9979E-02
     -3.647 -0.4378E-03 -0.3010E-03  0.1096E-01  0.9964E-02
     -3.595 -0.4345E-03 -0.2703E-03  0.1093E-01  0.9950E-02
     -3.544 -0.2156E-05  0.6460E-04  0.1093E-01  0.9953E-02
     -3.492  0.1213E-02  0.8871E-03  0.1100E-01  0.9999E-02
     -3.440  0.3295E-02  0.2279E-02  0.1117E-01  0.1012E-01
     -3.388  0.5768E-02  0.4158E-02  0.1147E-01  0.1033E-01
     -3.336  0.7665E-02  0.6271E-02  0.1186E-01  0.1066E-01
     -3.285  0.8095E-02  0.8213E-02  0.1228E-01  0.1108E-01
     -3.233  0.6922E-02  0.9464E-02  0.1264E-01  0.1157E-01
     -3.181  0.4943E-02  0.9582E-02  0.1290E-01  0.1207E-01
     -3.129  0.3333E-02  0.8531E-02  0.1307E-01  0.1251E-01
     -3.077  0.2805E-02  0.6843E-02  0.1322E-01  0.1287E-01
     -3.025  0.3184E-02  0.5318E-02  0.1338E-01  0.1314E-01
     -2.974  0.3698E-02  0.4433E-02  0.1357E-01  0.1337E-01
     -2.922  0.3640E-02  0.4030E-02  0.1376E-01  0.1358E-01
     -2.870  0.2846E-02  0.3586E-02  0.1391E-01  0.1377E-01
     -2.818  0.1662E-02  0.2766E-02  0.1400E-01  0.1391E-01
     -2.766  0.5644E-03  0.1669E-02  0.1402E-01  0.1400E-01
     -2.715 -0.1835E-03  0.6415E-03  0.1402E-01  0.1403E-01
     -2.663 -0.5743E-03 -0.6725E-04  0.1399E-01  0.1403E-01
     -2.611 -0.6544E-03 -0.4494E-03  0.1395E-01  0.1400E-01
     -2.559 -0.3096E-03 -0.6161E-03  0.1394E-01  0.1397E-01
     -2.507  0.7386E-03 -0.5766E-03  0.1397E-01  0.1394E-01
     -2.455  0.2665E-02 -0.1181E-03  0.1411E-01  0.1394E-01
     -2.404  0.5174E-02  0.1090E-02  0.1438E-01  0.1399E-01
     -2.352  0.7410E-02  0.3170E-02  0.1476E-01  0.1416E-01
     -2.300  0.8366E-02  0.5705E-02  0.1520E-01  0.1445E-01
     -2.248  0.7563E-02  0.7750E-02  0.1559E-01  0.1485E-01
     -2.196  0.5409E-02  0.8349E-02  0.1587E-01  0.1529E-01
     -2.144  0.2893E-02  0.7195E-02  0.1602E-01  0.1566E-01
     -2.093  0.9150E-03  0.4859E-02  0.1607E-01  0.1591E-01
     -2.041 -0.1794E-03  0.2365E-02  0.1606E-01  0.1603E-01
     -1.989 -0.5614E-03  0.5181E-03  0.1603E-01  0.1606E-01
     -1.937 -0.5776E-03 -0.4382E-03  0.1600E-01  0.1604E-01
     -1.885 -0.4411E-03 -0.6674E-03  0.1598E-01  0.1600E-01
     -1.834 -0.1298E-03 -0.3828E-03  0.1597E-01  0.1598E-01
     -1.782  0.5145E-03  0.3414E-03  0.1600E-01  0.1600E-01
     -1.730  0.1571E-02  0.1470E-02  0.1608E-01  0.1608E-01
     -1.678  0.2846E-02  0.2789E-02  0.1622E-01  0.1622E-01
     -1.626  0.3875E-02  0.3849E-02  0.1643E-01  0.1642E-01
     -1.574  0.4180E-02  0.4181E-02  0.1664E-01  0.1664E-01
     -1.523  0.3608E-02  0.3629E-02  0.1683E-01  0.1683E-01
     -1.471  0.2446E-02  0.2476E-02  0.1696E-01  0.1695E-01
     -1.419  0.1213E-02  0.1239E-02  0.1702E-01  0.1702E-01
     -1.367  0.3138E-03  0.3328E-03  0.1704E-01  0.1704E-01
     -1.315 -0.1390E-03 -0.1222E-03  0.1703E-01  0.1703E-01
     -1.264 -0.2729E-03 -0.2458E-03  0.1701E-01  0.1702E-01
     -1.212 -0.2800E-03 -0.2303E-03  0.1700E-01  0.1700E-01
     -1.160 -0.2808E-03 -0.2142E-03  0.1698E-01  0.1699E-01
     -1.108 -0.2672E-03 -0.2374E-03  0.1697E-01  0.1698E-01
     -1.056 -0.1065E-03 -0.2364E-03  0.1697E-01  0.1697E-01
     -1.004  0.3946E-03 -0.5365E-04  0.1699E-01  0.1697E-01
     -0.953  0.1344E-02  0.5007E-03  0.1706E-01  0.1699E-01
     -0.901  0.2595E-02  0.1505E-02  0.1719E-01  0.1707E-01
     -0.849  0.3714E-02  0.2768E-02  0.1738E-01  0.1721E-01
     -0.797  0.4191E-02  0.3827E-02  0.1760E-01  0.1741E-01
     -0.745  0.3786E-02  0.4188E-02  0.1780E-01  0.1763E-01
     -0.693  0.2704E-02  0.3668E-02  0.1794E-01  0.1782E-01
     -0.642  0.1445E-02  0.2530E-02  0.1801E-01  0.1795E-01
     -0.590  0.4626E-03  0.1287E-02  0.1803E-01  0.1802E-01
     -0.538 -0.6529E-04  0.3633E-03  0.1803E-01  0.1804E-01
     -0.486 -0.2222E-03 -0.1048E-03  0.1802E-01  0.1803E-01
     -0.434 -0.1899E-03 -0.2250E-03  0.1801E-01  0.1802E-01
     -0.383 -0.1116E-03 -0.1797E-03  0.1800E-01  0.1801E-01
     -0.331 -0.5144E-04 -0.1017E-03  0.1800E-01  0.1800E-01
     -0.279 -0.1947E-04 -0.4554E-04  0.1800E-01  0.1800E-01
     -0.227 -0.6186E-05 -0.1681E-04  0.1800E-01  0.1800E-01
     -0.175 -0.1669E-05 -0.5220E-05  0.1800E-01  0.1800E-01
     -0.123 -0.3850E-06 -0.1378E-05  0.1800E-01  0.1800E-01
     -0.072 -0.7639E-07 -0.3113E-06  0.1800E-01  0.1800E-01
     -0.020 -0.1307E-07 -0.6052E-07  0.1800E-01  0.1800E-01
      0.032 -0.1935E-08 -0.1015E-07  0.1800E-01  0.1800E-01
      0.084 -0.2480E-09 -0.1473E-08  0.1800E-01  0.1800E-01
      0.136 -0.2759E-10 -0.1852E-09  0.1800E-01  0.1800E-01
      0.187 -0.2667E-11 -0.2021E-10  0.1800E-01  0.1800E-01
      0.239 -0.2240E-12 -0.1916E-11  0.1800E-01  0.1800E-01
      0.291 -0.1638E-13 -0.1579E-12  0.1800E-01  0.1800E-01
      0.343 -0.1041E-14 -0.1133E-13  0.1800E-01  0.1800E-01
      0.395 -0.5570E-16 -0.7027E-15  0.1800E-01  0.1800E-01
      0.447 -0.4285E-17 -0.4285E-16  0.1800E-01  0.1800E-01
      0.498  0.0000E+00  0.0000E+00  0.1800E-01  0.1800E-01
      0.550  0.0000E+00  0.0000E+00  0.1800E-01  0.1800E-01
      0.602  0.0000E+00  0.0000E+00  0.1800E-01  0.1800E-01
      0.654  0.0000E+00  0.0000E+00  0.1800E-01  0.1800E-01
      0.706  0.0000E+00  0.0000E+00  0.1800E-01  0.1800E-01
      0.758  0.0000E+00  0.0000E+00  0.1800E-01  0.1800E-01
      0.809  0.0000E+00  0.0000E+00  0.1800E-01  0.1800E-01
      0.861  0.0000E+00  0.0000E+00  0.1800E-01  0.1800E-01
      0.913  0.0000E+00  0.0000E+00  0.1800E-01  0.1800E-01
      0.965  0.0000E+00  0.0000E+00  0.1800E-01  0.1800E-01
      1.017  0.0000E+00  0.0000E+00  0.1800E-01  0.1800E-01
      1.068  0.0000E+00  0.0000E+00  0.1800E-01  0.1800E-01
      1.120  0.0000E+00  0.0000E+00  0.1800E-01  0.1800E-01
      1.172  0.0000E+00  0.0000E+00  0.1800E-01  0.1800E-01
      1.224  0.0000E+00  0.0000E+00  0.1800E-01  0.1800E-01
