    7    7 1000    2
  0.1392416E+04  0.2203748E-08  0.2121811E-08  0.2084483E-08  0.5000000E-15
   1.0000000000000000E-004
  CAR 
 unknown system                          
     21      1     18
 
  0.1262379E-14  0.1262379E-14  0.1262379E-14  0.1000000E+01
    1      -12.322547    -12.212164   1.000000   1.000000
    2       -9.682879     -9.461190   1.000000   1.000000
    3       -8.863935     -8.814342   1.000000   1.000000
    4       -8.857221     -8.808821   1.000000   1.000000
    5       -6.619082     -6.256313   1.000000   1.000000
    6       -5.965063     -5.894041   1.000000   1.000000
    7       -5.956582     -5.888942   1.000000   1.000000
    8       -5.023519     -4.977904   1.000000   1.000000
    9       -4.940450     -4.900493   1.000000   1.000000
   10       -4.938662     -4.900109   1.000000   1.000000
   11       -4.160535     -3.359758   1.000061  -0.000037
   12       -3.329637     -3.194193  -0.000015  -0.000000
   13       -3.314598     -3.190085  -0.000009  -0.000000
   14       -2.983048     -2.924215  -0.000000  -0.000000
   15       -2.330337     -2.235641  -0.000000  -0.000000
   16       -2.316705     -2.225758  -0.000000  -0.000000
   17       -1.608594     -1.607408  -0.000000  -0.000000
   18       -0.820820     -0.776088  -0.000000  -0.000000
