       N       E                     dE             d eps       ncg     rms          rms(c)
DAV:   1     0.509748260438E+02    0.50975E+02   -0.32049E+03   104   0.416E+02
DAV:   2    -0.774396495888E+01   -0.58719E+02   -0.58329E+02   104   0.672E+01
DAV:   3    -0.179846878106E+02   -0.10241E+02   -0.10182E+02    94   0.271E+01
DAV:   4    -0.182892559559E+02   -0.30457E+00   -0.30399E+00   100   0.732E+00
DAV:   5    -0.182956950330E+02   -0.64391E-02   -0.64385E-02   102   0.144E+00    0.650E+00
DAV:   6    -0.834916078604E+01    0.99465E+01   -0.20197E+01    72   0.155E+01    0.360E+00
DAV:   7    -0.548339663252E+01    0.28658E+01   -0.40366E+00    74   0.702E+00    0.199E+00
DAV:   8    -0.799376618179E+01   -0.25104E+01   -0.11048E+00    88   0.477E+00    0.144E+00
DAV:   9    -0.111828135616E+02   -0.31890E+01   -0.13618E+00    76   0.400E+00    0.995E-01
DAV:  10    -0.133647692684E+02   -0.21820E+01   -0.89955E-01    86   0.286E+00    0.707E-01
DAV:  11    -0.151025434123E+02   -0.17378E+01   -0.68946E-01    74   0.247E+00    0.478E-01
DAV:  12    -0.161288266142E+02   -0.10263E+01   -0.34937E-01    76   0.190E+00    0.314E-01
DAV:  13    -0.165314166916E+02   -0.40259E+00   -0.10953E-01    76   0.117E+00    0.202E-01
DAV:  14    -0.168539909330E+02   -0.32257E+00   -0.27726E-02    72   0.567E-01    0.125E-01
DAV:  15    -0.171387881560E+02   -0.28480E+00   -0.19181E-02    76   0.430E-01    0.685E-02
DAV:  16    -0.172184728113E+02   -0.79685E-01   -0.38168E-03    82   0.226E-01    0.421E-02
DAV:  17    -0.172635425645E+02   -0.45070E-01   -0.20450E-03    74   0.155E-01    0.246E-02
DAV:  18    -0.172950187343E+02   -0.31476E-01   -0.15285E-03    84   0.113E-01    0.129E-02
DAV:  19    -0.172996471147E+02   -0.46284E-02   -0.18465E-04    78   0.447E-02    0.807E-03
DAV:  20    -0.173025393663E+02   -0.28923E-02   -0.14535E-04    78   0.386E-02    0.562E-03
DAV:  21    -0.173037250666E+02   -0.11857E-02   -0.48757E-05    62   0.226E-02    0.368E-03
DAV:  22    -0.173048415451E+02   -0.11165E-02   -0.47439E-05    70   0.182E-02    0.223E-03
DAV:  23    -0.173053367864E+02   -0.49524E-03   -0.85725E-06    46   0.882E-03    0.138E-03
DAV:  24    -0.173054767372E+02   -0.13995E-03   -0.22674E-06    48   0.471E-03    0.815E-04
DAV:  25    -0.173055288584E+02   -0.52121E-04   -0.17218E-06    44   0.388E-03
   1 F= -.17305529E+02 E0= -.17319859E+02  d E =-.173055E+02  mag=     1.2100
       N       E                     dE             d eps       ncg     rms          rms(c)
DAV:   1    -0.175255457477E+02   -0.22007E+00   -0.15509E+00    72   0.614E+00    0.426E-01
DAV:   2    -0.175122285970E+02    0.13317E-01   -0.95150E-02    84   0.157E+00    0.199E-01
DAV:   3    -0.175005416045E+02    0.11687E-01   -0.13122E-02    94   0.529E-01    0.129E-01
DAV:   4    -0.175005538171E+02   -0.12213E-04   -0.10872E-03   100   0.161E-01    0.938E-02
DAV:   5    -0.175017146402E+02   -0.11608E-02   -0.24661E-04    72   0.630E-02    0.552E-02
DAV:   6    -0.175038256066E+02   -0.21110E-02   -0.26189E-04    60   0.611E-02    0.231E-02
DAV:   7    -0.175068090077E+02   -0.29834E-02   -0.53406E-05    56   0.333E-02    0.187E-02
DAV:   8    -0.175111161064E+02   -0.43071E-02   -0.94995E-05    60   0.333E-02    0.147E-02
DAV:   9    -0.175178337006E+02   -0.67176E-02   -0.34984E-04    68   0.498E-02    0.828E-03
DAV:  10    -0.175204308639E+02   -0.25972E-02   -0.68775E-05    70   0.244E-02    0.564E-03
DAV:  11    -0.175233007147E+02   -0.28699E-02   -0.10550E-04    68   0.276E-02    0.296E-03
DAV:  12    -0.175242513549E+02   -0.95064E-03   -0.31805E-05    62   0.176E-02    0.210E-03
DAV:  13    -0.175247848642E+02   -0.53351E-03   -0.99644E-06    44   0.123E-02    0.108E-03
DAV:  14    -0.175251822669E+02   -0.39740E-03   -0.53525E-06    46   0.100E-02    0.633E-04
DAV:  15    -0.175252643990E+02   -0.82132E-04   -0.17176E-06    44   0.516E-03
   2 F= -.17525264E+02 E0= -.17539025E+02  d E =-.219736E+00  mag=     1.0147
       N       E                     dE             d eps       ncg     rms          rms(c)
DAV:   1    -0.176661531122E+02   -0.14097E+00   -0.14250E+01    72   0.185E+01    0.106E+00
DAV:   2    -0.176729113021E+02   -0.67582E-02   -0.73469E-01    96   0.462E+00    0.549E-01
DAV:   3    -0.176602008112E+02    0.12710E-01   -0.84756E-02   120   0.127E+00    0.398E-01
DAV:   4    -0.176579060570E+02    0.22948E-02   -0.64104E-03   102   0.384E-01    0.309E-01
DAV:   5    -0.176565011036E+02    0.14050E-02   -0.13313E-03   100   0.141E-01    0.154E-01
DAV:   6    -0.176567523109E+02   -0.25121E-03   -0.14974E-03    78   0.142E-01    0.472E-02
DAV:   7    -0.176572368227E+02   -0.48451E-03   -0.12542E-04    56   0.549E-02    0.268E-02
DAV:   8    -0.176583577324E+02   -0.11209E-02   -0.10692E-04    68   0.415E-02    0.186E-02
DAV:   9    -0.176602796421E+02   -0.19219E-02   -0.38847E-04    78   0.596E-02    0.108E-02
DAV:  10    -0.176607889006E+02   -0.50926E-03   -0.27597E-05    62   0.200E-02    0.731E-03
DAV:  11    -0.176617725510E+02   -0.98365E-03   -0.12508E-04    68   0.297E-02    0.393E-03
DAV:  12    -0.176622718689E+02   -0.49932E-03   -0.55142E-05    68   0.198E-02    0.329E-03
DAV:  13    -0.176625501924E+02   -0.27832E-03   -0.24758E-05    60   0.140E-02    0.186E-03
DAV:  14    -0.176627031692E+02   -0.15298E-03   -0.15074E-05    52   0.114E-02    0.206E-03
DAV:  15    -0.176627670981E+02   -0.63929E-04   -0.74605E-06    50   0.777E-03
   3 F= -.17662767E+02 E0= -.17664726E+02  d E =-.357238E+00  mag=     1.0001
       N       E                     dE             d eps       ncg     rms          rms(c)
DAV:   1    -0.177366272638E+02   -0.73924E-01   -0.27048E+00    72   0.822E+00    0.446E-01
DAV:   2    -0.177388726502E+02   -0.22454E-02   -0.14300E-01   104   0.189E+00    0.275E-01
DAV:   3    -0.177361544093E+02    0.27182E-02   -0.10172E-02   108   0.414E-01    0.160E-01
DAV:   4    -0.177357395130E+02    0.41490E-03   -0.11022E-03   112   0.146E-01    0.976E-02
DAV:   5    -0.177356245655E+02    0.11495E-03   -0.17947E-04    76   0.532E-02    0.366E-02
DAV:   6    -0.177356895362E+02   -0.64971E-04   -0.12166E-04    44   0.480E-02
   4 F= -.17735690E+02 E0= -.17737814E+02  d E =-.430161E+00  mag=     0.9993
       N       E                     dE             d eps       ncg     rms          rms(c)
DAV:   1    -0.177381623148E+02   -0.25377E-02   -0.49628E-02    72   0.110E+00    0.623E-02
DAV:   2    -0.177384195125E+02   -0.25720E-03   -0.26460E-03   108   0.262E-01    0.372E-02
DAV:   3    -0.177385335102E+02   -0.11400E-03   -0.15919E-04    54   0.590E-02    0.206E-02
DAV:   4    -0.177386717167E+02   -0.13821E-03   -0.68745E-05    46   0.404E-02    0.116E-02
DAV:   5    -0.177387731697E+02   -0.10145E-03   -0.24257E-05    54   0.282E-02    0.504E-03
DAV:   6    -0.177388814620E+02   -0.10829E-03   -0.15618E-05    42   0.224E-02    0.235E-03
DAV:   7    -0.177389504113E+02   -0.68949E-04   -0.79702E-06    44   0.162E-02
   5 F= -.17738950E+02 E0= -.17740984E+02  d E =-.433422E+00  mag=     0.9995
       N       E                     dE             d eps       ncg     rms          rms(c)
DAV:   1    -0.177790707588E+02   -0.40189E-01   -0.38877E-01    72   0.313E+00    0.250E-01
DAV:   2    -0.177778252342E+02    0.12455E-02   -0.24612E-02    94   0.766E-01    0.122E-01
DAV:   3    -0.177783357739E+02   -0.51054E-03   -0.30167E-03    94   0.274E-01    0.786E-02
DAV:   4    -0.177784819268E+02   -0.14615E-03   -0.23041E-04    86   0.791E-02    0.638E-02
DAV:   5    -0.177784421098E+02    0.39817E-04   -0.49548E-05    54   0.345E-02
   6 F= -.17778442E+02 E0= -.17780395E+02  d E =-.394917E-01  mag=     0.9998
       N       E                     dE             d eps       ncg     rms          rms(c)
DAV:   1    -0.177982854646E+02   -0.19804E-01   -0.89613E-01    72   0.477E+00    0.383E-01
DAV:   2    -0.177954037664E+02    0.28817E-02   -0.56325E-02    94   0.117E+00    0.190E-01
DAV:   3    -0.177969483643E+02   -0.15446E-02   -0.70393E-03    94   0.418E-01    0.126E-01
DAV:   4    -0.177974335262E+02   -0.48516E-03   -0.55241E-04   104   0.119E-01    0.106E-01
DAV:   5    -0.177976377900E+02   -0.20426E-03   -0.58856E-05    50   0.380E-02    0.598E-02
DAV:   6    -0.177980180731E+02   -0.38028E-03   -0.23721E-04    74   0.564E-02    0.158E-02
DAV:   7    -0.177982506964E+02   -0.23262E-03   -0.22771E-05    52   0.241E-02    0.119E-02
DAV:   8    -0.177986325689E+02   -0.38187E-03   -0.34332E-05    50   0.209E-02    0.656E-03
DAV:   9    -0.177990152844E+02   -0.38272E-03   -0.59142E-05    58   0.211E-02    0.547E-03
DAV:  10    -0.177991762872E+02   -0.16100E-03   -0.11229E-05    54   0.117E-02    0.338E-03
DAV:  11    -0.177994212265E+02   -0.24494E-03   -0.32351E-05    56   0.138E-02    0.166E-03
DAV:  12    -0.177994972967E+02   -0.76070E-04   -0.65840E-06    52   0.760E-03
   7 F= -.17799497E+02 E0= -.17801450E+02  d E =-.605469E-01  mag=     1.0001
       N       E                     dE             d eps       ncg     rms          rms(c)
DAV:   1    -0.178016738664E+02   -0.22526E-02   -0.34549E-02    72   0.100E+00    0.560E-02
DAV:   2    -0.178018048521E+02   -0.13099E-03   -0.20529E-03   104   0.228E-01    0.312E-02
DAV:   3    -0.178017860751E+02    0.18777E-04   -0.11851E-04    52   0.560E-02
   8 F= -.17801786E+02 E0= -.17803737E+02  d E =-.228878E-02  mag=     1.0001
       N       E                     dE             d eps       ncg     rms          rms(c)
DAV:   1    -0.178022634043E+02   -0.45855E-03   -0.25372E-02    72   0.859E-01    0.460E-02
DAV:   2    -0.178022914109E+02   -0.28007E-04   -0.15578E-03   104   0.200E-01    0.349E-02
DAV:   3    -0.178022436016E+02    0.47809E-04   -0.10140E-04    50   0.520E-02
   9 F= -.17802244E+02 E0= -.17804193E+02  d E =-.274630E-02  mag=     1.0001
