 vasp.6.1.2 22Jul20 (build Aug  2 2021 21:04:21) gamma-only                      
 executed on             LinuxPGI date 2021.12.29  12:30:17
 running on    8 total cores
 distrk:  each k-point on    8 cores,    1 groups
 distr:  one band on NCORE=   8 cores,    1 groups


--------------------------------------------------------------------------------------------------------


 INCAR:
 POTCAR:    PAW_PBE Al 04Jan2001                  
 -----------------------------------------------------------------------------
|                                                                             |
|           W    W    AA    RRRRR   N    N  II  N    N   GGGG   !!!           |
|           W    W   A  A   R    R  NN   N  II  NN   N  G    G  !!!           |
|           W    W  A    A  R    R  N N  N  II  N N  N  G       !!!           |
|           W WW W  AAAAAA  RRRRR   N  N N  II  N  N N  G  GGG   !            |
|           WW  WW  A    A  R   R   N   NN  II  N   NN  G    G                |
|           W    W  A    A  R    R  N    N  II  N    N   GGGG   !!!           |
|                                                                             |
|     You use a magnetic or noncollinear calculation, but did not specify     |
|     the initial magnetic moment with the MAGMOM tag. Note that a            |
|     default of 1 will be used for all atoms. This ferromagnetic setup       |
|     may break the symmetry of the crystal, in particular it may rule        |
|     out finding an antiferromagnetic solution. Thence, we recommend         |
|     setting the initial magnetic moment manually or verifying carefully     |
|     that this magnetic setup is desired.                                    |
|                                                                             |
 -----------------------------------------------------------------------------

 -----------------------------------------------------------------------------
|                                                                             |
|           W    W    AA    RRRRR   N    N  II  N    N   GGGG   !!!           |
|           W    W   A  A   R    R  NN   N  II  NN   N  G    G  !!!           |
|           W    W  A    A  R    R  N N  N  II  N N  N  G       !!!           |
|           W WW W  AAAAAA  RRRRR   N  N N  II  N  N N  G  GGG   !            |
|           WW  WW  A    A  R   R   N   NN  II  N   NN  G    G                |
|           W    W  A    A  R    R  N    N  II  N    N   GGGG   !!!           |
|                                                                             |
|     For optimal performance we recommend to set                             |
|       NCORE = 4 - approx SQRT(number of cores).                             |
|     NCORE specifies how many cores store one orbital (NPAR=cpu/NCORE).      |
|     This setting can greatly improve the performance of VASP for DFT.       |
|     The default, NCORE=1 might be grossly inefficient on modern             |
|     multi-core architectures or massively parallel machines. Do your        |
|     own testing!!!!                                                         |
|     Unfortunately you need to use the default for GW and RPA                |
|     calculations (for HF NCORE is supported but not extensively tested      |
|     yet).                                                                   |
|                                                                             |
 -----------------------------------------------------------------------------

 POTCAR:    PAW_PBE Al 04Jan2001                  
   SHA256 =  17880443556af62b473fe41b62a467bd001ad55d2cabe504a3f22e34d4e9db96 Al/POTCAR             
   COPYR  = (c) Copyright 04Jan2001 Georg Kresse                                                    
   COPYR  = This file is part of the software VASP. Any use, copying, and all other rights are regul
   COPYR  = If you do not have a valid VASP license, you may not use, copy or distribute this file. 
   VRHFIN =Al: s2p1                                                                                 
   LEXCH  = PE                                                                                      
   EATOM  =    53.5387 eV,    3.9350 Ry                                                             
                                                                                                    
   TITEL  = PAW_PBE Al 04Jan2001                                                                    
   LULTRA =        F    use ultrasoft PP ?                                                          
   IUNSCR =        1    unscreen: 0-lin 1-nonlin 2-no                                               
   RPACOR =    1.500    partial core radius                                                         
   POMASS =   26.981; ZVAL   =    3.000    mass and valenz                                          
   RCORE  =    1.900    outmost cutoff radius                                                       
   RWIGS  =    2.650; RWIGS  =    1.402    wigner-seitz radius (au A)                               
   ENMAX  =  240.300; ENMIN  =  180.225 eV                                                          
   ICORE  =        2    local potential                                                             
   LCOR   =        T    correct aug charges                                                         
   LPAW   =        T    paw PP                                                                      
   EAUG   =  291.052                                                                                
   DEXC   =    0.000                                                                                
   RMAX   =    1.939    core radius for proj-oper                                                   
   RAUG   =    1.300    factor for augmentation sphere                                              
   RDEP   =    1.966    radius for radial grids                                                     
   RDEPT  =    1.856    core radius for aug-charge                                                  
                                                                                                    
   Atomic configuration                                                                             
    6 entries                                                                                       
     n  l   j            E        occ.                                                              
     1  0  0.50     -1511.1048   2.0000                                                             
     2  0  0.50      -108.1629   2.0000                                                             
     2  1  1.50       -69.6402   6.0000                                                             
     3  0  0.50        -7.7528   2.0000                                                             
     3  1  1.50        -2.7121   1.0000                                                             
     3  2  2.50        -2.7212   0.0000                                                             
   Description                                                                                      
     l       E           TYP  RCUT    TYP  RCUT                                                     
     0     -7.7528455     23  1.900                                                                 
     0     -3.3096929     23  1.900                                                                 
     1     -2.7120682     23  1.900                                                                 
     1     13.6058260     23  1.900                                                                 
     2     -2.7211652      7  1.900                                                                 
  local pseudopotential read in
  partial core-charges read in
  partial kinetic energy density read in
  atomic valenz-charges read in
  non local Contribution for L=            0  read in
    real space projection operators read in
  non local Contribution for L=            0  read in
    real space projection operators read in
  non local Contribution for L=            1  read in
    real space projection operators read in
  non local Contribution for L=            1  read in
    real space projection operators read in
    PAW grid and wavefunctions read in
 
   number of l-projection  operators is LMAX  =            4
   number of lm-projection operators is LMMAX =            8
 
  PAW_PBE Al 04Jan2001                  :
 energy of atom  1       EATOM=  -53.5387
 kinetic energy error for atom=    0.0005 (will be added to EATOM!!)
 
 
 POSCAR: Al
  positions in cartesian coordinates
  No initial velocities read in
 exchange correlation table for  LEXCH =        8
   RHO(1)=    0.500       N(1)  =     2000
   RHO(2)=  100.500       N(2)  =     4000
 


--------------------------------------------------------------------------------------------------------


 ion  position               nearest neighbor table
   1  0.506  0.579  0.569-   3 2.74   7 2.74   6 2.77   2 2.77
   2  0.428  0.538  0.474-   4 2.71   1 2.77   3 2.78   5 2.81   6 2.84
   3  0.543  0.581  0.444-   7 2.72   1 2.74   5 2.78   2 2.78
   4  0.404  0.413  0.467-   6 2.71   2 2.71   5 2.74
   5  0.518  0.453  0.432-   4 2.74   7 2.77   3 2.78   2 2.81   6 2.82
   6  0.481  0.451  0.561-   4 2.71   1 2.77   7 2.77   5 2.82   2 2.84
   7  0.594  0.498  0.527-   3 2.72   1 2.74   6 2.77   5 2.77
 

IMPORTANT INFORMATION: All symmetrisations will be switched off!
NOSYMM: (Re-)initialisation of all symmetry stuff for point group C_1.


----------------------------------------------------------------------------------------

                                     Primitive cell                                     

  volume of cell :    9746.9110

  direct lattice vectors                    reciprocal lattice vectors
    22.037481164  0.000000000  0.000000000     0.045377237  0.000000000  0.000000000
     0.000000000 21.218110377  0.000000000     0.000000000  0.047129550  0.000000000
     0.000000000  0.000000000 20.844829229     0.000000000  0.000000000  0.047973528

  length of vectors
    22.037481164 21.218110377 20.844829229     0.045377237  0.047129550  0.047973528

  position of ions in fractional coordinates (direct lattice)
     0.506004948  0.579069036  0.569068946
     0.427726337  0.537862671  0.473605763
     0.543273254  0.581024331  0.443831204
     0.404404574  0.412548138  0.467047124
     0.517690137  0.453497669  0.431735936
     0.480815475  0.451363823  0.561016718
     0.594115290  0.497698791  0.527412941

  ion indices of the primitive-cell ions
   primitive index   ion index
                 1           1
                 2           2
                 3           3
                 4           4
                 5           5
                 6           6
                 7           7

----------------------------------------------------------------------------------------

 
 
 KPOINTS: KPOINTS created by Atomic Simulation Env

Automatic generation of k-mesh.
Space group operators:
 irot       det(A)        alpha          n_x          n_y          n_z        tau_x        tau_y        tau_z
    1     1.000000     0.000001     1.000000     0.000000     0.000000     0.000000     0.000000     0.000000
 
 Subroutine IBZKPT returns following result:
 ===========================================
 
 Found      1 irreducible k-points:
 
 Following reciprocal coordinates:
            Coordinates               Weight
  0.000000  0.000000  0.000000      1.000000
 
 Following cartesian coordinates:
            Coordinates               Weight
  0.000000  0.000000  0.000000      1.000000
 


--------------------------------------------------------------------------------------------------------




 Dimension of arrays:
   k-points           NKPTS =      1   k-points in BZ     NKDIM =      1   number of bands    NBANDS=     18
   number of dos      NEDOS =    301   number of ions     NIONS =      7
   non local maximal  LDIM  =      4   non local SUM 2l+1 LMDIM =      8
   total plane-waves  NPLWV = ******
   max r-space proj   IRMAX =      1   max aug-charges    IRDMAX=   5229
   dimension x,y,z NGX =   108 NGY =  108 NGZ =  108
   dimension x,y,z NGXF=   216 NGYF=  216 NGZF=  216
   support grid    NGXF=   216 NGYF=  216 NGZF=  216
   ions per type =               7
   NGX,Y,Z   is equivalent  to a cutoff of   8.15,  8.46,  8.61 a.u.
   NGXF,Y,Z  is equivalent  to a cutoff of  16.29, 16.92, 17.23 a.u.

 SYSTEM =  unknown system                          
 POSCAR =  Al                                      

 Startparameter for this run:
   NWRITE =      2    write-flag & timer
   PREC   = normal    normal or accurate (medium, high low for compatibility)
   ISTART =      0    job   : 0-new  1-cont  2-samecut
   ICHARG =      2    charge: 1-file 2-atom 10-const
   ISPIN  =      2    spin polarized calculation?
   LNONCOLLINEAR =      F non collinear calculations
   LSORBIT =      F    spin-orbit coupling
   INIWAV =      1    electr: 0-lowe 1-rand  2-diag
   LASPH  =      F    aspherical Exc in radial PAW
   METAGGA=      F    non-selfconsistent MetaGGA calc.

 Electronic Relaxation 1
   ENCUT  =  400.0 eV  29.40 Ry    5.42 a.u.  35.94 34.60 33.99*2*pi/ulx,y,z
   ENINI  =  400.0     initial cutoff
   ENAUG  =  291.1 eV  augmentation charge cutoff
   NELM   =     60;   NELMIN=  2; NELMDL=  0     # of ELM steps 
   EDIFF  = 0.1E-03   stopping-criterion for ELM
   LREAL  =      F    real-space projection
   NLSPLINE    = F    spline interpolate recip. space projectors
   LCOMPAT=      F    compatible to vasp.4.4
   GGA_COMPAT  = T    GGA compatible to vasp.4.4-vasp.4.6
   LMAXPAW     = -100 max onsite density
   LMAXMIX     =    2 max onsite mixed and CHGCAR
   VOSKOWN=      0    Vosko Wilk Nusair interpolation
   ROPT   =    0.00000
 Ionic relaxation
   EDIFFG = 0.1E-02   stopping-criterion for IOM
   NSW    =   1000    number of steps for IOM
   NBLOCK =      1;   KBLOCK =   1000    inner block; outer block 
   IBRION =      2    ionic relax: 0-MD 1-quasi-New 2-CG
   NFREE  =      1    steps in history (QN), initial steepest desc. (CG)
   ISIF   =      0    stress and relaxation
   IWAVPR =     11    prediction:  0-non 1-charg 2-wave 3-comb
   ISYM   =      0    0-nonsym 1-usesym 2-fastsym
   LCORR  =      T    Harris-Foulkes like correction to forces

   POTIM  = 0.5000    time-step for ionic-motion
   TEIN   =    0.0    initial temperature
   TEBEG  =    0.0;   TEEND  =   0.0 temperature during run
   SMASS  =  -3.00    Nose mass-parameter (am)
   estimated Nose-frequenzy (Omega)   =  0.10E-29 period in steps = 0.13E+47 mass=  -0.111E-25a.u.
   SCALEE = 1.0000    scale energy and forces
   NPACO  =    256;   APACO  = 16.0  distance and # of slots for P.C.
   PSTRESS=    0.0 pullay stress

  Mass of Ions in am
   POMASS =  26.98
  Ionic Valenz
   ZVAL   =   3.00
  Atomic Wigner-Seitz radii
   RWIGS  =  -1.00
  virtual crystal weights 
   VCA    =   1.00
   NELECT =      21.0000    total number of electrons
   NUPDOWN=      -1.0000    fix difference up-down

 DOS related values:
   EMIN   =  10.00;   EMAX   =-10.00  energy-range for DOS
   EFERMI =   0.00
   ISMEAR =     1;   SIGMA  =   0.20  broadening in eV -4-tet -1-fermi 0-gaus

 Electronic relaxation 2 (details)
   IALGO  =     38    algorithm
   LDIAG  =      T    sub-space diagonalisation (order eigenvalues)
   LSUBROT=      F    optimize rotation matrix (better conditioning)
   TURBO    =      0    0=normal 1=particle mesh
   IRESTART =      0    0=no restart 2=restart with 2 vectors
   NREBOOT  =      0    no. of reboots
   NMIN     =      0    reboot dimension
   EREF     =   0.00    reference energy to select bands
   IMIX   =      4    mixing-type and parameters
     AMIX     =   0.40;   BMIX     =  1.00
     AMIX_MAG =   1.60;   BMIX_MAG =  1.00
     AMIN     =   0.10
     WC   =   100.;   INIMIX=   1;  MIXPRE=   1;  MAXMIX= -45

 Intra band minimization:
   WEIMIN = 0.0010     energy-eigenvalue tresh-hold
   EBREAK =  0.14E-05  absolut break condition
   DEPER  =   0.30     relativ break condition  

   TIME   =   0.40     timestep for ELM

  volume/ion in A,a.u.               =    1392.42      9396.49
  Fermi-wavevector in a.u.,A,eV,Ry     =   0.211442  0.399568  0.608288  0.044708
  Thomas-Fermi vector in A             =   0.980505
 
 Write flags
   LWAVE        =      F    write WAVECAR
   LDOWNSAMPLE  =      F    k-point downsampling of WAVECAR
   LCHARG       =      F    write CHGCAR
   LVTOT        =      F    write LOCPOT, total local potential
   LVHAR        =      F    write LOCPOT, Hartree potential only
   LELF         =      F    write electronic localiz. function (ELF)
   LORBIT       =      0    0 simple, 1 ext, 2 COOP (PROOUT), +10 PAW based schemes


 Dipole corrections
   LMONO  =      F    monopole corrections only (constant potential shift)
   LDIPOL =      F    correct potential (dipole corrections)
   IDIPOL =      0    1-x, 2-y, 3-z, 4-all directions 
   EPSILON=  1.0000000 bulk dielectric constant

 Exchange correlation treatment:
   GGA     =    PE    GGA type
   LEXCH   =     8    internal setting for exchange type
   VOSKOWN=      0    Vosko Wilk Nusair interpolation
   LHFCALC =     F    Hartree Fock is set to
   LHFONE  =     F    Hartree Fock one center treatment
   AEXX    =    0.0000 exact exchange contribution

 Linear response parameters
   LEPSILON=     F    determine dielectric tensor
   LRPA    =     F    only Hartree local field effects (RPA)
   LNABLA  =     F    use nabla operator in PAW spheres
   LVEL    =     F    velocity operator in full k-point grid
   LINTERFAST=   F  fast interpolation
   KINTER  =     0    interpolate to denser k-point grid
   CSHIFT  =0.1000    complex shift for real part using Kramers Kronig
   OMEGAMAX=  -1.0    maximum frequency
   DEG_THRESHOLD= 0.2000000E-02 threshold for treating states as degnerate
   RTIME   =   -0.100 relaxation time in fs
  (WPLASMAI=    0.000 imaginary part of plasma frequency in eV, 0.658/RTIME)
   DFIELD  = 0.0000000 0.0000000 0.0000000 field for delta impulse in time
 
 Orbital magnetization related:
   ORBITALMAG=     F  switch on orbital magnetization
   LCHIMAG   =     F  perturbation theory with respect to B field
   DQ        =  0.001000  dq finite difference perturbation B field
   LLRAUG    =     F  two centre corrections for induced B field



--------------------------------------------------------------------------------------------------------


 conjugate gradient relaxation of ions
 charge density and potential will be updated during run
 spin polarized calculation
 Variant of blocked Davidson
 Davidson routine will perform the subspace rotation
 perform sub-space diagonalisation
    after iterative eigenvector-optimisation
 modified Broyden-mixing scheme, WC =      100.0
 initial mixing is a Kerker type mixing with AMIX =  0.4000 and BMIX =      1.0000
 Hartree-type preconditioning will be used
 using additional bands             7
 reciprocal scheme for non local part
 use partial core corrections
 calculate Harris-corrections to forces 
   (improved forces if not selfconsistent)
 use gradient corrections 
 use of overlap-Matrix (Vanderbilt PP)
 Methfessel and Paxton  Order N= 1 SIGMA  =   0.20


--------------------------------------------------------------------------------------------------------


  energy-cutoff  :      400.00
  volume of cell :     9746.91
      direct lattice vectors                 reciprocal lattice vectors
    22.037481164  0.000000000  0.000000000     0.045377237  0.000000000  0.000000000
     0.000000000 21.218110377  0.000000000     0.000000000  0.047129550  0.000000000
     0.000000000  0.000000000 20.844829229     0.000000000  0.000000000  0.047973528

  length of vectors
    22.037481164 21.218110377 20.844829229     0.045377237  0.047129550  0.047973528


 
 k-points in units of 2pi/SCALE and weight: KPOINTS created by Atomic Simulation Env
   0.00000000  0.00000000  0.00000000       1.000
 
 k-points in reciprocal lattice and weights: KPOINTS created by Atomic Simulation Env
   0.00000000  0.00000000  0.00000000       1.000
 
 position of ions in fractional coordinates (direct lattice) 
   0.50600495  0.57906904  0.56906895
   0.42772634  0.53786267  0.47360576
   0.54327325  0.58102433  0.44383120
   0.40440457  0.41254814  0.46704712
   0.51769014  0.45349767  0.43173594
   0.48081548  0.45136382  0.56101672
   0.59411529  0.49769879  0.52741294
 
 position of ions in cartesian coordinates  (Angst):
  11.15107452 12.28675071 11.86214500
   9.42601109 11.41242953  9.87223125
  11.97237410 12.32823840  9.25158565
   8.91205819  8.75349193  9.73551755
  11.40858665  9.62236361  8.99946186
  10.59596198  9.57708741 11.69429769
  13.09280451 10.56022789 10.99383269
 


--------------------------------------------------------------------------------------------------------


 use parallel FFT for orbitals z direction half grid
 k-point   1 :   0.0000 0.0000 0.0000  plane waves:   88541

 maximum and minimum number of plane-waves per node :     11073    11063

 maximum number of plane-waves:     88541
 maximum index in each direction: 
   IXMAX=   35   IYMAX=   34   IZMAX=   33
   IXMIN=  -35   IYMIN=  -34   IZMIN=    0


 parallel 3D FFT for wavefunctions:
    minimum data exchange during FFTs selected (reduces bandwidth)
 parallel 3D FFT for charge:
    minimum data exchange during FFTs selected (reduces bandwidth)


 total amount of memory used by VASP MPI-rank0   188921. kBytes
=======================================================================

   base      :      30000. kBytes
   nonl-proj :       1948. kBytes
   fftplans  :      46127. kBytes
   grid      :     104464. kBytes
   one-center:          3. kBytes
   wavefun   :       6379. kBytes
 
     INWAV:  cpu time    0.0000: real time    0.0000
 Broyden mixing: mesh for mixing (old mesh)
   NGX = 71   NGY = 69   NGZ = 67
  (NGX  =216   NGY  =216   NGZ  =216)
  gives a total of 328233 points

 initial charge density was supplied:
 charge density of overlapping atoms calculated
 number of electron      21.0000000 magnetization       7.0000000
 keeping initial charge density in first step


--------------------------------------------------------------------------------------------------------


 Maximum index for augmentation-charges           640 (set IRDMAX)


--------------------------------------------------------------------------------------------------------


 First call to EWALD:  gamma=   0.083
 Maximum number of real-space cells 3x 3x 3
 Maximum number of reciprocal cells 3x 3x 3

    FEWALD:  cpu time    0.0007: real time    0.0007


--------------------------------------- Iteration      1(   1)  ---------------------------------------


    POTLOK:  cpu time    2.8221: real time    2.8308
    SETDIJ:  cpu time    0.0200: real time    0.0200
     EDDAV:  cpu time    1.6826: real time    1.6851
       DOS:  cpu time    0.0006: real time    0.0006
    --------------------------------------------
      LOOP:  cpu time    4.5253: real time    4.5366

 eigenvalue-minimisations  :   104
 total energy-change (2. order) : 0.5097483E+02  (-0.3204897E+03)
 number of electron      21.0000000 magnetization       7.0000000
 augmentation part       21.0000000 magnetization       7.0000000

 Free energy of the ion-electron system (eV)
  ---------------------------------------------------
  alpha Z        PSCENC =        -0.01688552
  Ewald energy   TEWEN  =       469.49321008
  -Hartree energ DENC   =      -716.94555335
  -exchange      EXHF   =         0.00000000
  -V(xc)+E(xc)   XCENC  =      -190.17659889
  PAW double counting   =       462.65713654     -238.99141827
  entropy T*S    EENTRO =         0.01217127
  eigenvalues    EBANDS =      -109.82431606
  atomic energy  EATOM  =       374.76708025
  Solvation  Ediel_sol  =         0.00000000
  ---------------------------------------------------
  free energy    TOTEN  =        50.97482604 eV

  energy without entropy =       50.96265478  energy(sigma->0) =       50.97076896


--------------------------------------------------------------------------------------------------------




--------------------------------------- Iteration      1(   2)  ---------------------------------------


     EDDAV:  cpu time    1.6928: real time    1.6961
       DOS:  cpu time    0.0008: real time    0.0008
    --------------------------------------------
      LOOP:  cpu time    1.6937: real time    1.7006

 eigenvalue-minimisations  :   104
 total energy-change (2. order) :-0.5871879E+02  (-0.5832945E+02)
 number of electron      21.0000000 magnetization       7.0000000
 augmentation part       21.0000000 magnetization       7.0000000

 Free energy of the ion-electron system (eV)
  ---------------------------------------------------
  alpha Z        PSCENC =        -0.01688552
  Ewald energy   TEWEN  =       469.49321008
  -Hartree energ DENC   =      -716.94555335
  -exchange      EXHF   =         0.00000000
  -V(xc)+E(xc)   XCENC  =      -190.17659889
  PAW double counting   =       462.65713654     -238.99141827
  entropy T*S    EENTRO =         0.01164792
  eigenvalues    EBANDS =      -168.54258371
  atomic energy  EATOM  =       374.76708025
  Solvation  Ediel_sol  =         0.00000000
  ---------------------------------------------------
  free energy    TOTEN  =        -7.74396496 eV

  energy without entropy =       -7.75561287  energy(sigma->0) =       -7.74784760


--------------------------------------------------------------------------------------------------------




--------------------------------------- Iteration      1(   3)  ---------------------------------------


     EDDAV:  cpu time    1.5563: real time    1.5626
       DOS:  cpu time    0.0004: real time    0.0004
    --------------------------------------------
      LOOP:  cpu time    1.5566: real time    1.5592

 eigenvalue-minimisations  :    94
 total energy-change (2. order) :-0.1024072E+02  (-0.1018222E+02)
 number of electron      21.0000000 magnetization       7.0000000
 augmentation part       21.0000000 magnetization       7.0000000

 Free energy of the ion-electron system (eV)
  ---------------------------------------------------
  alpha Z        PSCENC =        -0.01688552
  Ewald energy   TEWEN  =       469.49321008
  -Hartree energ DENC   =      -716.94555335
  -exchange      EXHF   =         0.00000000
  -V(xc)+E(xc)   XCENC  =      -190.17659889
  PAW double counting   =       462.65713654     -238.99141827
  entropy T*S    EENTRO =         0.02329402
  eigenvalues    EBANDS =      -178.79495267
  atomic energy  EATOM  =       374.76708025
  Solvation  Ediel_sol  =         0.00000000
  ---------------------------------------------------
  free energy    TOTEN  =       -17.98468781 eV

  energy without entropy =      -18.00798183  energy(sigma->0) =      -17.99245248


--------------------------------------------------------------------------------------------------------




--------------------------------------- Iteration      1(   4)  ---------------------------------------


     EDDAV:  cpu time    1.6238: real time    1.6267
       DOS:  cpu time    0.0008: real time    0.0008
    --------------------------------------------
      LOOP:  cpu time    1.6246: real time    1.6275

 eigenvalue-minimisations  :   100
 total energy-change (2. order) :-0.3045681E+00  (-0.3039883E+00)
 number of electron      21.0000000 magnetization       7.0000000
 augmentation part       21.0000000 magnetization       7.0000000

 Free energy of the ion-electron system (eV)
  ---------------------------------------------------
  alpha Z        PSCENC =        -0.01688552
  Ewald energy   TEWEN  =       469.49321008
  -Hartree energ DENC   =      -716.94555335
  -exchange      EXHF   =         0.00000000
  -V(xc)+E(xc)   XCENC  =      -190.17659889
  PAW double counting   =       462.65713654     -238.99141827
  entropy T*S    EENTRO =         0.02321610
  eigenvalues    EBANDS =      -179.09944290
  atomic energy  EATOM  =       374.76708025
  Solvation  Ediel_sol  =         0.00000000
  ---------------------------------------------------
  free energy    TOTEN  =       -18.28925596 eV

  energy without entropy =      -18.31247206  energy(sigma->0) =      -18.29699466


--------------------------------------------------------------------------------------------------------




--------------------------------------- Iteration      1(   5)  ---------------------------------------


     EDDAV:  cpu time    1.6395: real time    1.6458
       DOS:  cpu time    0.0007: real time    0.0007
    CHARGE:  cpu time    0.3432: real time    0.3437
    MIXING:  cpu time    0.0468: real time    0.0469
    --------------------------------------------
      LOOP:  cpu time    2.0303: real time    2.0371

 eigenvalue-minimisations  :   102
 total energy-change (2. order) :-0.6439077E-02  (-0.6438501E-02)
 number of electron      21.0000001 magnetization       6.2807499
 augmentation part       -0.3701321 magnetization       5.2656554

 Broyden mixing:
  rms(total) = 0.65031E+00    rms(broyden)= 0.65031E+00
  rms(prec ) = 0.77112E+00
  weight for this iteration     100.00

 Free energy of the ion-electron system (eV)
  ---------------------------------------------------
  alpha Z        PSCENC =        -0.01688552
  Ewald energy   TEWEN  =       469.49321008
  -Hartree energ DENC   =      -716.94555335
  -exchange      EXHF   =         0.00000000
  -V(xc)+E(xc)   XCENC  =      -190.17659889
  PAW double counting   =       462.65713654     -238.99141827
  entropy T*S    EENTRO =         0.02325304
  eigenvalues    EBANDS =      -179.10591891
  atomic energy  EATOM  =       374.76708025
  Solvation  Ediel_sol  =         0.00000000
  ---------------------------------------------------
  free energy    TOTEN  =       -18.29569503 eV

  energy without entropy =      -18.31894807  energy(sigma->0) =      -18.30344605


--------------------------------------------------------------------------------------------------------




--------------------------------------- Iteration      1(   6)  ---------------------------------------


    POTLOK:  cpu time    2.8676: real time    2.8714
    SETDIJ:  cpu time    0.0210: real time    0.0211
     EDDAV:  cpu time    1.2873: real time    1.2929
       DOS:  cpu time    0.0004: real time    0.0004
    CHARGE:  cpu time    0.3436: real time    0.3441
    MIXING:  cpu time    0.0487: real time    0.0488
    --------------------------------------------
      LOOP:  cpu time    4.5686: real time    4.5787

 eigenvalue-minimisations  :    72
 total energy-change (2. order) : 0.9946534E+01  (-0.2019743E+01)
 number of electron      21.0000002 magnetization       5.3177404
 augmentation part       -0.3819973 magnetization       4.3611619

 Broyden mixing:
  rms(total) = 0.36049E+00    rms(broyden)= 0.36049E+00
  rms(prec ) = 0.41520E+00
  weight for this iteration     100.00

 eigenvalues of (default mixing * dielectric matrix)
  average eigenvalue GAMMA=   1.1620
  1.1620

 Free energy of the ion-electron system (eV)
  ---------------------------------------------------
  alpha Z        PSCENC =        -0.01688552
  Ewald energy   TEWEN  =       469.49321008
  -Hartree energ DENC   =      -729.77908844
  -exchange      EXHF   =         0.00000000
  -V(xc)+E(xc)   XCENC  =      -183.69376734
  PAW double counting   =       561.62037168     -338.00433961
  entropy T*S    EENTRO =         0.03771947
  eigenvalues    EBANDS =      -162.77346136
  atomic energy  EATOM  =       374.76708025
  Solvation  Ediel_sol  =         0.00000000
  ---------------------------------------------------
  free energy    TOTEN  =        -8.34916079 eV

  energy without entropy =       -8.38688025  energy(sigma->0) =       -8.36173394


--------------------------------------------------------------------------------------------------------




--------------------------------------- Iteration      1(   7)  ---------------------------------------


    POTLOK:  cpu time    2.8497: real time    2.8541
    SETDIJ:  cpu time    0.0209: real time    0.0209
     EDDAV:  cpu time    1.3096: real time    1.3115
       DOS:  cpu time    0.0004: real time    0.0004
    CHARGE:  cpu time    0.3385: real time    0.3388
    MIXING:  cpu time    0.0540: real time    0.0541
    --------------------------------------------
      LOOP:  cpu time    4.5730: real time    4.5797

 eigenvalue-minimisations  :    74
 total energy-change (2. order) : 0.2865764E+01  (-0.4036629E+00)
 number of electron      21.0000002 magnetization       4.7135575
 augmentation part       -0.3770504 magnetization       3.8460345

 Broyden mixing:
  rms(total) = 0.19883E+00    rms(broyden)= 0.19883E+00
  rms(prec ) = 0.21354E+00
  weight for this iteration     100.00

 eigenvalues of (default mixing * dielectric matrix)
  average eigenvalue GAMMA=   1.2409
  0.7910  1.6908

 Free energy of the ion-electron system (eV)
  ---------------------------------------------------
  alpha Z        PSCENC =        -0.01688552
  Ewald energy   TEWEN  =       469.49321008
  -Hartree energ DENC   =      -742.15011965
  -exchange      EXHF   =         0.00000000
  -V(xc)+E(xc)   XCENC  =      -180.83830024
  PAW double counting   =       642.19601716     -418.64950648
  entropy T*S    EENTRO =         0.05128806
  eigenvalues    EBANDS =      -150.33618029
  atomic energy  EATOM  =       374.76708025
  Solvation  Ediel_sol  =         0.00000000
  ---------------------------------------------------
  free energy    TOTEN  =        -5.48339663 eV

  energy without entropy =       -5.53468470  energy(sigma->0) =       -5.50049265


--------------------------------------------------------------------------------------------------------




--------------------------------------- Iteration      1(   8)  ---------------------------------------


    POTLOK:  cpu time    2.8599: real time    2.8675
    SETDIJ:  cpu time    0.0206: real time    0.0206
     EDDAV:  cpu time    1.4800: real time    1.4821
       DOS:  cpu time    0.0006: real time    0.0006
    CHARGE:  cpu time    0.3362: real time    0.3366
    MIXING:  cpu time    0.0576: real time    0.0577
    --------------------------------------------
      LOOP:  cpu time    4.7550: real time    4.7651

 eigenvalue-minimisations  :    88
 total energy-change (2. order) :-0.2510370E+01  (-0.1104814E+00)
 number of electron      21.0000002 magnetization       4.0393825
 augmentation part       -0.3746581 magnetization       3.0740447

 Broyden mixing:
  rms(total) = 0.14366E+00    rms(broyden)= 0.14366E+00
  rms(prec ) = 0.15418E+00
  weight for this iteration     100.00

 eigenvalues of (default mixing * dielectric matrix)
  average eigenvalue GAMMA=   1.1793
  1.4417  1.4417  0.6546

 Free energy of the ion-electron system (eV)
  ---------------------------------------------------
  alpha Z        PSCENC =        -0.01688552
  Ewald energy   TEWEN  =       469.49321008
  -Hartree energ DENC   =      -745.47642563
  -exchange      EXHF   =         0.00000000
  -V(xc)+E(xc)   XCENC  =      -182.55148124
  PAW double counting   =       670.39079748     -446.85765305
  entropy T*S    EENTRO =         0.02545636
  eigenvalues    EBANDS =      -147.76786491
  atomic energy  EATOM  =       374.76708025
  Solvation  Ediel_sol  =         0.00000000
  ---------------------------------------------------
  free energy    TOTEN  =        -7.99376618 eV

  energy without entropy =       -8.01922254  energy(sigma->0) =       -8.00225163


--------------------------------------------------------------------------------------------------------




--------------------------------------- Iteration      1(   9)  ---------------------------------------


    POTLOK:  cpu time    2.8709: real time    2.8772
    SETDIJ:  cpu time    0.0201: real time    0.0201
     EDDAV:  cpu time    1.3380: real time    1.3396
       DOS:  cpu time    0.0004: real time    0.0005
    CHARGE:  cpu time    0.3349: real time    0.3370
    MIXING:  cpu time    0.0633: real time    0.0635
    --------------------------------------------
      LOOP:  cpu time    4.6276: real time    4.6378

 eigenvalue-minimisations  :    76
 total energy-change (2. order) :-0.3189047E+01  (-0.1361776E+00)
 number of electron      21.0000002 magnetization       3.4479475
 augmentation part       -0.3679773 magnetization       2.4435037

 Broyden mixing:
  rms(total) = 0.99510E-01    rms(broyden)= 0.99510E-01
  rms(prec ) = 0.10560E+00
  weight for this iteration     100.00

 eigenvalues of (default mixing * dielectric matrix)
  average eigenvalue GAMMA=   1.2615
  1.7978  1.7978  0.8487  0.6016

 Free energy of the ion-electron system (eV)
  ---------------------------------------------------
  alpha Z        PSCENC =        -0.01688552
  Ewald energy   TEWEN  =       469.49321008
  -Hartree energ DENC   =      -747.83745806
  -exchange      EXHF   =         0.00000000
  -V(xc)+E(xc)   XCENC  =      -184.80913651
  PAW double counting   =       688.98071127     -465.44215506
  entropy T*S    EENTRO =         0.01967280
  eigenvalues    EBANDS =      -146.33785281
  atomic energy  EATOM  =       374.76708025
  Solvation  Ediel_sol  =         0.00000000
  ---------------------------------------------------
  free energy    TOTEN  =       -11.18281356 eV

  energy without entropy =      -11.20248636  energy(sigma->0) =      -11.18937116


--------------------------------------------------------------------------------------------------------




--------------------------------------- Iteration      1(  10)  ---------------------------------------


    POTLOK:  cpu time    2.8540: real time    2.8594
    SETDIJ:  cpu time    0.0203: real time    0.0203
     EDDAV:  cpu time    1.4589: real time    1.4627
       DOS:  cpu time    0.0004: real time    0.0004
    CHARGE:  cpu time    0.3399: real time    0.3404
    MIXING:  cpu time    0.0669: real time    0.0669
    --------------------------------------------
      LOOP:  cpu time    4.7403: real time    4.7501

 eigenvalue-minimisations  :    86
 total energy-change (2. order) :-0.2181956E+01  (-0.8995477E-01)
 number of electron      21.0000002 magnetization       2.8999823
 augmentation part       -0.3643884 magnetization       1.7978859

 Broyden mixing:
  rms(total) = 0.70724E-01    rms(broyden)= 0.70724E-01
  rms(prec ) = 0.74889E-01
  weight for this iteration     100.00

 eigenvalues of (default mixing * dielectric matrix)
  average eigenvalue GAMMA=   1.3890
  2.2342  2.2342  1.1057  0.7678  0.6030

 Free energy of the ion-electron system (eV)
  ---------------------------------------------------
  alpha Z        PSCENC =        -0.01688552
  Ewald energy   TEWEN  =       469.49321008
  -Hartree energ DENC   =      -749.53187725
  -exchange      EXHF   =         0.00000000
  -V(xc)+E(xc)   XCENC  =      -186.36083124
  PAW double counting   =       706.75372623     -483.19917762
  entropy T*S    EENTRO =         0.03163631
  eigenvalues    EBANDS =      -145.30165051
  atomic energy  EATOM  =       374.76708025
  Solvation  Ediel_sol  =         0.00000000
  ---------------------------------------------------
  free energy    TOTEN  =       -13.36476927 eV

  energy without entropy =      -13.39640558  energy(sigma->0) =      -13.37531471


--------------------------------------------------------------------------------------------------------




--------------------------------------- Iteration      1(  11)  ---------------------------------------


    POTLOK:  cpu time    2.8584: real time    2.8642
    SETDIJ:  cpu time    0.0203: real time    0.0204
     EDDAV:  cpu time    1.3161: real time    1.3196
       DOS:  cpu time    0.0004: real time    0.0004
    CHARGE:  cpu time    0.3393: real time    0.3398
    MIXING:  cpu time    0.0728: real time    0.0729
    --------------------------------------------
      LOOP:  cpu time    4.6073: real time    4.6173

 eigenvalue-minimisations  :    74
 total energy-change (2. order) :-0.1737774E+01  (-0.6894648E-01)
 number of electron      21.0000002 magnetization       2.4457993
 augmentation part       -0.3627191 magnetization       1.2681571

 Broyden mixing:
  rms(total) = 0.47764E-01    rms(broyden)= 0.47764E-01
  rms(prec ) = 0.51304E-01
  weight for this iteration     100.00

 eigenvalues of (default mixing * dielectric matrix)
  average eigenvalue GAMMA=   1.5097
  2.6932  2.6932  1.4083  0.9031  0.7473  0.6129

 Free energy of the ion-electron system (eV)
  ---------------------------------------------------
  alpha Z        PSCENC =        -0.01688552
  Ewald energy   TEWEN  =       469.49321008
  -Hartree energ DENC   =      -749.99051405
  -exchange      EXHF   =         0.00000000
  -V(xc)+E(xc)   XCENC  =      -187.67853862
  PAW double counting   =       718.25986865     -494.67786312
  entropy T*S    EENTRO =         0.03941584
  eigenvalues    EBANDS =      -145.29831693
  atomic energy  EATOM  =       374.76708025
  Solvation  Ediel_sol  =         0.00000000
  ---------------------------------------------------
  free energy    TOTEN  =       -15.10254341 eV

  energy without entropy =      -15.14195926  energy(sigma->0) =      -15.11568203


--------------------------------------------------------------------------------------------------------




--------------------------------------- Iteration      1(  12)  ---------------------------------------


    POTLOK:  cpu time    2.8726: real time    2.8781
    SETDIJ:  cpu time    0.0203: real time    0.0203
     EDDAV:  cpu time    1.3294: real time    1.3311
       DOS:  cpu time    0.0004: real time    0.0004
    CHARGE:  cpu time    0.3378: real time    0.3382
    MIXING:  cpu time    0.0773: real time    0.0774
    --------------------------------------------
      LOOP:  cpu time    4.6379: real time    4.6456

 eigenvalue-minimisations  :    76
 total energy-change (2. order) :-0.1026283E+01  (-0.3493724E-01)
 number of electron      21.0000002 magnetization       2.0126733
 augmentation part       -0.3625758 magnetization       0.8054949

 Broyden mixing:
  rms(total) = 0.31435E-01    rms(broyden)= 0.31435E-01
  rms(prec ) = 0.33492E-01
  weight for this iteration     100.00

 eigenvalues of (default mixing * dielectric matrix)
  average eigenvalue GAMMA=   1.5904
  3.0400  3.0400  1.7195  1.1399  0.8985  0.6846  0.6101

 Free energy of the ion-electron system (eV)
  ---------------------------------------------------
  alpha Z        PSCENC =        -0.01688552
  Ewald energy   TEWEN  =       469.49321008
  -Hartree energ DENC   =      -749.42179640
  -exchange      EXHF   =         0.00000000
  -V(xc)+E(xc)   XCENC  =      -188.52504027
  PAW double counting   =       720.80044665     -497.19505698
  entropy T*S    EENTRO =         0.04174416
  eigenvalues    EBANDS =      -146.07252859
  atomic energy  EATOM  =       374.76708025
  Solvation  Ediel_sol  =         0.00000000
  ---------------------------------------------------
  free energy    TOTEN  =       -16.12882661 eV

  energy without entropy =      -16.17057078  energy(sigma->0) =      -16.14274133


--------------------------------------------------------------------------------------------------------




--------------------------------------- Iteration      1(  13)  ---------------------------------------


    POTLOK:  cpu time    2.8664: real time    2.8700
    SETDIJ:  cpu time    0.0205: real time    0.0205
     EDDAV:  cpu time    1.3350: real time    1.3383
       DOS:  cpu time    0.0004: real time    0.0004
    CHARGE:  cpu time    0.3362: real time    0.3366
    MIXING:  cpu time    0.0843: real time    0.0844
    --------------------------------------------
      LOOP:  cpu time    4.6427: real time    4.6503

 eigenvalue-minimisations  :    76
 total energy-change (2. order) :-0.4025901E+00  (-0.1095336E-01)
 number of electron      21.0000002 magnetization       1.7121047
 augmentation part       -0.3629671 magnetization       0.4894373

 Broyden mixing:
  rms(total) = 0.20240E-01    rms(broyden)= 0.20240E-01
  rms(prec ) = 0.21488E-01
  weight for this iteration     100.00

 eigenvalues of (default mixing * dielectric matrix)
  average eigenvalue GAMMA=   1.6348
  3.8776  2.4354  2.4354  1.0935  1.0935  0.8727  0.6559  0.6144

 Free energy of the ion-electron system (eV)
  ---------------------------------------------------
  alpha Z        PSCENC =        -0.01688552
  Ewald energy   TEWEN  =       469.49321008
  -Hartree energ DENC   =      -749.05927000
  -exchange      EXHF   =         0.00000000
  -V(xc)+E(xc)   XCENC  =      -188.88113543
  PAW double counting   =       721.69443390     -498.07867116
  entropy T*S    EENTRO =         0.04306187
  eigenvalues    EBANDS =      -146.49324068
  atomic energy  EATOM  =       374.76708025
  Solvation  Ediel_sol  =         0.00000000
  ---------------------------------------------------
  free energy    TOTEN  =       -16.53141669 eV

  energy without entropy =      -16.57447856  energy(sigma->0) =      -16.54577065


--------------------------------------------------------------------------------------------------------




--------------------------------------- Iteration      1(  14)  ---------------------------------------


    POTLOK:  cpu time    2.8582: real time    2.8662
    SETDIJ:  cpu time    0.0203: real time    0.0203
     EDDAV:  cpu time    1.2876: real time    1.2896
       DOS:  cpu time    0.0005: real time    0.0005
    CHARGE:  cpu time    0.3403: real time    0.3406
    MIXING:  cpu time    0.0947: real time    0.0948
    --------------------------------------------
      LOOP:  cpu time    4.6016: real time    4.6120

 eigenvalue-minimisations  :    72
 total energy-change (2. order) :-0.3225742E+00  (-0.2772645E-02)
 number of electron      21.0000002 magnetization       1.4744018
 augmentation part       -0.3631558 magnetization       0.2536229

 Broyden mixing:
  rms(total) = 0.12471E-01    rms(broyden)= 0.12471E-01
  rms(prec ) = 0.13663E-01
  weight for this iteration     100.00

 eigenvalues of (default mixing * dielectric matrix)
  average eigenvalue GAMMA=   1.7489
  5.0301  2.5587  2.5587  1.4716  1.0448  1.0448  0.7638  0.6154  0.6518

 Free energy of the ion-electron system (eV)
  ---------------------------------------------------
  alpha Z        PSCENC =        -0.01688552
  Ewald energy   TEWEN  =       469.49321008
  -Hartree energ DENC   =      -748.91648514
  -exchange      EXHF   =         0.00000000
  -V(xc)+E(xc)   XCENC  =      -189.20245927
  PAW double counting   =       719.13344019     -495.52036874
  entropy T*S    EENTRO =         0.04320839
  eigenvalues    EBANDS =      -146.63473118
  atomic energy  EATOM  =       374.76708025
  Solvation  Ediel_sol  =         0.00000000
  ---------------------------------------------------
  free energy    TOTEN  =       -16.85399093 eV

  energy without entropy =      -16.89719932  energy(sigma->0) =      -16.86839373


--------------------------------------------------------------------------------------------------------




--------------------------------------- Iteration      1(  15)  ---------------------------------------


    POTLOK:  cpu time    2.8694: real time    2.8732
    SETDIJ:  cpu time    0.0203: real time    0.0203
     EDDAV:  cpu time    1.3275: real time    1.3293
       DOS:  cpu time    0.0005: real time    0.0005
    CHARGE:  cpu time    0.3400: real time    0.3404
    MIXING:  cpu time    0.0965: real time    0.0966
    --------------------------------------------
      LOOP:  cpu time    4.6542: real time    4.6604

 eigenvalue-minimisations  :    76
 total energy-change (2. order) :-0.2847972E+00  (-0.1918054E-02)
 number of electron      21.0000002 magnetization       1.3706877
 augmentation part       -0.3635015 magnetization       0.1537618

 Broyden mixing:
  rms(total) = 0.68544E-02    rms(broyden)= 0.68544E-02
  rms(prec ) = 0.76611E-02
  weight for this iteration     100.00

 eigenvalues of (default mixing * dielectric matrix)
  average eigenvalue GAMMA=   1.8321
  6.1564  2.6918  2.6918  1.8706  1.0460  1.0460  0.8808  0.6884  0.6245  0.6245

 Free energy of the ion-electron system (eV)
  ---------------------------------------------------
  alpha Z        PSCENC =        -0.01688552
  Ewald energy   TEWEN  =       469.49321008
  -Hartree energ DENC   =      -748.47622956
  -exchange      EXHF   =         0.00000000
  -V(xc)+E(xc)   XCENC  =      -189.50485749
  PAW double counting   =       713.68495369     -490.07479247
  entropy T*S    EENTRO =         0.04316061
  eigenvalues    EBANDS =      -147.05442774
  atomic energy  EATOM  =       374.76708025
  Solvation  Ediel_sol  =         0.00000000
  ---------------------------------------------------
  free energy    TOTEN  =       -17.13878816 eV

  energy without entropy =      -17.18194877  energy(sigma->0) =      -17.15317503


--------------------------------------------------------------------------------------------------------




--------------------------------------- Iteration      1(  16)  ---------------------------------------


    POTLOK:  cpu time    2.8653: real time    2.8727
    SETDIJ:  cpu time    0.0200: real time    0.0201
     EDDAV:  cpu time    1.3994: real time    1.4013
       DOS:  cpu time    0.0005: real time    0.0005
    CHARGE:  cpu time    0.3357: real time    0.3363
    MIXING:  cpu time    0.1048: real time    0.1049
    --------------------------------------------
      LOOP:  cpu time    4.7257: real time    4.7357

 eigenvalue-minimisations  :    82
 total energy-change (2. order) :-0.7968466E-01  (-0.3816835E-03)
 number of electron      21.0000002 magnetization       1.3026401
 augmentation part       -0.3635406 magnetization       0.0892440

 Broyden mixing:
  rms(total) = 0.42058E-02    rms(broyden)= 0.42058E-02
  rms(prec ) = 0.49872E-02
  weight for this iteration     100.00

 eigenvalues of (default mixing * dielectric matrix)
  average eigenvalue GAMMA=   1.8474
  6.6883  2.8338  2.8338  1.9291  1.0926  1.0926  1.1189  0.8340  0.6667  0.6155
  0.6155

 Free energy of the ion-electron system (eV)
  ---------------------------------------------------
  alpha Z        PSCENC =        -0.01688552
  Ewald energy   TEWEN  =       469.49321008
  -Hartree energ DENC   =      -748.30810795
  -exchange      EXHF   =         0.00000000
  -V(xc)+E(xc)   XCENC  =      -189.58883500
  PAW double counting   =       711.87007687     -488.26187130
  entropy T*S    EENTRO =         0.04305108
  eigenvalues    EBANDS =      -147.21619133
  atomic energy  EATOM  =       374.76708025
  Solvation  Ediel_sol  =         0.00000000
  ---------------------------------------------------
  free energy    TOTEN  =       -17.21847281 eV

  energy without entropy =      -17.26152389  energy(sigma->0) =      -17.23282317


--------------------------------------------------------------------------------------------------------




--------------------------------------- Iteration      1(  17)  ---------------------------------------


    POTLOK:  cpu time    2.8665: real time    2.8713
    SETDIJ:  cpu time    0.0204: real time    0.0205
     EDDAV:  cpu time    1.3079: real time    1.3112
       DOS:  cpu time    0.0004: real time    0.0004
    CHARGE:  cpu time    0.3419: real time    0.3424
    MIXING:  cpu time    0.1107: real time    0.1110
    --------------------------------------------
      LOOP:  cpu time    4.6478: real time    4.6567

 eigenvalue-minimisations  :    74
 total energy-change (2. order) :-0.4506975E-01  (-0.2045026E-03)
 number of electron      21.0000002 magnetization       1.2517079
 augmentation part       -0.3634884 magnetization       0.0410904

 Broyden mixing:
  rms(total) = 0.24573E-02    rms(broyden)= 0.24573E-02
  rms(prec ) = 0.31159E-02
  weight for this iteration     100.00

 eigenvalues of (default mixing * dielectric matrix)
  average eigenvalue GAMMA=   1.9092
  7.3471  2.9875  2.9875  2.0890  1.7869  1.0430  1.0430  0.9300  0.8059  0.6603
  0.6124  0.6180

 Free energy of the ion-electron system (eV)
  ---------------------------------------------------
  alpha Z        PSCENC =        -0.01688552
  Ewald energy   TEWEN  =       469.49321008
  -Hartree energ DENC   =      -748.22542831
  -exchange      EXHF   =         0.00000000
  -V(xc)+E(xc)   XCENC  =      -189.63552536
  PAW double counting   =       711.83241274     -488.22534124
  entropy T*S    EENTRO =         0.04295417
  eigenvalues    EBANDS =      -147.29601937
  atomic energy  EATOM  =       374.76708025
  Solvation  Ediel_sol  =         0.00000000
  ---------------------------------------------------
  free energy    TOTEN  =       -17.26354256 eV

  energy without entropy =      -17.30649673  energy(sigma->0) =      -17.27786062


--------------------------------------------------------------------------------------------------------




--------------------------------------- Iteration      1(  18)  ---------------------------------------


    POTLOK:  cpu time    2.8313: real time    2.8352
    SETDIJ:  cpu time    0.0201: real time    0.0201
     EDDAV:  cpu time    1.4270: real time    1.4306
       DOS:  cpu time    0.0004: real time    0.0004
    CHARGE:  cpu time    0.3407: real time    0.3410
    MIXING:  cpu time    0.1238: real time    0.1240
    --------------------------------------------
      LOOP:  cpu time    4.7432: real time    4.7513

 eigenvalue-minimisations  :    84
 total energy-change (2. order) :-0.3147617E-01  (-0.1528507E-03)
 number of electron      21.0000002 magnetization       1.2387756
 augmentation part       -0.3635371 magnetization       0.0282131

 Broyden mixing:
  rms(total) = 0.12868E-02    rms(broyden)= 0.12868E-02
  rms(prec ) = 0.18805E-02
  weight for this iteration     100.00

 eigenvalues of (default mixing * dielectric matrix)
  average eigenvalue GAMMA=   1.9089
  7.6235  2.9951  2.8585  2.8585  1.7624  1.1696  1.0350  1.0350  0.8499  0.7406
  0.6451  0.6380  0.6044

 Free energy of the ion-electron system (eV)
  ---------------------------------------------------
  alpha Z        PSCENC =        -0.01688552
  Ewald energy   TEWEN  =       469.49321008
  -Hartree energ DENC   =      -748.08442083
  -exchange      EXHF   =         0.00000000
  -V(xc)+E(xc)   XCENC  =      -189.67311821
  PAW double counting   =       711.93772615     -488.33015842
  entropy T*S    EENTRO =         0.04296083
  eigenvalues    EBANDS =      -147.43141307
  atomic energy  EATOM  =       374.76708025
  Solvation  Ediel_sol  =         0.00000000
  ---------------------------------------------------
  free energy    TOTEN  =       -17.29501873 eV

  energy without entropy =      -17.33797956  energy(sigma->0) =      -17.30933901


--------------------------------------------------------------------------------------------------------




--------------------------------------- Iteration      1(  19)  ---------------------------------------


    POTLOK:  cpu time    2.8243: real time    2.8284
    SETDIJ:  cpu time    0.0204: real time    0.0204
     EDDAV:  cpu time    1.3605: real time    1.3640
       DOS:  cpu time    0.0003: real time    0.0003
    CHARGE:  cpu time    0.3374: real time    0.3378
    MIXING:  cpu time    0.1299: real time    0.1300
    --------------------------------------------
      LOOP:  cpu time    4.6728: real time    4.6810

 eigenvalue-minimisations  :    78
 total energy-change (2. order) :-0.4628380E-02  (-0.1846512E-04)
 number of electron      21.0000002 magnetization       1.2276262
 augmentation part       -0.3635713 magnetization       0.0161061

 Broyden mixing:
  rms(total) = 0.80655E-03    rms(broyden)= 0.80655E-03
  rms(prec ) = 0.12767E-02
  weight for this iteration     100.00

 eigenvalues of (default mixing * dielectric matrix)
  average eigenvalue GAMMA=   1.9050
  7.7293  3.7427  2.7741  2.7741  1.8327  1.1867  1.1867  1.0076  1.0076  0.8383
  0.7067  0.6448  0.6066  0.6321

 Free energy of the ion-electron system (eV)
  ---------------------------------------------------
  alpha Z        PSCENC =        -0.01688552
  Ewald energy   TEWEN  =       469.49321008
  -Hartree energ DENC   =      -747.98609077
  -exchange      EXHF   =         0.00000000
  -V(xc)+E(xc)   XCENC  =      -189.68110310
  PAW double counting   =       712.10024441     -488.49189300
  entropy T*S    EENTRO =         0.04299557
  eigenvalues    EBANDS =      -147.52720504
  atomic energy  EATOM  =       374.76708025
  Solvation  Ediel_sol  =         0.00000000
  ---------------------------------------------------
  free energy    TOTEN  =       -17.29964711 eV

  energy without entropy =      -17.34264269  energy(sigma->0) =      -17.31397897


--------------------------------------------------------------------------------------------------------




--------------------------------------- Iteration      1(  20)  ---------------------------------------


    POTLOK:  cpu time    2.8314: real time    2.8363
    SETDIJ:  cpu time    0.0205: real time    0.0205
     EDDAV:  cpu time    1.3740: real time    1.3757
       DOS:  cpu time    0.0004: real time    0.0022
    CHARGE:  cpu time    0.3386: real time    0.3408
    MIXING:  cpu time    0.1409: real time    0.1411
    --------------------------------------------
      LOOP:  cpu time    4.7058: real time    4.7166

 eigenvalue-minimisations  :    78
 total energy-change (2. order) :-0.2892252E-02  (-0.1453452E-04)
 number of electron      21.0000002 magnetization       1.2188969
 augmentation part       -0.3635932 magnetization       0.0074834

 Broyden mixing:
  rms(total) = 0.56199E-03    rms(broyden)= 0.56199E-03
  rms(prec ) = 0.83194E-03
  weight for this iteration     100.00

 eigenvalues of (default mixing * dielectric matrix)
  average eigenvalue GAMMA=   1.9044
  7.8516  4.1984  2.7198  2.7198  2.0661  1.3674  1.3674  1.0221  1.0221  0.8402
  0.8402  0.6872  0.6286  0.6286  0.6072

 Free energy of the ion-electron system (eV)
  ---------------------------------------------------
  alpha Z        PSCENC =        -0.01688552
  Ewald energy   TEWEN  =       469.49321008
  -Hartree energ DENC   =      -747.90391393
  -exchange      EXHF   =         0.00000000
  -V(xc)+E(xc)   XCENC  =      -189.68607726
  PAW double counting   =       712.34630693     -488.73772760
  entropy T*S    EENTRO =         0.04300097
  eigenvalues    EBANDS =      -147.60753329
  atomic energy  EATOM  =       374.76708025
  Solvation  Ediel_sol  =         0.00000000
  ---------------------------------------------------
  free energy    TOTEN  =       -17.30253937 eV

  energy without entropy =      -17.34554034  energy(sigma->0) =      -17.31687302


--------------------------------------------------------------------------------------------------------




--------------------------------------- Iteration      1(  21)  ---------------------------------------


    POTLOK:  cpu time    2.8194: real time    2.8233
    SETDIJ:  cpu time    0.0204: real time    0.0204
     EDDAV:  cpu time    1.1670: real time    1.1686
       DOS:  cpu time    0.0003: real time    0.0004
    CHARGE:  cpu time    0.3381: real time    0.3386
    MIXING:  cpu time    0.1492: real time    0.1494
    --------------------------------------------
      LOOP:  cpu time    4.4945: real time    4.5007

 eigenvalue-minimisations  :    62
 total energy-change (2. order) :-0.1185700E-02  (-0.4875716E-05)
 number of electron      21.0000002 magnetization       1.2135518
 augmentation part       -0.3636056 magnetization       0.0026539

 Broyden mixing:
  rms(total) = 0.36791E-03    rms(broyden)= 0.36791E-03
  rms(prec ) = 0.54789E-03
  weight for this iteration     100.00

 eigenvalues of (default mixing * dielectric matrix)
  average eigenvalue GAMMA=   1.9200
  7.9273  4.5623  2.7335  2.7335  2.4603  1.6855  1.2158  1.2158  0.9920  0.9920
  0.8629  0.8052  0.6757  0.6264  0.6264  0.6061

 Free energy of the ion-electron system (eV)
  ---------------------------------------------------
  alpha Z        PSCENC =        -0.01688552
  Ewald energy   TEWEN  =       469.49321008
  -Hartree energ DENC   =      -747.85163600
  -exchange      EXHF   =         0.00000000
  -V(xc)+E(xc)   XCENC  =      -189.68904939
  PAW double counting   =       712.36035095     -488.75194467
  entropy T*S    EENTRO =         0.04299075
  eigenvalues    EBANDS =      -147.65784152
  atomic energy  EATOM  =       374.76708025
  Solvation  Ediel_sol  =         0.00000000
  ---------------------------------------------------
  free energy    TOTEN  =       -17.30372507 eV

  energy without entropy =      -17.34671581  energy(sigma->0) =      -17.31805532


--------------------------------------------------------------------------------------------------------




--------------------------------------- Iteration      1(  22)  ---------------------------------------


    POTLOK:  cpu time    2.8038: real time    2.8077
    SETDIJ:  cpu time    0.0202: real time    0.0203
     EDDAV:  cpu time    1.2671: real time    1.2687
       DOS:  cpu time    0.0004: real time    0.0004
    CHARGE:  cpu time    0.3423: real time    0.3428
    MIXING:  cpu time    0.1580: real time    0.1582
    --------------------------------------------
      LOOP:  cpu time    4.5919: real time    4.5982

 eigenvalue-minimisations  :    70
 total energy-change (2. order) :-0.1116478E-02  (-0.4743890E-05)
 number of electron      21.0000002 magnetization       1.2120348
 augmentation part       -0.3636286 magnetization       0.0011067

 Broyden mixing:
  rms(total) = 0.22270E-03    rms(broyden)= 0.22270E-03
  rms(prec ) = 0.31792E-03
  weight for this iteration     100.00

 eigenvalues of (default mixing * dielectric matrix)
  average eigenvalue GAMMA=   1.9615
  7.9555  5.3400  3.0782  2.7626  2.7626  1.8088  1.3302  1.3302  1.0205  1.0205
  0.8569  0.8569  0.7094  0.6669  0.6027  0.6219  0.6219

 Free energy of the ion-electron system (eV)
  ---------------------------------------------------
  alpha Z        PSCENC =        -0.01688552
  Ewald energy   TEWEN  =       469.49321008
  -Hartree energ DENC   =      -747.79801924
  -exchange      EXHF   =         0.00000000
  -V(xc)+E(xc)   XCENC  =      -189.69199126
  PAW double counting   =       712.29623598     -488.68786421
  entropy T*S    EENTRO =         0.04299370
  eigenvalues    EBANDS =      -147.70960131
  atomic energy  EATOM  =       374.76708025
  Solvation  Ediel_sol  =         0.00000000
  ---------------------------------------------------
  free energy    TOTEN  =       -17.30484155 eV

  energy without entropy =      -17.34783524  energy(sigma->0) =      -17.31917278


--------------------------------------------------------------------------------------------------------




--------------------------------------- Iteration      1(  23)  ---------------------------------------


    POTLOK:  cpu time    2.7865: real time    2.8019
    SETDIJ:  cpu time    0.0207: real time    0.0208
     EDDAV:  cpu time    0.9762: real time    0.9775
       DOS:  cpu time    0.0006: real time    0.0006
    CHARGE:  cpu time    0.3347: real time    0.3368
    MIXING:  cpu time    0.1721: real time    0.1723
    --------------------------------------------
      LOOP:  cpu time    4.2908: real time    4.3099

 eigenvalue-minimisations  :    46
 total energy-change (2. order) :-0.4952413E-03  (-0.8572463E-06)
 number of electron      21.0000002 magnetization       1.2113733
 augmentation part       -0.3636360 magnetization       0.0004779

 Broyden mixing:
  rms(total) = 0.13754E-03    rms(broyden)= 0.13754E-03
  rms(prec ) = 0.20422E-03
  weight for this iteration     100.00

 eigenvalues of (default mixing * dielectric matrix)
  average eigenvalue GAMMA=   1.9892
  8.0085  6.0765  3.3455  2.7771  2.7771  1.9874  1.6250  1.1593  1.1593  0.9948
  0.9948  0.8654  0.8350  0.6974  0.6414  0.6414  0.6096  0.6096

 Free energy of the ion-electron system (eV)
  ---------------------------------------------------
  alpha Z        PSCENC =        -0.01688552
  Ewald energy   TEWEN  =       469.49321008
  -Hartree energ DENC   =      -747.77770207
  -exchange      EXHF   =         0.00000000
  -V(xc)+E(xc)   XCENC  =      -189.69311857
  PAW double counting   =       712.24600131     -488.63773478
  entropy T*S    EENTRO =         0.04299335
  eigenvalues    EBANDS =      -147.72918083
  atomic energy  EATOM  =       374.76708025
  Solvation  Ediel_sol  =         0.00000000
  ---------------------------------------------------
  free energy    TOTEN  =       -17.30533679 eV

  energy without entropy =      -17.34833013  energy(sigma->0) =      -17.31966790


--------------------------------------------------------------------------------------------------------




--------------------------------------- Iteration      1(  24)  ---------------------------------------


    POTLOK:  cpu time    2.7951: real time    2.7995
    SETDIJ:  cpu time    0.0202: real time    0.0202
     EDDAV:  cpu time    1.0048: real time    1.0061
       DOS:  cpu time    0.0004: real time    0.0005
    CHARGE:  cpu time    0.3368: real time    0.3391
    MIXING:  cpu time    0.1823: real time    0.1825
    --------------------------------------------
      LOOP:  cpu time    4.3397: real time    4.3479

 eigenvalue-minimisations  :    48
 total energy-change (2. order) :-0.1399508E-03  (-0.2267427E-06)
 number of electron      21.0000002 magnetization       1.2104021
 augmentation part       -0.3636360 magnetization      -0.0004071

 Broyden mixing:
  rms(total) = 0.81455E-04    rms(broyden)= 0.81455E-04
  rms(prec ) = 0.13273E-03
  weight for this iteration     100.00

 eigenvalues of (default mixing * dielectric matrix)
  average eigenvalue GAMMA=   2.0165
  8.1342  6.6416  3.6560  2.7751  2.7751  2.3646  1.7478  1.2091  1.2091  0.9919
  0.9919  0.9853  0.8370  0.8370  0.6819  0.6349  0.6349  0.6028  0.6028

 Free energy of the ion-electron system (eV)
  ---------------------------------------------------
  alpha Z        PSCENC =        -0.01688552
  Ewald energy   TEWEN  =       469.49321008
  -Hartree energ DENC   =      -747.77221237
  -exchange      EXHF   =         0.00000000
  -V(xc)+E(xc)   XCENC  =      -189.69342967
  PAW double counting   =       712.21377385     -488.60559052
  entropy T*S    EENTRO =         0.04299089
  eigenvalues    EBANDS =      -147.73441373
  atomic energy  EATOM  =       374.76708025
  Solvation  Ediel_sol  =         0.00000000
  ---------------------------------------------------
  free energy    TOTEN  =       -17.30547674 eV

  energy without entropy =      -17.34846763  energy(sigma->0) =      -17.31980703


--------------------------------------------------------------------------------------------------------




--------------------------------------- Iteration      1(  25)  ---------------------------------------


    POTLOK:  cpu time    2.7777: real time    2.7881
    SETDIJ:  cpu time    0.0205: real time    0.0205
     EDDAV:  cpu time    0.9573: real time    0.9586
       DOS:  cpu time    0.0006: real time    0.0006
    --------------------------------------------
      LOOP:  cpu time    3.7560: real time    3.7677

 eigenvalue-minimisations  :    44
 total energy-change (2. order) :-0.5212124E-04  (-0.1721770E-06)
 number of electron      21.0000002 magnetization       1.2104021
 augmentation part       -0.3636360 magnetization      -0.0004071

 Free energy of the ion-electron system (eV)
  ---------------------------------------------------
  alpha Z        PSCENC =        -0.01688552
  Ewald energy   TEWEN  =       469.49321008
  -Hartree energ DENC   =      -747.76629528
  -exchange      EXHF   =         0.00000000
  -V(xc)+E(xc)   XCENC  =      -189.69372205
  PAW double counting   =       712.19795719     -488.58980036
  entropy T*S    EENTRO =         0.04299011
  eigenvalues    EBANDS =      -147.74006328
  atomic energy  EATOM  =       374.76708025
  Solvation  Ediel_sol  =         0.00000000
  ---------------------------------------------------
  free energy    TOTEN  =       -17.30552886 eV

  energy without entropy =      -17.34851897  energy(sigma->0) =      -17.31985890


--------------------------------------------------------------------------------------------------------




 average (electrostatic) potential at core
  the test charge radii are     1.0406
  (the norm of the test charge is              1.0000)
       1 -84.6014       2 -84.4691       3 -84.6221       4 -85.0173       5 -84.4662
       6 -84.4673       7 -84.6198
 
 
 
 E-fermi :  -4.4126     XC(G=0):  -0.3669     alpha+bet : -0.1763


 spin component 1

 k-point     1 :       0.0000    0.0000    0.0000
  band No.  band energies     occupation 
      1     -12.0488      1.00000
      2      -9.9023      1.00000
      3      -8.5030      1.00000
      4      -8.4826      1.00000
      5      -7.0988      1.00000
      6      -6.1006      1.00000
      7      -6.0652      1.00000
      8      -4.7967      1.01025
      9      -4.6456      1.03486
     10      -4.6250      1.03042
     11      -4.6219      1.02932
     12      -3.4955     -0.00000
     13      -3.4400     -0.00000
     14      -3.0975     -0.00000
     15      -2.4506     -0.00000
     16      -2.4148     -0.00000
     17      -1.2063     -0.00000
     18      -1.0716     -0.00000

 spin component 2

 k-point     1 :       0.0000    0.0000    0.0000
  band No.  band energies     occupation 
      1     -11.8963      1.00000
      2      -9.6758      1.00000
      3      -8.4026      1.00000
      4      -8.3846      1.00000
      5      -6.7148      1.00000
      6      -5.9987      1.00000
      7      -5.9662      1.00000
      8      -4.7148      1.02715
      9      -4.5461      0.94816
     10      -4.5329      0.92069
     11      -3.8985     -0.00084
     12      -3.3229     -0.00000
     13      -3.2771     -0.00000
     14      -3.0402     -0.00000
     15      -2.3416     -0.00000
     16      -2.3071     -0.00000
     17      -1.1678     -0.00000
     18      -0.7078     -0.00000


--------------------------------------------------------------------------------------------------------


 soft charge-density along one line, spin component            1
         0         1         2         3         4         5         6         7         8         9
 total charge-density along one line
 
 soft charge-density along one line, spin component            2
         0         1         2         3         4         5         6         7         8         9
 total charge-density along one line
 
 pseudopotential strength for first ion, spin component:            1
  8.853  15.107   0.004   0.003   0.002   0.013   0.010   0.005
 15.107  25.781   0.007   0.006   0.003   0.022   0.016   0.008
  0.004   0.007   1.971   0.000   0.000   5.766   0.001   0.001
  0.003   0.006   0.000   1.971   0.000   0.001   5.766   0.000
  0.002   0.003   0.000   0.000   1.971   0.001   0.000   5.766
  0.013   0.022   5.766   0.001   0.001  16.735   0.004   0.003
  0.010   0.016   0.001   5.766   0.000   0.004  16.733   0.000
  0.005   0.008   0.001   0.000   5.766   0.003   0.000  16.733
 pseudopotential strength for first ion, spin component:            2
  8.850  15.102   0.004   0.003   0.001   0.012   0.010   0.005
 15.102  25.771   0.007   0.006   0.003   0.021   0.016   0.008
  0.004   0.007   1.970   0.000   0.000   5.764   0.001   0.001
  0.003   0.006   0.000   1.970  -0.000   0.001   5.763   0.000
  0.001   0.003   0.000  -0.000   1.970   0.001   0.000   5.763
  0.012   0.021   5.764   0.001   0.001  16.726   0.004   0.002
  0.010   0.016   0.001   5.763   0.000   0.004  16.725   0.000
  0.005   0.008   0.001   0.000   5.763   0.002   0.000  16.724
 total augmentation occupancy for first ion, spin component:            1
  2.645  -0.396  -0.252  -0.290   0.056   0.040   0.042  -0.003
 -0.396   0.131   0.137   0.169  -0.048  -0.011  -0.013   0.003
 -0.252   0.137   0.697  -0.090  -0.132  -0.036   0.001   0.005
 -0.290   0.169  -0.090   0.801  -0.037   0.002  -0.040   0.002
  0.056  -0.048  -0.132  -0.037   0.716   0.004   0.001  -0.036
  0.040  -0.011  -0.036   0.002   0.004   0.002   0.000  -0.000
  0.042  -0.013   0.001  -0.040   0.001   0.000   0.002  -0.000
 -0.003   0.003   0.005   0.002  -0.036  -0.000  -0.000   0.002
 total augmentation occupancy for first ion, spin component:            2
  0.104  -0.036   0.004   0.002   0.003   0.001   0.001  -0.000
 -0.036   0.007   0.007   0.006   0.001  -0.001  -0.001   0.000
  0.004   0.007   0.096   0.029   0.042  -0.004  -0.001  -0.001
  0.002   0.006   0.029   0.047   0.034  -0.001  -0.003  -0.001
  0.003   0.001   0.042   0.034   0.052  -0.001  -0.001  -0.003
  0.001  -0.001  -0.004  -0.001  -0.001   0.000   0.000   0.000
  0.001  -0.001  -0.001  -0.003  -0.001   0.000   0.000   0.000
 -0.000   0.000  -0.001  -0.001  -0.003   0.000   0.000   0.000


------------------------ aborting loop because EDIFF is reached ----------------------------------------


    CHARGE:  cpu time    0.3404: real time    0.3426
    FORLOC:  cpu time    0.0593: real time    0.0593
    FORNL :  cpu time    0.2732: real time    0.2736
    FORCOR:  cpu time    2.6837: real time    2.6872
    FORHAR:  cpu time    0.3400: real time    0.3404
    MIXING:  cpu time    0.1929: real time    0.1932
    OFIELD:  cpu time    0.0000: real time    0.0000

 VOLUME and BASIS-vectors are now :
 -----------------------------------------------------------------------------
  energy-cutoff  :      400.00
  volume of cell :     9746.91
      direct lattice vectors                 reciprocal lattice vectors
    22.037481164  0.000000000  0.000000000     0.045377237  0.000000000  0.000000000
     0.000000000 21.218110377  0.000000000     0.000000000  0.047129550  0.000000000
     0.000000000  0.000000000 20.844829229     0.000000000  0.000000000  0.047973528

  length of vectors
    22.037481164 21.218110377 20.844829229     0.045377237  0.047129550  0.047973528


 FORCES acting on ions
    electron-ion (+dipol)            ewald-force                    non-local-force                 convergence-correction
 -----------------------------------------------------------------------------------------------
   0.608E+00 -.443E+02 -.451E+02   -.139E+01 0.419E+02 0.433E+02   0.152E+00 0.168E+01 0.160E+01   -.659E-06 -.695E-04 -.823E-04
   0.500E+02 -.293E+02 0.155E+02   -.481E+02 0.288E+02 -.148E+02   -.144E+01 0.111E+01 -.418E+00   0.404E-05 0.115E-04 0.395E-04
   -.249E+02 -.456E+02 0.364E+02   0.232E+02 0.431E+02 -.353E+02   0.100E+01 0.181E+01 -.129E+01   -.427E-04 -.811E-04 0.628E-04
   0.424E+02 0.397E+02 0.129E+02   -.410E+02 -.384E+02 -.124E+02   -.864E+00 -.908E+00 -.365E+00   -.182E-03 -.604E-04 0.729E-04
   -.188E+02 0.336E+02 0.462E+02   0.187E+02 -.322E+02 -.446E+02   0.647E+00 -.101E+01 -.144E+01   0.765E-04 0.113E-03 0.926E-04
   0.921E+01 0.347E+02 -.480E+02   -.852E+01 -.332E+02 0.466E+02   -.156E+00 -.955E+00 0.159E+01   -.188E-05 0.277E-04 -.135E-04
   -.601E+02 0.976E+01 -.182E+02   0.571E+02 -.101E+02 0.172E+02   0.231E+01 -.235E+00 0.744E+00   -.711E-04 -.394E-05 -.363E-04
 -----------------------------------------------------------------------------------------------
   -.165E+01 -.148E+01 -.426E+00   0.000E+00 0.160E-13 -.711E-14   0.165E+01 0.148E+01 0.427E+00   -.218E-03 -.628E-04 0.136E-03
 
 
 POSITION                                       TOTAL-FORCE (eV/Angst)
 -----------------------------------------------------------------------------------
     11.15107     12.28675     11.86214        -0.629868     -0.681081     -0.287116
      9.42601     11.41243      9.87223         0.501983      0.566870      0.192264
     11.97237     12.32824      9.25159        -0.694160     -0.697664     -0.129205
      8.91206      8.75349      9.73552         0.513628      0.438002      0.108201
     11.40859      9.62236      8.99946         0.535228      0.447455      0.114635
     10.59596      9.57709     11.69430         0.533569      0.512983      0.237081
     13.09280     10.56023     10.99383        -0.760381     -0.586564     -0.235862
 -----------------------------------------------------------------------------------
    total drift:                               -0.000549     -0.000288      0.000215


--------------------------------------------------------------------------------------------------------



  FREE ENERGIE OF THE ION-ELECTRON SYSTEM (eV)
  ---------------------------------------------------
  free  energy   TOTEN  =       -17.30552886 eV

  energy  without entropy=      -17.34851897  energy(sigma->0) =      -17.31985890
 


--------------------------------------------------------------------------------------------------------


    POTLOK:  cpu time    2.8242: real time    2.8319


--------------------------------------------------------------------------------------------------------




--------------------------------------------------------------------------------------------------------


    WAVPRE:  cpu time    0.1650: real time    0.1806
    FEWALD:  cpu time    0.0004: real time    0.0004
    ORTHCH:  cpu time    0.0385: real time    0.0385
     LOOP+:  cpu time  109.7269: real time  109.9788


--------------------------------------- Iteration      2(   1)  ---------------------------------------


    POTLOK:  cpu time    2.7978: real time    2.8028
    SETDIJ:  cpu time    0.0198: real time    0.0198
     EDDAV:  cpu time    1.2807: real time    1.2826
       DOS:  cpu time    0.0006: real time    0.0006
    CHARGE:  cpu time    0.3373: real time    0.3394
    MIXING:  cpu time    0.0479: real time    0.0506
    --------------------------------------------
      LOOP:  cpu time    4.4840: real time    4.4959

 eigenvalue-minimisations  :    72
 total energy-change (2. order) :-0.2200690E+00  (-0.1550924E+00)
 number of electron      20.9999999 magnetization       1.1821370
 augmentation part       -0.3620368 magnetization       0.2038341

 Broyden mixing:
  rms(total) = 0.42581E-01    rms(broyden)= 0.42580E-01
  rms(prec ) = 0.51393E-01
  weight for this iteration     100.00

 Free energy of the ion-electron system (eV)
  ---------------------------------------------------
  alpha Z        PSCENC =        -0.01688552
  Ewald energy   TEWEN  =       478.96906035
  -Hartree energ DENC   =      -756.07554712
  -exchange      EXHF   =         0.00000000
  -V(xc)+E(xc)   XCENC  =      -189.50024576
  PAW double counting   =       712.20683155     -488.59866698
  entropy T*S    EENTRO =         0.04246179
  eigenvalues    EBANDS =      -149.31963431
  atomic energy  EATOM  =       374.76708025
  Solvation  Ediel_sol  =         0.00000000
  ---------------------------------------------------
  free energy    TOTEN  =       -17.52554575 eV

  energy without entropy =      -17.56800754  energy(sigma->0) =      -17.53969968


--------------------------------------------------------------------------------------------------------




--------------------------------------- Iteration      2(   2)  ---------------------------------------


    POTLOK:  cpu time    2.8658: real time    2.8718
    SETDIJ:  cpu time    0.0210: real time    0.0211
     EDDAV:  cpu time    1.4393: real time    1.4413
       DOS:  cpu time    0.0003: real time    0.0003
    CHARGE:  cpu time    0.3363: real time    0.3368
    MIXING:  cpu time    0.0502: real time    0.0502
    --------------------------------------------
      LOOP:  cpu time    4.7129: real time    4.7216

 eigenvalue-minimisations  :    84
 total energy-change (2. order) : 0.1331715E-01  (-0.9515007E-02)
 number of electron      20.9999999 magnetization       1.1609055
[...]
    FORLOC:  cpu time    0.0596: real time    0.0596
    FORNL :  cpu time    0.2691: real time    0.2723
    FORCOR:  cpu time    2.6575: real time    2.6850
    FORHAR:  cpu time    0.3398: real time    0.3403
    MIXING:  cpu time    0.0509: real time    0.0510
    OFIELD:  cpu time    0.0000: real time    0.0000

 VOLUME and BASIS-vectors are now :
 -----------------------------------------------------------------------------
  energy-cutoff  :      400.00
  volume of cell :     9746.91
      direct lattice vectors                 reciprocal lattice vectors
    22.037481164  0.000000000  0.000000000     0.045377237  0.000000000  0.000000000
     0.000000000 21.218110377  0.000000000     0.000000000  0.047129550  0.000000000
     0.000000000  0.000000000 20.844829229     0.000000000  0.000000000  0.047973528

  length of vectors
    22.037481164 21.218110377 20.844829229     0.045377237  0.047129550  0.047973528


 FORCES acting on ions
    electron-ion (+dipol)            ewald-force                    non-local-force                 convergence-correction
 -----------------------------------------------------------------------------------------------
   -.279E+00 -.484E+02 -.487E+02   -.675E+00 0.453E+02 0.461E+02   0.993E+00 0.310E+01 0.250E+01   -.200E-02 0.417E-02 0.545E-02
   0.545E+02 -.307E+02 0.166E+02   -.518E+02 0.299E+02 -.158E+02   -.267E+01 0.856E+00 -.845E+00   0.274E-02 0.188E-02 0.432E-03
   -.275E+02 -.496E+02 0.389E+02   0.254E+02 0.464E+02 -.373E+02   0.217E+01 0.318E+01 -.151E+01   0.129E-02 0.424E-02 -.699E-02
   0.451E+02 0.424E+02 0.138E+02   -.435E+02 -.408E+02 -.133E+02   -.169E+01 -.161E+01 -.541E+00   0.594E-02 0.611E-02 0.319E-02
   -.195E+02 0.366E+02 0.496E+02   0.192E+02 -.347E+02 -.474E+02   0.387E+00 -.191E+01 -.219E+01   0.330E-02 0.270E-02 0.788E-03
   0.107E+02 0.378E+02 -.512E+02   -.988E+01 -.359E+02 0.493E+02   -.864E+00 -.198E+01 0.197E+01   0.206E-02 0.134E-02 0.505E-03
   -.653E+02 0.975E+01 -.197E+02   0.613E+02 -.101E+02 0.184E+02   0.392E+01 0.424E+00 0.123E+01   0.737E-02 -.451E-02 0.167E-02
 -----------------------------------------------------------------------------------------------
   -.227E+01 -.207E+01 -.610E+00   0.000E+00 -.711E-14 0.000E+00   0.225E+01 0.205E+01 0.606E+00   0.207E-01 0.159E-01 0.504E-02
 
 
 POSITION                                       TOTAL-FORCE (eV/Angst)
 -----------------------------------------------------------------------------------
     11.03814     12.18085     11.82613         0.037283     -0.014255     -0.037371
      9.45635     11.51447      9.89075        -0.015979      0.026191     -0.000783
     11.85509     12.21490      9.21483         0.010280     -0.013096      0.042966
      9.08064      8.89887      9.77245        -0.027163     -0.033118     -0.017430
     11.49252      9.65878      8.98332         0.014860     -0.001340     -0.010761
     10.66065      9.62264     11.76602         0.005920     -0.004317      0.030733
     12.97547     10.45009     10.95558        -0.025200      0.039935     -0.007354
 -----------------------------------------------------------------------------------
    total drift:                               -0.000047      0.000277      0.000087


--------------------------------------------------------------------------------------------------------



  FREE ENERGIE OF THE ION-ELECTRON SYSTEM (eV)
  ---------------------------------------------------
  free  energy   TOTEN  =       -17.80178608 eV

  energy  without entropy=      -17.80763852  energy(sigma->0) =      -17.80373689
 
 d Force = 0.2237519E-02[ 0.141E-02, 0.306E-02]  d Energy = 0.2288778E-02-0.513E-04
 d Force =-0.2489524E+00[-0.251E+00,-0.247E+00]  d Ewald  =-0.2489536E+00 0.126E-05


--------------------------------------------------------------------------------------------------------


    POTLOK:  cpu time    2.8114: real time    2.8272


--------------------------------------------------------------------------------------------------------


 Conjugate gradient step on ions:
 trial-energy change:   -0.002289  1 .order   -0.002238   -0.003060   -0.001415
  (g-gl).g = 0.426E-02      g.g   = 0.193E-02  gl.gl    = 0.357E-01
 g(Force)  = 0.193E-02   g(Stress)= 0.000E+00 ortho     =-0.195E-02
 gamma     =   0.11919
 trial     =   1.79809
 opt step  =   3.34404  (harmonic =   3.34404) maximal distance =0.01423589
 next E    =   -17.802343   (d E  =  -0.00285)


--------------------------------------------------------------------------------------------------------


    WAVPRE:  cpu time    0.1738: real time    0.1867
    FEWALD:  cpu time    0.0005: real time    0.0004
    ORTHCH:  cpu time    0.0383: real time    0.0384
     LOOP+:  cpu time   19.9479: real time   20.0668


--------------------------------------- Iteration      9(   1)  ---------------------------------------


    POTLOK:  cpu time    2.8106: real time    2.8148
    SETDIJ:  cpu time    0.0166: real time    0.0167
     EDDAV:  cpu time    1.2780: real time    1.2798
       DOS:  cpu time    0.0006: real time    0.0006
    CHARGE:  cpu time    0.3343: real time    0.3371
    MIXING:  cpu time    0.0429: real time    0.0429
    --------------------------------------------
      LOOP:  cpu time    4.4830: real time    4.4919

 eigenvalue-minimisations  :    72
 total energy-change (2. order) :-0.4585522E-03  (-0.2537205E-02)
 number of electron      20.9999999 magnetization       1.0000858
 augmentation part       -0.3547154 magnetization      -0.0005351

 Broyden mixing:
  rms(total) = 0.45980E-02    rms(broyden)= 0.45977E-02
  rms(prec ) = 0.52020E-02
  weight for this iteration     100.00

 Free energy of the ion-electron system (eV)
  ---------------------------------------------------
  alpha Z        PSCENC =        -0.01688552
  Ewald energy   TEWEN  =       498.70362558
  -Hartree energ DENC   =      -776.34577323
  -exchange      EXHF   =         0.00000000
  -V(xc)+E(xc)   XCENC  =      -188.98634916
  PAW double counting   =       795.81393888     -572.27880809
  entropy T*S    EENTRO =         0.00584869
  eigenvalues    EBANDS =      -149.46494081
  atomic energy  EATOM  =       374.76708025
  Solvation  Ediel_sol  =         0.00000000
  ---------------------------------------------------
  free energy    TOTEN  =       -17.80226340 eV

  energy without entropy =      -17.80811209  energy(sigma->0) =      -17.80421297


--------------------------------------------------------------------------------------------------------




--------------------------------------- Iteration      9(   2)  ---------------------------------------


    POTLOK:  cpu time    2.8211: real time    2.8286
    SETDIJ:  cpu time    0.0196: real time    0.0196
     EDDAV:  cpu time    1.6606: real time    1.6639
       DOS:  cpu time    0.0008: real time    0.0008
    CHARGE:  cpu time    0.3374: real time    0.3380
    MIXING:  cpu time    0.0486: real time    0.0487
    --------------------------------------------
      LOOP:  cpu time    4.8881: real time    4.8995

 eigenvalue-minimisations  :   104
 total energy-change (2. order) :-0.2800659E-04  (-0.1557822E-03)
 number of electron      20.9999999 magnetization       1.0000847
 augmentation part       -0.3547086 magnetization      -0.0005584

 Broyden mixing:
  rms(total) = 0.34852E-02    rms(broyden)= 0.34852E-02
  rms(prec ) = 0.37457E-02
  weight for this iteration     100.00

 eigenvalues of (default mixing * dielectric matrix)
  average eigenvalue GAMMA=   0.6655
  0.6655

 Free energy of the ion-electron system (eV)
  ---------------------------------------------------
  alpha Z        PSCENC =        -0.01688552
  Ewald energy   TEWEN  =       498.70362558
  -Hartree energ DENC   =      -776.36080683
  -exchange      EXHF   =         0.00000000
  -V(xc)+E(xc)   XCENC  =      -188.98503532
  PAW double counting   =       796.20254255     -572.66796021
  entropy T*S    EENTRO =         0.00584879
  eigenvalues    EBANDS =      -149.45070070
  atomic energy  EATOM  =       374.76708025
  Solvation  Ediel_sol  =         0.00000000
  ---------------------------------------------------
  free energy    TOTEN  =       -17.80229141 eV

  energy without entropy =      -17.80814020  energy(sigma->0) =      -17.80424101


--------------------------------------------------------------------------------------------------------




--------------------------------------- Iteration      9(   3)  ---------------------------------------


    POTLOK:  cpu time    2.8233: real time    2.8327
    SETDIJ:  cpu time    0.0204: real time    0.0204
     EDDAV:  cpu time    1.0207: real time    1.0223
       DOS:  cpu time    0.0006: real time    0.0006
    --------------------------------------------
      LOOP:  cpu time    3.8650: real time    3.8760

 eigenvalue-minimisations  :    50
 total energy-change (2. order) : 0.4780930E-04  (-0.1013961E-04)
 number of electron      20.9999999 magnetization       1.0000847
 augmentation part       -0.3547086 magnetization      -0.0005584

 Free energy of the ion-electron system (eV)
  ---------------------------------------------------
  alpha Z        PSCENC =        -0.01688552
  Ewald energy   TEWEN  =       498.70362558
  -Hartree energ DENC   =      -776.36669995
  -exchange      EXHF   =         0.00000000
  -V(xc)+E(xc)   XCENC  =      -188.98472986
  PAW double counting   =       796.44403606     -572.90967325
  entropy T*S    EENTRO =         0.00584932
  eigenvalues    EBANDS =      -149.44484625
  atomic energy  EATOM  =       374.76708025
  Solvation  Ediel_sol  =         0.00000000
  ---------------------------------------------------
  free energy    TOTEN  =       -17.80224360 eV

  energy without entropy =      -17.80809293  energy(sigma->0) =      -17.80419338


--------------------------------------------------------------------------------------------------------




 average (electrostatic) potential at core
  the test charge radii are     1.0406
  (the norm of the test charge is              1.0000)
       1 -84.5057       2 -84.3675       3 -84.5033       4 -84.5844       5 -84.3651
       6 -84.3679       7 -84.5037
 
 
 
 E-fermi :  -3.9921     XC(G=0):  -0.3531     alpha+bet : -0.1763


 spin component 1

 k-point     1 :       0.0000    0.0000    0.0000
  band No.  band energies     occupation 
      1     -12.3225      1.00000
      2      -9.6829      1.00000
      3      -8.8639      1.00000
      4      -8.8572      1.00000
      5      -6.6191      1.00000
      6      -5.9651      1.00000
      7      -5.9566      1.00000
      8      -5.0235      1.00000
      9      -4.9405      1.00000
     10      -4.9387      1.00000
     11      -4.1605      1.00006
     12      -3.3296     -0.00001
     13      -3.3146     -0.00001
     14      -2.9830     -0.00000
     15      -2.3303     -0.00000
     16      -2.3167     -0.00000
     17      -1.6086     -0.00000
     18      -0.8208     -0.00000

 spin component 2

 k-point     1 :       0.0000    0.0000    0.0000
  band No.  band energies     occupation 
      1     -12.2122      1.00000
      2      -9.4612      1.00000
      3      -8.8143      1.00000
      4      -8.8088      1.00000
      5      -6.2563      1.00000
      6      -5.8940      1.00000
      7      -5.8889      1.00000
      8      -4.9779      1.00000
      9      -4.9005      1.00000
     10      -4.9001      1.00000
     11      -3.3598     -0.00004
     12      -3.1942     -0.00000
     13      -3.1901     -0.00000
     14      -2.9242     -0.00000
     15      -2.2356     -0.00000
     16      -2.2258     -0.00000
     17      -1.6074     -0.00000
     18      -0.7761     -0.00000


--------------------------------------------------------------------------------------------------------


 soft charge-density along one line, spin component            1
         0         1         2         3         4         5         6         7         8         9
 total charge-density along one line
 
 soft charge-density along one line, spin component            2
         0         1         2         3         4         5         6         7         8         9
 total charge-density along one line
 
 pseudopotential strength for first ion, spin component:            1
  8.854  15.109   0.004   0.004   0.001   0.013   0.011   0.003
 15.109  25.784   0.007   0.006   0.002   0.023   0.019   0.006
  0.004   0.007   1.974   0.001   0.000   5.772   0.002   0.001
  0.004   0.006   0.001   1.973   0.000   0.002   5.771   0.000
  0.001   0.002   0.000   0.000   1.973   0.001   0.000   5.771
  0.013   0.023   5.772   0.002   0.001  16.748   0.006   0.003
  0.011   0.019   0.002   5.771   0.000   0.006  16.746   0.000
  0.003   0.006   0.001   0.000   5.771   0.003   0.000  16.745
 pseudopotential strength for first ion, spin component:            2
  8.852  15.106   0.004   0.004   0.001   0.013   0.011   0.003
 15.106  25.778   0.007   0.006   0.002   0.022   0.019   0.005
  0.004   0.007   1.973   0.001   0.000   5.770   0.002   0.001
  0.004   0.006   0.001   1.973   0.000   0.002   5.770   0.000
  0.001   0.002   0.000   0.000   1.973   0.001   0.000   5.769
  0.013   0.022   5.770   0.002   0.001  16.742   0.005   0.002
  0.011   0.019   0.002   5.770   0.000   0.005  16.741   0.000
  0.003   0.005   0.001   0.000   5.769   0.002   0.000  16.739
 total augmentation occupancy for first ion, spin component:            1
  2.926  -0.512  -0.354  -0.336  -0.036   0.051   0.048   0.005
 -0.512   0.160   0.167   0.178  -0.013  -0.015  -0.015   0.000
 -0.354   0.167   0.825  -0.112  -0.089  -0.045   0.003   0.004
 -0.336   0.178  -0.112   0.865   0.021   0.004  -0.046  -0.001
 -0.036  -0.013  -0.089   0.021   0.817   0.003  -0.002  -0.043
  0.051  -0.015  -0.045   0.004   0.003   0.003   0.000  -0.000
  0.048  -0.015   0.003  -0.046  -0.002   0.000   0.003   0.000
  0.005   0.000   0.004  -0.001  -0.043  -0.000   0.000   0.002
 total augmentation occupancy for first ion, spin component:            2
  0.066  -0.023   0.005   0.004   0.002   0.000   0.000   0.000
 -0.023   0.004   0.003   0.002   0.001  -0.000  -0.000   0.000
  0.005   0.003   0.067   0.042   0.040  -0.002  -0.001  -0.001
  0.004   0.002   0.042   0.027   0.024  -0.001  -0.001  -0.001
  0.002   0.001   0.040   0.024   0.025  -0.001  -0.001  -0.001
  0.000  -0.000  -0.002  -0.001  -0.001   0.000   0.000   0.000
  0.000  -0.000  -0.001  -0.001  -0.001   0.000   0.000   0.000
  0.000   0.000  -0.001  -0.001  -0.001   0.000   0.000   0.000


------------------------ aborting loop because EDIFF is reached ----------------------------------------


    CHARGE:  cpu time    0.3364: real time    0.3388
    FORLOC:  cpu time    0.0583: real time    0.0584
    FORNL :  cpu time    0.2721: real time    0.2724
    FORCOR:  cpu time    2.6784: real time    2.6876
    FORHAR:  cpu time    0.3361: real time    0.3383
    MIXING:  cpu time    0.0507: real time    0.0507
    OFIELD:  cpu time    0.0000: real time    0.0000

 VOLUME and BASIS-vectors are now :
 -----------------------------------------------------------------------------
  energy-cutoff  :      400.00
  volume of cell :     9746.91
      direct lattice vectors                 reciprocal lattice vectors
    22.037481164  0.000000000  0.000000000     0.045377237  0.000000000  0.000000000
     0.000000000 21.218110377  0.000000000     0.000000000  0.047129550  0.000000000
     0.000000000  0.000000000 20.844829229     0.000000000  0.000000000  0.047973528

  length of vectors
    22.037481164 21.218110377 20.844829229     0.045377237  0.047129550  0.047973528


 FORCES acting on ions
    electron-ion (+dipol)            ewald-force                    non-local-force                 convergence-correction
 -----------------------------------------------------------------------------------------------
   -.235E+00 -.485E+02 -.488E+02   -.711E+00 0.453E+02 0.462E+02   0.969E+00 0.315E+01 0.256E+01   -.261E-02 0.401E-02 0.577E-02
   0.545E+02 -.307E+02 0.166E+02   -.519E+02 0.298E+02 -.158E+02   -.265E+01 0.832E+00 -.840E+00   0.266E-02 0.271E-02 0.376E-03
   -.276E+02 -.497E+02 0.390E+02   0.254E+02 0.464E+02 -.374E+02   0.217E+01 0.322E+01 -.158E+01   0.952E-03 0.417E-02 -.772E-02
   0.450E+02 0.423E+02 0.138E+02   -.434E+02 -.408E+02 -.133E+02   -.167E+01 -.158E+01 -.525E+00   0.673E-02 0.694E-02 0.347E-02
   -.195E+02 0.366E+02 0.496E+02   0.191E+02 -.347E+02 -.474E+02   0.377E+00 -.190E+01 -.218E+01   0.409E-02 0.282E-02 0.357E-03
   0.108E+02 0.379E+02 -.512E+02   -.994E+01 -.359E+02 0.493E+02   -.877E+00 -.198E+01 0.194E+01   0.250E-02 0.141E-02 0.131E-02
   -.654E+02 0.985E+01 -.197E+02   0.614E+02 -.102E+02 0.184E+02   0.399E+01 0.380E+00 0.125E+01   0.748E-02 -.530E-02 0.172E-02
 -----------------------------------------------------------------------------------------------
   -.233E+01 -.213E+01 -.630E+00   -.711E-14 0.355E-14 -.355E-14   0.231E+01 0.211E+01 0.625E+00   0.218E-01 0.168E-01 0.529E-02
 
 
 POSITION                                       TOTAL-FORCE (eV/Angst)
 -----------------------------------------------------------------------------------
     11.04077     12.17761     11.82138         0.020986      0.007556     -0.007471
      9.45222     11.51977      9.89014        -0.004241     -0.001783      0.000800
     11.85471     12.21138      9.21943         0.011069      0.010016      0.010528
      9.08343      8.90028      9.77179        -0.025061     -0.027135     -0.011025
     11.49563      9.65732      8.97985        -0.004648     -0.001273      0.002021
     10.66154      9.62101     11.77260        -0.006014     -0.004701      0.000855
     12.97057     10.45322     10.95389         0.007909      0.017321      0.004292
 -----------------------------------------------------------------------------------
    total drift:                                0.000115      0.000499      0.000140


--------------------------------------------------------------------------------------------------------



  FREE ENERGIE OF THE ION-ELECTRON SYSTEM (eV)
  ---------------------------------------------------
  free  energy   TOTEN  =       -17.80224360 eV

  energy  without entropy=      -17.80809293  energy(sigma->0) =      -17.80419338
 
 d Force = 0.5972765E-03[-0.218E-04, 0.122E-02]  d Energy = 0.4575265E-03 0.140E-03
 d Force =-0.2166053E+00[-0.218E+00,-0.215E+00]  d Ewald  =-0.2166059E+00 0.630E-06


--------------------------------------------------------------------------------------------------------


    POTLOK:  cpu time    2.8083: real time    2.8512


--------------------------------------------------------------------------------------------------------




--------------------------------------------------------------------------------------------------------


  
 reached required accuracy - stopping structural energy minimisation
     LOOP+:  cpu time   19.7777: real time   19.8839
    4ORBIT:  cpu time    0.0000: real time    0.0000

 total amount of memory used by VASP MPI-rank0   188921. kBytes
=======================================================================

   base      :      30000. kBytes
   nonl-proj :       1948. kBytes
   fftplans  :      46127. kBytes
   grid      :     104464. kBytes
   one-center:          3. kBytes
   wavefun   :       6379. kBytes
 
  
  
 General timing and accounting informations for this job:
 ========================================================
  
                  Total CPU time used (sec):      461.780
                            User time (sec):      451.442
                          System time (sec):       10.338
                         Elapsed time (sec):      463.868
  
                   Maximum memory used (kb):      381928.
                   Average memory used (kb):           0.
  
                          Minor page faults:      2780388
                          Major page faults:         7308
                 Voluntary context switches:         4047
