unknown system                          
            1
    22.037481    0.000000    0.000000
     0.000000   21.218110    0.000000
     0.000000    0.000000   20.844829
   Al
     7
Direct configuration=     1
   0.50600495  0.57906904  0.56906895
   0.42772634  0.53786267  0.47360576
   0.54327325  0.58102433  0.44383120
   0.40440457  0.41254814  0.46704712
   0.51769014  0.45349767  0.43173594
   0.48081548  0.45136382  0.56101672
   0.59411529  0.49769879  0.52741294
Direct configuration=     2
   0.50462609  0.57752049  0.56840445
   0.42882524  0.53915154  0.47405073
   0.54175366  0.57943809  0.44353218
   0.40552897  0.41354400  0.46729754
   0.51886182  0.45451503  0.43200124
   0.48198352  0.45253017  0.56156541
   0.59245073  0.49636515  0.52686707
Direct configuration=     3
   0.50048953  0.57287486  0.56641098
   0.43212194  0.54301813  0.47538564
   0.53719486  0.57467935  0.44263509
   0.40890214  0.41653160  0.46804879
   0.52237685  0.45756710  0.43279717
   0.48548766  0.45602921  0.56321149
   0.58745704  0.49236422  0.52522946
Direct configuration=     4
   0.50225644  0.57485922  0.56726248
   0.43071376  0.54136653  0.47481544
   0.53914213  0.57671202  0.44301828
   0.40746131  0.41525546  0.46772790
   0.52087542  0.45626342  0.43245719
   0.48399088  0.45453461  0.56250838
   0.58959007  0.49407320  0.52592896
Direct configuration=     5
   0.50201718  0.57459051  0.56714718
   0.43090445  0.54159018  0.47489266
   0.53887844  0.57643677  0.44296639
   0.40765642  0.41542826  0.46777135
   0.52107873  0.45643996  0.43250323
   0.48419357  0.45473700  0.56260359
   0.58930123  0.49384178  0.52583423
Direct configuration=     6
   0.50151157  0.57445777  0.56732901
   0.43027649  0.54190378  0.47474833
   0.53851855  0.57621445  0.44250860
   0.40934173  0.41697209  0.46820117
   0.52118033  0.45598541  0.43196862
   0.48399968  0.45428604  0.56319296
   0.58920167  0.49324492  0.52576994
Direct configuration=     7
   0.50074187  0.57425571  0.56760581
   0.42932053  0.54238118  0.47452863
   0.53797068  0.57587600  0.44181170
   0.41190730  0.41932226  0.46885549
   0.52133499  0.45529346  0.43115479
   0.48370453  0.45359953  0.56409017
   0.58905012  0.49233631  0.52567205
Direct configuration=     8
   0.50088036  0.57407801  0.56734102
   0.42910291  0.54267171  0.47449424
   0.53795105  0.57568287  0.44206800
   0.41205449  0.41939956  0.46881892
   0.52149901  0.45521372  0.43096135
   0.48375104  0.45351050  0.56445739
   0.58879114  0.49250809  0.52557771
Direct configuration=     9
   0.50099943  0.57392523  0.56711335
   0.42891581  0.54292150  0.47446468
   0.53793418  0.57551681  0.44228837
   0.41218104  0.41946602  0.46878748
   0.52164003  0.45514517  0.43079504
   0.48379103  0.45343395  0.56477311
   0.58856849  0.49265578  0.52549660
