  10  10   0   0
  0.1280531E+04  0.2325020E-08  0.2276544E-08  0.2419286E-08  0.5000000E-15
   1.0000000000000000E-004
  CAR 
 unknown system                          
      2.06332018    -11.73299852  301     -4.12525629      1.00000000
    -11.733  0.0000E+00  0.0000E+00  0.0000E+00  0.0000E+00
    -11.687  0.0000E+00  0.0000E+00  0.0000E+00  0.0000E+00
    -11.641  0.0000E+00  0.0000E+00  0.0000E+00  0.0000E+00
    -11.595  0.0000E+00  0.0000E+00  0.0000E+00  0.0000E+00
    -11.549  0.0000E+00  0.0000E+00  0.0000E+00  0.0000E+00
    -11.503  0.0000E+00  0.0000E+00  0.0000E+00  0.0000E+00
    -11.457  0.0000E+00  0.0000E+00  0.0000E+00  0.0000E+00
    -11.411  0.0000E+00  0.0000E+00  0.0000E+00  0.0000E+00
    -11.365 -0.6001E-30  0.0000E+00 -0.2760E-31  0.0000E+00
    -11.319 -0.2299E-28 -0.2726E-30 -0.1085E-29 -0.1254E-31
    -11.273 -0.8098E-27 -0.1069E-28 -0.3833E-28 -0.5039E-30
    -11.227 -0.2563E-25 -0.3850E-27 -0.1217E-26 -0.1821E-28
    -11.181 -0.7290E-24 -0.1247E-25 -0.3474E-25 -0.5915E-27
    -11.135 -0.1863E-22 -0.3627E-24 -0.8913E-24 -0.1727E-25
    -11.089 -0.4275E-21 -0.9478E-23 -0.2055E-22 -0.4531E-24
    -11.043 -0.8811E-20 -0.2225E-21 -0.4257E-21 -0.1069E-22
    -10.997 -0.1631E-18 -0.4691E-20 -0.7925E-20 -0.2264E-21
    -10.951 -0.2710E-17 -0.8883E-19 -0.1326E-18 -0.4312E-20
    -10.905 -0.3922E-16 -0.1510E-17 -0.1936E-17 -0.7377E-19
    -10.859 -0.5244E-15 -0.2184E-16 -0.2605E-16 -0.1078E-17
    -10.813 -0.6281E-14 -0.3061E-15 -0.3149E-15 -0.1515E-16
    -10.767 -0.6747E-13 -0.3752E-14 -0.3418E-14 -0.1877E-15
    -10.721 -0.6495E-12 -0.4124E-13 -0.3329E-13 -0.2084E-14
    -10.675 -0.5602E-11 -0.4063E-12 -0.2909E-12 -0.2077E-13
    -10.629 -0.4326E-10 -0.3586E-11 -0.2280E-11 -0.1857E-12
    -10.583 -0.2989E-09 -0.2835E-10 -0.1602E-10 -0.1489E-11
    -10.537 -0.1846E-08 -0.2005E-09 -0.1009E-09 -0.1071E-10
    -10.491 -0.1018E-07 -0.1268E-08 -0.5692E-09 -0.6904E-10
    -10.445 -0.5010E-07 -0.7166E-08 -0.2873E-08 -0.3986E-09
    -10.399 -0.2195E-06 -0.3612E-07 -0.1297E-07 -0.2060E-08
    -10.353 -0.8543E-06 -0.1622E-06 -0.5225E-07 -0.9520E-08
    -10.307 -0.2946E-05 -0.6475E-06 -0.1877E-06 -0.3930E-07
    -10.261 -0.8964E-05 -0.2292E-05 -0.6000E-06 -0.1447E-06
    -10.215 -0.2392E-04 -0.7163E-05 -0.1700E-05 -0.4741E-06
    -10.169 -0.5545E-04 -0.1966E-04 -0.4250E-05 -0.1378E-05
    -10.123 -0.1099E-03 -0.4701E-04 -0.9303E-05 -0.3540E-05
    -10.077 -0.1802E-03 -0.9646E-04 -0.1759E-04 -0.7976E-05
    -10.031 -0.2262E-03 -0.1653E-03 -0.2799E-04 -0.1558E-04
     -9.985 -0.1578E-03 -0.2222E-03 -0.3525E-04 -0.2580E-04
     -9.939  0.1540E-03 -0.1880E-03 -0.2817E-04 -0.3444E-04
     -9.893  0.8154E-03  0.6144E-04  0.9327E-05 -0.3162E-04
     -9.848  0.1813E-02  0.6446E-03  0.9270E-04 -0.1975E-05
     -9.802  0.2944E-02  0.1581E-02  0.2281E-03  0.7075E-04
     -9.756  0.3854E-02  0.2710E-02  0.4053E-03  0.1954E-03
     -9.710  0.4200E-02  0.3700E-02  0.5985E-03  0.3655E-03
     -9.664  0.3841E-02  0.4186E-02  0.7751E-03  0.5580E-03
     -9.618  0.2922E-02  0.3972E-02  0.9095E-03  0.7407E-03
     -9.572  0.1790E-02  0.3147E-02  0.9918E-03  0.8854E-03
     -9.526  0.7983E-03  0.2028E-02  0.1029E-02  0.9787E-03
     -9.480  0.1444E-03  0.9834E-03  0.1035E-02  0.1024E-02
     -9.434 -0.1611E-03  0.2514E-03  0.1028E-02  0.1035E-02
     -9.388 -0.2261E-03 -0.1212E-03  0.1017E-02  0.1030E-02
     -9.342 -0.1788E-03 -0.2256E-03  0.1009E-02  0.1020E-02
     -9.296 -0.1085E-03 -0.1929E-03  0.1004E-02  0.1011E-02
     -9.250 -0.5460E-04 -0.1227E-03  0.1002E-02  0.1005E-02
     -9.204 -0.2348E-04 -0.6400E-04  0.1001E-02  0.1002E-02
     -9.158 -0.8776E-05 -0.2840E-04  0.1000E-02  0.1001E-02
     -9.112 -0.2877E-05 -0.1092E-04  0.1000E-02  0.1000E-02
     -9.066 -0.8324E-06 -0.3680E-05  0.1000E-02  0.1000E-02
     -9.020 -0.2156E-06 -0.1092E-05  0.1000E-02  0.1000E-02
     -8.974 -0.6203E-07 -0.2871E-06  0.1000E-02  0.1000E-02
     -8.928 -0.7750E-07 -0.6702E-07  0.1000E-02  0.1000E-02
     -8.882 -0.3048E-06 -0.1393E-07  0.1000E-02  0.1000E-02
     -8.836 -0.1208E-05 -0.2583E-08  0.9999E-03  0.1000E-02
     -8.790 -0.4276E-05 -0.4534E-09  0.9997E-03  0.1000E-02
     -8.744 -0.1339E-04 -0.2565E-09  0.9991E-03  0.1000E-02
     -8.698 -0.3689E-04 -0.1267E-08  0.9974E-03  0.1000E-02
     -8.652 -0.8878E-04 -0.7327E-08  0.9933E-03  0.1000E-02
     -8.606 -0.1843E-03 -0.3811E-07  0.9849E-03  0.1000E-02
     -8.560 -0.3222E-03 -0.1770E-06  0.9700E-03  0.1000E-02
     -8.514 -0.4510E-03 -0.7322E-06  0.9493E-03  0.1000E-02
     -8.468 -0.4312E-03 -0.2693E-05  0.9295E-03  0.9998E-03
     -8.422 -0.3397E-04 -0.8778E-05  0.9279E-03  0.9994E-03
     -8.376  0.9800E-03 -0.2523E-04  0.9730E-03  0.9983E-03
     -8.330  0.2702E-02 -0.6356E-04  0.1097E-02  0.9953E-03
     -8.284  0.4929E-02 -0.1387E-03  0.1324E-02  0.9890E-03
     -8.238  0.7153E-02 -0.2570E-03  0.1653E-02  0.9771E-03
     -8.192  0.8775E-02 -0.3883E-03  0.2056E-02  0.9593E-03
     -8.146  0.9401E-02 -0.4268E-03  0.2489E-02  0.9397E-03
     -8.100  0.9038E-02 -0.1732E-03  0.2904E-02  0.9317E-03
     -8.054  0.8041E-02  0.6156E-03  0.3274E-02  0.9600E-03
     -8.008  0.6874E-02  0.2084E-02  0.3590E-02  0.1056E-02
     -7.962  0.5880E-02  0.4099E-02  0.3861E-02  0.1244E-02
     -7.916  0.5187E-02  0.6180E-02  0.4099E-02  0.1529E-02
     -7.870  0.4783E-02  0.7663E-02  0.4319E-02  0.1881E-02
     -7.824  0.4658E-02  0.8055E-02  0.4533E-02  0.2251E-02
     -7.778  0.4919E-02  0.7348E-02  0.4760E-02  0.2589E-02
     -7.732  0.5786E-02  0.6038E-02  0.5026E-02  0.2867E-02
     -7.686  0.7496E-02  0.4805E-02  0.5370E-02  0.3088E-02
     -7.640  0.1017E-01  0.4100E-02  0.5838E-02  0.3276E-02
     -7.594  0.1371E-01  0.3959E-02  0.6469E-02  0.3459E-02
     -7.548  0.1776E-01  0.4134E-02  0.7285E-02  0.3649E-02
     -7.502  0.2168E-01  0.4357E-02  0.8282E-02  0.3849E-02
     -7.456  0.2460E-01  0.4481E-02  0.9413E-02  0.4055E-02
     -7.410  0.2564E-01  0.4440E-02  0.1059E-01  0.4259E-02
     -7.364  0.2424E-01  0.4162E-02  0.1171E-01  0.4451E-02
     -7.318  0.2047E-01  0.3618E-02  0.1265E-01  0.4617E-02
     -7.272  0.1516E-01  0.2963E-02  0.1335E-01  0.4753E-02
     -7.226  0.9625E-02  0.2597E-02  0.1379E-01  0.4873E-02
     -7.180  0.5224E-02  0.3014E-02  0.1403E-01  0.5011E-02
     -7.134  0.2853E-02  0.4512E-02  0.1416E-01  0.5219E-02
     -7.088  0.2693E-02  0.6992E-02  0.1428E-01  0.5540E-02
     -7.042  0.4235E-02  0.9989E-02  0.1448E-01  0.6000E-02
     -6.996  0.6560E-02  0.1288E-01  0.1478E-01  0.6592E-02
     -6.950  0.8695E-02  0.1513E-01  0.1518E-01  0.7288E-02
     -6.904  0.9932E-02  0.1635E-01  0.1564E-01  0.8040E-02
     -6.858  0.1001E-01  0.1638E-01  0.1610E-01  0.8793E-02
     -6.812  0.9096E-02  0.1526E-01  0.1652E-01  0.9495E-02
     -6.766  0.7656E-02  0.1332E-01  0.1687E-01  0.1011E-01
     -6.720  0.6201E-02  0.1114E-01  0.1715E-01  0.1062E-01
     -6.674  0.5161E-02  0.9458E-02  0.1739E-01  0.1105E-01
     -6.628  0.4848E-02  0.8897E-02  0.1761E-01  0.1146E-01
     -6.582  0.5470E-02  0.9732E-02  0.1786E-01  0.1191E-01
     -6.536  0.7077E-02  0.1171E-01  0.1819E-01  0.1245E-01
     -6.490  0.9470E-02  0.1408E-01  0.1863E-01  0.1310E-01
     -6.444  0.1223E-01  0.1586E-01  0.1919E-01  0.1383E-01
     -6.398  0.1490E-01  0.1628E-01  0.1987E-01  0.1458E-01
     -6.352  0.1723E-01  0.1510E-01  0.2067E-01  0.1527E-01
     -6.306  0.1918E-01  0.1265E-01  0.2155E-01  0.1585E-01
     -6.260  0.2074E-01  0.9573E-02  0.2250E-01  0.1629E-01
     -6.214  0.2178E-01  0.6512E-02  0.2350E-01  0.1659E-01
     -6.168  0.2207E-01  0.3994E-02  0.2452E-01  0.1678E-01
     -6.122  0.2147E-01  0.2465E-02  0.2551E-01  0.1689E-01
     -6.077  0.2011E-01  0.2305E-02  0.2643E-01  0.1699E-01
     -6.031  0.1829E-01  0.3707E-02  0.2727E-01  0.1716E-01
     -5.985  0.1636E-01  0.6481E-02  0.2802E-01  0.1746E-01
     -5.939  0.1460E-01  0.9988E-02  0.2869E-01  0.1792E-01
     -5.893  0.1322E-01  0.1336E-01  0.2930E-01  0.1854E-01
     -5.847  0.1237E-01  0.1591E-01  0.2987E-01  0.1927E-01
     -5.801  0.1208E-01  0.1743E-01  0.3043E-01  0.2007E-01
     -5.755  0.1227E-01  0.1820E-01  0.3099E-01  0.2091E-01
     -5.709  0.1281E-01  0.1865E-01  0.3158E-01  0.2176E-01
     -5.663  0.1362E-01  0.1908E-01  0.3221E-01  0.2264E-01
     -5.617  0.1472E-01  0.1955E-01  0.3288E-01  0.2354E-01
     -5.571  0.1606E-01  0.2005E-01  0.3362E-01  0.2446E-01
     -5.525  0.1729E-01  0.2058E-01  0.3442E-01  0.2541E-01
     -5.479  0.1792E-01  0.2115E-01  0.3524E-01  0.2638E-01
     -5.433  0.1758E-01  0.2162E-01  0.3605E-01  0.2738E-01
     -5.387  0.1655E-01  0.2170E-01  0.3681E-01  0.2837E-01
     -5.341  0.1570E-01  0.2111E-01  0.3753E-01  0.2935E-01
     -5.295  0.1605E-01  0.1970E-01  0.3827E-01  0.3025E-01
     -5.249  0.1814E-01  0.1753E-01  0.3911E-01  0.3106E-01
     -5.203  0.2165E-01  0.1491E-01  0.4010E-01  0.3174E-01
     -5.157  0.2566E-01  0.1235E-01  0.4128E-01  0.3231E-01
     -5.111  0.2911E-01  0.1043E-01  0.4262E-01  0.3279E-01
     -5.065  0.3134E-01  0.9601E-02  0.4406E-01  0.3323E-01
     -5.019  0.3217E-01  0.9900E-02  0.4554E-01  0.3369E-01
     -4.973  0.3172E-01  0.1098E-01  0.4700E-01  0.3419E-01
     -4.927  0.3012E-01  0.1231E-01  0.4839E-01  0.3476E-01
     -4.881  0.2743E-01  0.1352E-01  0.4965E-01  0.3538E-01
     -4.835  0.2370E-01  0.1442E-01  0.5074E-01  0.3604E-01
     -4.789  0.1914E-01  0.1491E-01  0.5162E-01  0.3673E-01
     -4.743  0.1420E-01  0.1479E-01  0.5227E-01  0.3741E-01
     -4.697  0.9535E-02  0.1381E-01  0.5271E-01  0.3804E-01
     -4.651  0.5815E-02  0.1197E-01  0.5298E-01  0.3860E-01
     -4.605  0.3502E-02  0.9680E-02  0.5314E-01  0.3904E-01
     -4.559  0.2631E-02  0.7709E-02  0.5326E-01  0.3940E-01
     -4.513  0.2787E-02  0.6918E-02  0.5339E-01  0.3971E-01
     -4.467  0.3287E-02  0.7877E-02  0.5354E-01  0.4008E-01
     -4.421  0.3508E-02  0.1057E-01  0.5370E-01  0.4056E-01
     -4.375  0.3154E-02  0.1430E-01  0.5384E-01  0.4122E-01
     -4.329  0.2317E-02  0.1788E-01  0.5395E-01  0.4204E-01
     -4.283  0.1325E-02  0.2016E-01  0.5401E-01  0.4297E-01
     -4.237  0.4985E-03  0.2060E-01  0.5403E-01  0.4392E-01
     -4.191 -0.6055E-05  0.1955E-01  0.5403E-01  0.4481E-01
     -4.145 -0.2080E-03  0.1798E-01  0.5402E-01  0.4564E-01
     -4.099 -0.2201E-03  0.1695E-01  0.5401E-01  0.4642E-01
     -4.053 -0.1570E-03  0.1697E-01  0.5401E-01  0.4720E-01
     -4.007 -0.8921E-04  0.1783E-01  0.5400E-01  0.4802E-01
     -3.961 -0.4258E-04  0.1878E-01  0.5400E-01  0.4889E-01
     -3.915 -0.1749E-04  0.1903E-01  0.5400E-01  0.4976E-01
     -3.869 -0.6268E-05  0.1817E-01  0.5400E-01  0.5060E-01
     -3.823 -0.1975E-05  0.1637E-01  0.5400E-01  0.5135E-01
     -3.777 -0.5527E-06  0.1415E-01  0.5400E-01  0.5200E-01
     -3.731 -0.1531E-06  0.1203E-01  0.5400E-01  0.5255E-01
     -3.685 -0.1129E-06  0.1018E-01  0.5400E-01  0.5302E-01
     -3.639 -0.3585E-06  0.8422E-02  0.5400E-01  0.5341E-01
     -3.593 -0.1331E-05  0.6521E-02  0.5400E-01  0.5371E-01
     -3.547 -0.4452E-05  0.4463E-02  0.5400E-01  0.5391E-01
     -3.501 -0.1317E-04  0.2497E-02  0.5400E-01  0.5403E-01
     -3.455 -0.3429E-04  0.9480E-03  0.5400E-01  0.5407E-01
     -3.409 -0.7788E-04 -0.6376E-05  0.5399E-01  0.5407E-01
     -3.363 -0.1523E-03 -0.4112E-03  0.5399E-01  0.5405E-01
     -3.317 -0.2495E-03 -0.4566E-03  0.5398E-01  0.5403E-01
     -3.271 -0.3215E-03 -0.3498E-03  0.5396E-01  0.5402E-01
     -3.225 -0.2597E-03 -0.2340E-03  0.5395E-01  0.5401E-01
     -3.179  0.9733E-04 -0.1745E-03  0.5395E-01  0.5400E-01
     -3.133  0.9044E-03 -0.1810E-03  0.5399E-01  0.5399E-01
     -3.087  0.2206E-02 -0.2234E-03  0.5410E-01  0.5398E-01
     -3.041  0.3842E-02 -0.2303E-03  0.5427E-01  0.5397E-01
     -2.995  0.5446E-02 -0.8762E-04  0.5452E-01  0.5396E-01
     -2.949  0.6568E-02  0.3304E-03  0.5483E-01  0.5398E-01
     -2.903  0.6900E-02  0.1082E-02  0.5514E-01  0.5403E-01
     -2.857  0.6479E-02  0.2070E-02  0.5544E-01  0.5412E-01
     -2.811  0.5721E-02  0.3022E-02  0.5570E-01  0.5426E-01
     -2.765  0.5231E-02  0.3617E-02  0.5594E-01  0.5443E-01
     -2.719  0.5444E-02  0.3710E-02  0.5619E-01  0.5460E-01
     -2.673  0.6325E-02  0.3498E-02  0.5649E-01  0.5476E-01
     -2.627  0.7336E-02  0.3486E-02  0.5682E-01  0.5492E-01
     -2.581  0.7749E-02  0.4204E-02  0.5718E-01  0.5511E-01
     -2.535  0.7101E-02  0.5850E-02  0.5751E-01  0.5538E-01
     -2.489  0.5486E-02  0.8081E-02  0.5776E-01  0.5576E-01
     -2.443  0.3497E-02  0.1012E-01  0.5792E-01  0.5622E-01
     -2.397  0.1887E-02  0.1110E-01  0.5801E-01  0.5673E-01
     -2.352  0.1192E-02  0.1053E-01  0.5806E-01  0.5722E-01
     -2.306  0.1528E-02  0.8530E-02  0.5813E-01  0.5761E-01
     -2.260  0.2627E-02  0.5718E-02  0.5825E-01  0.5787E-01
     -2.214  0.4022E-02  0.2923E-02  0.5844E-01  0.5800E-01
     -2.168  0.5259E-02  0.8112E-03  0.5868E-01  0.5804E-01
     -2.122  0.6031E-02 -0.2887E-03  0.5896E-01  0.5803E-01
     -2.076  0.6197E-02 -0.3399E-03  0.5924E-01  0.5801E-01
     -2.030  0.5751E-02  0.5270E-03  0.5951E-01  0.5804E-01
     -1.984  0.4787E-02  0.2086E-02  0.5973E-01  0.5813E-01
     -1.938  0.3498E-02  0.4002E-02  0.5989E-01  0.5832E-01
     -1.892  0.2154E-02  0.5825E-02  0.5999E-01  0.5859E-01
     -1.846  0.1014E-02  0.7065E-02  0.6003E-01  0.5891E-01
     -1.800  0.2401E-03  0.7364E-02  0.6004E-01  0.5925E-01
     -1.754 -0.1552E-03  0.6646E-02  0.6004E-01  0.5955E-01
     -1.708 -0.2711E-03  0.5160E-02  0.6002E-01  0.5979E-01
     -1.662 -0.2442E-03  0.3367E-02  0.6001E-01  0.5995E-01
     -1.616 -0.1859E-03  0.1733E-02  0.6000E-01  0.6003E-01
     -1.570 -0.1590E-03  0.5531E-03  0.6000E-01  0.6005E-01
     -1.524 -0.1802E-03 -0.1118E-03  0.5999E-01  0.6005E-01
     -1.478 -0.2251E-03 -0.3803E-03  0.5998E-01  0.6003E-01
     -1.432 -0.2221E-03 -0.4339E-03  0.5997E-01  0.6001E-01
     -1.386 -0.5390E-04 -0.4110E-03  0.5997E-01  0.5999E-01
     -1.340  0.4060E-03 -0.3478E-03  0.5998E-01  0.5997E-01
     -1.294  0.1209E-02 -0.1736E-03  0.6004E-01  0.5997E-01
     -1.248  0.2238E-02  0.2421E-03  0.6014E-01  0.5998E-01
     -1.202  0.3196E-02  0.9940E-03  0.6029E-01  0.6002E-01
     -1.156  0.3732E-02  0.2031E-02  0.6046E-01  0.6012E-01
     -1.110  0.3677E-02  0.3104E-02  0.6063E-01  0.6026E-01
     -1.064  0.3226E-02  0.3834E-02  0.6078E-01  0.6044E-01
     -1.018  0.2893E-02  0.3916E-02  0.6091E-01  0.6062E-01
     -0.972  0.3226E-02  0.3321E-02  0.6106E-01  0.6077E-01
     -0.926  0.4425E-02  0.2369E-02  0.6126E-01  0.6088E-01
     -0.880  0.6135E-02  0.1609E-02  0.6155E-01  0.6095E-01
     -0.834  0.7587E-02  0.1555E-02  0.6189E-01  0.6102E-01
     -0.788  0.8027E-02  0.2433E-02  0.6226E-01  0.6113E-01
     -0.742  0.7148E-02  0.4052E-02  0.6259E-01  0.6132E-01
     -0.696  0.5243E-02  0.5862E-02  0.6283E-01  0.6159E-01
     -0.650  0.3002E-02  0.7178E-02  0.6297E-01  0.6192E-01
     -0.604  0.1139E-02  0.7479E-02  0.6302E-01  0.6226E-01
     -0.558  0.9944E-04  0.6628E-02  0.6303E-01  0.6257E-01
     -0.512 -0.1467E-04  0.4929E-02  0.6303E-01  0.6280E-01
     -0.466  0.6295E-03  0.2964E-02  0.6306E-01  0.6293E-01
     -0.420  0.1716E-02  0.1344E-02  0.6314E-01  0.6299E-01
     -0.374  0.2907E-02  0.4943E-03  0.6327E-01  0.6302E-01
     -0.328  0.3977E-02  0.5503E-03  0.6345E-01  0.6304E-01
     -0.282  0.4907E-02  0.1382E-02  0.6368E-01  0.6311E-01
     -0.236  0.5847E-02  0.2699E-02  0.6395E-01  0.6323E-01
     -0.190  0.6897E-02  0.4193E-02  0.6426E-01  0.6342E-01
     -0.144  0.7898E-02  0.5647E-02  0.6463E-01  0.6368E-01
     -0.098  0.8425E-02  0.6945E-02  0.6501E-01  0.6400E-01
     -0.052  0.8050E-02  0.7984E-02  0.6538E-01  0.6437E-01
     -0.006  0.6676E-02  0.8573E-02  0.6569E-01  0.6476E-01
      0.040  0.4649E-02  0.8464E-02  0.6591E-01  0.6515E-01
      0.086  0.2564E-02  0.7511E-02  0.6602E-01  0.6550E-01
      0.132  0.9351E-03  0.5835E-02  0.6607E-01  0.6577E-01
      0.178 -0.2446E-04  0.3830E-02  0.6607E-01  0.6594E-01
      0.224 -0.3990E-03  0.1979E-02  0.6605E-01  0.6603E-01
      0.270 -0.4175E-03  0.6332E-03  0.6603E-01  0.6606E-01
      0.316 -0.2973E-03 -0.1127E-03  0.6601E-01  0.6606E-01
      0.362 -0.1694E-03 -0.3770E-03  0.6601E-01  0.6604E-01
      0.408 -0.8133E-04 -0.3647E-03  0.6600E-01  0.6602E-01
      0.454 -0.3369E-04 -0.2527E-03  0.6600E-01  0.6601E-01
      0.500 -0.1220E-04 -0.1423E-03  0.6600E-01  0.6601E-01
      0.546 -0.3890E-05 -0.6807E-04  0.6600E-01  0.6600E-01
      0.592 -0.1098E-05 -0.2823E-04  0.6600E-01  0.6600E-01
      0.638 -0.2754E-06 -0.1026E-04  0.6600E-01  0.6600E-01
      0.684 -0.6151E-07 -0.3292E-05  0.6600E-01  0.6600E-01
      0.730 -0.1226E-07 -0.9361E-06  0.6600E-01  0.6600E-01
      0.776 -0.2182E-08 -0.2367E-06  0.6600E-01  0.6600E-01
      0.822 -0.3476E-09 -0.5334E-07  0.6600E-01  0.6600E-01
      0.868 -0.4956E-10 -0.1073E-07  0.6600E-01  0.6600E-01
      0.914 -0.6330E-11 -0.1927E-08  0.6600E-01  0.6600E-01
      0.960 -0.7247E-12 -0.3098E-09  0.6600E-01  0.6600E-01
      1.006 -0.7441E-13 -0.4457E-10  0.6600E-01  0.6600E-01
      1.052 -0.6856E-14 -0.5743E-11  0.6600E-01  0.6600E-01
      1.098 -0.5601E-15 -0.6632E-12  0.6600E-01  0.6600E-01
      1.144 -0.4346E-16 -0.6865E-13  0.6600E-01  0.6600E-01
      1.190 -0.4828E-17 -0.6373E-14  0.6600E-01  0.6600E-01
      1.236  0.0000E+00 -0.5263E-15  0.6600E-01  0.6600E-01
      1.282  0.0000E+00 -0.3863E-16  0.6600E-01  0.6600E-01
      1.328  0.0000E+00 -0.4828E-17  0.6600E-01  0.6600E-01
      1.374  0.0000E+00  0.0000E+00  0.6600E-01  0.6600E-01
      1.419  0.0000E+00  0.0000E+00  0.6600E-01  0.6600E-01
      1.465  0.0000E+00  0.0000E+00  0.6600E-01  0.6600E-01
      1.511  0.0000E+00  0.0000E+00  0.6600E-01  0.6600E-01
      1.557  0.0000E+00  0.0000E+00  0.6600E-01  0.6600E-01
      1.603  0.0000E+00  0.0000E+00  0.6600E-01  0.6600E-01
      1.649  0.0000E+00  0.0000E+00  0.6600E-01  0.6600E-01
      1.695  0.0000E+00  0.0000E+00  0.6600E-01  0.6600E-01
      1.741  0.0000E+00  0.0000E+00  0.6600E-01  0.6600E-01
      1.787  0.0000E+00  0.0000E+00  0.6600E-01  0.6600E-01
      1.833  0.0000E+00  0.0000E+00  0.6600E-01  0.6600E-01
      1.879  0.0000E+00  0.0000E+00  0.6600E-01  0.6600E-01
      1.925  0.0000E+00  0.0000E+00  0.6600E-01  0.6600E-01
      1.971  0.0000E+00  0.0000E+00  0.6600E-01  0.6600E-01
      2.017  0.0000E+00  0.0000E+00  0.6600E-01  0.6600E-01
      2.063  0.0000E+00  0.0000E+00  0.6600E-01  0.6600E-01
