   10   10 1000    2
  0.1280531E+04  0.2325020E-08  0.2276544E-08  0.2419286E-08  0.5000000E-15
   1.0000000000000000E-004
  CAR 
 unknown system                          
    100      1     66
 
  0.1262379E-14  0.1262379E-14  0.1262379E-14  0.1000000E+01
    1       -9.732999     -9.677296   1.000000   1.000000
    2       -8.214748     -7.878657   1.000000   1.000000
    3       -8.186441     -7.840002   1.000000   1.000000
    4       -8.024858     -7.577041   1.000000   1.000000
    5       -7.844289     -7.356251   1.000000   1.000000
    6       -7.656542     -7.053702   1.000000   1.000000
    7       -7.590370     -7.022391   1.000000   1.000000
    8       -7.518897     -6.921911   1.000000   1.000000
    9       -7.465681     -6.863179   1.000000   1.000000
   10       -7.442820     -6.846275   1.000000   1.000000
   11       -7.429695     -6.750501   1.000000   1.000000
   12       -7.373530     -6.623625   1.000000   1.000000
   13       -7.339388     -6.471227   1.000000   1.000000
   14       -7.315392     -6.459613   1.000000   1.000000
   15       -7.004740     -6.433817   1.000000   1.000000
   16       -6.914702     -6.359194   1.000000   1.000000
   17       -6.841495     -6.235372   1.000000   1.000000
   18       -6.663521     -5.946209   1.000000   1.000000
   19       -6.452472     -5.863625   1.000000   1.000000
   20       -6.431466     -5.860340   1.000000   1.000000
   21       -6.392850     -5.814804   1.000000   1.000000
   22       -6.291812     -5.673590   1.000000   1.000000
   23       -6.226298     -5.664485   1.000000   1.000000
   24       -6.218111     -5.656337   1.000000   1.000000
   25       -6.199031     -5.577252   1.000000   1.000000
   26       -6.124674     -5.504485   1.000000   1.000000
   27       -6.076079     -5.466796   1.000000   1.000000
   28       -6.024672     -5.405536   1.000000   1.000000
   29       -5.947227     -5.402815   1.000000   1.000000
   30       -5.894713     -5.338045   1.000000   1.000000
   31       -5.775516     -5.282333   1.000000   1.000000
   32       -5.698888     -5.221675   1.000000   1.000000
   33       -5.679763     -5.171700   1.000000   1.000000
   34       -5.541759     -4.983752   1.000000   1.000000
   35       -5.489353     -4.963941   1.000000   1.000000
   36       -5.484854     -4.889826   1.000000   1.000000
   37       -5.446965     -4.752561   1.000000   1.000043
   38       -5.367650     -4.748647   1.000000   1.000048
   39       -5.252933     -4.704253   1.000000   1.000166
   40       -5.209760     -4.559009   1.000000   1.004464
   41       -5.146328     -4.370185   1.000000   1.035458
   42       -5.144064     -4.352807   1.000000   1.034149
   43       -5.131441     -4.280663   1.000000   0.983936
   44       -5.117432     -4.269372   1.000000   0.966852
   45       -5.022843     -4.262502   1.000000   0.954974
   46       -5.011946     -4.165510   1.000000   0.666562
   47       -5.002311     -4.071929   1.000000   0.283001
   48       -4.960470     -4.027975   1.000000   0.137459
   49       -4.927238     -3.972189   1.000000   0.019360
   50       -4.884144     -3.913956   1.000001  -0.030041
   51       -4.840265     -3.877870   1.000003  -0.035435
   52       -4.823287     -3.859939   1.000005  -0.034072
   53       -4.737544     -3.699019   1.000066  -0.005115
   54       -4.458862     -3.646677   1.019961  -0.001844
   55       -2.987672     -2.761320  -0.000000  -0.000000
   56       -2.872688     -2.488603  -0.000000  -0.000000
   57       -2.626565     -2.394370  -0.000000  -0.000000
   58       -2.573721     -2.370374  -0.000000  -0.000000
   59       -2.196758     -1.888390  -0.000000  -0.000000
   60       -2.031034     -1.778449  -0.000000  -0.000000
   61       -1.155668     -1.051728  -0.000000  -0.000000
   62       -0.835996     -0.685397  -0.000000  -0.000000
   63       -0.801225     -0.592532  -0.000000  -0.000000
   64       -0.331423     -0.179896  -0.000000  -0.000000
   65       -0.116327     -0.013851  -0.000000  -0.000000
   66       -0.074920      0.063320  -0.000000  -0.000000
