       N       E                     dE             d eps       ncg     rms          rms(c)
DAV:   1     0.733212190504E+03    0.73321E+03   -0.15667E+04   264   0.688E+02
DAV:   2     0.259744525934E+03   -0.47347E+03   -0.43617E+03   480   0.113E+02
DAV:   3     0.285243454142E+02   -0.23122E+03   -0.21476E+03   368   0.127E+02
DAV:   4    -0.364451508703E+02   -0.64969E+02   -0.56532E+02   416   0.577E+01
DAV:   5    -0.436014572701E+02   -0.71563E+01   -0.62555E+01   326   0.252E+01    0.254E+01
DAV:   6    -0.570698731916E+02   -0.13468E+02   -0.97760E+01   298   0.124E+02    0.538E+01
DAV:   7    -0.382116364536E+02    0.18858E+02   -0.67512E+01   330   0.684E+01    0.180E+01
DAV:   8    -0.408862740715E+02   -0.26746E+01   -0.30216E+01   396   0.718E+01    0.328E+01
DAV:   9    -0.360274807701E+02    0.48588E+01   -0.13332E+01   354   0.586E+01    0.158E+01
DAV:  10    -0.374007969490E+02   -0.13733E+01   -0.12395E+01   366   0.481E+01    0.301E+01
DAV:  11    -0.356922919386E+02    0.17085E+01   -0.84895E+00   356   0.347E+01    0.158E+01
DAV:  12    -0.359450807190E+02   -0.25279E+00   -0.32099E+00   332   0.193E+01    0.134E+01
DAV:  13    -0.360756996897E+02   -0.13062E+00   -0.14906E+00   306   0.159E+01    0.794E+00
DAV:  14    -0.360786347207E+02   -0.29350E-02   -0.71989E-01   318   0.104E+01    0.480E+00
DAV:  15    -0.363629569832E+02   -0.28432E+00   -0.13143E-01   322   0.378E+00    0.300E+00
DAV:  16    -0.367900419165E+02   -0.42708E+00   -0.25048E-01   342   0.821E+00    0.527E+00
DAV:  17    -0.368730869726E+02   -0.83045E-01   -0.27224E-01   302   0.890E+00    0.265E+00
DAV:  18    -0.371630856866E+02   -0.29000E+00   -0.62336E-02   342   0.291E+00    0.113E+00
DAV:  19    -0.373506145782E+02   -0.18753E+00   -0.31479E-02   382   0.147E+00    0.761E-01
DAV:  20    -0.374465928097E+02   -0.95978E-01   -0.67794E-03   300   0.107E+00    0.494E-01
DAV:  21    -0.375633425702E+02   -0.11675E+00   -0.38061E-03   348   0.526E-01    0.237E-01
DAV:  22    -0.377000731095E+02   -0.13673E+00   -0.42199E-03   292   0.377E-01    0.186E-01
DAV:  23    -0.378061326930E+02   -0.10606E+00   -0.32406E-03   288   0.351E-01    0.152E-01
DAV:  24    -0.379115295383E+02   -0.10540E+00   -0.41664E-03   274   0.323E-01    0.129E-01
DAV:  25    -0.379677108857E+02   -0.56181E-01   -0.17076E-03   258   0.190E-01    0.905E-02
DAV:  26    -0.380049842657E+02   -0.37273E-01   -0.80290E-04   240   0.113E-01    0.649E-02
DAV:  27    -0.380441445115E+02   -0.39160E-01   -0.86943E-04   250   0.112E-01    0.461E-02
DAV:  28    -0.380750614016E+02   -0.30917E-01   -0.81162E-04   270   0.107E-01    0.384E-02
DAV:  29    -0.380937092463E+02   -0.18648E-01   -0.42586E-04   244   0.878E-02    0.244E-02
DAV:  30    -0.381032395091E+02   -0.95303E-02   -0.16547E-04   212   0.587E-02    0.199E-02
DAV:  31    -0.381087633334E+02   -0.55238E-02   -0.65981E-05   208   0.438E-02    0.180E-02
DAV:  32    -0.381127363197E+02   -0.39730E-02   -0.69863E-05   196   0.352E-02    0.988E-03
DAV:  33    -0.381147477275E+02   -0.20114E-02   -0.29262E-05   180   0.204E-02    0.903E-03
DAV:  34    -0.381158938209E+02   -0.11461E-02   -0.19817E-05   208   0.162E-02    0.515E-03
DAV:  35    -0.381168587969E+02   -0.96498E-03   -0.15512E-05   180   0.134E-02    0.480E-03
DAV:  36    -0.381176041942E+02   -0.74540E-03   -0.16965E-05   190   0.120E-02    0.487E-03
DAV:  37    -0.381180139319E+02   -0.40974E-03   -0.10286E-05   200   0.109E-02    0.361E-03
DAV:  38    -0.381182563240E+02   -0.24239E-03   -0.80787E-06   172   0.881E-03    0.215E-03
DAV:  39    -0.381184134516E+02   -0.15713E-03   -0.55444E-06   184   0.675E-03    0.176E-03
DAV:  40    -0.381185227053E+02   -0.10925E-03   -0.35799E-06   176   0.602E-03    0.276E-03
DAV:  41    -0.381186063822E+02   -0.83677E-04   -0.26480E-06   184   0.530E-03
   1 F= -.38118606E+02 E0= -.38125753E+02  d E =-.381186E+02  mag=     8.0420
       N       E                     dE             d eps       ncg     rms          rms(c)
DAV:   1    -0.381188503730E+02   -0.32767E-03   -0.13189E-01   266   0.132E+00    0.113E-01
DAV:   2    -0.381188976568E+02   -0.47284E-04   -0.30001E-03   398   0.577E-01    0.403E-01
DAV:   3    -0.381188127889E+02    0.84868E-04   -0.36912E-03   310   0.745E-01    0.387E-01
DAV:   4    -0.381189290635E+02   -0.11627E-03   -0.20017E-03   280   0.545E-01    0.269E-01
DAV:   5    -0.381188970458E+02    0.32018E-04   -0.36105E-04   192   0.368E-01
   2 F= -.38118897E+02 E0= -.38125878E+02  d E =-.290664E-03  mag=     8.0414
       N       E                     dE             d eps       ncg     rms          rms(c)
DAV:   1    -0.381188006811E+02    0.12838E-03   -0.23437E-01   268   0.176E+00    0.163E-01
DAV:   2    -0.381193287608E+02   -0.52808E-03   -0.60264E-03   398   0.927E-01    0.618E-01
DAV:   3    -0.381185831733E+02    0.74559E-03   -0.68891E-03   310   0.112E+00    0.435E-01
DAV:   4    -0.381192378108E+02   -0.65464E-03   -0.38581E-03   320   0.731E-01    0.470E-01
DAV:   5    -0.381188537625E+02    0.38405E-03   -0.12620E-03   262   0.558E-01    0.731E-02
DAV:   6    -0.381191865617E+02   -0.33280E-03   -0.17862E-04   176   0.262E-01    0.122E-01
DAV:   7    -0.381192334362E+02   -0.46875E-04   -0.15739E-04   168   0.255E-01
   3 F= -.38119233E+02 E0= -.38126282E+02  d E =-.627054E-03  mag=     8.0406
