 vasp.6.1.2 22Jul20 (build Aug  2 2021 21:04:21) gamma-only                      
 executed on             LinuxPGI date 2021.12.23  05:52:36
 running on   16 total cores
 distrk:  each k-point on   16 cores,    1 groups
 distr:  one band on NCORE=   8 cores,    2 groups


--------------------------------------------------------------------------------------------------------


 INCAR:
 POTCAR:    PAW_PBE Ni 02Aug2007                  
 POTCAR:    PAW_PBE Pd 04Jan2005                  
 -----------------------------------------------------------------------------
|                                                                             |
|           W    W    AA    RRRRR   N    N  II  N    N   GGGG   !!!           |
|           W    W   A  A   R    R  NN   N  II  NN   N  G    G  !!!           |
|           W    W  A    A  R    R  N N  N  II  N N  N  G       !!!           |
|           W WW W  AAAAAA  RRRRR   N  N N  II  N  N N  G  GGG   !            |
|           WW  WW  A    A  R   R   N   NN  II  N   NN  G    G                |
|           W    W  A    A  R    R  N    N  II  N    N   GGGG   !!!           |
|                                                                             |
|     You use a magnetic or noncollinear calculation, but did not specify     |
|     the initial magnetic moment with the MAGMOM tag. Note that a            |
|     default of 1 will be used for all atoms. This ferromagnetic setup       |
|     may break the symmetry of the crystal, in particular it may rule        |
|     out finding an antiferromagnetic solution. Thence, we recommend         |
|     setting the initial magnetic moment manually or verifying carefully     |
|     that this magnetic setup is desired.                                    |
|                                                                             |
 -----------------------------------------------------------------------------

 POTCAR:    PAW_PBE Ni 02Aug2007                  
   SHA256 =  0534bc51ca8003dfef23f56753fef9fdd3e22eac8d719fccacb59f3e6b7a69c7 Ni/POTCAR             
   COPYR  = (c) Copyright 02Aug2007 Georg Kresse                                                    
   COPYR  = This file is part of the software VASP. Any use, copying, and all other rights are regul
   COPYR  = If you do not have a valid VASP license, you may not use, copy or distribute this file. 
   VRHFIN =Ni:                                                                                      
   LEXCH  = PE                                                                                      
   EATOM  =  1077.6739 eV,   79.2068 Ry                                                             
                                                                                                    
   TITEL  = PAW_PBE Ni 02Aug2007                                                                    
   LULTRA =        F    use ultrasoft PP ?                                                          
   IUNSCR =        1    unscreen: 0-lin 1-nonlin 2-no                                               
   RPACOR =    2.000    partial core radius                                                         
   POMASS =   58.690; ZVAL   =   10.000    mass and valenz                                          
   RCORE  =    2.300    outmost cutoff radius                                                       
   RWIGS  =    2.430; RWIGS  =    1.286    wigner-seitz radius (au A)                               
   ENMAX  =  269.532; ENMIN  =  202.149 eV                                                          
   RCLOC  =    1.201    cutoff for local pot                                                        
   LCOR   =        T    correct aug charges                                                         
   LPAW   =        T    paw PP                                                                      
   EAUG   =  544.565                                                                                
   DEXC   =    0.000                                                                                
   RMAX   =    2.357    core radius for proj-oper                                                   
   RAUG   =    1.300    factor for augmentation sphere                                              
   RDEP   =    2.390    radius for radial grids                                                     
   RDEPT  =    1.838    core radius for aug-charge                                                  
                                                                                                    
   Atomic configuration                                                                             
    9 entries                                                                                       
     n  l   j            E        occ.                                                              
     1  0  0.50     -8206.4253   2.0000                                                             
     2  0  0.50      -976.1748   2.0000                                                             
     2  1  1.50      -839.0571   6.0000                                                             
     3  0  0.50      -105.9991   2.0000                                                             
     3  1  1.50       -66.4603   6.0000                                                             
     3  2  2.50        -4.6458   9.0000                                                             
     4  0  0.50        -4.4926   1.0000                                                             
     4  1  1.50        -4.0817   0.0000                                                             
     4  3  2.50        -1.3606   0.0000                                                             
   Description                                                                                      
     l       E           TYP  RCUT    TYP  RCUT                                                     
     2     -4.6457903     23  2.300                                                                 
     2     -6.0063729     23  2.300                                                                 
     0     -4.4925590     23  2.300                                                                 
     0      5.0102601     23  2.300                                                                 
     1     -2.7211652     23  2.300                                                                 
     1     16.5183231     23  2.300                                                                 
  local pseudopotential read in
  partial core-charges read in
  partial kinetic energy density read in
  atomic valenz-charges read in
  non local Contribution for L=            2  read in
    real space projection operators read in
  non local Contribution for L=            2  read in
    real space projection operators read in
  non local Contribution for L=            0  read in
    real space projection operators read in
  non local Contribution for L=            0  read in
    real space projection operators read in
  non local Contribution for L=            1  read in
    real space projection operators read in
  non local Contribution for L=            1  read in
    real space projection operators read in
    PAW grid and wavefunctions read in
 
   number of l-projection  operators is LMAX  =            6
   number of lm-projection operators is LMMAX =           18
 
 POTCAR:    PAW_PBE Pd 04Jan2005                  
   SHA256 =  dd6f6f02930356371984e2b707ff5e456046761dc76b07c1eba30abd15eb3c39 Pd/POTCAR             
   COPYR  = (c) Copyright 04Jan2005 Georg Kresse                                                    
   COPYR  = This file is part of the software VASP. Any use, copying, and all other rights are regul
   COPYR  = If you do not have a valid VASP license, you may not use, copy or distribute this file. 
   VRHFIN =Pd : s1 d9                                                                               
   LEXCH  = PE                                                                                      
   EATOM  =   809.7530 eV,   59.5152 Ry                                                             
                                                                                                    
   TITEL  = PAW_PBE Pd 04Jan2005                                                                    
   LULTRA =        F    use ultrasoft PP ?                                                          
   IUNSCR =        1    unscreen: 0-lin 1-nonlin 2-no                                               
   RPACOR =    2.000    partial core radius                                                         
   POMASS =  106.420; ZVAL   =   10.000    mass and valenz                                          
   RCORE  =    2.600    outmost cutoff radius                                                       
   RWIGS  =    2.710; RWIGS  =    1.434    wigner-seitz radius (au A)                               
   ENMAX  =  250.925; ENMIN  =  188.194 eV                                                          
   ICORE  =        3    local potential                                                             
   LCOR   =        T    correct aug charges                                                         
   LPAW   =        T    paw PP                                                                      
   EAUG   =  416.230                                                                                
   DEXC   =    0.000                                                                                
   RMAX   =    2.653    core radius for proj-oper                                                   
   RAUG   =    1.300    factor for augmentation sphere                                              
   RDEP   =    2.734    radius for radial grids                                                     
   RDEPT  =    2.103    core radius for aug-charge                                                  
                                                                                                    
   Atomic configuration                                                                             
   12 entries                                                                                       
     n  l   j            E        occ.                                                              
     1  0  0.50    -24164.6631   2.0000                                                             
     2  0  0.50     -3530.9218   2.0000                                                             
     2  1  1.50     -3165.6822   6.0000                                                             
     3  0  0.50      -639.4577   2.0000                                                             
     3  1  1.50      -519.4532   6.0000                                                             
     3  2  2.50      -328.9757  10.0000                                                             
     4  0  0.50       -88.7014   2.0000                                                             
     4  1  1.50       -54.4540   6.0000                                                             
     4  2  2.50        -6.6878   9.0000                                                             
     5  0  0.50        -4.3543   1.0000                                                             
     5  1  0.50        -1.3606   0.0000                                                             
     4  3  2.50        -1.3606   0.0000                                                             
   Description                                                                                      
     l       E           TYP  RCUT    TYP  RCUT                                                     
     2     -6.6878251     23  2.400                                                                 
     2     -8.0484077     23  2.400                                                                 
     0     -4.3542939     23  2.400                                                                 
     0      4.3406793     23  2.400                                                                 
     1     -4.0817478     23  2.600                                                                 
     1     15.8380318     23  2.600                                                                 
     3     -4.0817478     23  2.400                                                                 
  local pseudopotential read in
  partial core-charges read in
  partial kinetic energy density read in
  atomic valenz-charges read in
  non local Contribution for L=            2  read in
    real space projection operators read in
  non local Contribution for L=            2  read in
    real space projection operators read in
  non local Contribution for L=            0  read in
    real space projection operators read in
  non local Contribution for L=            0  read in
    real space projection operators read in
  non local Contribution for L=            1  read in
    real space projection operators read in
  non local Contribution for L=            1  read in
    real space projection operators read in
    PAW grid and wavefunctions read in
 
   number of l-projection  operators is LMAX  =            6
   number of lm-projection operators is LMMAX =           18
 
  PAW_PBE Ni 02Aug2007                  :
 energy of atom  1       EATOM=-1077.6739
 kinetic energy error for atom=    0.0101 (will be added to EATOM!!)
  PAW_PBE Pd 04Jan2005                  :
 energy of atom  2       EATOM= -809.7530
 kinetic energy error for atom=    0.0091 (will be added to EATOM!!)
 
 
 POSCAR: Ni Pd
  positions in cartesian coordinates
  No initial velocities read in
 exchange correlation table for  LEXCH =        8
   RHO(1)=    0.500       N(1)  =     2000
   RHO(2)=  100.500       N(2)  =     4000
 


--------------------------------------------------------------------------------------------------------


 ion  position               nearest neighbor table
   1  0.510  0.512  0.557-   3 2.23   4 2.36   2 2.37   7 2.42   9 2.49
   2  0.529  0.482  0.465-   5 2.23   4 2.36   1 2.37   7 2.42   8 2.49
   3  0.473  0.596  0.527-   1 2.23   6 2.36   5 2.37  10 2.42   9 2.50
   4  0.440  0.459  0.507-   6 2.23   2 2.36   1 2.36   8 2.51   9 2.51
   5  0.492  0.567  0.435-   2 2.23   6 2.36   3 2.37  10 2.42   8 2.50
   6  0.403  0.543  0.477-   4 2.23   5 2.36   3 2.36   9 2.50   8 2.50
   7  0.604  0.529  0.517-   1 2.42   2 2.42  10 2.57
   8  0.442  0.475  0.405-   2 2.49   5 2.50   6 2.50   4 2.51
   9  0.407  0.530  0.580-   1 2.49   3 2.50   6 2.50   4 2.51
  10  0.562  0.627  0.482-   5 2.42   3 2.42   7 2.57
 

IMPORTANT INFORMATION: All symmetrisations will be switched off!
NOSYMM: (Re-)initialisation of all symmetry stuff for point group C_1.


----------------------------------------------------------------------------------------

                                     Primitive cell                                     

  volume of cell :   12805.3053

  direct lattice vectors                    reciprocal lattice vectors
    23.250204164  0.000000000  0.000000000     0.043010375  0.000000000  0.000000000
     0.000000000 22.765437008  0.000000000     0.000000000  0.043926238  0.000000000
     0.000000000  0.000000000 24.192857944     0.000000000  0.000000000  0.041334513

  length of vectors
    23.250204164 22.765437008 24.192857944     0.043010375  0.043926238  0.041334513

  position of ions in fractional coordinates (direct lattice)
     0.510390694  0.511548213  0.556942502
     0.528513848  0.482004927  0.464565970
     0.473407913  0.596304256  0.526903517
     0.440156972  0.458985070  0.507066658
     0.491655248  0.566848474  0.434583614
     0.403367552  0.543462362  0.477007872
     0.604173935  0.529318476  0.516987533
     0.441570479  0.475319963  0.404511209
     0.407441713  0.530372992  0.579663509
     0.561806871  0.626677032  0.482434859

  ion indices of the primitive-cell ions
   primitive index   ion index
                 1           1
                 2           2
                 3           3
                 4           4
                 5           5
                 6           6
                 7           7
                 8           8
                 9           9
                10          10

----------------------------------------------------------------------------------------

 
 
 KPOINTS: KPOINTS created by Atomic Simulation Env

Automatic generation of k-mesh.
Space group operators:
 irot       det(A)        alpha          n_x          n_y          n_z        tau_x        tau_y        tau_z
    1     1.000000     0.000001     1.000000     0.000000     0.000000     0.000000     0.000000     0.000000
 
 Subroutine IBZKPT returns following result:
 ===========================================
 
 Found      1 irreducible k-points:
 
 Following reciprocal coordinates:
            Coordinates               Weight
  0.000000  0.000000  0.000000      1.000000
 
 Following cartesian coordinates:
            Coordinates               Weight
  0.000000  0.000000  0.000000      1.000000
 


--------------------------------------------------------------------------------------------------------




 Dimension of arrays:
   k-points           NKPTS =      1   k-points in BZ     NKDIM =      1   number of bands    NBANDS=     66
   number of dos      NEDOS =    301   number of ions     NIONS =     10
   non local maximal  LDIM  =      6   non local SUM 2l+1 LMDIM =     18
   total plane-waves  NPLWV = ******
   max r-space proj   IRMAX =      1   max aug-charges    IRDMAX=   6308
   dimension x,y,z NGX =   120 NGY =  112 NGZ =  120
   dimension x,y,z NGXF=   240 NGYF=  224 NGZF=  240
   support grid    NGXF=   240 NGYF=  224 NGZF=  240
   ions per type =               6   4
   NGX,Y,Z   is equivalent  to a cutoff of   8.58,  8.18,  8.25 a.u.
   NGXF,Y,Z  is equivalent  to a cutoff of  17.16, 16.36, 16.49 a.u.

 SYSTEM =  unknown system                          
 POSCAR =  Ni Pd                                   

 Startparameter for this run:
   NWRITE =      2    write-flag & timer
   PREC   = normal    normal or accurate (medium, high low for compatibility)
   ISTART =      0    job   : 0-new  1-cont  2-samecut
   ICHARG =      2    charge: 1-file 2-atom 10-const
   ISPIN  =      2    spin polarized calculation?
   LNONCOLLINEAR =      F non collinear calculations
   LSORBIT =      F    spin-orbit coupling
   INIWAV =      1    electr: 0-lowe 1-rand  2-diag
   LASPH  =      F    aspherical Exc in radial PAW
   METAGGA=      F    non-selfconsistent MetaGGA calc.

 Electronic Relaxation 1
   ENCUT  =  400.0 eV  29.40 Ry    5.42 a.u.  37.92 37.12 39.45*2*pi/ulx,y,z
   ENINI  =  400.0     initial cutoff
   ENAUG  =  544.6 eV  augmentation charge cutoff
   NELM   =     60;   NELMIN=  2; NELMDL=  0     # of ELM steps 
   EDIFF  = 0.1E-03   stopping-criterion for ELM
   LREAL  =      F    real-space projection
   NLSPLINE    = F    spline interpolate recip. space projectors
   LCOMPAT=      F    compatible to vasp.4.4
   GGA_COMPAT  = T    GGA compatible to vasp.4.4-vasp.4.6
   LMAXPAW     = -100 max onsite density
   LMAXMIX     =    2 max onsite mixed and CHGCAR
   VOSKOWN=      0    Vosko Wilk Nusair interpolation
   ROPT   =    0.00000   0.00000
 Ionic relaxation
   EDIFFG = 0.1E-02   stopping-criterion for IOM
   NSW    =   1000    number of steps for IOM
   NBLOCK =      1;   KBLOCK =   1000    inner block; outer block 
   IBRION =      2    ionic relax: 0-MD 1-quasi-New 2-CG
   NFREE  =      1    steps in history (QN), initial steepest desc. (CG)
   ISIF   =      0    stress and relaxation
   IWAVPR =     11    prediction:  0-non 1-charg 2-wave 3-comb
   ISYM   =      0    0-nonsym 1-usesym 2-fastsym
   LCORR  =      T    Harris-Foulkes like correction to forces

   POTIM  = 0.5000    time-step for ionic-motion
   TEIN   =    0.0    initial temperature
   TEBEG  =    0.0;   TEEND  =   0.0 temperature during run
   SMASS  =  -3.00    Nose mass-parameter (am)
   estimated Nose-frequenzy (Omega)   =  0.10E-29 period in steps = 0.13E+47 mass=  -0.124E-25a.u.
   SCALEE = 1.0000    scale energy and forces
   NPACO  =    256;   APACO  = 16.0  distance and # of slots for P.C.
   PSTRESS=    0.0 pullay stress

  Mass of Ions in am
   POMASS =  58.69106.42
  Ionic Valenz
   ZVAL   =  10.00 10.00
  Atomic Wigner-Seitz radii
   RWIGS  =  -1.00 -1.00
  virtual crystal weights 
   VCA    =   1.00  1.00
   NELECT =     100.0000    total number of electrons
   NUPDOWN=      -1.0000    fix difference up-down

 DOS related values:
   EMIN   =  10.00;   EMAX   =-10.00  energy-range for DOS
   EFERMI =   0.00
   ISMEAR =     1;   SIGMA  =   0.20  broadening in eV -4-tet -1-fermi 0-gaus

 Electronic relaxation 2 (details)
   IALGO  =     38    algorithm
   LDIAG  =      T    sub-space diagonalisation (order eigenvalues)
   LSUBROT=      F    optimize rotation matrix (better conditioning)
   TURBO    =      0    0=normal 1=particle mesh
   IRESTART =      0    0=no restart 2=restart with 2 vectors
   NREBOOT  =      0    no. of reboots
   NMIN     =      0    reboot dimension
   EREF     =   0.00    reference energy to select bands
   IMIX   =      4    mixing-type and parameters
     AMIX     =   0.40;   BMIX     =  1.00
     AMIX_MAG =   1.60;   BMIX_MAG =  1.00
     AMIN     =   0.10
     WC   =   100.;   INIMIX=   1;  MIXPRE=   1;  MAXMIX= -45

 Intra band minimization:
   WEIMIN = 0.0010     energy-eigenvalue tresh-hold
   EBREAK =  0.38E-06  absolut break condition
   DEPER  =   0.30     relativ break condition  

   TIME   =   0.40     timestep for ELM

  volume/ion in A,a.u.               =    1280.53      8641.45
  Fermi-wavevector in a.u.,A,eV,Ry     =   0.324797  0.613777  1.435317  0.105493
  Thomas-Fermi vector in A             =   1.215233
 
 Write flags
   LWAVE        =      F    write WAVECAR
   LDOWNSAMPLE  =      F    k-point downsampling of WAVECAR
   LCHARG       =      F    write CHGCAR
   LVTOT        =      F    write LOCPOT, total local potential
   LVHAR        =      F    write LOCPOT, Hartree potential only
   LELF         =      F    write electronic localiz. function (ELF)
   LORBIT       =      0    0 simple, 1 ext, 2 COOP (PROOUT), +10 PAW based schemes


 Dipole corrections
   LMONO  =      F    monopole corrections only (constant potential shift)
   LDIPOL =      F    correct potential (dipole corrections)
   IDIPOL =      0    1-x, 2-y, 3-z, 4-all directions 
   EPSILON=  1.0000000 bulk dielectric constant

 Exchange correlation treatment:
   GGA     =    PE    GGA type
   LEXCH   =     8    internal setting for exchange type
   VOSKOWN=      0    Vosko Wilk Nusair interpolation
   LHFCALC =     F    Hartree Fock is set to
   LHFONE  =     F    Hartree Fock one center treatment
   AEXX    =    0.0000 exact exchange contribution

 Linear response parameters
   LEPSILON=     F    determine dielectric tensor
   LRPA    =     F    only Hartree local field effects (RPA)
   LNABLA  =     F    use nabla operator in PAW spheres
   LVEL    =     F    velocity operator in full k-point grid
   LINTERFAST=   F  fast interpolation
   KINTER  =     0    interpolate to denser k-point grid
   CSHIFT  =0.1000    complex shift for real part using Kramers Kronig
   OMEGAMAX=  -1.0    maximum frequency
   DEG_THRESHOLD= 0.2000000E-02 threshold for treating states as degnerate
   RTIME   =   -0.100 relaxation time in fs
  (WPLASMAI=    0.000 imaginary part of plasma frequency in eV, 0.658/RTIME)
   DFIELD  = 0.0000000 0.0000000 0.0000000 field for delta impulse in time
 
 Orbital magnetization related:
   ORBITALMAG=     F  switch on orbital magnetization
   LCHIMAG   =     F  perturbation theory with respect to B field
   DQ        =  0.001000  dq finite difference perturbation B field
   LLRAUG    =     F  two centre corrections for induced B field



--------------------------------------------------------------------------------------------------------


 conjugate gradient relaxation of ions
 charge density and potential will be updated during run
 spin polarized calculation
 Variant of blocked Davidson
 Davidson routine will perform the subspace rotation
 perform sub-space diagonalisation
    after iterative eigenvector-optimisation
 modified Broyden-mixing scheme, WC =      100.0
 initial mixing is a Kerker type mixing with AMIX =  0.4000 and BMIX =      1.0000
 Hartree-type preconditioning will be used
 using additional bands            16
 reciprocal scheme for non local part
 use partial core corrections
 calculate Harris-corrections to forces 
   (improved forces if not selfconsistent)
 use gradient corrections 
 use of overlap-Matrix (Vanderbilt PP)
 Methfessel and Paxton  Order N= 1 SIGMA  =   0.20


--------------------------------------------------------------------------------------------------------


  energy-cutoff  :      400.00
  volume of cell :    12805.31
      direct lattice vectors                 reciprocal lattice vectors
    23.250204164  0.000000000  0.000000000     0.043010375  0.000000000  0.000000000
     0.000000000 22.765437008  0.000000000     0.000000000  0.043926238  0.000000000
     0.000000000  0.000000000 24.192857944     0.000000000  0.000000000  0.041334513

  length of vectors
    23.250204164 22.765437008 24.192857944     0.043010375  0.043926238  0.041334513


 
 k-points in units of 2pi/SCALE and weight: KPOINTS created by Atomic Simulation Env
   0.00000000  0.00000000  0.00000000       1.000
 
 k-points in reciprocal lattice and weights: KPOINTS created by Atomic Simulation Env
   0.00000000  0.00000000  0.00000000       1.000
 
 position of ions in fractional coordinates (direct lattice) 
   0.51039069  0.51154821  0.55694250
   0.52851385  0.48200493  0.46456597
   0.47340791  0.59630426  0.52690352
   0.44015697  0.45898507  0.50706666
   0.49165525  0.56684847  0.43458361
   0.40336755  0.54346236  0.47700787
   0.60417394  0.52931848  0.51698753
   0.44157048  0.47531996  0.40451121
   0.40744171  0.53037299  0.57966351
   0.56180687  0.62667703  0.48243486
 
 position of ions in cartesian coordinates  (Angst):
  11.86668784 11.64561863 13.47403083
  12.28805487 10.97305281 11.23917852
  11.00683063 13.57512697 12.74730194
  10.23373945 10.44899570 12.26739163
  11.43108490 12.90455323 10.51381964
   9.37837794 12.37215818 11.54018367
  14.04716734 12.05016642 12.50740594
  10.26660380 10.82086667  9.78628222
   9.47310300 12.07417294 14.02371692
  13.06212444 14.26657650 11.67147802
 


--------------------------------------------------------------------------------------------------------


 use parallel FFT for orbitals z direction half grid
 k-point   1 :   0.0000 0.0000 0.0000  plane waves:  116298

 maximum and minimum number of plane-waves per node :     14547    14528

 maximum number of plane-waves:    116298
 maximum index in each direction: 
   IXMAX=   37   IYMAX=   37   IZMAX=   39
   IXMIN=  -37   IYMIN=  -37   IZMIN=    0


 parallel 3D FFT for wavefunctions:
    minimum data exchange during FFTs selected (reduces bandwidth)
 parallel 3D FFT for charge:
    minimum data exchange during FFTs selected (reduces bandwidth)


 total amount of memory used by VASP MPI-rank0   164702. kBytes
=======================================================================

   base      :      30000. kBytes
   nonl-proj :       6517. kBytes
   fftplans  :      31650. kBytes
   grid      :      81123. kBytes
   one-center:         31. kBytes
   wavefun   :      15381. kBytes
 
     INWAV:  cpu time    0.0000: real time    0.0000
 Broyden mixing: mesh for mixing (old mesh)
   NGX = 75   NGY = 75   NGZ = 79
  (NGX  =240   NGY  =224   NGZ  =240)
  gives a total of 444375 points

 initial charge density was supplied:
 charge density of overlapping atoms calculated
 number of electron     100.0000000 magnetization      10.0000000
 keeping initial charge density in first step


--------------------------------------------------------------------------------------------------------


 Maximum index for augmentation-charges           394 (set IRDMAX)


--------------------------------------------------------------------------------------------------------


 First call to EWALD:  gamma=   0.076
 Maximum number of real-space cells 3x 3x 3
 Maximum number of reciprocal cells 3x 3x 3

    FEWALD:  cpu time    0.0008: real time    0.0008


--------------------------------------- Iteration      1(   1)  ---------------------------------------


    POTLOK:  cpu time    2.4622: real time    2.4748
    SETDIJ:  cpu time    0.0202: real time    0.0203
     EDDAV:  cpu time    8.7200: real time    8.9064
       DOS:  cpu time    0.0008: real time    0.0008
    --------------------------------------------
      LOOP:  cpu time   11.2032: real time   11.4022

 eigenvalue-minimisations  :   264
 total energy-change (2. order) : 0.7332122E+03  (-0.1566740E+04)
 number of electron     100.0000000 magnetization      10.0000000
 augmentation part      100.0000000 magnetization      10.0000000

 Free energy of the ion-electron system (eV)
  ---------------------------------------------------
  alpha Z        PSCENC =         4.42548844
  Ewald energy   TEWEN  =     13103.13961855
  -Hartree energ DENC   =    -22074.10605150
  -exchange      EXHF   =         0.00000000
  -V(xc)+E(xc)   XCENC  =        63.04566770
  PAW double counting   =      9003.59075477    -9155.75339974
  entropy T*S    EENTRO =        -0.04246352
  eigenvalues    EBANDS =        83.95398271
  atomic energy  EATOM  =      9704.95859309
  Solvation  Ediel_sol  =         0.00000000
  ---------------------------------------------------
  free energy    TOTEN  =       733.21219050 eV

  energy without entropy =      733.25465402  energy(sigma->0) =      733.22634501


--------------------------------------------------------------------------------------------------------




--------------------------------------- Iteration      1(   2)  ---------------------------------------


     EDDAV:  cpu time   12.3524: real time   12.5411
       DOS:  cpu time    0.0036: real time    0.0036
    --------------------------------------------
      LOOP:  cpu time   12.3560: real time   12.5447

 eigenvalue-minimisations  :   480
 total energy-change (2. order) :-0.4734677E+03  (-0.4361701E+03)
 number of electron     100.0000000 magnetization      10.0000000
 augmentation part      100.0000000 magnetization      10.0000000

 Free energy of the ion-electron system (eV)
  ---------------------------------------------------
  alpha Z        PSCENC =         4.42548844
  Ewald energy   TEWEN  =     13103.13961855
  -Hartree energ DENC   =    -22074.10605150
  -exchange      EXHF   =         0.00000000
  -V(xc)+E(xc)   XCENC  =        63.04566770
  PAW double counting   =      9003.59075477    -9155.75339974
  entropy T*S    EENTRO =        -0.00825669
  eigenvalues    EBANDS =      -389.54788869
  atomic energy  EATOM  =      9704.95859309
  Solvation  Ediel_sol  =         0.00000000
  ---------------------------------------------------
  free energy    TOTEN  =       259.74452593 eV

  energy without entropy =      259.75278262  energy(sigma->0) =      259.74727816


--------------------------------------------------------------------------------------------------------




--------------------------------------- Iteration      1(   3)  ---------------------------------------


     EDDAV:  cpu time    9.9791: real time   10.1233
       DOS:  cpu time    0.0046: real time    0.0046
    --------------------------------------------
      LOOP:  cpu time    9.9837: real time   10.1279

 eigenvalue-minimisations  :   368
 total energy-change (2. order) :-0.2312202E+03  (-0.2147615E+03)
 number of electron     100.0000000 magnetization      10.0000000
 augmentation part      100.0000000 magnetization      10.0000000

 Free energy of the ion-electron system (eV)
  ---------------------------------------------------
  alpha Z        PSCENC =         4.42548844
  Ewald energy   TEWEN  =     13103.13961855
  -Hartree energ DENC   =    -22074.10605150
  -exchange      EXHF   =         0.00000000
  -V(xc)+E(xc)   XCENC  =        63.04566770
  PAW double counting   =      9003.59075477    -9155.75339974
  entropy T*S    EENTRO =         0.00304779
  eigenvalues    EBANDS =      -620.77937369
  atomic energy  EATOM  =      9704.95859309
  Solvation  Ediel_sol  =         0.00000000
  ---------------------------------------------------
  free energy    TOTEN  =        28.52434541 eV

  energy without entropy =       28.52129763  energy(sigma->0) =       28.52332948


--------------------------------------------------------------------------------------------------------




--------------------------------------- Iteration      1(   4)  ---------------------------------------


     EDDAV:  cpu time   11.0016: real time   11.0990
       DOS:  cpu time    0.0050: real time    0.0050
    --------------------------------------------
      LOOP:  cpu time   11.0066: real time   11.1040

 eigenvalue-minimisations  :   416
 total energy-change (2. order) :-0.6496950E+02  (-0.5653238E+02)
 number of electron     100.0000000 magnetization      10.0000000
 augmentation part      100.0000000 magnetization      10.0000000

 Free energy of the ion-electron system (eV)
  ---------------------------------------------------
  alpha Z        PSCENC =         4.42548844
  Ewald energy   TEWEN  =     13103.13961855
  -Hartree energ DENC   =    -22074.10605150
  -exchange      EXHF   =         0.00000000
  -V(xc)+E(xc)   XCENC  =        63.04566770
  PAW double counting   =      9003.59075477    -9155.75339974
  entropy T*S    EENTRO =        -0.02535568
  eigenvalues    EBANDS =      -685.72046651
  atomic energy  EATOM  =      9704.95859309
  Solvation  Ediel_sol  =         0.00000000
  ---------------------------------------------------
  free energy    TOTEN  =       -36.44515087 eV

  energy without entropy =      -36.41979519  energy(sigma->0) =      -36.43669898


--------------------------------------------------------------------------------------------------------




--------------------------------------- Iteration      1(   5)  ---------------------------------------


     EDDAV:  cpu time    9.2188: real time    9.2472
       DOS:  cpu time    0.0053: real time    0.0053
    CHARGE:  cpu time    0.7738: real time    0.7792
    MIXING:  cpu time    0.0499: real time    0.0500
    --------------------------------------------
      LOOP:  cpu time   10.0478: real time   10.0817

 eigenvalue-minimisations  :   326
 total energy-change (2. order) :-0.7156306E+01  (-0.6255497E+01)
 number of electron     100.0000203 magnetization       9.7995851
 augmentation part       52.0725247 magnetization       8.0598774

 Broyden mixing:
  rms(total) = 0.25352E+01    rms(broyden)= 0.25345E+01
  rms(prec ) = 0.26309E+01
  weight for this iteration     100.00

 Free energy of the ion-electron system (eV)
  ---------------------------------------------------
  alpha Z        PSCENC =         4.42548844
  Ewald energy   TEWEN  =     13103.13961855
  -Hartree energ DENC   =    -22074.10605150
  -exchange      EXHF   =         0.00000000
  -V(xc)+E(xc)   XCENC  =        63.04566770
  PAW double counting   =      9003.59075477    -9155.75339974
  entropy T*S    EENTRO =        -0.12336966
  eigenvalues    EBANDS =      -692.77875893
  atomic energy  EATOM  =      9704.95859309
  Solvation  Ediel_sol  =         0.00000000
  ---------------------------------------------------
  free energy    TOTEN  =       -43.60145727 eV

  energy without entropy =      -43.47808761  energy(sigma->0) =      -43.56033405


--------------------------------------------------------------------------------------------------------




--------------------------------------- Iteration      1(   6)  ---------------------------------------


    POTLOK:  cpu time    2.2939: real time    2.3199
    SETDIJ:  cpu time    0.0222: real time    0.0222
     EDDAV:  cpu time    8.3650: real time    8.4126
       DOS:  cpu time    0.0006: real time    0.0006
    CHARGE:  cpu time    0.7428: real time    0.7440
    MIXING:  cpu time    0.0530: real time    0.0531
    --------------------------------------------
      LOOP:  cpu time   11.4775: real time   11.5524

 eigenvalue-minimisations  :   298
 total energy-change (2. order) :-0.1346842E+02  (-0.9775973E+01)
 number of electron     100.0000245 magnetization       9.5637104
 augmentation part       57.3283922 magnetization       9.5966842

 Broyden mixing:
  rms(total) = 0.53769E+01    rms(broyden)= 0.53765E+01
  rms(prec ) = 0.58065E+01
  weight for this iteration     100.00

 eigenvalues of (default mixing * dielectric matrix)
  average eigenvalue GAMMA=   0.2796
  0.2796

 Free energy of the ion-electron system (eV)
  ---------------------------------------------------
  alpha Z        PSCENC =         4.42548844
  Ewald energy   TEWEN  =     13103.13961855
  -Hartree energ DENC   =    -21983.07157627
  -exchange      EXHF   =         0.00000000
  -V(xc)+E(xc)   XCENC  =        59.51518530
  PAW double counting   =      9464.58261048    -9591.80144402
  entropy T*S    EENTRO =         0.01594864
  eigenvalues    EBANDS =      -818.83429741
  atomic energy  EATOM  =      9704.95859309
  Solvation  Ediel_sol  =         0.00000000
  ---------------------------------------------------
  free energy    TOTEN  =       -57.06987319 eV

  energy without entropy =      -57.08582183  energy(sigma->0) =      -57.07518941


--------------------------------------------------------------------------------------------------------




--------------------------------------- Iteration      1(   7)  ---------------------------------------


    POTLOK:  cpu time    2.2767: real time    2.3053
    SETDIJ:  cpu time    0.0212: real time    0.0212
     EDDAV:  cpu time    8.9936: real time    9.1033
       DOS:  cpu time    0.0007: real time    0.0007
    CHARGE:  cpu time    0.7769: real time    0.7784
    MIXING:  cpu time    0.0533: real time    0.0534
    --------------------------------------------
      LOOP:  cpu time   12.1224: real time   12.2623

 eigenvalue-minimisations  :   330
 total energy-change (2. order) : 0.1885824E+02  (-0.6751212E+01)
 number of electron     100.0000220 magnetization       9.4741261
 augmentation part       54.8135277 magnetization       7.0059419

 Broyden mixing:
  rms(total) = 0.17953E+01    rms(broyden)= 0.17938E+01
  rms(prec ) = 0.19560E+01
  weight for this iteration     100.00

 eigenvalues of (default mixing * dielectric matrix)
  average eigenvalue GAMMA=   0.3367
  0.4408  0.2327

 Free energy of the ion-electron system (eV)
  ---------------------------------------------------
  alpha Z        PSCENC =         4.42548844
  Ewald energy   TEWEN  =     13103.13961855
  -Hartree energ DENC   =    -22052.79155505
  -exchange      EXHF   =         0.00000000
  -V(xc)+E(xc)   XCENC  =        61.38473665
  PAW double counting   =      9616.48251754    -9768.25617164
  entropy T*S    EENTRO =        -0.00728801
  eigenvalues    EBANDS =      -707.54757603
  atomic energy  EATOM  =      9704.95859309
  Solvation  Ediel_sol  =         0.00000000
  ---------------------------------------------------
  free energy    TOTEN  =       -38.21163645 eV

  energy without entropy =      -38.20434844  energy(sigma->0) =      -38.20920712


--------------------------------------------------------------------------------------------------------




--------------------------------------- Iteration      1(   8)  ---------------------------------------


    POTLOK:  cpu time    2.2779: real time    2.3038
    SETDIJ:  cpu time    0.0211: real time    0.0211
     EDDAV:  cpu time   10.5568: real time   10.5866
       DOS:  cpu time    0.0009: real time    0.0009
    CHARGE:  cpu time    0.7588: real time    0.7603
    MIXING:  cpu time    0.0596: real time    0.0597
    --------------------------------------------
      LOOP:  cpu time   13.6751: real time   13.7324

 eigenvalue-minimisations  :   396
 total energy-change (2. order) :-0.2674638E+01  (-0.3021570E+01)
 number of electron     100.0000213 magnetization       9.3646418
 augmentation part       53.8062971 magnetization       7.2866351

 Broyden mixing:
  rms(total) = 0.32766E+01    rms(broyden)= 0.32761E+01
  rms(prec ) = 0.34541E+01
  weight for this iteration     100.00

 eigenvalues of (default mixing * dielectric matrix)
  average eigenvalue GAMMA=   0.3978
  0.8113  0.2092  0.1728

 Free energy of the ion-electron system (eV)
  ---------------------------------------------------
  alpha Z        PSCENC =         4.42548844
  Ewald energy   TEWEN  =     13103.13961855
  -Hartree energ DENC   =    -22078.34631672
  -exchange      EXHF   =         0.00000000
  -V(xc)+E(xc)   XCENC  =        62.21538626
  PAW double counting   =      9760.44799472    -9918.09663639
  entropy T*S    EENTRO =         0.00839008
  eigenvalues    EBANDS =      -679.63879211
  atomic energy  EATOM  =      9704.95859309
  Solvation  Ediel_sol  =         0.00000000
  ---------------------------------------------------
  free energy    TOTEN  =       -40.88627407 eV

  energy without entropy =      -40.89466415  energy(sigma->0) =      -40.88907077


--------------------------------------------------------------------------------------------------------




--------------------------------------- Iteration      1(   9)  ---------------------------------------


    POTLOK:  cpu time    2.5095: real time    2.5264
    SETDIJ:  cpu time    0.0216: real time    0.0216
     EDDAV:  cpu time    9.6704: real time    9.8138
       DOS:  cpu time    0.0030: real time    0.0030
    CHARGE:  cpu time    0.7662: real time    0.7716
    MIXING:  cpu time    0.0673: real time    0.0676
    --------------------------------------------
      LOOP:  cpu time   13.0379: real time   13.2040

 eigenvalue-minimisations  :   354
 total energy-change (2. order) : 0.4858793E+01  (-0.1333206E+01)
 number of electron     100.0000225 magnetization       9.2588179
 augmentation part       54.2182216 magnetization       7.1675707

 Broyden mixing:
  rms(total) = 0.15804E+01    rms(broyden)= 0.15795E+01
  rms(prec ) = 0.16613E+01
  weight for this iteration     100.00

 eigenvalues of (default mixing * dielectric matrix)
  average eigenvalue GAMMA=   0.4097
  0.9907  0.2502  0.2502  0.1477

 Free energy of the ion-electron system (eV)
  ---------------------------------------------------
  alpha Z        PSCENC =         4.42548844
  Ewald energy   TEWEN  =     13103.13961855
  -Hartree energ DENC   =    -22089.59632385
  -exchange      EXHF   =         0.00000000
  -V(xc)+E(xc)   XCENC  =        62.44023853
  PAW double counting   =      9896.36133553   -10057.29074842
  entropy T*S    EENTRO =        -0.06278938
  eigenvalues    EBANDS =      -660.40289327
  atomic energy  EATOM  =      9704.95859309
  Solvation  Ediel_sol  =         0.00000000
  ---------------------------------------------------
  free energy    TOTEN  =       -36.02748077 eV

  energy without entropy =      -35.96469139  energy(sigma->0) =      -36.00655098


--------------------------------------------------------------------------------------------------------




--------------------------------------- Iteration      1(  10)  ---------------------------------------


    POTLOK:  cpu time    2.2838: real time    2.3008
    SETDIJ:  cpu time    0.0221: real time    0.0221
     EDDAV:  cpu time   10.1743: real time   10.3063
       DOS:  cpu time    0.0118: real time    0.0118
    CHARGE:  cpu time    0.8317: real time    0.8321
    MIXING:  cpu time    0.0874: real time    0.0875
    --------------------------------------------
      LOOP:  cpu time   13.4112: real time   13.5606

 eigenvalue-minimisations  :   366
 total energy-change (2. order) :-0.1373316E+01  (-0.1239519E+01)
 number of electron     100.0000202 magnetization       9.1868757
 augmentation part       54.1959194 magnetization       7.0854989

 Broyden mixing:
  rms(total) = 0.30096E+01    rms(broyden)= 0.30087E+01
  rms(prec ) = 0.31637E+01
  weight for this iteration     100.00

 eigenvalues of (default mixing * dielectric matrix)
  average eigenvalue GAMMA=   0.4122
  1.2037  0.3332  0.2732  0.1253  0.1253

 Free energy of the ion-electron system (eV)
  ---------------------------------------------------
  alpha Z        PSCENC =         4.42548844
  Ewald energy   TEWEN  =     13103.13961855
  -Hartree energ DENC   =    -22097.25407840
  -exchange      EXHF   =         0.00000000
  -V(xc)+E(xc)   XCENC  =        62.38263705
  PAW double counting   =     10005.23298917   -10167.40631055
  entropy T*S    EENTRO =        -0.00979083
  eigenvalues    EBANDS =      -652.86994347
  atomic energy  EATOM  =      9704.95859309
  Solvation  Ediel_sol  =         0.00000000
  ---------------------------------------------------
  free energy    TOTEN  =       -37.40079695 eV

  energy without entropy =      -37.39100612  energy(sigma->0) =      -37.39753334


--------------------------------------------------------------------------------------------------------




--------------------------------------- Iteration      1(  11)  ---------------------------------------


    POTLOK:  cpu time    2.2922: real time    2.2944
    SETDIJ:  cpu time    0.0354: real time    0.0354
     EDDAV:  cpu time    9.9393: real time   10.1433
       DOS:  cpu time    0.0020: real time    0.0020
    CHARGE:  cpu time    0.8489: real time    0.8506
    MIXING:  cpu time    0.0750: real time    0.0752
    --------------------------------------------
      LOOP:  cpu time   13.1929: real time   13.4011

 eigenvalue-minimisations  :   356
 total energy-change (2. order) : 0.1708505E+01  (-0.8489543E+00)
 number of electron     100.0000214 magnetization       9.1620736
 augmentation part       54.4056218 magnetization       7.1033325

 Broyden mixing:
  rms(total) = 0.15822E+01    rms(broyden)= 0.15810E+01
  rms(prec ) = 0.16671E+01
  weight for this iteration     100.00

 eigenvalues of (default mixing * dielectric matrix)
  average eigenvalue GAMMA=   0.3825
  1.2158  0.3623  0.2515  0.2515  0.1070  0.1070

 Free energy of the ion-electron system (eV)
  ---------------------------------------------------
  alpha Z        PSCENC =         4.42548844
  Ewald energy   TEWEN  =     13103.13961855
  -Hartree energ DENC   =    -22100.71559112
  -exchange      EXHF   =         0.00000000
  -V(xc)+E(xc)   XCENC  =        62.31024683
  PAW double counting   =     10069.89101689   -10232.68209912
  entropy T*S    EENTRO =        -0.04763541
  eigenvalues    EBANDS =      -646.97193009
  atomic energy  EATOM  =      9704.95859309
  Solvation  Ediel_sol  =         0.00000000
  ---------------------------------------------------
  free energy    TOTEN  =       -35.69229194 eV

  energy without entropy =      -35.64465653  energy(sigma->0) =      -35.67641347


--------------------------------------------------------------------------------------------------------




--------------------------------------- Iteration      1(  12)  ---------------------------------------


    POTLOK:  cpu time    2.2921: real time    2.3038
    SETDIJ:  cpu time    0.0207: real time    0.0207
     EDDAV:  cpu time   10.1718: real time   10.1983
       DOS:  cpu time    0.0009: real time    0.0010
    CHARGE:  cpu time    0.8266: real time    0.8283
    MIXING:  cpu time    0.0796: real time    0.0800
    --------------------------------------------
      LOOP:  cpu time   13.3918: real time   13.4320

 eigenvalue-minimisations  :   332
 total energy-change (2. order) :-0.2527888E+00  (-0.3209946E+00)
 number of electron     100.0000215 magnetization       9.1134140
 augmentation part       54.3355058 magnetization       7.0106070

 Broyden mixing:
  rms(total) = 0.13426E+01    rms(broyden)= 0.13421E+01
  rms(prec ) = 0.14136E+01
  weight for this iteration     100.00

 eigenvalues of (default mixing * dielectric matrix)
  average eigenvalue GAMMA=   0.3904
  1.1949  0.5946  0.3104  0.3104  0.1190  0.1190  0.0845

 Free energy of the ion-electron system (eV)
  ---------------------------------------------------
  alpha Z        PSCENC =         4.42548844
  Ewald energy   TEWEN  =     13103.13961855
  -Hartree energ DENC   =    -22103.27366819
  -exchange      EXHF   =         0.00000000
  -V(xc)+E(xc)   XCENC  =        62.16263332
  PAW double counting   =     10082.32424601   -10245.44492606
  entropy T*S    EENTRO =        -0.06829670
  eigenvalues    EBANDS =      -644.16876918
  atomic energy  EATOM  =      9704.95859309
  Solvation  Ediel_sol  =         0.00000000
  ---------------------------------------------------
  free energy    TOTEN  =       -35.94508072 eV

  energy without entropy =      -35.87678402  energy(sigma->0) =      -35.92231515


--------------------------------------------------------------------------------------------------------




--------------------------------------- Iteration      1(  13)  ---------------------------------------


    POTLOK:  cpu time    2.2277: real time    2.3037
    SETDIJ:  cpu time    0.0369: real time    0.0369
     EDDAV:  cpu time    9.1027: real time    9.3596
       DOS:  cpu time    0.0146: real time    0.0146
    CHARGE:  cpu time    0.7556: real time    0.7560
    MIXING:  cpu time    0.1076: real time    0.1077
    --------------------------------------------
      LOOP:  cpu time   12.2451: real time   12.5785

 eigenvalue-minimisations  :   306
 total energy-change (2. order) :-0.1306190E+00  (-0.1490571E+00)
 number of electron     100.0000217 magnetization       9.0987918
 augmentation part       54.3280958 magnetization       6.9781005

 Broyden mixing:
  rms(total) = 0.79387E+00    rms(broyden)= 0.79287E+00
  rms(prec ) = 0.83498E+00
  weight for this iteration     100.00

 eigenvalues of (default mixing * dielectric matrix)
  average eigenvalue GAMMA=   0.3628
  1.2088  0.6146  0.3105  0.3105  0.1266  0.1266  0.1273  0.0780

 Free energy of the ion-electron system (eV)
  ---------------------------------------------------
  alpha Z        PSCENC =         4.42548844
  Ewald energy   TEWEN  =     13103.13961855
  -Hartree energ DENC   =    -22108.11604678
  -exchange      EXHF   =         0.00000000
  -V(xc)+E(xc)   XCENC  =        61.93375315
  PAW double counting   =     10102.41702324   -10266.16319515
  entropy T*S    EENTRO =         0.01178206
  eigenvalues    EBANDS =      -638.68271629
  atomic energy  EATOM  =      9704.95859309
  Solvation  Ediel_sol  =         0.00000000
  ---------------------------------------------------
  free energy    TOTEN  =       -36.07569969 eV

  energy without entropy =      -36.08748175  energy(sigma->0) =      -36.07962704


--------------------------------------------------------------------------------------------------------




--------------------------------------- Iteration      1(  14)  ---------------------------------------


    POTLOK:  cpu time    2.3511: real time    2.3903
    SETDIJ:  cpu time    0.0203: real time    0.0203
     EDDAV:  cpu time    9.1141: real time    9.2085
       DOS:  cpu time    0.0010: real time    0.0010
    CHARGE:  cpu time    0.8260: real time    0.8319
    MIXING:  cpu time    0.0966: real time    0.0968
    --------------------------------------------
      LOOP:  cpu time   12.4091: real time   12.5488

 eigenvalue-minimisations  :   318
 total energy-change (2. order) :-0.2935031E-02  (-0.7198905E-01)
 number of electron     100.0000215 magnetization       9.0361644
 augmentation part       54.3256467 magnetization       6.9367700

 Broyden mixing:
  rms(total) = 0.48038E+00    rms(broyden)= 0.47978E+00
  rms(prec ) = 0.50284E+00
  weight for this iteration     100.00

 eigenvalues of (default mixing * dielectric matrix)
  average eigenvalue GAMMA=   0.4154
  1.3056  0.7119  0.7119  0.3021  0.3021  0.1199  0.1199  0.0956  0.0699

 Free energy of the ion-electron system (eV)
  ---------------------------------------------------
  alpha Z        PSCENC =         4.42548844
  Ewald energy   TEWEN  =     13103.13961855
  -Hartree energ DENC   =    -22109.00937752
  -exchange      EXHF   =         0.00000000
  -V(xc)+E(xc)   XCENC  =        61.88349482
  PAW double counting   =     10108.08181702   -10271.94278574
  entropy T*S    EENTRO =         0.00583821
  eigenvalues    EBANDS =      -637.62132159
  atomic energy  EATOM  =      9704.95859309
  Solvation  Ediel_sol  =         0.00000000
  ---------------------------------------------------
  free energy    TOTEN  =       -36.07863472 eV

  energy without entropy =      -36.08447293  energy(sigma->0) =      -36.08058079


--------------------------------------------------------------------------------------------------------




--------------------------------------- Iteration      1(  15)  ---------------------------------------


    POTLOK:  cpu time    2.4655: real time    2.4934
    SETDIJ:  cpu time    0.0207: real time    0.0207
     EDDAV:  cpu time    9.9942: real time   10.0925
       DOS:  cpu time    0.0006: real time    0.0006
    CHARGE:  cpu time    0.7570: real time    0.7627
    MIXING:  cpu time    0.1089: real time    0.1092
    --------------------------------------------
      LOOP:  cpu time   13.3469: real time   13.4792

 eigenvalue-minimisations  :   322
 total energy-change (2. order) :-0.2843223E+00  (-0.1314287E-01)
 number of electron     100.0000214 magnetization       8.9280629
 augmentation part       54.3493282 magnetization       6.8625451

 Broyden mixing:
  rms(total) = 0.29976E+00    rms(broyden)= 0.29959E+00
  rms(prec ) = 0.31353E+00
  weight for this iteration     100.00

 eigenvalues of (default mixing * dielectric matrix)
  average eigenvalue GAMMA=   0.5015
  1.5361  0.9463  0.9463  0.5701  0.3038  0.3038  0.1201  0.1201  0.0971  0.0709

 Free energy of the ion-electron system (eV)
  ---------------------------------------------------
  alpha Z        PSCENC =         4.42548844
  Ewald energy   TEWEN  =     13103.13961855
  -Hartree energ DENC   =    -22112.11145877
  -exchange      EXHF   =         0.00000000
  -V(xc)+E(xc)   XCENC  =        61.66181731
  PAW double counting   =     10127.26642688   -10291.45714809
  entropy T*S    EENTRO =         0.02412234
  eigenvalues    EBANDS =      -634.27041674
  atomic energy  EATOM  =      9704.95859309
  Solvation  Ediel_sol  =         0.00000000
  ---------------------------------------------------
  free energy    TOTEN  =       -36.36295698 eV

  energy without entropy =      -36.38707933  energy(sigma->0) =      -36.37099776


--------------------------------------------------------------------------------------------------------




--------------------------------------- Iteration      1(  16)  ---------------------------------------


    POTLOK:  cpu time    2.2776: real time    2.3181
    SETDIJ:  cpu time    0.0203: real time    0.0243
     EDDAV:  cpu time   10.0582: real time   10.1622
       DOS:  cpu time    0.0041: real time    0.0041
    CHARGE:  cpu time    0.7899: real time    0.7915
    MIXING:  cpu time    0.1133: real time    0.1137
    --------------------------------------------
      LOOP:  cpu time   13.2634: real time   13.4138

 eigenvalue-minimisations  :   342
 total energy-change (2. order) :-0.4270849E+00  (-0.2504847E-01)
 number of electron     100.0000215 magnetization       8.8809729
 augmentation part       54.3574788 magnetization       6.8491994

 Broyden mixing:
  rms(total) = 0.52655E+00    rms(broyden)= 0.52625E+00
  rms(prec ) = 0.55217E+00
  weight for this iteration     100.00

 eigenvalues of (default mixing * dielectric matrix)
  average eigenvalue GAMMA=   0.4878
  1.6504  0.9778  0.9778  0.5990  0.3041  0.3041  0.1203  0.1203  0.1435  0.0973
  0.0710

 Free energy of the ion-electron system (eV)
  ---------------------------------------------------
  alpha Z        PSCENC =         4.42548844
  Ewald energy   TEWEN  =     13103.13961855
  -Hartree energ DENC   =    -22117.72703051
  -exchange      EXHF   =         0.00000000
  -V(xc)+E(xc)   XCENC  =        61.37795027
  PAW double counting   =     10144.11091190   -10308.68216034
  entropy T*S    EENTRO =         0.02213376
  eigenvalues    EBANDS =      -628.41554708
  atomic energy  EATOM  =      9704.95859309
  Solvation  Ediel_sol  =         0.00000000
  ---------------------------------------------------
  free energy    TOTEN  =       -36.79004192 eV

  energy without entropy =      -36.81217567  energy(sigma->0) =      -36.79741984


--------------------------------------------------------------------------------------------------------




--------------------------------------- Iteration      1(  17)  ---------------------------------------


    POTLOK:  cpu time    2.2960: real time    2.3255
    SETDIJ:  cpu time    0.0167: real time    0.0168
     EDDAV:  cpu time    8.8727: real time    8.9661
       DOS:  cpu time    0.0042: real time    0.0042
    CHARGE:  cpu time    0.7485: real time    0.7502
    MIXING:  cpu time    0.1216: real time    0.1249
    --------------------------------------------
      LOOP:  cpu time   12.0597: real time   12.1877

 eigenvalue-minimisations  :   302
 total energy-change (2. order) :-0.8304506E-01  (-0.2722405E-01)
 number of electron     100.0000216 magnetization       8.7647229
 augmentation part       54.3745379 magnetization       6.7400000

 Broyden mixing:
  rms(total) = 0.26534E+00    rms(broyden)= 0.26494E+00
  rms(prec ) = 0.27899E+00
  weight for this iteration     100.00

 eigenvalues of (default mixing * dielectric matrix)
  average eigenvalue GAMMA=   0.5406
  1.7756  1.0539  1.0539  0.7316  0.7316  0.3032  0.3032  0.1202  0.1202  0.1253
  0.0972  0.0709

 Free energy of the ion-electron system (eV)
  ---------------------------------------------------
  alpha Z        PSCENC =         4.42548844
  Ewald energy   TEWEN  =     13103.13961855
  -Hartree energ DENC   =    -22120.17803890
  -exchange      EXHF   =         0.00000000
  -V(xc)+E(xc)   XCENC  =        61.27658073
  PAW double counting   =     10149.70541307   -10314.42247638
  entropy T*S    EENTRO =         0.02616326
  eigenvalues    EBANDS =      -625.80442883
  atomic energy  EATOM  =      9704.95859309
  Solvation  Ediel_sol  =         0.00000000
  ---------------------------------------------------
  free energy    TOTEN  =       -36.87308697 eV

  energy without entropy =      -36.89925023  energy(sigma->0) =      -36.88180806


--------------------------------------------------------------------------------------------------------




--------------------------------------- Iteration      1(  18)  ---------------------------------------


    POTLOK:  cpu time    2.2670: real time    2.2926
    SETDIJ:  cpu time    0.0206: real time    0.0206
     EDDAV:  cpu time    9.7857: real time    9.9004
       DOS:  cpu time    0.0161: real time    0.0161
    CHARGE:  cpu time    0.8253: real time    0.8257
    MIXING:  cpu time    0.1525: real time    0.1525
    --------------------------------------------
      LOOP:  cpu time   13.0672: real time   13.2078

 eigenvalue-minimisations  :   342
 total energy-change (2. order) :-0.2899987E+00  (-0.6233609E-02)
 number of electron     100.0000216 magnetization       8.6845429
 augmentation part       54.3791463 magnetization       6.6718558

 Broyden mixing:
  rms(total) = 0.11250E+00    rms(broyden)= 0.11243E+00
  rms(prec ) = 0.11949E+00
  weight for this iteration     100.00

 eigenvalues of (default mixing * dielectric matrix)
  average eigenvalue GAMMA=   0.5913
  2.0319  1.1935  0.9765  0.9765  0.7723  0.5948  0.3034  0.3034  0.1202  0.1202
  0.1263  0.0972  0.0709

 Free energy of the ion-electron system (eV)
  ---------------------------------------------------
  alpha Z        PSCENC =         4.42548844
  Ewald energy   TEWEN  =     13103.13961855
  -Hartree energ DENC   =    -22126.16140985
  -exchange      EXHF   =         0.00000000
  -V(xc)+E(xc)   XCENC  =        61.07428567
  PAW double counting   =     10155.61255788   -10320.63969775
  entropy T*S    EENTRO =         0.02472747
  eigenvalues    EBANDS =      -619.59724919
  atomic energy  EATOM  =      9704.95859309
  Solvation  Ediel_sol  =         0.00000000
  ---------------------------------------------------
  free energy    TOTEN  =       -37.16308569 eV

  energy without entropy =      -37.18781316  energy(sigma->0) =      -37.17132818


--------------------------------------------------------------------------------------------------------




--------------------------------------- Iteration      1(  19)  ---------------------------------------


    POTLOK:  cpu time    2.2940: real time    2.2983
    SETDIJ:  cpu time    0.0349: real time    0.0350
     EDDAV:  cpu time   10.6691: real time   10.7305
       DOS:  cpu time    0.0130: real time    0.0130
    CHARGE:  cpu time    0.7468: real time    0.7470
    MIXING:  cpu time    0.1631: real time    0.1632
    --------------------------------------------
      LOOP:  cpu time   13.9210: real time   13.9869

 eigenvalue-minimisations  :   382
 total energy-change (2. order) :-0.1875289E+00  (-0.3147874E-02)
 number of electron     100.0000215 magnetization       8.6384270
 augmentation part       54.3695110 magnetization       6.6428975

 Broyden mixing:
  rms(total) = 0.76090E-01    rms(broyden)= 0.75913E-01
  rms(prec ) = 0.80288E-01
  weight for this iteration     100.00

 eigenvalues of (default mixing * dielectric matrix)
  average eigenvalue GAMMA=   0.5970
  2.0421  1.3359  0.9009  0.9009  0.7267  0.6551  0.6551  0.3034  0.3034  0.1202
  0.1202  0.1265  0.0972  0.0709

 Free energy of the ion-electron system (eV)
  ---------------------------------------------------
  alpha Z        PSCENC =         4.42548844
  Ewald energy   TEWEN  =     13103.13961855
  -Hartree energ DENC   =    -22129.81095924
  -exchange      EXHF   =         0.00000000
  -V(xc)+E(xc)   XCENC  =        60.94173187
  PAW double counting   =     10155.41990362   -10320.60113043
  entropy T*S    EENTRO =         0.02171087
  eigenvalues    EBANDS =      -615.84557135
  atomic energy  EATOM  =      9704.95859309
  Solvation  Ediel_sol  =         0.00000000
  ---------------------------------------------------
  free energy    TOTEN  =       -37.35061458 eV

  energy without entropy =      -37.37232545  energy(sigma->0) =      -37.35785154


--------------------------------------------------------------------------------------------------------




--------------------------------------- Iteration      1(  20)  ---------------------------------------


    POTLOK:  cpu time    2.2842: real time    2.2905
    SETDIJ:  cpu time    0.0355: real time    0.0356
     EDDAV:  cpu time    8.9120: real time    9.0906
       DOS:  cpu time    0.0042: real time    0.0043
    CHARGE:  cpu time    0.8264: real time    0.8325
    MIXING:  cpu time    0.1542: real time    0.1545
    --------------------------------------------
      LOOP:  cpu time   12.2166: real time   12.4079

 eigenvalue-minimisations  :   300
 total energy-change (2. order) :-0.9597823E-01  (-0.6779360E-03)
 number of electron     100.0000215 magnetization       8.5754622
 augmentation part       54.3670253 magnetization       6.5874455

 Broyden mixing:
  rms(total) = 0.49400E-01    rms(broyden)= 0.49367E-01
  rms(prec ) = 0.52872E-01
  weight for this iteration     100.00

 eigenvalues of (default mixing * dielectric matrix)
  average eigenvalue GAMMA=   0.6419
  2.1774  1.2833  1.2833  0.8578  0.8578  0.7213  0.7213  0.5843  0.3034  0.3034
  0.1202  0.1202  0.0709  0.0972  0.1265

 Free energy of the ion-electron system (eV)
  ---------------------------------------------------
  alpha Z        PSCENC =         4.42548844
  Ewald energy   TEWEN  =     13103.13961855
  -Hartree energ DENC   =    -22131.37853420
  -exchange      EXHF   =         0.00000000
  -V(xc)+E(xc)   XCENC  =        60.86023216
  PAW double counting   =     10153.00383282   -10318.21237473
  entropy T*S    EENTRO =         0.02179526
  eigenvalues    EBANDS =      -614.26524420
  atomic energy  EATOM  =      9704.95859309
  Solvation  Ediel_sol  =         0.00000000
  ---------------------------------------------------
  free energy    TOTEN  =       -37.44659281 eV

  energy without entropy =      -37.46838807  energy(sigma->0) =      -37.45385790


--------------------------------------------------------------------------------------------------------




--------------------------------------- Iteration      1(  21)  ---------------------------------------


    POTLOK:  cpu time    2.3032: real time    2.3183
    SETDIJ:  cpu time    0.0206: real time    0.0206
     EDDAV:  cpu time    9.8678: real time    9.9418
       DOS:  cpu time    0.0023: real time    0.0023
    CHARGE:  cpu time    0.7921: real time    0.8057
    MIXING:  cpu time    0.1639: real time    0.1684
    --------------------------------------------
      LOOP:  cpu time   13.1498: real time   13.2571

 eigenvalue-minimisations  :   348
 total energy-change (2. order) :-0.1167498E+00  (-0.3806073E-03)
 number of electron     100.0000215 magnetization       8.4946400
 augmentation part       54.3663879 magnetization       6.5124076

 Broyden mixing:
  rms(total) = 0.23747E-01    rms(broyden)= 0.23725E-01
  rms(prec ) = 0.26575E-01
  weight for this iteration     100.00

 eigenvalues of (default mixing * dielectric matrix)
  average eigenvalue GAMMA=   0.6711
  2.4456  1.1984  1.1984  0.8765  0.8765  0.8773  0.8773  0.6803  0.5647  0.3034
  0.3034  0.1202  0.1202  0.0709  0.0972  0.1265

 Free energy of the ion-electron system (eV)
  ---------------------------------------------------
  alpha Z        PSCENC =         4.42548844
  Ewald energy   TEWEN  =     13103.13961855
  -Hartree energ DENC   =    -22133.37769757
  -exchange      EXHF   =         0.00000000
  -V(xc)+E(xc)   XCENC  =        60.76120194
  PAW double counting   =     10150.88238355   -10316.12159469
  entropy T*S    EENTRO =         0.02215943
  eigenvalues    EBANDS =      -612.25349532
  atomic energy  EATOM  =      9704.95859309
  Solvation  Ediel_sol  =         0.00000000
  ---------------------------------------------------
  free energy    TOTEN  =       -37.56334257 eV

  energy without entropy =      -37.58550200  energy(sigma->0) =      -37.57072905


--------------------------------------------------------------------------------------------------------




--------------------------------------- Iteration      1(  22)  ---------------------------------------


    POTLOK:  cpu time    2.2862: real time    2.3166
    SETDIJ:  cpu time    0.0205: real time    0.0206
     EDDAV:  cpu time    9.1296: real time    9.1717
       DOS:  cpu time    0.0063: real time    0.0063
    CHARGE:  cpu time    0.8026: real time    0.8083
    MIXING:  cpu time    0.1808: real time    0.1814
    --------------------------------------------
      LOOP:  cpu time   12.4259: real time   12.5049

 eigenvalue-minimisations  :   292
 total energy-change (2. order) :-0.1367305E+00  (-0.4219911E-03)
 number of electron     100.0000215 magnetization       8.4221171
 augmentation part       54.3622029 magnetization       6.4495344

 Broyden mixing:
  rms(total) = 0.18595E-01    rms(broyden)= 0.18573E-01
  rms(prec ) = 0.20706E-01
  weight for this iteration     100.00

 eigenvalues of (default mixing * dielectric matrix)
  average eigenvalue GAMMA=   0.7172
  2.6421  1.5096  1.2645  1.2645  0.8693  0.8693  0.7117  0.7117  0.6741  0.5334
  0.3034  0.3034  0.1202  0.1202  0.0709  0.0972  0.1265

 Free energy of the ion-electron system (eV)
  ---------------------------------------------------
  alpha Z        PSCENC =         4.42548844
  Ewald energy   TEWEN  =     13103.13961855
  -Hartree energ DENC   =    -22135.87901355
  -exchange      EXHF   =         0.00000000
  -V(xc)+E(xc)   XCENC  =        60.65219187
  PAW double counting   =     10148.38477305   -10313.66492784
  entropy T*S    EENTRO =         0.02163193
  eigenvalues    EBANDS =      -609.73842865
  atomic energy  EATOM  =      9704.95859309
  Solvation  Ediel_sol  =         0.00000000
  ---------------------------------------------------
  free energy    TOTEN  =       -37.70007311 eV

  energy without entropy =      -37.72170504  energy(sigma->0) =      -37.70728375


--------------------------------------------------------------------------------------------------------




--------------------------------------- Iteration      1(  23)  ---------------------------------------


    POTLOK:  cpu time    2.2768: real time    2.2953
    SETDIJ:  cpu time    0.0194: real time    0.0194
     EDDAV:  cpu time    8.9830: real time    9.0602
       DOS:  cpu time    0.0015: real time    0.0015
    CHARGE:  cpu time    0.7885: real time    0.7981
    MIXING:  cpu time    0.1879: real time    0.1925
    --------------------------------------------
      LOOP:  cpu time   12.2571: real time   12.3669

 eigenvalue-minimisations  :   288
 total energy-change (2. order) :-0.1060596E+00  (-0.3240560E-03)
 number of electron     100.0000215 magnetization       8.3313022
 augmentation part       54.3605917 magnetization       6.3671620

 Broyden mixing:
  rms(total) = 0.15228E-01    rms(broyden)= 0.15199E-01
  rms(prec ) = 0.16822E-01
  weight for this iteration     100.00

 eigenvalues of (default mixing * dielectric matrix)
  average eigenvalue GAMMA=   0.7585
  2.9096  1.7280  1.7280  0.9036  0.9036  0.8122  0.8122  0.7669  0.7669  0.6407
  0.5394  0.3034  0.3034  0.1202  0.1202  0.0709  0.0972  0.1265

 Free energy of the ion-electron system (eV)
  ---------------------------------------------------
  alpha Z        PSCENC =         4.42548844
  Ewald energy   TEWEN  =     13103.13961855
  -Hartree energ DENC   =    -22137.71084392
  -exchange      EXHF   =         0.00000000
  -V(xc)+E(xc)   XCENC  =        60.56187016
  PAW double counting   =     10145.40678460   -10310.68244505
  entropy T*S    EENTRO =         0.02102084
  eigenvalues    EBANDS =      -607.92621941
  atomic energy  EATOM  =      9704.95859309
  Solvation  Ediel_sol  =         0.00000000
  ---------------------------------------------------
  free energy    TOTEN  =       -37.80613269 eV

  energy without entropy =      -37.82715353  energy(sigma->0) =      -37.81313964


--------------------------------------------------------------------------------------------------------




--------------------------------------- Iteration      1(  24)  ---------------------------------------


    POTLOK:  cpu time    2.2607: real time    2.2916
    SETDIJ:  cpu time    0.0218: real time    0.0219
     EDDAV:  cpu time    8.6526: real time    9.0358
       DOS:  cpu time    0.0130: real time    0.0130
    CHARGE:  cpu time    0.7421: real time    0.7425
    MIXING:  cpu time    0.2258: real time    0.2260
    --------------------------------------------
      LOOP:  cpu time   11.9161: real time   12.3308

 eigenvalue-minimisations  :   274
 total energy-change (2. order) :-0.1053968E+00  (-0.4166436E-03)
 number of electron     100.0000215 magnetization       8.2704767
 augmentation part       54.3624318 magnetization       6.3142378

 Broyden mixing:
  rms(total) = 0.12916E-01    rms(broyden)= 0.12898E-01
  rms(prec ) = 0.14026E-01
  weight for this iteration     100.00

 eigenvalues of (default mixing * dielectric matrix)
  average eigenvalue GAMMA=   0.7990
  3.3237  1.9180  1.9180  0.9571  0.9571  0.8220  0.8220  0.8314  0.6862  0.6862
  0.5585  0.5585  0.3034  0.3034  0.1202  0.1202  0.0709  0.0972  0.1265

 Free energy of the ion-electron system (eV)
  ---------------------------------------------------
  alpha Z        PSCENC =         4.42548844
  Ewald energy   TEWEN  =     13103.13961855
  -Hartree energ DENC   =    -22139.65191923
  -exchange      EXHF   =         0.00000000
  -V(xc)+E(xc)   XCENC  =        60.46890178
  PAW double counting   =     10142.43555133   -10307.70074965
  entropy T*S    EENTRO =         0.02106148
  eigenvalues    EBANDS =      -606.00807533
  atomic energy  EATOM  =      9704.95859309
  Solvation  Ediel_sol  =         0.00000000
  ---------------------------------------------------
  free energy    TOTEN  =       -37.91152954 eV

  energy without entropy =      -37.93259102  energy(sigma->0) =      -37.91855003


--------------------------------------------------------------------------------------------------------




--------------------------------------- Iteration      1(  25)  ---------------------------------------


    POTLOK:  cpu time    2.2819: real time    2.2882
    SETDIJ:  cpu time    0.0355: real time    0.0355
     EDDAV:  cpu time    8.0199: real time    8.0881
       DOS:  cpu time    0.0007: real time    0.0007
    CHARGE:  cpu time    0.8469: real time    0.8489
    MIXING:  cpu time    0.2282: real time    0.2286
    --------------------------------------------
      LOOP:  cpu time   11.4130: real time   11.4900

 eigenvalue-minimisations  :   258
 total energy-change (2. order) :-0.5618135E-01  (-0.1707567E-03)
 number of electron     100.0000215 magnetization       8.2277064
 augmentation part       54.3617036 magnetization       6.2777060

 Broyden mixing:
  rms(total) = 0.90532E-02    rms(broyden)= 0.90478E-02
  rms(prec ) = 0.97996E-02
  weight for this iteration     100.00

 eigenvalues of (default mixing * dielectric matrix)
  average eigenvalue GAMMA=   0.8311
  3.6510  2.0180  2.0180  1.1124  0.9909  0.9909  0.8205  0.8205  0.6922  0.6922
  0.5615  0.5615  0.5497  0.3034  0.3034  0.1202  0.1202  0.0709  0.0972  0.1265

 Free energy of the ion-electron system (eV)
  ---------------------------------------------------
  alpha Z        PSCENC =         4.42548844
  Ewald energy   TEWEN  =     13103.13961855
  -Hartree energ DENC   =    -22140.81855276
  -exchange      EXHF   =         0.00000000
  -V(xc)+E(xc)   XCENC  =        60.42213872
  PAW double counting   =     10141.03012483   -10306.30971761
  entropy T*S    EENTRO =         0.02133266
  eigenvalues    EBANDS =      -604.83673680
  atomic energy  EATOM  =      9704.95859309
  Solvation  Ediel_sol  =         0.00000000
  ---------------------------------------------------
  free energy    TOTEN  =       -37.96771089 eV

  energy without entropy =      -37.98904354  energy(sigma->0) =      -37.97482177


--------------------------------------------------------------------------------------------------------




--------------------------------------- Iteration      1(  26)  ---------------------------------------


    POTLOK:  cpu time    2.2879: real time    2.3077
    SETDIJ:  cpu time    0.0205: real time    0.0205
     EDDAV:  cpu time    7.6633: real time    7.7429
       DOS:  cpu time    0.0040: real time    0.0040
    CHARGE:  cpu time    0.8314: real time    0.8450
    MIXING:  cpu time    0.2368: real time    0.2416
    --------------------------------------------
      LOOP:  cpu time   11.0439: real time   11.1616

 eigenvalue-minimisations  :   240
 total energy-change (2. order) :-0.3727338E-01  (-0.8028998E-04)
 number of electron     100.0000215 magnetization       8.1795291
 augmentation part       54.3599111 magnetization       6.2346396

 Broyden mixing:
  rms(total) = 0.64859E-02    rms(broyden)= 0.64808E-02
  rms(prec ) = 0.70316E-02
  weight for this iteration     100.00

 eigenvalues of (default mixing * dielectric matrix)
  average eigenvalue GAMMA=   0.8748
  4.0168  2.1838  2.1838  1.1780  1.0244  1.0244  0.8541  0.8541  0.7685  0.7685
  0.6980  0.6335  0.5261  0.5161  0.3034  0.3034  0.1202  0.1202  0.0709  0.0972
  0.1265

 Free energy of the ion-electron system (eV)
  ---------------------------------------------------
  alpha Z        PSCENC =         4.42548844
  Ewald energy   TEWEN  =     13103.13961855
  -Hartree energ DENC   =    -22141.42354686
  -exchange      EXHF   =         0.00000000
  -V(xc)+E(xc)   XCENC  =        60.38991809
  PAW double counting   =     10140.02674765   -10305.32243628
  entropy T*S    EENTRO =         0.02116569
  eigenvalues    EBANDS =      -604.22053264
  atomic energy  EATOM  =      9704.95859309
  Solvation  Ediel_sol  =         0.00000000
  ---------------------------------------------------
  free energy    TOTEN  =       -38.00498427 eV

  energy without entropy =      -38.02614996  energy(sigma->0) =      -38.01203950


--------------------------------------------------------------------------------------------------------




--------------------------------------- Iteration      1(  27)  ---------------------------------------


    POTLOK:  cpu time    2.2826: real time    2.3196
    SETDIJ:  cpu time    0.0171: real time    0.0173
     EDDAV:  cpu time    7.6972: real time    7.7662
       DOS:  cpu time    0.0030: real time    0.0030
    CHARGE:  cpu time    0.8521: real time    0.8621
    MIXING:  cpu time    0.2567: real time    0.2611
    --------------------------------------------
      LOOP:  cpu time   11.1088: real time   11.2293

 eigenvalue-minimisations  :   250
 total energy-change (2. order) :-0.3916025E-01  (-0.8694347E-04)
 number of electron     100.0000215 magnetization       8.1364098
 augmentation part       54.3598991 magnetization       6.1957063

 Broyden mixing:
  rms(total) = 0.46120E-02    rms(broyden)= 0.46081E-02
  rms(prec ) = 0.49487E-02
  weight for this iteration     100.00

 eigenvalues of (default mixing * dielectric matrix)
  average eigenvalue GAMMA=   0.9289
  4.7681  2.3399  2.3399  1.2832  1.2832  0.9737  0.9737  0.8164  0.8164  0.6903
  0.6903  0.6296  0.6296  0.5603  0.4988  0.3034  0.3034  0.1202  0.1202  0.0709
  0.0972  0.1265

 Free energy of the ion-electron system (eV)
  ---------------------------------------------------
  alpha Z        PSCENC =         4.42548844
  Ewald energy   TEWEN  =     13103.13961855
  -Hartree energ DENC   =    -22141.93685154
  -exchange      EXHF   =         0.00000000
  -V(xc)+E(xc)   XCENC  =        60.35130561
  PAW double counting   =     10138.80643292   -10304.10309507
  entropy T*S    EENTRO =         0.02110112
  eigenvalues    EBANDS =      -603.70673764
  atomic energy  EATOM  =      9704.95859309
  Solvation  Ediel_sol  =         0.00000000
  ---------------------------------------------------
  free energy    TOTEN  =       -38.04414451 eV

  energy without entropy =      -38.06524563  energy(sigma->0) =      -38.05117822


--------------------------------------------------------------------------------------------------------




--------------------------------------- Iteration      1(  28)  ---------------------------------------


    POTLOK:  cpu time    2.3659: real time    2.5797
    SETDIJ:  cpu time    0.0243: real time    0.0243
     EDDAV:  cpu time    8.0900: real time    8.1930
       DOS:  cpu time    0.0043: real time    0.0043
    CHARGE:  cpu time    0.8263: real time    0.8320
    MIXING:  cpu time    0.2704: real time    0.2788
    --------------------------------------------
      LOOP:  cpu time   11.5811: real time   11.9121

 eigenvalue-minimisations  :   270
 total energy-change (2. order) :-0.3091689E-01  (-0.8116157E-04)
 number of electron     100.0000215 magnetization       8.1042713
 augmentation part       54.3597340 magnetization       6.1665002

 Broyden mixing:
  rms(total) = 0.38399E-02    rms(broyden)= 0.38344E-02
  rms(prec ) = 0.40976E-02
  weight for this iteration     100.00

 eigenvalues of (default mixing * dielectric matrix)
  average eigenvalue GAMMA=   0.9921
[...]
 total energy-change (2. order) :-0.4687452E-04  (-0.1573888E-04)
 number of electron     100.0000243 magnetization       8.0408269
 augmentation part       54.3582107 magnetization       6.1083026

 Free energy of the ion-electron system (eV)
  ---------------------------------------------------
  alpha Z        PSCENC =         4.42548844
  Ewald energy   TEWEN  =     13111.07969218
  -Hartree energ DENC   =    -22150.06304816
  -exchange      EXHF   =         0.00000000
  -V(xc)+E(xc)   XCENC  =        60.28617912
  PAW double counting   =     10140.98065891   -10306.29554166
  entropy T*S    EENTRO =         0.02114508
  eigenvalues    EBANDS =      -603.51240043
  atomic energy  EATOM  =      9704.95859309
  Solvation  Ediel_sol  =         0.00000000
  ---------------------------------------------------
  free energy    TOTEN  =       -38.11923344 eV

  energy without entropy =      -38.14037852  energy(sigma->0) =      -38.12628180


--------------------------------------------------------------------------------------------------------




 average (electrostatic) potential at core
  the test charge radii are     0.9791  1.1199
  (the norm of the test charge is              1.0000)
       1 -95.4044       2 -95.3973       3 -95.3948       4 -95.2962       5 -95.4025
       6 -95.3007       7 -83.7701       8 -83.7603       9 -83.7611      10 -83.7700
 
 
 
 E-fermi :  -4.1253     XC(G=0):  -0.3034     alpha+bet : -0.1608


 spin component 1

 k-point     1 :       0.0000    0.0000    0.0000
  band No.  band energies     occupation 
      1      -9.7330      1.00000
      2      -8.2147      1.00000
      3      -8.1864      1.00000
      4      -8.0249      1.00000
      5      -7.8443      1.00000
      6      -7.6565      1.00000
      7      -7.5904      1.00000
      8      -7.5189      1.00000
      9      -7.4657      1.00000
     10      -7.4428      1.00000
     11      -7.4297      1.00000
     12      -7.3735      1.00000
     13      -7.3394      1.00000
     14      -7.3154      1.00000
     15      -7.0047      1.00000
     16      -6.9147      1.00000
     17      -6.8415      1.00000
     18      -6.6635      1.00000
     19      -6.4525      1.00000
     20      -6.4315      1.00000
     21      -6.3928      1.00000
     22      -6.2918      1.00000
     23      -6.2263      1.00000
     24      -6.2181      1.00000
     25      -6.1990      1.00000
     26      -6.1247      1.00000
     27      -6.0761      1.00000
     28      -6.0247      1.00000
     29      -5.9472      1.00000
     30      -5.8947      1.00000
     31      -5.7755      1.00000
     32      -5.6989      1.00000
     33      -5.6798      1.00000
     34      -5.5418      1.00000
     35      -5.4894      1.00000
     36      -5.4849      1.00000
     37      -5.4470      1.00000
     38      -5.3676      1.00000
     39      -5.2529      1.00000
     40      -5.2098      1.00000
     41      -5.1463      1.00000
     42      -5.1441      1.00000
     43      -5.1314      1.00000
     44      -5.1174      1.00000
     45      -5.0228      1.00000
     46      -5.0119      1.00000
     47      -5.0023      1.00000
     48      -4.9605      1.00000
     49      -4.9272      1.00000
     50      -4.8841      1.00000
     51      -4.8403      1.00000
     52      -4.8233      1.00000
     53      -4.7375      1.00007
     54      -4.4589      1.01996
     55      -2.9877     -0.00000
     56      -2.8727     -0.00000
     57      -2.6266     -0.00000
     58      -2.5737     -0.00000
     59      -2.1968     -0.00000
     60      -2.0310     -0.00000
     61      -1.1557     -0.00000
     62      -0.8360     -0.00000
     63      -0.8012     -0.00000
     64      -0.3314     -0.00000
     65      -0.1163     -0.00000
     66      -0.0749     -0.00000

 spin component 2

 k-point     1 :       0.0000    0.0000    0.0000
  band No.  band energies     occupation 
      1      -9.6773      1.00000
      2      -7.8787      1.00000
      3      -7.8400      1.00000
      4      -7.5770      1.00000
      5      -7.3563      1.00000
      6      -7.0537      1.00000
      7      -7.0224      1.00000
      8      -6.9219      1.00000
      9      -6.8632      1.00000
     10      -6.8463      1.00000
     11      -6.7505      1.00000
     12      -6.6236      1.00000
     13      -6.4712      1.00000
     14      -6.4596      1.00000
     15      -6.4338      1.00000
     16      -6.3592      1.00000
     17      -6.2354      1.00000
     18      -5.9462      1.00000
     19      -5.8636      1.00000
     20      -5.8603      1.00000
     21      -5.8148      1.00000
     22      -5.6736      1.00000
     23      -5.6645      1.00000
     24      -5.6563      1.00000
     25      -5.5773      1.00000
     26      -5.5045      1.00000
     27      -5.4668      1.00000
     28      -5.4055      1.00000
     29      -5.4028      1.00000
     30      -5.3380      1.00000
     31      -5.2823      1.00000
     32      -5.2217      1.00000
     33      -5.1717      1.00000
     34      -4.9838      1.00000
     35      -4.9639      1.00000
     36      -4.8898      1.00000
     37      -4.7526      1.00004
     38      -4.7486      1.00005
     39      -4.7043      1.00017
     40      -4.5590      1.00446
     41      -4.3702      1.03546
     42      -4.3528      1.03415
     43      -4.2807      0.98394
     44      -4.2694      0.96685
     45      -4.2625      0.95497
     46      -4.1655      0.66656
     47      -4.0719      0.28300
     48      -4.0280      0.13746
     49      -3.9722      0.01936
     50      -3.9140     -0.03004
     51      -3.8779     -0.03544
     52      -3.8599     -0.03407
     53      -3.6990     -0.00511
     54      -3.6467     -0.00184
     55      -2.7613     -0.00000
     56      -2.4886     -0.00000
     57      -2.3944     -0.00000
     58      -2.3704     -0.00000
     59      -1.8884     -0.00000
     60      -1.7784     -0.00000
     61      -1.0517     -0.00000
     62      -0.6854     -0.00000
     63      -0.5925     -0.00000
     64      -0.1799     -0.00000
     65      -0.0139     -0.00000
     66       0.0633     -0.00000


--------------------------------------------------------------------------------------------------------


 soft charge-density along one line, spin component            1
         0         1         2         3         4         5         6         7         8         9
 total charge-density along one line
 
 soft charge-density along one line, spin component            2
         0         1         2         3         4         5         6         7         8         9
 total charge-density along one line
 
 pseudopotential strength for first ion, spin component:            1
-10.308  -0.124   0.005  -0.046  -0.074 -10.577  -0.119   0.005
 -0.124 -10.249  -0.164   0.007   0.006  -0.119 -10.521  -0.157
  0.005  -0.164 -10.303   0.021   0.079   0.005  -0.157 -10.572
 -0.046   0.007   0.021 -10.246   0.139  -0.044   0.007   0.020
 -0.074   0.006   0.079   0.139 -10.363  -0.071   0.005   0.075
-10.577  -0.119   0.005  -0.044  -0.071 -10.791  -0.114   0.004
 -0.119 -10.521  -0.157   0.007   0.005  -0.114 -10.738  -0.151
  0.005  -0.157 -10.572   0.020   0.075   0.004  -0.151 -10.788
 -0.044   0.007   0.020 -10.517   0.133  -0.042   0.007   0.019
 -0.071   0.005   0.075   0.133 -10.629  -0.068   0.005   0.071
  0.002   0.018  -0.011  -0.007   0.015   0.002   0.018  -0.011
  0.004   0.032  -0.020  -0.013   0.026   0.003   0.031  -0.019
 -0.005  -0.001  -0.002   0.001  -0.001  -0.005  -0.001  -0.002
  0.001  -0.006   0.004   0.001   0.003   0.001  -0.005   0.003
 -0.003   0.001  -0.000   0.004   0.006  -0.002   0.001   0.000
 -0.008  -0.005  -0.004   0.002  -0.002  -0.008  -0.005  -0.004
  0.002  -0.006  -0.000  -0.001   0.003   0.002  -0.006  -0.001
 -0.002   0.002   0.001   0.002   0.006  -0.002   0.002   0.001
 pseudopotential strength for first ion, spin component:            2
 -9.453   0.066  -0.005  -0.046   0.037  -9.762   0.064  -0.005
  0.066  -9.384   0.044  -0.000   0.060   0.064  -9.696   0.043
 -0.005   0.044  -9.377  -0.005  -0.002  -0.005   0.043  -9.689
 -0.046  -0.000  -0.005  -9.456  -0.053  -0.044  -0.000  -0.005
  0.037   0.060  -0.002  -0.053  -9.430   0.035   0.057  -0.002
 -9.762   0.064  -0.005  -0.044   0.035 -10.015   0.061  -0.005
  0.064  -9.696   0.043  -0.000   0.057   0.061  -9.952   0.041
 -0.005   0.043  -9.689  -0.005  -0.002  -0.005   0.041  -9.945
 -0.044  -0.000  -0.005  -9.766  -0.051  -0.042  -0.000  -0.004
  0.035   0.057  -0.002  -0.051  -9.740   0.034   0.055  -0.002
 -0.000   0.008  -0.006  -0.003   0.005  -0.001   0.008  -0.006
 -0.001   0.014  -0.010  -0.005   0.009  -0.001   0.013  -0.010
  0.004   0.012   0.003  -0.000   0.004   0.004   0.011   0.003
 -0.000  -0.004   0.014   0.004  -0.001  -0.000  -0.004   0.013
 -0.005  -0.000  -0.002   0.011   0.004  -0.005  -0.000  -0.002
  0.006   0.014   0.004  -0.001   0.006   0.005   0.012   0.004
 -0.001  -0.004   0.014   0.004  -0.001  -0.001  -0.004   0.013
 -0.006  -0.001  -0.003   0.011   0.003  -0.005  -0.001  -0.002
 total augmentation occupancy for first ion, spin component:            1
  3.012  -0.429   0.166  -0.081  -0.234  -1.231   0.150  -0.150   0.040   0.060   0.113  -0.020   0.060   0.047  -0.136   0.001
 -0.429   2.971  -0.383   0.050  -0.042   0.163  -1.097   0.090  -0.023  -0.033  -0.160  -0.011   0.161  -0.037   0.050   0.006
  0.166  -0.383   2.930   0.057  -0.045  -0.153   0.093  -1.168  -0.015   0.162   0.221   0.030   0.072   0.175  -0.099  -0.004
 -0.081   0.050   0.057   3.358   0.465   0.039  -0.021  -0.010  -1.442  -0.121   0.223   0.028   0.042   0.017   0.223  -0.003
 -0.234  -0.042  -0.045   0.465   2.684   0.058  -0.038   0.173  -0.116  -1.083  -0.362   0.013   0.055   0.017   0.100  -0.002
 -1.231   0.163  -0.153   0.039   0.058   1.210  -0.012   0.147  -0.007   0.047  -0.091   0.014  -0.139  -0.041   0.131   0.011
  0.150  -1.097   0.093  -0.021  -0.038  -0.012   0.999   0.055  -0.000   0.083   0.150   0.003  -0.242   0.010  -0.039   0.018
 -0.150   0.090  -1.168  -0.010   0.173   0.147   0.055   1.134  -0.017  -0.226  -0.234  -0.010  -0.114  -0.229   0.110   0.008
  0.040  -0.023  -0.015  -1.442  -0.116  -0.007  -0.000  -0.017   1.345  -0.081  -0.223  -0.005  -0.035  -0.039  -0.258   0.003
  0.060  -0.033   0.162  -0.121  -1.083   0.047   0.083  -0.226  -0.081   1.182   0.361  -0.036  -0.091   0.005  -0.069   0.006
  0.113  -0.160   0.221   0.223  -0.362  -0.091   0.150  -0.234  -0.223   0.361   1.944  -0.181   0.074  -0.248  -0.109  -0.011
 -0.020  -0.011   0.030   0.028   0.013   0.014   0.003  -0.010  -0.005  -0.036  -0.181   0.026  -0.012   0.040   0.019   0.001
  0.060   0.161   0.072   0.042   0.055  -0.139  -0.242  -0.114  -0.035  -0.091   0.074  -0.012   0.151   0.013   0.001  -0.013
  0.047  -0.037   0.175   0.017   0.017  -0.041   0.010  -0.229  -0.039   0.005  -0.248   0.040   0.013   0.155  -0.034  -0.000
 -0.136   0.050  -0.099   0.223   0.100   0.131  -0.039   0.110  -0.258  -0.069  -0.109   0.019   0.001  -0.034   0.253   0.000
  0.001   0.006  -0.004  -0.003  -0.002   0.011   0.018   0.008   0.003   0.006  -0.011   0.001  -0.013  -0.000   0.000   0.001
 -0.001  -0.002   0.007   0.009  -0.005   0.002  -0.000   0.019   0.001   0.003   0.042  -0.005  -0.000  -0.017   0.001  -0.000
  0.005  -0.003   0.007  -0.002  -0.003  -0.010   0.003  -0.012   0.023   0.010   0.019  -0.003   0.000   0.001  -0.022  -0.000
 total augmentation occupancy for first ion, spin component:            2
  1.143   0.511  -0.067   0.023   0.352  -0.568  -0.225   0.039  -0.013  -0.180  -0.035  -0.012   0.067  -0.012  -0.015   0.004
  0.511   1.031   0.561  -0.035   0.145  -0.242  -0.479  -0.257   0.023  -0.071  -0.009  -0.007   0.068   0.016  -0.022   0.007
 -0.067   0.561   1.221  -0.147  -0.229   0.043  -0.260  -0.572   0.095   0.115   0.045   0.019   0.039   0.033  -0.009   0.003
  0.023  -0.035  -0.147   0.919  -0.562  -0.013   0.022   0.090  -0.448   0.273   0.036   0.020  -0.025   0.013   0.018   0.001
  0.352   0.145  -0.229  -0.562   1.384  -0.178  -0.068   0.100   0.265  -0.685  -0.048  -0.024   0.037  -0.036  -0.031   0.002
 -0.568  -0.242   0.043  -0.013  -0.178   0.193   0.092  -0.022   0.004   0.081   0.017   0.005  -0.022   0.007   0.007  -0.001
 -0.225  -0.479  -0.260   0.022  -0.068   0.092   0.139   0.103  -0.015   0.029   0.003   0.006  -0.018  -0.004   0.011  -0.003
  0.039  -0.257  -0.572   0.090   0.100  -0.022   0.103   0.179  -0.055  -0.043  -0.020  -0.011  -0.010  -0.003   0.002  -0.001
 -0.013   0.023   0.095  -0.448   0.265   0.004  -0.015  -0.055   0.135  -0.109  -0.019  -0.013   0.014  -0.001  -0.001  -0.001
 -0.180  -0.071   0.115   0.273  -0.685   0.081   0.029  -0.043  -0.109   0.239   0.028   0.018  -0.012   0.016   0.013  -0.000
 -0.035  -0.009   0.045   0.036  -0.048   0.017   0.003  -0.020  -0.019   0.028  -0.108   0.053  -0.020   0.033   0.018   0.001
 -0.012  -0.007   0.019   0.020  -0.024   0.005   0.006  -0.011  -0.013   0.018   0.053  -0.006  -0.000  -0.004  -0.001  -0.000
  0.067   0.068   0.039  -0.025   0.037  -0.022  -0.018  -0.010   0.014  -0.012  -0.020  -0.000   0.004  -0.001  -0.007   0.001
 -0.012   0.016   0.033   0.013  -0.036   0.007  -0.004  -0.003  -0.001   0.016   0.033  -0.004  -0.001  -0.006   0.002   0.000
 -0.015  -0.022  -0.009   0.018  -0.031   0.007   0.011   0.002  -0.001   0.013   0.018  -0.001  -0.007   0.002  -0.009   0.000
  0.004   0.007   0.003   0.001   0.002  -0.001  -0.003  -0.001  -0.001  -0.000   0.001  -0.000   0.001   0.000   0.000   0.000
 -0.000   0.001   0.009   0.003  -0.002  -0.000  -0.000  -0.006  -0.001   0.001  -0.003   0.001   0.000   0.002  -0.000   0.000
 -0.002   0.000  -0.003   0.006   0.002   0.001  -0.001   0.002  -0.004  -0.002  -0.001   0.001   0.000  -0.000   0.003  -0.000


------------------------ aborting loop because EDIFF is reached ----------------------------------------


    CHARGE:  cpu time    0.7621: real time    0.7637
    FORLOC:  cpu time    0.0523: real time    0.0523
    FORNL :  cpu time    1.2654: real time    1.2669
    FORCOR:  cpu time    2.5700: real time    2.5776
    FORHAR:  cpu time    0.3076: real time    0.3081
    MIXING:  cpu time    0.0681: real time    0.0722
    OFIELD:  cpu time    0.0000: real time    0.0000

 VOLUME and BASIS-vectors are now :
 -----------------------------------------------------------------------------
  energy-cutoff  :      400.00
  volume of cell :    12805.31
      direct lattice vectors                 reciprocal lattice vectors
    23.250204164  0.000000000  0.000000000     0.043010375  0.000000000  0.000000000
     0.000000000 22.765437008  0.000000000     0.000000000  0.043926238  0.000000000
     0.000000000  0.000000000 24.192857944     0.000000000  0.000000000  0.041334513

  length of vectors
    23.250204164 22.765437008 24.192857944     0.043010375  0.043926238  0.041334513


 FORCES acting on ions
    electron-ion (+dipol)            ewald-force                    non-local-force                 convergence-correction
 -----------------------------------------------------------------------------------------------
   -.358E+03 0.288E+03 -.863E+03   0.357E+03 -.287E+03 0.860E+03   0.122E+01 -.224E+00 0.289E+01   -.893E-02 0.252E-01 -.629E-01
   -.595E+03 0.665E+03 0.402E+03   0.593E+03 -.663E+03 -.401E+03   0.211E+01 -.165E+01 -.176E+01   0.423E-01 -.384E-01 -.255E-01
   0.159E+03 -.869E+03 -.423E+03   -.159E+03 0.866E+03 0.421E+03   -.506E-01 0.263E+01 0.187E+01   -.683E-02 0.386E-01 0.429E-01
   0.423E+03 0.935E+03 -.198E+03   -.421E+03 -.930E+03 0.197E+03   -.159E+01 -.430E+01 0.980E+00   -.254E-01 -.149E-01 -.454E-01
   -.801E+02 -.493E+03 0.841E+03   0.792E+02 0.492E+03 -.838E+03   0.848E+00 0.119E+01 -.281E+01   0.258E-01 -.515E-01 0.581E-01
   0.968E+03 -.286E+03 0.267E+03   -.963E+03 0.284E+03 -.265E+03   -.416E+01 0.157E+01 -.125E+01   -.564E-01 -.182E-01 0.292E-01
   -.931E+03 0.820E+02 -.199E+03   0.924E+03 -.812E+02 0.197E+03   0.733E+01 -.746E+00 0.159E+01   0.509E-01 -.239E-01 -.287E-01
   0.328E+03 0.467E+03 0.853E+03   -.326E+03 -.463E+03 -.846E+03   -.262E+01 -.383E+01 -.706E+01   0.264E-01 -.627E-01 -.624E-01
   0.637E+03 -.201E+02 -.804E+03   -.632E+03 0.198E+02 0.798E+03   -.519E+01 0.196E+00 0.667E+01   -.345E-01 0.442E-01 0.643E-01
   -.552E+03 -.770E+03 0.124E+03   0.548E+03 0.764E+03 -.123E+03   0.427E+01 0.613E+01 -.101E+01   0.250E-01 0.525E-01 0.291E-01
 -----------------------------------------------------------------------------------------------
   -.220E+01 -.928E+00 -.114E+00   -.341E-12 0.114E-12 0.256E-12   0.217E+01 0.965E+00 0.112E+00   0.383E-01 -.491E-01 -.131E-02
 
 
 POSITION                                       TOTAL-FORCE (eV/Angst)
 -----------------------------------------------------------------------------------
     11.86618     11.64616     13.46970         0.007117     -0.016165      0.005589
     12.28758     10.97672     11.24184         0.001814     -0.010289      0.001182
     11.00875     13.57221     12.74604        -0.005811      0.005814     -0.002498
     10.23086     10.45121     12.26594        -0.020121     -0.011579     -0.004919
     11.43195     12.90332     10.51777        -0.008389      0.010197     -0.002697
      9.37657     12.36890     11.54089        -0.023620     -0.002450     -0.004745
     14.04878     12.04737     12.50804         0.008354      0.016317     -0.002406
     10.26843     10.82035      9.78334         0.017683      0.005434     -0.004059
      9.47384     12.07541     14.02662         0.010994      0.006792      0.008141
     13.06084     14.26966     11.67060         0.011979     -0.004071      0.006412
 -----------------------------------------------------------------------------------
    total drift:                                0.001974     -0.011960     -0.003392


--------------------------------------------------------------------------------------------------------



  FREE ENERGIE OF THE ION-ELECTRON SYSTEM (eV)
  ---------------------------------------------------
  free  energy   TOTEN  =       -38.11923344 eV

  energy  without entropy=      -38.14037852  energy(sigma->0) =      -38.12628180
 
 d Force = 0.2053372E-03[-0.150E-04, 0.426E-03]  d Energy = 0.3363905E-03-0.131E-03
 d Force =-0.4535624E+01[-0.454E+01,-0.453E+01]  d Ewald  =-0.4535618E+01-0.509E-05


--------------------------------------------------------------------------------------------------------


    POTLOK:  cpu time    2.3030: real time    2.3318


--------------------------------------------------------------------------------------------------------




--------------------------------------------------------------------------------------------------------


  
 reached required accuracy - stopping structural energy minimisation
     LOOP+:  cpu time   86.2903: real time   87.2949
    4ORBIT:  cpu time    0.0000: real time    0.0000

 total amount of memory used by VASP MPI-rank0   164702. kBytes
=======================================================================

   base      :      30000. kBytes
   nonl-proj :       6517. kBytes
   fftplans  :      31650. kBytes
   grid      :      81123. kBytes
   one-center:         31. kBytes
   wavefun   :      15381. kBytes
 
  
  
 General timing and accounting informations for this job:
 ========================================================
  
                  Total CPU time used (sec):      638.653
                            User time (sec):      633.431
                          System time (sec):        5.222
                         Elapsed time (sec):      646.881
  
                   Maximum memory used (kb):      322116.
                   Average memory used (kb):           0.
  
                          Minor page faults:      1111516
                          Major page faults:        24232
                 Voluntary context switches:         3340
