<?xml version="1.0" encoding="ISO-8859-1"?>
<modeling>
 <generator>
  <i name="program" type="string">vasp </i>
  <i name="version" type="string">6.1.2  </i>
  <i name="subversion" type="string">22Jul20 (build Aug  2 2021 21:04:21) gamma-only                       parallel </i>
  <i name="platform" type="string">LinuxPGI </i>
  <i name="date" type="string">2021 12 23 </i>
  <i name="time" type="string">05:52:36 </i>
 </generator>
 <incar>
  <i type="int" name="ISPIN">     2</i>
  <i type="int" name="IBRION">     2</i>
  <i type="int" name="NSW">  1000</i>
  <i type="int" name="ISIF">     0</i>
  <i type="int" name="ISYM">     0</i>
  <i name="ENCUT">    400.00000000</i>
  <i type="logical" name="LREAL"> F  </i>
  <i type="int" name="ISMEAR">     1</i>
  <i name="SIGMA">      0.20000000</i>
  <i type="logical" name="LWAVE"> F  </i>
  <i type="logical" name="LCHARG"> F  </i>
  <i type="int" name="KPAR">     1</i>
  <i type="int" name="NCORE">     8</i>
  <i type="string" name="GGA"> PE</i>
  <i type="int" name="ISPIN">     2</i>
 </incar>
 <structure name="primitive_cell" >
  <crystal>
   <varray name="basis" >
    <v>      23.25020416       0.00000000       0.00000000 </v>
    <v>       0.00000000      22.76543701       0.00000000 </v>
    <v>       0.00000000       0.00000000      24.19285794 </v>
   </varray>
   <i name="volume">  12805.30531372 </i>
   <varray name="rec_basis" >
    <v>       0.04301038       0.00000000       0.00000000 </v>
    <v>       0.00000000       0.04392624       0.00000000 </v>
    <v>       0.00000000       0.00000000       0.04133451 </v>
   </varray>
  </crystal>
  <varray name="positions" >
   <v>       0.51039069       0.51154821       0.55694250 </v>
   <v>       0.52851385       0.48200493       0.46456597 </v>
   <v>       0.47340791       0.59630426       0.52690352 </v>
   <v>       0.44015697       0.45898507       0.50706666 </v>
   <v>       0.49165525       0.56684847       0.43458361 </v>
   <v>       0.40336755       0.54346236       0.47700787 </v>
   <v>       0.60417394       0.52931848       0.51698753 </v>
   <v>       0.44157048       0.47531996       0.40451121 </v>
   <v>       0.40744171       0.53037299       0.57966351 </v>
   <v>       0.56180687       0.62667703       0.48243486 </v>
  </varray>
 </structure>
 <varray name="primitive_index" >
  <v type="int" >        1 </v>
  <v type="int" >        2 </v>
  <v type="int" >        3 </v>
  <v type="int" >        4 </v>
  <v type="int" >        5 </v>
  <v type="int" >        6 </v>
  <v type="int" >        7 </v>
  <v type="int" >        8 </v>
  <v type="int" >        9 </v>
  <v type="int" >       10 </v>
 </varray>
 <kpoints>
  <generation param="Gamma">
   <v type="int" name="divisions">       1        1        1 </v>
   <v name="usershift">      0.00000000       0.00000000       0.00000000 </v>
   <v name="genvec1">      1.00000000       0.00000000       0.00000000 </v>
   <v name="genvec2">      0.00000000       1.00000000       0.00000000 </v>
   <v name="genvec3">      0.00000000       0.00000000       1.00000000 </v>
   <v name="shift">      0.00000000       0.00000000       0.00000000 </v>
  </generation>
  <varray name="kpointlist" >
   <v>       0.00000000       0.00000000       0.00000000 </v>
  </varray>
  <varray name="weights" >
   <v>       1.00000000 </v>
  </varray>
 </kpoints>
 <parameters>
  <separator name="general" >
   <i type="string" name="SYSTEM">unknown system</i>
   <i type="logical" name="LCOMPAT"> F  </i>
  </separator>
  <separator name="electronic" >
   <i type="string" name="PREC">normal</i>
   <i name="ENMAX">    400.00000000</i>
   <i name="ENAUG">    544.56500000</i>
   <i name="EDIFF">      0.00010000</i>
   <i type="int" name="IALGO">    38</i>
   <i type="int" name="IWAVPR">    11</i>
   <i type="int" name="NBANDS">    66</i>
   <i type="int" name="NBANDSLOW">    -1</i>
   <i type="int" name="NBANDSHIGH">    -1</i>
   <i name="NELECT">    100.00000000</i>
   <i type="int" name="TURBO">     0</i>
   <i type="int" name="IRESTART">     0</i>
   <i type="int" name="NREBOOT">     0</i>
   <i type="int" name="NMIN">     0</i>
   <i name="EREF">      0.00000000</i>
   <separator name="electronic smearing" >
    <i type="int" name="ISMEAR">     1</i>
    <i name="SIGMA">      0.20000000</i>
    <i name="KSPACING">      0.50000000</i>
    <i type="logical" name="KGAMMA"> T  </i>
    <i type="logical" name="KBLOWUP"> T  </i>
   </separator>
   <separator name="electronic projectors" >
    <i type="logical" name="LREAL"> F  </i>
    <v name="ROPT">      0.00000000      0.00000000</v>
    <i type="int" name="LMAXPAW">  -100</i>
    <i type="int" name="LMAXMIX">     2</i>
    <i type="logical" name="NLSPLINE"> F  </i>
   </separator>
   <separator name="electronic startup" >
    <i type="int" name="ISTART">     0</i>
    <i type="int" name="ICHARG">     2</i>
    <i type="int" name="INIWAV">     1</i>
   </separator>
   <separator name="electronic spin" >
    <i type="int" name="ISPIN">     2</i>
    <i type="logical" name="LNONCOLLINEAR"> F  </i>
    <v name="MAGMOM">      1.00000000      1.00000000      1.00000000      1.00000000      1.00000000      1.00000000      1.00000000      1.00000000      1.00000000      1.00000000</v>
    <i name="NUPDOWN">     -1.00000000</i>
    <i type="logical" name="LSORBIT"> F  </i>
    <v name="SAXIS">      0.00000000      0.00000000      1.00000000</v>
    <i type="logical" name="LSPIRAL"> F  </i>
    <v name="QSPIRAL">      0.00000000      0.00000000      0.00000000</v>
    <i type="logical" name="LZEROZ"> F  </i>
   </separator>
   <separator name="electronic exchange-correlation" >
    <i type="logical" name="LASPH"> F  </i>
    <i type="logical" name="LMETAGGA"> F  </i>
   </separator>
   <separator name="electronic convergence" >
    <i type="int" name="NELM">    60</i>
    <i type="int" name="NELMDL">     0</i>
    <i type="int" name="NELMIN">     2</i>
    <i name="ENINI">    400.00000000</i>
    <separator name="electronic convergence detail" >
     <i type="logical" name="LDIAG"> T  </i>
     <i type="logical" name="LSUBROT"> F  </i>
     <i name="WEIMIN">      0.00100000</i>
     <i name="EBREAK">      0.00000038</i>
     <i name="DEPER">      0.30000000</i>
     <i type="int" name="NRMM">     4</i>
     <i name="TIME">      0.40000000</i>
    </separator>
   </separator>
   <separator name="electronic mixer" >
    <i name="AMIX">      0.40000000</i>
    <i name="BMIX">      1.00000000</i>
    <i name="AMIN">      0.10000000</i>
    <i name="AMIX_MAG">      1.60000000</i>
    <i name="BMIX_MAG">      1.00000000</i>
    <separator name="electronic mixer details" >
     <i type="int" name="IMIX">     4</i>
     <i type="logical" name="MIXFIRST"> F  </i>
     <i type="int" name="MAXMIX">   -45</i>
     <i name="WC">    100.00000000</i>
     <i type="int" name="INIMIX">     1</i>
     <i type="int" name="MIXPRE">     1</i>
     <i type="int" name="MREMOVE">     5</i>
    </separator>
   </separator>
   <separator name="electronic dipolcorrection" >
    <i type="logical" name="LDIPOL"> F  </i>
    <i type="logical" name="LMONO"> F  </i>
    <i type="int" name="IDIPOL">     0</i>
    <i name="EPSILON">      1.00000000</i>
    <v name="DIPOL">   -100.00000000   -100.00000000   -100.00000000</v>
    <i name="EFIELD">      0.00000000</i>
   </separator>
  </separator>
  <separator name="grids" >
   <i type="int" name="NGX">   120</i>
   <i type="int" name="NGY">   112</i>
   <i type="int" name="NGZ">   120</i>
   <i type="int" name="NGXF">   240</i>
   <i type="int" name="NGYF">   224</i>
   <i type="int" name="NGZF">   240</i>
   <i type="logical" name="ADDGRID"> F  </i>
  </separator>
  <separator name="ionic" >
   <i type="int" name="NSW">  1000</i>
   <i type="int" name="IBRION">     2</i>
   <i type="int" name="MDALGO">     0</i>
   <i type="int" name="ISIF">     0</i>
   <i name="PSTRESS">      0.00000000</i>
   <i name="EDIFFG">      0.00100000</i>
   <i type="int" name="NFREE">     1</i>
   <i name="POTIM">      0.50000000</i>
   <i name="SMASS">     -3.00000000</i>
   <i name="SCALEE">      1.00000000</i>
  </separator>
  <separator name="ionic md" >
   <i name="TEBEG">      0.00010000</i>
   <i name="TEEND">      0.00010000</i>
   <i type="int" name="NBLOCK">     1</i>
   <i type="int" name="KBLOCK">  1000</i>
   <i type="int" name="NPACO">   256</i>
   <i name="APACO">     16.00000000</i>
  </separator>
  <separator name="symmetry" >
   <i type="int" name="ISYM">     0</i>
   <i name="SYMPREC">      0.00001000</i>
  </separator>
  <separator name="dos" >
   <i type="int" name="LORBIT">     0</i>
   <v name="RWIGS">     -1.00000000     -1.00000000</v>
   <i type="int" name="NEDOS">   301</i>
   <i name="EMIN">     10.00000000</i>
   <i name="EMAX">    -10.00000000</i>
   <i name="EFERMI">      0.00000000</i>
  </separator>
  <separator name="writing" >
   <i type="int" name="NWRITE">     2</i>
   <i type="logical" name="LWAVE"> F  </i>
   <i type="logical" name="LDOWNSAMPLE"> F  </i>
   <i type="logical" name="LCHARG"> F  </i>
   <i type="logical" name="LPARD"> F  </i>
   <i type="logical" name="LVTOT"> F  </i>
   <i type="logical" name="LVHAR"> F  </i>
   <i type="logical" name="LELF"> F  </i>
   <i type="logical" name="LOPTICS"> F  </i>
   <v name="STM">      0.00000000      0.00000000      0.00000000      0.00000000      0.00000000      0.00000000      0.00000000</v>
  </separator>
  <separator name="performance" >
   <i type="int" name="NPAR">     2</i>
   <i type="int" name="NSIM">     4</i>
   <i type="int" name="NBLK">    -1</i>
   <i type="logical" name="LPLANE"> T  </i>
   <i type="logical" name="LSCALAPACK"> T  </i>
   <i type="logical" name="LSCAAWARE"> F  </i>
   <i type="logical" name="LSCALU"> F  </i>
   <i type="logical" name="LASYNC"> F  </i>
   <i type="logical" name="LORBITALREAL"> F  </i>
  </separator>
  <separator name="miscellaneous" >
   <i type="int" name="IDIOT">     3</i>
   <i type="int" name="PHON_NSTRUCT">    -1</i>
   <i type="logical" name="LMUSIC"> F  </i>
   <v name="POMASS">     58.69000000    106.42000000</v>
   <v name="DARWINR">      0.00000000      0.00000000</v>
   <v name="DARWINV">      1.00000000      1.00000000</v>
   <i type="logical" name="LCORR"> T  </i>
  </separator>
  <i type="logical" name="GGA_COMPAT"> T  </i>
  <i type="logical" name="LBERRY"> F  </i>
  <i type="int" name="ICORELEVEL">     0</i>
  <i type="logical" name="LDAU"> F  </i>
  <i type="int" name="I_CONSTRAINED_M">     0</i>
  <separator name="electronic exchange-correlation" >
   <i type="string" name="GGA">PE</i>
   <i type="int" name="VOSKOWN">     0</i>
   <i type="logical" name="LHFCALC"> F  </i>
   <i type="string" name="PRECFOCK"></i>
   <i type="logical" name="LSYMGRAD"> F  </i>
   <i type="logical" name="LHFONE"> F  </i>
   <i type="logical" name="LRHFCALC"> F  </i>
   <i type="logical" name="LTHOMAS"> F  </i>
   <i type="logical" name="LMODELHF"> F  </i>
   <i type="logical" name="LFOCKACE"> F  </i>
   <i name="ENCUT4O">     -1.00000000</i>
   <i type="int" name="EXXOEP">     0</i>
   <i type="int" name="FOURORBIT">     0</i>
   <i name="AEXX">      0.00000000</i>
   <i name="HFALPHA">      0.00000000</i>
   <i name="MCALPHA">      0.00000000</i>
   <i name="ALDAX">      1.00000000</i>
   <i name="AGGAX">      1.00000000</i>
   <i name="ALDAC">      1.00000000</i>
   <i name="AGGAC">      1.00000000</i>
   <i type="int" name="NKREDX">     1</i>
   <i type="int" name="NKREDY">     1</i>
   <i type="int" name="NKREDZ">     1</i>
   <i type="logical" name="SHIFTRED"> F  </i>
   <i type="logical" name="ODDONLY"> F  </i>
   <i type="logical" name="EVENONLY"> F  </i>
   <i type="int" name="LMAXFOCK">     0</i>
   <i type="int" name="NMAXFOCKAE">     0</i>
   <i type="logical" name="LFOCKAEDFT"> F  </i>
   <i name="HFSCREEN">      0.00000000</i>
   <i name="HFSCREENC">      0.00000000</i>
   <i type="int" name="NBANDSGWLOW">     0</i>
  </separator>
  <separator name="vdW DFT" >
   <i type="logical" name="LUSE_VDW"> F  </i>
   <i name="Zab_VDW">     -0.84910000</i>
   <i name="PARAM1">      0.12340000</i>
   <i name="PARAM2">      1.00000000</i>
   <i name="PARAM3">      0.00000000</i>
  </separator>
  <separator name="model GW" >
   <i type="int" name="MODEL_GW">     0</i>
   <i name="MODEL_EPS0">    768.31831882</i>
   <i name="MODEL_ALPHA">      1.00000000</i>
  </separator>
  <separator name="linear response parameters" >
   <i type="logical" name="LEPSILON"> F  </i>
   <i type="logical" name="LRPA"> F  </i>
   <i type="logical" name="LNABLA"> F  </i>
   <i type="logical" name="LVEL"> F  </i>
   <i type="int" name="KINTER">     0</i>
   <i name="CSHIFT">      0.10000000</i>
   <i name="OMEGAMAX">     -1.00000000</i>
   <i name="DEG_THRESHOLD">      0.00200000</i>
   <i name="RTIME">     -0.10000000</i>
   <i name="WPLASMAI">      0.00000000</i>
   <v name="DFIELD">      0.00000000      0.00000000      0.00000000</v>
   <v name="WPLASMA">      0.00000000      0.00000000      0.00000000      0.00000000      0.00000000      0.00000000      0.00000000      0.00000000      0.00000000</v>
  </separator>
  <separator name="orbital magnetization" >
   <i type="logical" name="NUCIND"> F  </i>
   <v name="MAGPOS">      0.00000000      0.00000000      0.00000000</v>
   <i type="logical" name="LNICSALL"> T  </i>
   <i type="logical" name="ORBITALMAG"> F  </i>
   <i type="logical" name="LMAGBLOCH"> F  </i>
   <i type="logical" name="LCHIMAG"> F  </i>
   <i type="logical" name="LGAUGE"> T  </i>
   <i type="int" name="MAGATOM">     0</i>
   <v name="MAGDIPOL">      0.00000000      0.00000000      0.00000000</v>
   <v name="AVECCONST">      0.00000000      0.00000000      0.00000000</v>
  </separator>
  <separator name="response functions" >
   <i type="logical" name="LFINITE_TEMPERATURE"> F  </i>
   <i type="logical" name="LADDER"> F  </i>
   <i type="logical" name="LRPAFORCE"> F  </i>
   <i type="logical" name="LFXC"> F  </i>
   <i type="logical" name="LHARTREE"> T  </i>
   <i type="int" name="IBSE">     0</i>
   <v type="int" name="KPOINT">    -1     0     0     0</v>
   <i type="logical" name="LTCTC"> F  </i>
   <i type="logical" name="LTCTE"> F  </i>
   <i type="logical" name="LTETE"> F  </i>
   <i type="logical" name="LTRIPLET"> F  </i>
   <i type="logical" name="LFXCEPS"> F  </i>
   <i type="logical" name="LFXHEG"> F  </i>
   <i type="int" name="NATURALO">     2</i>
   <i type="logical" name="LHOLEGF"> F  </i>
   <i type="logical" name="L2ORDER"> F  </i>
   <i type="logical" name="LDMP1"> F  </i>
   <i type="logical" name="LMP2LT"> F  </i>
   <i type="logical" name="LSMP2LT"> F  </i>
   <i type="logical" name="LGWLF"> F  </i>
   <i name="ENCUTGW">     -2.00000000</i>
   <i name="ENCUTGWSOFT">     -2.00000000</i>
   <i name="ENCUTLF">     -1.00000000</i>
   <i type="logical" name="LESF_SPLINES"> F  </i>
   <i type="int" name="LMAXMP2">    -1</i>
   <i name="SCISSOR">      0.00000000</i>
   <i type="int" name="NOMEGA">     0</i>
   <i type="int" name="NOMEGAR">     0</i>
   <i type="int" name="NBANDSGW">    -1</i>
   <i type="int" name="NBANDSO">    -1</i>
   <i type="int" name="NBANDSV">    -1</i>
   <i type="int" name="NELM">     1</i>
   <i type="int" name="NELMHF">     1</i>
   <i type="int" name="DIM">     3</i>
   <i type="int" name="IESPILON">     4</i>
   <i type="int" name="ANTIRES">     0</i>
   <i name="OMEGAMAX">    -30.00000000</i>
   <i name="OMEGAMIN">    -30.00000000</i>
   <i name="OMEGATL">   -200.00000000</i>
   <i type="int" name="OMEGAGRID">     0</i>
   <i name="CSHIFT">     -0.10000000</i>
   <i type="logical" name="LSELFENERGY"> F  </i>
   <i type="logical" name="LSPECTRAL"> F  </i>
   <i type="logical" name="LSPECTRALGW"> F  </i>
   <i type="logical" name="LSINGLES"> F  </i>
   <i type="logical" name="LFERMIGW"> F  </i>
   <i type="logical" name="ODDONLYGW"> F  </i>
   <i type="logical" name="EVENONLYGW"> F  </i>
   <i type="int" name="NKREDLFX">     1</i>
   <i type="int" name="NKREDLFY">     1</i>
   <i type="int" name="NKREDLFZ">     1</i>
   <i type="int" name="MAXMEM">  2800</i>
   <i type="int" name="TELESCOPE">     0</i>
   <i type="int" name="NTAUPAR">    -1</i>
   <i type="int" name="NOMEGAPAR">    -1</i>
   <i name="LAMBDA">      1.00000000</i>
  </separator>
  <separator name="External order field" >
   <i name="OFIELD_KAPPA">      0.00000000</i>
   <v name="OFIELD_K">      0.00000000      0.00000000      0.00000000</v>
   <i name="OFIELD_Q6_NEAR">      0.00000000</i>
   <i name="OFIELD_Q6_FAR">      0.00000000</i>
   <i name="OFIELD_A">      0.00000000</i>
  </separator>
 </parameters>
 <atominfo>
  <atoms>      10 </atoms>
  <types>       2 </types>
  <array name="atoms" >
   <dimension dim="1">ion</dimension>
   <field type="string">element</field>
   <field type="int">atomtype</field>
   <set>
    <rc><c>Ni</c><c>   1</c></rc>
    <rc><c>Ni</c><c>   1</c></rc>
    <rc><c>Ni</c><c>   1</c></rc>
    <rc><c>Ni</c><c>   1</c></rc>
    <rc><c>Ni</c><c>   1</c></rc>
    <rc><c>Ni</c><c>   1</c></rc>
    <rc><c>Pd</c><c>   2</c></rc>
    <rc><c>Pd</c><c>   2</c></rc>
    <rc><c>Pd</c><c>   2</c></rc>
    <rc><c>Pd</c><c>   2</c></rc>
   </set>
  </array>
  <array name="atomtypes" >
   <dimension dim="1">type</dimension>
   <field type="int">atomspertype</field>
   <field type="string">element</field>
   <field>mass</field>
   <field>valence</field>
   <field type="string">pseudopotential</field>
   <set>
    <rc><c>   6</c><c>Ni</c><c>     58.69000000</c><c>     10.00000000</c><c>  PAW_PBE Ni 02Aug2007                  </c></rc>
    <rc><c>   4</c><c>Pd</c><c>    106.42000000</c><c>     10.00000000</c><c>  PAW_PBE Pd 04Jan2005                  </c></rc>
   </set>
  </array>
 </atominfo>
 <structure name="initialpos" >
  <crystal>
   <varray name="basis" >
    <v>      23.25020416       0.00000000       0.00000000 </v>
    <v>       0.00000000      22.76543701       0.00000000 </v>
    <v>       0.00000000       0.00000000      24.19285794 </v>
   </varray>
   <i name="volume">  12805.30531372 </i>
   <varray name="rec_basis" >
    <v>       0.04301038       0.00000000       0.00000000 </v>
    <v>       0.00000000       0.04392624       0.00000000 </v>
    <v>       0.00000000       0.00000000       0.04133451 </v>
   </varray>
  </crystal>
  <varray name="positions" >
   <v>       0.51039069       0.51154821       0.55694250 </v>
   <v>       0.52851385       0.48200493       0.46456597 </v>
   <v>       0.47340791       0.59630426       0.52690352 </v>
   <v>       0.44015697       0.45898507       0.50706666 </v>
   <v>       0.49165525       0.56684847       0.43458361 </v>
   <v>       0.40336755       0.54346236       0.47700787 </v>
   <v>       0.60417394       0.52931848       0.51698753 </v>
   <v>       0.44157048       0.47531996       0.40451121 </v>
   <v>       0.40744171       0.53037299       0.57966351 </v>
   <v>       0.56180687       0.62667703       0.48243486 </v>
  </varray>
 </structure>
 <calculation>
  <scstep>
   <time name="dav">    8.72    8.91</time>
   <time name="total">   11.20   11.40</time>
   <energy>
    <i name="alphaZ">      4.42548844 </i>
    <i name="ewald">  13103.13961855 </i>
    <i name="hartreedc"> -22074.10605150 </i>
    <i name="XCdc">     63.04566770 </i>
    <i name="pawpsdc">   9003.59075477 </i>
    <i name="pawaedc">  -9155.75339974 </i>
    <i name="eentropy">     -0.04246352 </i>
    <i name="bandstr">     83.95398271 </i>
    <i name="atom">   9704.95859309 </i>
    <i name="e_fr_energy">    733.21219050 </i>
    <i name="e_wo_entrp">    733.25465402 </i>
    <i name="e_0_energy">    733.22634501 </i>
   </energy>
  </scstep>
  <scstep>
   <time name="dav">   12.35   12.54</time>
   <time name="total">   12.36   12.54</time>
   <energy>
    <i name="e_fr_energy">    259.74452593 </i>
    <i name="e_wo_entrp">    259.75278262 </i>
    <i name="e_0_energy">    259.74727816 </i>
   </energy>
  </scstep>
  <scstep>
   <time name="dav">    9.98   10.12</time>
   <time name="total">    9.98   10.13</time>
   <energy>
    <i name="e_fr_energy">     28.52434541 </i>
    <i name="e_wo_entrp">     28.52129763 </i>
    <i name="e_0_energy">     28.52332948 </i>
   </energy>
  </scstep>
  <scstep>
   <time name="dav">   11.00   11.10</time>
   <time name="total">   11.01   11.10</time>
   <energy>
    <i name="e_fr_energy">    -36.44515087 </i>
    <i name="e_wo_entrp">    -36.41979519 </i>
    <i name="e_0_energy">    -36.43669898 </i>
   </energy>
  </scstep>
  <scstep>
   <time name="dav">    9.22    9.25</time>
   <time name="total">   10.05   10.08</time>
   <energy>
    <i name="e_fr_energy">    -43.60145727 </i>
    <i name="e_wo_entrp">    -43.47808761 </i>
    <i name="e_0_energy">    -43.56033405 </i>
   </energy>
  </scstep>
  <scstep>
   <time name="dav">    8.37    8.41</time>
   <time name="total">   11.48   11.55</time>
   <energy>
    <i name="e_fr_energy">    -57.06987319 </i>
    <i name="e_wo_entrp">    -57.08582183 </i>
    <i name="e_0_energy">    -57.07518941 </i>
   </energy>
  </scstep>
  <scstep>
   <time name="dav">    8.99    9.10</time>
   <time name="total">   12.12   12.26</time>
   <energy>
    <i name="e_fr_energy">    -38.21163645 </i>
    <i name="e_wo_entrp">    -38.20434844 </i>
    <i name="e_0_energy">    -38.20920712 </i>
   </energy>
  </scstep>
  <scstep>
   <time name="dav">   10.56   10.59</time>
   <time name="total">   13.68   13.73</time>
   <energy>
    <i name="e_fr_energy">    -40.88627407 </i>
    <i name="e_wo_entrp">    -40.89466415 </i>
    <i name="e_0_energy">    -40.88907077 </i>
   </energy>
  </scstep>
  <scstep>
   <time name="dav">    9.67    9.81</time>
   <time name="total">   13.04   13.20</time>
   <energy>
    <i name="e_fr_energy">    -36.02748077 </i>
    <i name="e_wo_entrp">    -35.96469139 </i>
    <i name="e_0_energy">    -36.00655098 </i>
   </energy>
  </scstep>
  <scstep>
   <time name="dav">   10.17   10.31</time>
   <time name="total">   13.41   13.56</time>
   <energy>
    <i name="e_fr_energy">    -37.40079695 </i>
    <i name="e_wo_entrp">    -37.39100612 </i>
    <i name="e_0_energy">    -37.39753334 </i>
   </energy>
  </scstep>
  <scstep>
   <time name="dav">    9.94   10.14</time>
   <time name="total">   13.19   13.40</time>
   <energy>
    <i name="e_fr_energy">    -35.69229194 </i>
    <i name="e_wo_entrp">    -35.64465653 </i>
    <i name="e_0_energy">    -35.67641347 </i>
   </energy>
  </scstep>
  <scstep>
   <time name="dav">   10.17   10.20</time>
   <time name="total">   13.39   13.43</time>
   <energy>
    <i name="e_fr_energy">    -35.94508072 </i>
    <i name="e_wo_entrp">    -35.87678402 </i>
    <i name="e_0_energy">    -35.92231515 </i>
   </energy>
  </scstep>
  <scstep>
   <time name="dav">    9.10    9.36</time>
   <time name="total">   12.25   12.58</time>
   <energy>
    <i name="e_fr_energy">    -36.07569969 </i>
    <i name="e_wo_entrp">    -36.08748175 </i>
    <i name="e_0_energy">    -36.07962704 </i>
   </energy>
  </scstep>
  <scstep>
   <time name="dav">    9.11    9.21</time>
   <time name="total">   12.41   12.55</time>
   <energy>
    <i name="e_fr_energy">    -36.07863472 </i>
    <i name="e_wo_entrp">    -36.08447293 </i>
    <i name="e_0_energy">    -36.08058079 </i>
   </energy>
  </scstep>
  <scstep>
   <time name="dav">    9.99   10.09</time>
   <time name="total">   13.35   13.48</time>
   <energy>
    <i name="e_fr_energy">    -36.36295698 </i>
    <i name="e_wo_entrp">    -36.38707933 </i>
    <i name="e_0_energy">    -36.37099776 </i>
   </energy>
  </scstep>
  <scstep>
   <time name="dav">   10.06   10.16</time>
   <time name="total">   13.26   13.41</time>
   <energy>
    <i name="e_fr_energy">    -36.79004192 </i>
    <i name="e_wo_entrp">    -36.81217567 </i>
    <i name="e_0_energy">    -36.79741984 </i>
   </energy>
  </scstep>
  <scstep>
   <time name="dav">    8.87    8.97</time>
   <time name="total">   12.06   12.19</time>
   <energy>
    <i name="e_fr_energy">    -36.87308697 </i>
    <i name="e_wo_entrp">    -36.89925023 </i>
    <i name="e_0_energy">    -36.88180806 </i>
   </energy>
  </scstep>
  <scstep>
   <time name="dav">    9.79    9.90</time>
   <time name="total">   13.07   13.21</time>
   <energy>
    <i name="e_fr_energy">    -37.16308569 </i>
    <i name="e_wo_entrp">    -37.18781316 </i>
    <i name="e_0_energy">    -37.17132818 </i>
   </energy>
  </scstep>
  <scstep>
   <time name="dav">   10.67   10.73</time>
   <time name="total">   13.92   13.99</time>
   <energy>
    <i name="e_fr_energy">    -37.35061458 </i>
    <i name="e_wo_entrp">    -37.37232545 </i>
    <i name="e_0_energy">    -37.35785154 </i>
   </energy>
  </scstep>
  <scstep>
   <time name="dav">    8.91    9.09</time>
   <time name="total">   12.22   12.41</time>
   <energy>
    <i name="e_fr_energy">    -37.44659281 </i>
    <i name="e_wo_entrp">    -37.46838807 </i>
    <i name="e_0_energy">    -37.45385790 </i>
   </energy>
  </scstep>
  <scstep>
   <time name="dav">    9.87    9.94</time>
   <time name="total">   13.15   13.26</time>
   <energy>
    <i name="e_fr_energy">    -37.56334257 </i>
    <i name="e_wo_entrp">    -37.58550200 </i>
    <i name="e_0_energy">    -37.57072905 </i>
   </energy>
  </scstep>
  <scstep>
   <time name="dav">    9.13    9.17</time>
   <time name="total">   12.43   12.50</time>
   <energy>
    <i name="e_fr_energy">    -37.70007311 </i>
    <i name="e_wo_entrp">    -37.72170504 </i>
    <i name="e_0_energy">    -37.70728375 </i>
   </energy>
  </scstep>
  <scstep>
   <time name="dav">    8.98    9.06</time>
   <time name="total">   12.26   12.37</time>
   <energy>
    <i name="e_fr_energy">    -37.80613269 </i>
    <i name="e_wo_entrp">    -37.82715353 </i>
    <i name="e_0_energy">    -37.81313964 </i>
   </energy>
  </scstep>
  <scstep>
   <time name="dav">    8.65    9.04</time>
   <time name="total">   11.92   12.33</time>
   <energy>
    <i name="e_fr_energy">    -37.91152954 </i>
    <i name="e_wo_entrp">    -37.93259102 </i>
    <i name="e_0_energy">    -37.91855003 </i>
   </energy>
  </scstep>
  <scstep>
   <time name="dav">    8.02    8.09</time>
   <time name="total">   11.41   11.49</time>
   <energy>
    <i name="e_fr_energy">    -37.96771089 </i>
    <i name="e_wo_entrp">    -37.98904354 </i>
    <i name="e_0_energy">    -37.97482177 </i>
   </energy>
  </scstep>
  <scstep>
   <time name="dav">    7.66    7.74</time>
   <time name="total">   11.04   11.16</time>
   <energy>
    <i name="e_fr_energy">    -38.00498427 </i>
    <i name="e_wo_entrp">    -38.02614996 </i>
    <i name="e_0_energy">    -38.01203950 </i>
   </energy>
  </scstep>
  <scstep>
   <time name="dav">    7.70    7.77</time>
   <time name="total">   11.11   11.23</time>
   <energy>
    <i name="e_fr_energy">    -38.04414451 </i>
    <i name="e_wo_entrp">    -38.06524563 </i>
    <i name="e_0_energy">    -38.05117822 </i>
   </energy>
  </scstep>
  <scstep>
   <time name="dav">    8.09    8.19</time>
   <time name="total">   11.58   11.91</time>
   <energy>
    <i name="e_fr_energy">    -38.07506140 </i>
    <i name="e_wo_entrp">    -38.09638922 </i>
    <i name="e_0_energy">    -38.08217067 </i>
   </energy>
  </scstep>
  <scstep>
   <time name="dav">    7.48    7.55</time>
   <time name="total">   10.94   11.03</time>
   <energy>
    <i name="e_fr_energy">    -38.09370925 </i>
    <i name="e_wo_entrp">    -38.11522505 </i>
    <i name="e_0_energy">    -38.10088118 </i>
   </energy>
  </scstep>
  <scstep>
   <time name="dav">    6.88    6.96</time>
   <time name="total">   10.25   10.35</time>
   <energy>
    <i name="e_fr_energy">    -38.10323951 </i>
    <i name="e_wo_entrp">    -38.12472595 </i>
    <i name="e_0_energy">    -38.11040166 </i>
   </energy>
  </scstep>
  <scstep>
   <time name="dav">    6.71    6.79</time>
   <time name="total">   10.20   10.29</time>
   <energy>
    <i name="e_fr_energy">    -38.10876333 </i>
    <i name="e_wo_entrp">    -38.13025563 </i>
    <i name="e_0_energy">    -38.11592743 </i>
   </energy>
  </scstep>
  <scstep>
   <time name="dav">    6.56    6.57</time>
   <time name="total">   10.17   10.32</time>
   <energy>
    <i name="e_fr_energy">    -38.11273632 </i>
    <i name="e_wo_entrp">    -38.13422399 </i>
    <i name="e_0_energy">    -38.11989888 </i>
   </energy>
  </scstep>
  <scstep>
   <time name="dav">    6.16    6.16</time>
   <time name="total">    9.71    9.72</time>
   <energy>
    <i name="e_fr_energy">    -38.11474773 </i>
    <i name="e_wo_entrp">    -38.13623204 </i>
    <i name="e_0_energy">    -38.12190916 </i>
   </energy>
  </scstep>
  <scstep>
   <time name="dav">    7.44    7.82</time>
   <time name="total">   10.93   11.31</time>
   <energy>
    <i name="e_fr_energy">    -38.11589382 </i>
    <i name="e_wo_entrp">    -38.13734795 </i>
    <i name="e_0_energy">    -38.12304520 </i>
   </energy>
  </scstep>
  <scstep>
   <time name="dav">    6.47    6.55</time>
   <time name="total">    9.99   10.09</time>
   <energy>
    <i name="e_fr_energy">    -38.11685880 </i>
    <i name="e_wo_entrp">    -38.13828143 </i>
    <i name="e_0_energy">    -38.12399967 </i>
   </energy>
  </scstep>
  <scstep>
   <time name="dav">    6.35    6.39</time>
   <time name="total">    9.95   10.00</time>
   <energy>
    <i name="e_fr_energy">    -38.11760419 </i>
    <i name="e_wo_entrp">    -38.13901936 </i>
    <i name="e_0_energy">    -38.12474258 </i>
   </energy>
  </scstep>
  <scstep>
   <time name="dav">    7.27    7.41</time>
   <time name="total">   10.68   10.90</time>
   <energy>
    <i name="e_fr_energy">    -38.11801393 </i>
    <i name="e_wo_entrp">    -38.13943589 </i>
    <i name="e_0_energy">    -38.12515458 </i>
   </energy>
  </scstep>
  <scstep>
   <time name="dav">    6.23    6.30</time>
   <time name="total">    9.83    9.92</time>
   <energy>
    <i name="e_fr_energy">    -38.11825632 </i>
    <i name="e_wo_entrp">    -38.13968316 </i>
    <i name="e_0_energy">    -38.12539860 </i>
   </energy>
  </scstep>
  <scstep>
   <time name="dav">    6.30    6.32</time>
   <time name="total">    9.92    9.98</time>
   <energy>
    <i name="e_fr_energy">    -38.11841345 </i>
    <i name="e_wo_entrp">    -38.13984241 </i>
    <i name="e_0_energy">    -38.12555644 </i>
   </energy>
  </scstep>
  <scstep>
   <time name="dav">    5.95    6.03</time>
   <time name="total">    9.54    9.62</time>
   <energy>
    <i name="e_fr_energy">    -38.11852271 </i>
    <i name="e_wo_entrp">    -38.13995859 </i>
    <i name="e_0_energy">    -38.12566800 </i>
   </energy>
  </scstep>
  <scstep>
   <time name="dav">    6.40    6.41</time>
   <time name="total">    8.68    8.74</time>
   <energy>
    <i name="alphaZ">      4.42548844 </i>
    <i name="ewald">  13103.13961855 </i>
    <i name="hartreedc"> -22142.45578922 </i>
    <i name="XCdc">     60.27484929 </i>
    <i name="pawpsdc">  10138.39332992 </i>
    <i name="pawaedc"> -10303.70368421 </i>
    <i name="eentropy">      0.02143940 </i>
    <i name="bandstr">   -603.17245165 </i>
    <i name="atom">   9704.95859309 </i>
    <i name="e_fr_energy">    -38.11860638 </i>
    <i name="e_wo_entrp">    -38.14004579 </i>
    <i name="e_0_energy">    -38.12575285 </i>
   </energy>
  </scstep>
  <structure>
   <crystal>
    <varray name="basis" >
     <v>      23.25020416       0.00000000       0.00000000 </v>
     <v>       0.00000000      22.76543701       0.00000000 </v>
     <v>       0.00000000       0.00000000      24.19285794 </v>
    </varray>
    <i name="volume">  12805.30531372 </i>
    <varray name="rec_basis" >
     <v>       0.04301038       0.00000000       0.00000000 </v>
     <v>       0.00000000       0.04392624       0.00000000 </v>
     <v>       0.00000000       0.00000000       0.04133451 </v>
    </varray>
   </crystal>
   <varray name="positions" >
    <v>       0.51039069       0.51154821       0.55694250 </v>
    <v>       0.52851385       0.48200493       0.46456597 </v>
    <v>       0.47340791       0.59630426       0.52690352 </v>
    <v>       0.44015697       0.45898507       0.50706666 </v>
    <v>       0.49165525       0.56684847       0.43458361 </v>
    <v>       0.40336755       0.54346236       0.47700787 </v>
    <v>       0.60417394       0.52931848       0.51698753 </v>
    <v>       0.44157048       0.47531996       0.40451121 </v>
    <v>       0.40744171       0.53037299       0.57966351 </v>
    <v>       0.56180687       0.62667703       0.48243486 </v>
   </varray>
  </structure>
  <varray name="forces" >
   <v>      -0.00453253       0.00478824      -0.03846046 </v>
   <v>      -0.00418064       0.03256189       0.02366977 </v>
   <v>       0.01706758      -0.02594531      -0.01118999 </v>
   <v>      -0.02559418       0.01965914      -0.01293275 </v>
   <v>       0.00765288      -0.01096417       0.03510771 </v>
   <v>      -0.01606718      -0.02896343       0.00632295 </v>
   <v>       0.01431671      -0.02487548       0.00560367 </v>
   <v>       0.01620210      -0.00461700      -0.02616806 </v>
   <v>       0.00656175       0.01097017       0.02580950 </v>
   <v>      -0.01142650       0.02738596      -0.00776235 </v>
  </varray>
  <energy>
   <i name="e_fr_energy">    -38.11860638 </i>
   <i name="e_wo_entrp">    -38.14004579 </i>
   <i name="e_0_energy">    -38.12575285 </i>
  </energy>
  <time name="totalsc">  481.37  487.10</time>
 </calculation>
 <calculation>
  <scstep>
   <time name="dav">    8.19    8.26</time>
   <time name="total">   11.44   11.52</time>
   <energy>
    <i name="alphaZ">      4.42548844 </i>
    <i name="ewald">  13106.54407369 </i>
    <i name="hartreedc"> -22145.76887316 </i>
    <i name="XCdc">     60.28198134 </i>
    <i name="pawpsdc">  10138.38903342 </i>
    <i name="pawaedc"> -10303.69947525 </i>
    <i name="eentropy">      0.02102358 </i>
    <i name="bandstr">   -603.27069553 </i>
    <i name="atom">   9704.95859309 </i>
    <i name="e_fr_energy">    -38.11885037 </i>
    <i name="e_wo_entrp">    -38.13987395 </i>
    <i name="e_0_energy">    -38.12585823 </i>
   </energy>
  </scstep>
  <scstep>
   <time name="dav">   10.85   11.08</time>
   <time name="total">   13.94   14.22</time>
   <energy>
    <i name="e_fr_energy">    -38.11889766 </i>
    <i name="e_wo_entrp">    -38.13931271 </i>
    <i name="e_0_energy">    -38.12570267 </i>
   </energy>
  </scstep>
  <scstep>
   <time name="dav">    9.39    9.44</time>
   <time name="total">   12.53   12.61</time>
   <energy>
    <i name="e_fr_energy">    -38.11881279 </i>
    <i name="e_wo_entrp">    -38.14029688 </i>
    <i name="e_0_energy">    -38.12597415 </i>
   </energy>
  </scstep>
  <scstep>
   <time name="dav">    8.24    8.33</time>
   <time name="total">   11.38   11.51</time>
   <energy>
    <i name="e_fr_energy">    -38.11892906 </i>
    <i name="e_wo_entrp">    -38.14085523 </i>
    <i name="e_0_energy">    -38.12623778 </i>
   </energy>
  </scstep>
  <scstep>
   <time name="dav">    6.32    6.38</time>
   <time name="total">    8.69    8.79</time>
   <energy>
    <i name="alphaZ">      4.42548844 </i>
    <i name="ewald">  13106.54407369 </i>
    <i name="hartreedc"> -22145.77510819 </i>
    <i name="XCdc">     60.28193716 </i>
    <i name="pawpsdc">  10139.16015356 </i>
    <i name="pawaedc"> -10304.49045532 </i>
    <i name="eentropy">      0.02094248 </i>
    <i name="bandstr">   -603.24452196 </i>
    <i name="atom">   9704.95859309 </i>
    <i name="e_fr_energy">    -38.11889705 </i>
    <i name="e_wo_entrp">    -38.13983953 </i>
    <i name="e_0_energy">    -38.12587787 </i>
   </energy>
  </scstep>
  <structure>
   <crystal>
    <varray name="basis" >
     <v>      23.25020416       0.00000000       0.00000000 </v>
     <v>       0.00000000      22.76543701       0.00000000 </v>
     <v>       0.00000000       0.00000000      24.19285794 </v>
    </varray>
    <i name="volume">  12805.30531372 </i>
    <varray name="rec_basis" >
     <v>       0.04301038       0.00000000       0.00000000 </v>
     <v>       0.00000000       0.04392624       0.00000000 </v>
     <v>       0.00000000       0.00000000       0.04133451 </v>
    </varray>
   </crystal>
   <varray name="positions" >
    <v>       0.51038129       0.51155836       0.55686581 </v>
    <v>       0.52850517       0.48207393       0.46461317 </v>
    <v>       0.47344333       0.59624927       0.52688120 </v>
    <v>       0.44010387       0.45902673       0.50704087 </v>
    <v>       0.49167113       0.56682524       0.43465362 </v>
    <v>       0.40333421       0.54340099       0.47702048 </v>
    <v>       0.60420364       0.52926576       0.51699871 </v>
    <v>       0.44160410       0.47531018       0.40445903 </v>
    <v>       0.40745533       0.53039624       0.57971497 </v>
    <v>       0.56178316       0.62673507       0.48241938 </v>
   </varray>
  </structure>
  <varray name="forces" >
   <v>      -0.00030917      -0.00339598      -0.02260993 </v>
   <v>      -0.00171548       0.01563814       0.01479704 </v>
   <v>       0.00783098      -0.01352796      -0.00868965 </v>
   <v>      -0.02271218       0.00772810      -0.00966024 </v>
   <v>       0.00062384      -0.00301654       0.02225705 </v>
   <v>      -0.01865431      -0.01863995       0.00189763 </v>
   <v>       0.01174853      -0.00460611       0.00170733 </v>
   <v>       0.01493479      -0.00042301      -0.01468579 </v>
   <v>       0.00700790       0.00815261       0.01600652 </v>
   <v>       0.00124509       0.01209071      -0.00101997 </v>
  </varray>
  <energy>
   <i name="e_fr_energy">    -38.11889705 </i>
   <i name="e_wo_entrp">    -38.13983953 </i>
   <i name="e_0_energy">    -38.12587787 </i>
  </energy>
  <time name="totalsc">   65.92   66.81</time>
 </calculation>
 <calculation>
  <scstep>
   <time name="dav">    8.09    8.23</time>
   <time name="total">   11.16   11.34</time>
   <energy>
    <i name="alphaZ">      4.42548844 </i>
    <i name="ewald">  13111.07969218 </i>
    <i name="hartreedc"> -22150.14162679 </i>
    <i name="XCdc">     60.28989823 </i>
    <i name="pawpsdc">  10139.24671388 </i>
    <i name="pawaedc"> -10304.56008743 </i>
    <i name="eentropy">      0.02048677 </i>
    <i name="bandstr">   -603.43795906 </i>
    <i name="atom">   9704.95859309 </i>
    <i name="e_fr_energy">    -38.11880068 </i>
    <i name="e_wo_entrp">    -38.13928746 </i>
    <i name="e_0_energy">    -38.12562961 </i>
   </energy>
  </scstep>
  <scstep>
   <time name="dav">   10.89   10.99</time>
   <time name="total">   14.05   14.25</time>
   <energy>
    <i name="e_fr_energy">    -38.11932876 </i>
    <i name="e_wo_entrp">    -38.13998334 </i>
    <i name="e_0_energy">    -38.12621362 </i>
   </energy>
  </scstep>
  <scstep>
   <time name="dav">    9.06    9.13</time>
   <time name="total">   12.20   12.32</time>
   <energy>
    <i name="e_fr_energy">    -38.11858317 </i>
    <i name="e_wo_entrp">    -38.13970607 </i>
    <i name="e_0_energy">    -38.12562414 </i>
   </energy>
  </scstep>
  <scstep>
   <time name="dav">    9.19    9.26</time>
   <time name="total">   12.28   12.37</time>
   <energy>
    <i name="e_fr_energy">    -38.11923781 </i>
    <i name="e_wo_entrp">    -38.14039809 </i>
    <i name="e_0_energy">    -38.12629124 </i>
   </energy>
  </scstep>
  <scstep>
   <time name="dav">    8.29    8.34</time>
   <time name="total">   11.36   11.47</time>
   <energy>
    <i name="e_fr_energy">    -38.11885376 </i>
    <i name="e_wo_entrp">    -38.13937269 </i>
    <i name="e_0_energy">    -38.12569341 </i>
   </energy>
  </scstep>
  <scstep>
   <time name="dav">    6.20    6.32</time>
   <time name="total">    9.68    9.82</time>
   <energy>
    <i name="e_fr_energy">    -38.11918656 </i>
    <i name="e_wo_entrp">    -38.13963642 </i>
    <i name="e_0_energy">    -38.12600318 </i>
   </energy>
  </scstep>
  <scstep>
   <time name="dav">    5.87    5.95</time>
   <time name="total">    8.22    8.34</time>
   <energy>
    <i name="alphaZ">      4.42548844 </i>
    <i name="ewald">  13111.07969218 </i>
    <i name="hartreedc"> -22150.06304816 </i>
    <i name="XCdc">     60.28617912 </i>
    <i name="pawpsdc">  10140.98065891 </i>
    <i name="pawaedc"> -10306.29554166 </i>
    <i name="eentropy">      0.02114508 </i>
    <i name="bandstr">   -603.51240043 </i>
    <i name="atom">   9704.95859309 </i>
    <i name="e_fr_energy">    -38.11923344 </i>
    <i name="e_wo_entrp">    -38.14037852 </i>
    <i name="e_0_energy">    -38.12628180 </i>
   </energy>
  </scstep>
  <structure>
   <crystal>
    <varray name="basis" >
     <v>      23.25020416       0.00000000       0.00000000 </v>
     <v>       0.00000000      22.76543701       0.00000000 </v>
     <v>       0.00000000       0.00000000      24.19285794 </v>
    </varray>
    <i name="volume">  12805.30531372 </i>
    <varray name="rec_basis" >
     <v>       0.04301038       0.00000000       0.00000000 </v>
     <v>       0.00000000       0.04392624       0.00000000 </v>
     <v>       0.00000000       0.00000000       0.04133451 </v>
    </varray>
   </crystal>
   <varray name="positions" >
    <v>       0.51036876       0.51157187       0.55676367 </v>
    <v>       0.52849362       0.48216583       0.46467603 </v>
    <v>       0.47349049       0.59617605       0.52685149 </v>
    <v>       0.44003314       0.45908221       0.50700652 </v>
    <v>       0.49169227       0.56679430       0.43474686 </v>
    <v>       0.40328981       0.54331925       0.47703727 </v>
    <v>       0.60424320       0.52919556       0.51701359 </v>
    <v>       0.44164887       0.47529715       0.40438953 </v>
    <v>       0.40747346       0.53042720       0.57978352 </v>
    <v>       0.56175159       0.62681235       0.48239877 </v>
   </varray>
  </structure>
  <varray name="forces" >
   <v>       0.00711652      -0.01616545       0.00558900 </v>
   <v>       0.00181428      -0.01028900       0.00118199 </v>
   <v>      -0.00581117       0.00581419      -0.00249790 </v>
   <v>      -0.02012051      -0.01157896      -0.00491950 </v>
   <v>      -0.00838908       0.01019723      -0.00269702 </v>
   <v>      -0.02361978      -0.00244950      -0.00474515 </v>
   <v>       0.00835357       0.01631701      -0.00240583 </v>
   <v>       0.01768316       0.00543359      -0.00405922 </v>
   <v>       0.01099390       0.00679224       0.00814145 </v>
   <v>       0.01197910      -0.00407135       0.00641218 </v>
  </varray>
  <energy>
   <i name="e_fr_energy">    -38.11923344 </i>
   <i name="e_wo_entrp">    -38.14037852 </i>
   <i name="e_0_energy">    -38.12628180 </i>
  </energy>
  <time name="totalsc">   86.29   87.29</time>
  <eigenvalues>
   <array>
    <dimension dim="1">band</dimension>
    <dimension dim="2">kpoint</dimension>
    <dimension dim="3">spin</dimension>
    <field>eigene</field>
    <field>occ</field>
    <set>
     <set comment="spin 1">
      <set comment="kpoint 1">
       <r>   -9.7330    1.0000 </r>
       <r>   -8.2147    1.0000 </r>
       <r>   -8.1864    1.0000 </r>
       <r>   -8.0249    1.0000 </r>
       <r>   -7.8443    1.0000 </r>
       <r>   -7.6565    1.0000 </r>
       <r>   -7.5904    1.0000 </r>
       <r>   -7.5189    1.0000 </r>
       <r>   -7.4657    1.0000 </r>
       <r>   -7.4428    1.0000 </r>
       <r>   -7.4297    1.0000 </r>
       <r>   -7.3735    1.0000 </r>
       <r>   -7.3394    1.0000 </r>
       <r>   -7.3154    1.0000 </r>
       <r>   -7.0047    1.0000 </r>
       <r>   -6.9147    1.0000 </r>
       <r>   -6.8415    1.0000 </r>
       <r>   -6.6635    1.0000 </r>
       <r>   -6.4525    1.0000 </r>
       <r>   -6.4315    1.0000 </r>
       <r>   -6.3928    1.0000 </r>
       <r>   -6.2918    1.0000 </r>
       <r>   -6.2263    1.0000 </r>
       <r>   -6.2181    1.0000 </r>
       <r>   -6.1990    1.0000 </r>
       <r>   -6.1247    1.0000 </r>
       <r>   -6.0761    1.0000 </r>
       <r>   -6.0247    1.0000 </r>
       <r>   -5.9472    1.0000 </r>
       <r>   -5.8947    1.0000 </r>
       <r>   -5.7755    1.0000 </r>
       <r>   -5.6989    1.0000 </r>
       <r>   -5.6798    1.0000 </r>
       <r>   -5.5418    1.0000 </r>
       <r>   -5.4894    1.0000 </r>
       <r>   -5.4849    1.0000 </r>
       <r>   -5.4470    1.0000 </r>
       <r>   -5.3676    1.0000 </r>
       <r>   -5.2529    1.0000 </r>
       <r>   -5.2098    1.0000 </r>
       <r>   -5.1463    1.0000 </r>
       <r>   -5.1441    1.0000 </r>
       <r>   -5.1314    1.0000 </r>
       <r>   -5.1174    1.0000 </r>
       <r>   -5.0228    1.0000 </r>
       <r>   -5.0119    1.0000 </r>
       <r>   -5.0023    1.0000 </r>
       <r>   -4.9605    1.0000 </r>
       <r>   -4.9272    1.0000 </r>
       <r>   -4.8841    1.0000 </r>
       <r>   -4.8403    1.0000 </r>
       <r>   -4.8233    1.0000 </r>
       <r>   -4.7375    1.0001 </r>
       <r>   -4.4589    1.0200 </r>
       <r>   -2.9877   -0.0000 </r>
       <r>   -2.8727   -0.0000 </r>
       <r>   -2.6266   -0.0000 </r>
       <r>   -2.5737   -0.0000 </r>
       <r>   -2.1968   -0.0000 </r>
       <r>   -2.0310   -0.0000 </r>
       <r>   -1.1557   -0.0000 </r>
       <r>   -0.8360   -0.0000 </r>
       <r>   -0.8012   -0.0000 </r>
       <r>   -0.3314   -0.0000 </r>
       <r>   -0.1163   -0.0000 </r>
       <r>   -0.0749   -0.0000 </r>
      </set>
     </set>
     <set comment="spin 2">
      <set comment="kpoint 1">
       <r>   -9.6773    1.0000 </r>
       <r>   -7.8787    1.0000 </r>
       <r>   -7.8400    1.0000 </r>
       <r>   -7.5770    1.0000 </r>
       <r>   -7.3563    1.0000 </r>
       <r>   -7.0537    1.0000 </r>
       <r>   -7.0224    1.0000 </r>
       <r>   -6.9219    1.0000 </r>
       <r>   -6.8632    1.0000 </r>
       <r>   -6.8463    1.0000 </r>
       <r>   -6.7505    1.0000 </r>
       <r>   -6.6236    1.0000 </r>
       <r>   -6.4712    1.0000 </r>
       <r>   -6.4596    1.0000 </r>
       <r>   -6.4338    1.0000 </r>
       <r>   -6.3592    1.0000 </r>
       <r>   -6.2354    1.0000 </r>
       <r>   -5.9462    1.0000 </r>
       <r>   -5.8636    1.0000 </r>
       <r>   -5.8603    1.0000 </r>
       <r>   -5.8148    1.0000 </r>
       <r>   -5.6736    1.0000 </r>
       <r>   -5.6645    1.0000 </r>
       <r>   -5.6563    1.0000 </r>
       <r>   -5.5773    1.0000 </r>
       <r>   -5.5045    1.0000 </r>
       <r>   -5.4668    1.0000 </r>
       <r>   -5.4055    1.0000 </r>
       <r>   -5.4028    1.0000 </r>
       <r>   -5.3380    1.0000 </r>
       <r>   -5.2823    1.0000 </r>
       <r>   -5.2217    1.0000 </r>
       <r>   -5.1717    1.0000 </r>
       <r>   -4.9838    1.0000 </r>
       <r>   -4.9639    1.0000 </r>
       <r>   -4.8898    1.0000 </r>
       <r>   -4.7526    1.0000 </r>
       <r>   -4.7486    1.0000 </r>
       <r>   -4.7043    1.0002 </r>
       <r>   -4.5590    1.0045 </r>
       <r>   -4.3702    1.0355 </r>
       <r>   -4.3528    1.0341 </r>
       <r>   -4.2807    0.9839 </r>
       <r>   -4.2694    0.9669 </r>
       <r>   -4.2625    0.9550 </r>
       <r>   -4.1655    0.6666 </r>
       <r>   -4.0719    0.2830 </r>
       <r>   -4.0280    0.1375 </r>
       <r>   -3.9722    0.0194 </r>
       <r>   -3.9140   -0.0300 </r>
       <r>   -3.8779   -0.0354 </r>
       <r>   -3.8599   -0.0341 </r>
       <r>   -3.6990   -0.0051 </r>
       <r>   -3.6467   -0.0018 </r>
       <r>   -2.7613   -0.0000 </r>
       <r>   -2.4886   -0.0000 </r>
       <r>   -2.3944   -0.0000 </r>
       <r>   -2.3704   -0.0000 </r>
       <r>   -1.8884   -0.0000 </r>
       <r>   -1.7784   -0.0000 </r>
       <r>   -1.0517   -0.0000 </r>
       <r>   -0.6854   -0.0000 </r>
       <r>   -0.5925   -0.0000 </r>
       <r>   -0.1799   -0.0000 </r>
       <r>   -0.0139   -0.0000 </r>
       <r>    0.0633   -0.0000 </r>
      </set>
     </set>
    </set>
   </array>
  </eigenvalues>
  <separator name="orbital magnetization" >
   <v name="MAGDIPOLOUT">      0.00000000      0.00000000      0.00000000</v>
  </separator>
  <dos>
   <i name="efermi">     -4.12525629 </i>
   <total>
    <array>
     <dimension dim="1">gridpoints</dimension>
     <dimension dim="2">spin</dimension>
     <field>energy</field>
     <field>total</field>
     <field>integrated</field>
     <set>
      <set comment="spin 1">
       <r>   -11.7330     0.0000     0.0000 </r>
       <r>   -11.6870     0.0000     0.0000 </r>
       <r>   -11.6410     0.0000     0.0000 </r>
       <r>   -11.5950     0.0000     0.0000 </r>
       <r>   -11.5490     0.0000     0.0000 </r>
       <r>   -11.5031     0.0000     0.0000 </r>
       <r>   -11.4571     0.0000     0.0000 </r>
       <r>   -11.4111     0.0000     0.0000 </r>
       <r>   -11.3651    -0.0000    -0.0000 </r>
       <r>   -11.3191    -0.0000    -0.0000 </r>
       <r>   -11.2731    -0.0000    -0.0000 </r>
       <r>   -11.2271    -0.0000    -0.0000 </r>
       <r>   -11.1811    -0.0000    -0.0000 </r>
       <r>   -11.1352    -0.0000    -0.0000 </r>
       <r>   -11.0892    -0.0000    -0.0000 </r>
       <r>   -11.0432    -0.0000    -0.0000 </r>
       <r>   -10.9972    -0.0000    -0.0000 </r>
       <r>   -10.9512    -0.0000    -0.0000 </r>
       <r>   -10.9052    -0.0000    -0.0000 </r>
       <r>   -10.8592    -0.0000    -0.0000 </r>
       <r>   -10.8132    -0.0000    -0.0000 </r>
       <r>   -10.7673    -0.0000    -0.0000 </r>
       <r>   -10.7213    -0.0000    -0.0000 </r>
       <r>   -10.6753    -0.0000    -0.0000 </r>
       <r>   -10.6293    -0.0000    -0.0000 </r>
       <r>   -10.5833    -0.0000    -0.0000 </r>
       <r>   -10.5373    -0.0000    -0.0000 </r>
       <r>   -10.4913    -0.0000    -0.0000 </r>
       <r>   -10.4453    -0.0001    -0.0000 </r>
       <r>   -10.3994    -0.0002    -0.0000 </r>
       <r>   -10.3534    -0.0009    -0.0001 </r>
       <r>   -10.3074    -0.0029    -0.0002 </r>
       <r>   -10.2614    -0.0090    -0.0006 </r>
       <r>   -10.2154    -0.0239    -0.0017 </r>
       <r>   -10.1694    -0.0555    -0.0043 </r>
       <r>   -10.1234    -0.1099    -0.0093 </r>
       <r>   -10.0774    -0.1802    -0.0176 </r>
       <r>   -10.0315    -0.2262    -0.0280 </r>
       <r>    -9.9855    -0.1578    -0.0353 </r>
       <r>    -9.9395     0.1540    -0.0282 </r>
       <r>    -9.8935     0.8154     0.0093 </r>
       <r>    -9.8475     1.8129     0.0927 </r>
       <r>    -9.8015     2.9439     0.2281 </r>
       <r>    -9.7555     3.8545     0.4053 </r>
       <r>    -9.7095     4.2005     0.5985 </r>
       <r>    -9.6636     3.8407     0.7751 </r>
       <r>    -9.6176     2.9219     0.9095 </r>
       <r>    -9.5716     1.7904     0.9918 </r>
       <r>    -9.5256     0.7983     1.0286 </r>
       <r>    -9.4796     0.1444     1.0352 </r>
       <r>    -9.4336    -0.1611     1.0278 </r>
       <r>    -9.3876    -0.2261     1.0174 </r>
       <r>    -9.3416    -0.1788     1.0092 </r>
       <r>    -9.2956    -0.1085     1.0042 </r>
       <r>    -9.2497    -0.0546     1.0017 </r>
       <r>    -9.2037    -0.0235     1.0006 </r>
       <r>    -9.1577    -0.0088     1.0002 </r>
       <r>    -9.1117    -0.0029     1.0001 </r>
       <r>    -9.0657    -0.0008     1.0000 </r>
       <r>    -9.0197    -0.0002     1.0000 </r>
       <r>    -8.9737    -0.0001     1.0000 </r>
       <r>    -8.9277    -0.0001     1.0000 </r>
       <r>    -8.8818    -0.0003     1.0000 </r>
       <r>    -8.8358    -0.0012     0.9999 </r>
       <r>    -8.7898    -0.0043     0.9997 </r>
       <r>    -8.7438    -0.0134     0.9991 </r>
       <r>    -8.6978    -0.0369     0.9974 </r>
       <r>    -8.6518    -0.0888     0.9933 </r>
       <r>    -8.6058    -0.1843     0.9849 </r>
       <r>    -8.5598    -0.3222     0.9700 </r>
       <r>    -8.5139    -0.4510     0.9493 </r>
       <r>    -8.4679    -0.4312     0.9295 </r>
       <r>    -8.4219    -0.0340     0.9279 </r>
       <r>    -8.3759     0.9800     0.9730 </r>
       <r>    -8.3299     2.7024     1.0973 </r>
       <r>    -8.2839     4.9286     1.3239 </r>
       <r>    -8.2379     7.1534     1.6529 </r>
       <r>    -8.1919     8.7755     2.0564 </r>
       <r>    -8.1460     9.4012     2.4888 </r>
       <r>    -8.1000     9.0380     2.9044 </r>
       <r>    -8.0540     8.0406     3.2742 </r>
       <r>    -8.0080     6.8744     3.5903 </r>
       <r>    -7.9620     5.8803     3.8608 </r>
       <r>    -7.9160     5.1874     4.0993 </r>
       <r>    -7.8700     4.7830     4.3193 </r>
       <r>    -7.8240     4.6584     4.5335 </r>
       <r>    -7.7781     4.9188     4.7597 </r>
       <r>    -7.7321     5.7856     5.0258 </r>
       <r>    -7.6861     7.4960     5.3705 </r>
       <r>    -7.6401    10.1695     5.8382 </r>
       <r>    -7.5941    13.7109     6.4687 </r>
       <r>    -7.5481    17.7596     7.2854 </r>
       <r>    -7.5021    21.6752     8.2822 </r>
       <r>    -7.4561    24.5960     9.4133 </r>
       <r>    -7.4102    25.6390    10.5924 </r>
       <r>    -7.3642    24.2387    11.7071 </r>
       <r>    -7.3182    20.4724    12.6486 </r>
       <r>    -7.2722    15.1593    13.3457 </r>
       <r>    -7.2262     9.6250    13.7883 </r>
       <r>    -7.1802     5.2235    14.0286 </r>
       <r>    -7.1342     2.8535    14.1598 </r>
       <r>    -7.0882     2.6927    14.2836 </r>
       <r>    -7.0423     4.2350    14.4784 </r>
       <r>    -6.9963     6.5601    14.7801 </r>
       <r>    -6.9503     8.6952    15.1799 </r>
       <r>    -6.9043     9.9319    15.6367 </r>
       <r>    -6.8583    10.0063    16.0969 </r>
       <r>    -6.8123     9.0956    16.5151 </r>
       <r>    -6.7663     7.6556    16.8672 </r>
       <r>    -6.7203     6.2014    17.1524 </r>
       <r>    -6.6743     5.1610    17.3897 </r>
       <r>    -6.6284     4.8476    17.6127 </r>
       <r>    -6.5824     5.4696    17.8642 </r>
       <r>    -6.5364     7.0766    18.1896 </r>
       <r>    -6.4904     9.4702    18.6251 </r>
       <r>    -6.4444    12.2283    19.1875 </r>
       <r>    -6.3984    14.9019    19.8728 </r>
       <r>    -6.3524    17.2335    20.6653 </r>
       <r>    -6.3064    19.1828    21.5475 </r>
       <r>    -6.2605    20.7449    22.5015 </r>
       <r>    -6.2145    21.7823    23.5032 </r>
       <r>    -6.1685    22.0653    24.5180 </r>
       <r>    -6.1225    21.4689    25.5053 </r>
       <r>    -6.0765    20.1084    26.4300 </r>
       <r>    -6.0305    18.2902    27.2711 </r>
       <r>    -5.9845    16.3600    28.0235 </r>
       <r>    -5.9385    14.6004    28.6949 </r>
       <r>    -5.8926    13.2217    29.3030 </r>
       <r>    -5.8466    12.3675    29.8717 </r>
       <r>    -5.8006    12.0792    30.4272 </r>
       <r>    -5.7546    12.2726    30.9916 </r>
       <r>    -5.7086    12.8091    31.5807 </r>
       <r>    -5.6626    13.6192    32.2070 </r>
       <r>    -5.6166    14.7214    32.8840 </r>
       <r>    -5.5706    16.0551    33.6223 </r>
       <r>    -5.5247    17.2941    34.4176 </r>
       <r>    -5.4787    17.9150    35.2415 </r>
       <r>    -5.4327    17.5820    36.0501 </r>
       <r>    -5.3867    16.5523    36.8113 </r>
       <r>    -5.3407    15.7008    37.5333 </r>
       <r>    -5.2947    16.0516    38.2715 </r>
       <r>    -5.2487    18.1364    39.1055 </r>
       <r>    -5.2027    21.6530    40.1013 </r>
       <r>    -5.1568    25.6587    41.2813 </r>
       <r>    -5.1108    29.1110    42.6201 </r>
       <r>    -5.0648    31.3415    44.0614 </r>
       <r>    -5.0188    32.1741    45.5410 </r>
       <r>    -4.9728    31.7218    46.9998 </r>
       <r>    -4.9268    30.1224    48.3851 </r>
       <r>    -4.8808    27.4315    49.6466 </r>
       <r>    -4.8348    23.7037    50.7367 </r>
       <r>    -4.7889    19.1449    51.6171 </r>
       <r>    -4.7429    14.2048    52.2703 </r>
       <r>    -4.6969     9.5355    52.7088 </r>
       <r>    -4.6509     5.8153    52.9763 </r>
       <r>    -4.6049     3.5018    53.1373 </r>
       <r>    -4.5589     2.6311    53.2583 </r>
       <r>    -4.5129     2.7866    53.3865 </r>
       <r>    -4.4669     3.2872    53.5376 </r>
       <r>    -4.4209     3.5084    53.6990 </r>
       <r>    -4.3750     3.1540    53.8440 </r>
       <r>    -4.3290     2.3175    53.9506 </r>
       <r>    -4.2830     1.3254    54.0115 </r>
       <r>    -4.2370     0.4985    54.0345 </r>
       <r>    -4.1910    -0.0061    54.0342 </r>
       <r>    -4.1450    -0.2080    54.0246 </r>
       <r>    -4.0990    -0.2201    54.0145 </r>
       <r>    -4.0530    -0.1570    54.0073 </r>
       <r>    -4.0071    -0.0892    54.0032 </r>
       <r>    -3.9611    -0.0426    54.0012 </r>
       <r>    -3.9151    -0.0175    54.0004 </r>
       <r>    -3.8691    -0.0063    54.0001 </r>
       <r>    -3.8231    -0.0020    54.0000 </r>
       <r>    -3.7771    -0.0006    54.0000 </r>
       <r>    -3.7311    -0.0002    54.0000 </r>
       <r>    -3.6851    -0.0001    54.0000 </r>
       <r>    -3.6392    -0.0004    54.0000 </r>
       <r>    -3.5932    -0.0013    53.9999 </r>
       <r>    -3.5472    -0.0045    53.9997 </r>
       <r>    -3.5012    -0.0132    53.9991 </r>
       <r>    -3.4552    -0.0343    53.9975 </r>
       <r>    -3.4092    -0.0779    53.9939 </r>
       <r>    -3.3632    -0.1523    53.9869 </r>
       <r>    -3.3172    -0.2495    53.9755 </r>
       <r>    -3.2713    -0.3215    53.9607 </r>
       <r>    -3.2253    -0.2597    53.9487 </r>
       <r>    -3.1793     0.0973    53.9532 </r>
       <r>    -3.1333     0.9044    53.9948 </r>
       <r>    -3.0873     2.2059    54.0963 </r>
       <r>    -3.0413     3.8424    54.2730 </r>
       <r>    -2.9953     5.4460    54.5234 </r>
       <r>    -2.9493     6.5676    54.8254 </r>
       <r>    -2.9034     6.9000    55.1428 </r>
       <r>    -2.8574     6.4788    55.4407 </r>
       <r>    -2.8114     5.7210    55.7038 </r>
       <r>    -2.7654     5.2309    55.9444 </r>
       <r>    -2.7194     5.4443    56.1947 </r>
       <r>    -2.6734     6.3248    56.4856 </r>
       <r>    -2.6274     7.3355    56.8229 </r>
       <r>    -2.5814     7.7486    57.1793 </r>
       <r>    -2.5355     7.1008    57.5058 </r>
       <r>    -2.4895     5.4861    57.7581 </r>
       <r>    -2.4435     3.4974    57.9190 </r>
       <r>    -2.3975     1.8873    58.0058 </r>
       <r>    -2.3515     1.1917    58.0606 </r>
       <r>    -2.3055     1.5280    58.1308 </r>
       <r>    -2.2595     2.6273    58.2516 </r>
       <r>    -2.2135     4.0222    58.4366 </r>
       <r>    -2.1676     5.2591    58.6785 </r>
       <r>    -2.1216     6.0307    58.9558 </r>
       <r>    -2.0756     6.1974    59.2408 </r>
       <r>    -2.0296     5.7510    59.5053 </r>
       <r>    -1.9836     4.7866    59.7254 </r>
       <r>    -1.9376     3.4984    59.8863 </r>
       <r>    -1.8916     2.1537    59.9853 </r>
       <r>    -1.8456     1.0143    60.0320 </r>
       <r>    -1.7996     0.2401    60.0430 </r>
       <r>    -1.7537    -0.1552    60.0359 </r>
       <r>    -1.7077    -0.2711    60.0234 </r>
       <r>    -1.6617    -0.2442    60.0122 </r>
       <r>    -1.6157    -0.1859    60.0037 </r>
       <r>    -1.5697    -0.1590    59.9963 </r>
       <r>    -1.5237    -0.1802    59.9881 </r>
       <r>    -1.4777    -0.2251    59.9777 </r>
       <r>    -1.4317    -0.2221    59.9675 </r>
       <r>    -1.3858    -0.0539    59.9650 </r>
       <r>    -1.3398     0.4060    59.9837 </r>
       <r>    -1.2938     1.2088    60.0393 </r>
       <r>    -1.2478     2.2380    60.1422 </r>
       <r>    -1.2018     3.1955    60.2891 </r>
       <r>    -1.1558     3.7316    60.4608 </r>
       <r>    -1.1098     3.6775    60.6299 </r>
       <r>    -1.0638     3.2260    60.7782 </r>
       <r>    -1.0179     2.8929    60.9113 </r>
       <r>    -0.9719     3.2259    61.0596 </r>
       <r>    -0.9259     4.4248    61.2631 </r>
       <r>    -0.8799     6.1346    61.5452 </r>
       <r>    -0.8339     7.5871    61.8941 </r>
       <r>    -0.7879     8.0274    62.2633 </r>
       <r>    -0.7419     7.1483    62.5920 </r>
       <r>    -0.6959     5.2429    62.8331 </r>
       <r>    -0.6500     3.0022    62.9712 </r>
       <r>    -0.6040     1.1390    63.0236 </r>
       <r>    -0.5580     0.0994    63.0282 </r>
       <r>    -0.5120    -0.0147    63.0275 </r>
       <r>    -0.4660     0.6295    63.0564 </r>
       <r>    -0.4200     1.7163    63.1354 </r>
       <r>    -0.3740     2.9072    63.2691 </r>
       <r>    -0.3280     3.9765    63.4519 </r>
       <r>    -0.2821     4.9074    63.6776 </r>
       <r>    -0.2361     5.8466    63.9465 </r>
       <r>    -0.1901     6.8966    64.2636 </r>
       <r>    -0.1441     7.8979    64.6269 </r>
       <r>    -0.0981     8.4248    65.0143 </r>
       <r>    -0.0521     8.0503    65.3845 </r>
       <r>    -0.0061     6.6763    65.6915 </r>
       <r>     0.0399     4.6489    65.9053 </r>
       <r>     0.0858     2.5638    66.0232 </r>
       <r>     0.1318     0.9351    66.0662 </r>
       <r>     0.1778    -0.0245    66.0651 </r>
       <r>     0.2238    -0.3990    66.0468 </r>
       <r>     0.2698    -0.4175    66.0276 </r>
       <r>     0.3158    -0.2973    66.0139 </r>
       <r>     0.3618    -0.1694    66.0061 </r>
       <r>     0.4078    -0.0813    66.0024 </r>
       <r>     0.4537    -0.0337    66.0008 </r>
       <r>     0.4997    -0.0122    66.0002 </r>
       <r>     0.5457    -0.0039    66.0001 </r>
       <r>     0.5917    -0.0011    66.0000 </r>
       <r>     0.6377    -0.0003    66.0000 </r>
       <r>     0.6837    -0.0001    66.0000 </r>
       <r>     0.7297    -0.0000    66.0000 </r>
       <r>     0.7757    -0.0000    66.0000 </r>
       <r>     0.8217    -0.0000    66.0000 </r>
       <r>     0.8676    -0.0000    66.0000 </r>
       <r>     0.9136    -0.0000    66.0000 </r>
       <r>     0.9596    -0.0000    66.0000 </r>
       <r>     1.0056    -0.0000    66.0000 </r>
       <r>     1.0516    -0.0000    66.0000 </r>
       <r>     1.0976    -0.0000    66.0000 </r>
       <r>     1.1436    -0.0000    66.0000 </r>
       <r>     1.1896    -0.0000    66.0000 </r>
       <r>     1.2355     0.0000    66.0000 </r>
       <r>     1.2815     0.0000    66.0000 </r>
       <r>     1.3275     0.0000    66.0000 </r>
       <r>     1.3735     0.0000    66.0000 </r>
       <r>     1.4195     0.0000    66.0000 </r>
       <r>     1.4655     0.0000    66.0000 </r>
       <r>     1.5115     0.0000    66.0000 </r>
       <r>     1.5575     0.0000    66.0000 </r>
       <r>     1.6034     0.0000    66.0000 </r>
       <r>     1.6494     0.0000    66.0000 </r>
       <r>     1.6954     0.0000    66.0000 </r>
       <r>     1.7414     0.0000    66.0000 </r>
       <r>     1.7874     0.0000    66.0000 </r>
       <r>     1.8334     0.0000    66.0000 </r>
       <r>     1.8794     0.0000    66.0000 </r>
       <r>     1.9254     0.0000    66.0000 </r>
       <r>     1.9713     0.0000    66.0000 </r>
       <r>     2.0173     0.0000    66.0000 </r>
       <r>     2.0633     0.0000    66.0000 </r>
      </set>
      <set comment="spin 2">
       <r>   -11.7330     0.0000     0.0000 </r>
       <r>   -11.6870     0.0000     0.0000 </r>
       <r>   -11.6410     0.0000     0.0000 </r>
       <r>   -11.5950     0.0000     0.0000 </r>
       <r>   -11.5490     0.0000     0.0000 </r>
       <r>   -11.5031     0.0000     0.0000 </r>
       <r>   -11.4571     0.0000     0.0000 </r>
       <r>   -11.4111     0.0000     0.0000 </r>
       <r>   -11.3651     0.0000     0.0000 </r>
       <r>   -11.3191    -0.0000    -0.0000 </r>
       <r>   -11.2731    -0.0000    -0.0000 </r>
       <r>   -11.2271    -0.0000    -0.0000 </r>
       <r>   -11.1811    -0.0000    -0.0000 </r>
       <r>   -11.1352    -0.0000    -0.0000 </r>
       <r>   -11.0892    -0.0000    -0.0000 </r>
       <r>   -11.0432    -0.0000    -0.0000 </r>
       <r>   -10.9972    -0.0000    -0.0000 </r>
       <r>   -10.9512    -0.0000    -0.0000 </r>
       <r>   -10.9052    -0.0000    -0.0000 </r>
       <r>   -10.8592    -0.0000    -0.0000 </r>
       <r>   -10.8132    -0.0000    -0.0000 </r>
       <r>   -10.7673    -0.0000    -0.0000 </r>
       <r>   -10.7213    -0.0000    -0.0000 </r>
       <r>   -10.6753    -0.0000    -0.0000 </r>
       <r>   -10.6293    -0.0000    -0.0000 </r>
       <r>   -10.5833    -0.0000    -0.0000 </r>
       <r>   -10.5373    -0.0000    -0.0000 </r>
       <r>   -10.4913    -0.0000    -0.0000 </r>
       <r>   -10.4453    -0.0000    -0.0000 </r>
       <r>   -10.3994    -0.0000    -0.0000 </r>
       <r>   -10.3534    -0.0002    -0.0000 </r>
       <r>   -10.3074    -0.0006    -0.0000 </r>
       <r>   -10.2614    -0.0023    -0.0001 </r>
       <r>   -10.2154    -0.0072    -0.0005 </r>
       <r>   -10.1694    -0.0197    -0.0014 </r>
       <r>   -10.1234    -0.0470    -0.0035 </r>
       <r>   -10.0774    -0.0965    -0.0080 </r>
       <r>   -10.0315    -0.1653    -0.0156 </r>
       <r>    -9.9855    -0.2222    -0.0258 </r>
       <r>    -9.9395    -0.1880    -0.0344 </r>
       <r>    -9.8935     0.0614    -0.0316 </r>
       <r>    -9.8475     0.6446    -0.0020 </r>
       <r>    -9.8015     1.5813     0.0707 </r>
       <r>    -9.7555     2.7103     0.1954 </r>
       <r>    -9.7095     3.6995     0.3655 </r>
       <r>    -9.6636     4.1857     0.5580 </r>
       <r>    -9.6176     3.9723     0.7407 </r>
       <r>    -9.5716     3.1468     0.8854 </r>
       <r>    -9.5256     2.0281     0.9787 </r>
       <r>    -9.4796     0.9834     1.0239 </r>
       <r>    -9.4336     0.2514     1.0355 </r>
       <r>    -9.3876    -0.1212     1.0299 </r>
       <r>    -9.3416    -0.2256     1.0195 </r>
       <r>    -9.2956    -0.1929     1.0106 </r>
       <r>    -9.2497    -0.1227     1.0050 </r>
       <r>    -9.2037    -0.0640     1.0020 </r>
       <r>    -9.1577    -0.0284     1.0007 </r>
       <r>    -9.1117    -0.0109     1.0002 </r>
       <r>    -9.0657    -0.0037     1.0001 </r>
       <r>    -9.0197    -0.0011     1.0000 </r>
       <r>    -8.9737    -0.0003     1.0000 </r>
       <r>    -8.9277    -0.0001     1.0000 </r>
       <r>    -8.8818    -0.0000     1.0000 </r>
       <r>    -8.8358    -0.0000     1.0000 </r>
       <r>    -8.7898    -0.0000     1.0000 </r>
       <r>    -8.7438    -0.0000     1.0000 </r>
       <r>    -8.6978    -0.0000     1.0000 </r>
       <r>    -8.6518    -0.0000     1.0000 </r>
       <r>    -8.6058    -0.0000     1.0000 </r>
       <r>    -8.5598    -0.0002     1.0000 </r>
       <r>    -8.5139    -0.0007     1.0000 </r>
       <r>    -8.4679    -0.0027     0.9998 </r>
       <r>    -8.4219    -0.0088     0.9994 </r>
       <r>    -8.3759    -0.0252     0.9983 </r>
       <r>    -8.3299    -0.0636     0.9953 </r>
       <r>    -8.2839    -0.1387     0.9890 </r>
       <r>    -8.2379    -0.2570     0.9771 </r>
       <r>    -8.1919    -0.3883     0.9593 </r>
       <r>    -8.1460    -0.4268     0.9397 </r>
       <r>    -8.1000    -0.1732     0.9317 </r>
       <r>    -8.0540     0.6156     0.9600 </r>
       <r>    -8.0080     2.0839     1.0558 </r>
       <r>    -7.9620     4.0988     1.2443 </r>
       <r>    -7.9160     6.1801     1.5285 </r>
       <r>    -7.8700     7.6631     1.8810 </r>
       <r>    -7.8240     8.0545     2.2514 </r>
       <r>    -7.7781     7.3477     2.5893 </r>
       <r>    -7.7321     6.0383     2.8670 </r>
       <r>    -7.6861     4.8051     3.0879 </r>
       <r>    -7.6401     4.0998     3.2765 </r>
       <r>    -7.5941     3.9591     3.4585 </r>
       <r>    -7.5481     4.1344     3.6487 </r>
       <r>    -7.5021     4.3570     3.8490 </r>
       <r>    -7.4561     4.4812     4.0551 </r>
       <r>    -7.4102     4.4397     4.2593 </r>
       <r>    -7.3642     4.1620     4.4507 </r>
       <r>    -7.3182     3.6181     4.6171 </r>
       <r>    -7.2722     2.9630     4.7534 </r>
       <r>    -7.2262     2.5970     4.8728 </r>
       <r>    -7.1802     3.0135     5.0114 </r>
       <r>    -7.1342     4.5116     5.2188 </r>
       <r>    -7.0882     6.9921     5.5404 </r>
       <r>    -7.0423     9.9889     5.9998 </r>
       <r>    -6.9963    12.8840     6.5923 </r>
       <r>    -6.9503    15.1289     7.2880 </r>
       <r>    -6.9043    16.3516     8.0400 </r>
       <r>    -6.8583    16.3779     8.7932 </r>
       <r>    -6.8123    15.2583     9.4949 </r>
       <r>    -6.7663    13.3162    10.1072 </r>
       <r>    -6.7203    11.1405    10.6196 </r>
       <r>    -6.6743     9.4578    11.0545 </r>
       <r>    -6.6284     8.8970    11.4637 </r>
       <r>    -6.5824     9.7324    11.9112 </r>
       <r>    -6.5364    11.7117    12.4498 </r>
       <r>    -6.4904    14.0811    13.0974 </r>
       <r>    -6.4444    15.8619    13.8268 </r>
       <r>    -6.3984    16.2798    14.5755 </r>
       <r>    -6.3524    15.0995    15.2699 </r>
       <r>    -6.3064    12.6512    15.8517 </r>
       <r>    -6.2605     9.5732    16.2919 </r>
       <r>    -6.2145     6.5119    16.5914 </r>
       <r>    -6.1685     3.9944    16.7751 </r>
       <r>    -6.1225     2.4652    16.8885 </r>
       <r>    -6.0765     2.3050    16.9945 </r>
       <r>    -6.0305     3.7072    17.1650 </r>
       <r>    -5.9845     6.4805    17.4630 </r>
       <r>    -5.9385     9.9879    17.9223 </r>
       <r>    -5.8926    13.3621    18.5368 </r>
       <r>    -5.8466    15.9108    19.2685 </r>
       <r>    -5.8006    17.4318    20.0702 </r>
       <r>    -5.7546    18.1988    20.9071 </r>
       <r>    -5.7086    18.6520    21.7648 </r>
       <r>    -5.6626    19.0809    22.6423 </r>
       <r>    -5.6166    19.5519    23.5415 </r>
       <r>    -5.5706    20.0476    24.4634 </r>
       <r>    -5.5247    20.5820    25.4099 </r>
       <r>    -5.4787    21.1513    26.3826 </r>
       <r>    -5.4327    21.6182    27.3768 </r>
       <r>    -5.3867    21.7032    28.3749 </r>
       <r>    -5.3407    21.1144    29.3459 </r>
       <r>    -5.2947    19.6996    30.2518 </r>
       <r>    -5.2487    17.5288    31.0579 </r>
       <r>    -5.2027    14.9082    31.7435 </r>
       <r>    -5.1568    12.3469    32.3113 </r>
       <r>    -5.1108    10.4334    32.7911 </r>
       <r>    -5.0648     9.6009    33.2327 </r>
       <r>    -5.0188     9.8999    33.6879 </r>
       <r>    -4.9728    10.9770    34.1928 </r>
       <r>    -4.9268    12.3127    34.7590 </r>
       <r>    -4.8808    13.5181    35.3807 </r>
       <r>    -4.8348    14.4213    36.0439 </r>
       <r>    -4.7889    14.9134    36.7297 </r>
       <r>    -4.7429    14.7883    37.4098 </r>
       <r>    -4.6969    13.8108    38.0449 </r>
       <r>    -4.6509    11.9714    38.5954 </r>
       <r>    -4.6049     9.6796    39.0406 </r>
       <r>    -4.5589     7.7095    39.3951 </r>
       <r>    -4.5129     6.9178    39.7133 </r>
       <r>    -4.4669     7.8771    40.0755 </r>
       <r>    -4.4209    10.5731    40.5617 </r>
       <r>    -4.3750    14.3009    41.2194 </r>
       <r>    -4.3290    17.8775    42.0415 </r>
       <r>    -4.2830    20.1559    42.9685 </r>
       <r>    -4.2370    20.5981    43.9157 </r>
       <r>    -4.1910    19.5454    44.8146 </r>
       <r>    -4.1450    17.9849    45.6417 </r>
       <r>    -4.0990    16.9549    46.4214 </r>
       <r>    -4.0530    16.9745    47.2020 </r>
       <r>    -4.0071    17.8281    48.0219 </r>
       <r>    -3.9611    18.7774    48.8854 </r>
       <r>    -3.9151    19.0283    49.7605 </r>
       <r>    -3.8691    18.1739    50.5963 </r>
       <r>    -3.8231    16.3698    51.3491 </r>
       <r>    -3.7771    14.1518    51.9999 </r>
       <r>    -3.7311    12.0322    52.5532 </r>
       <r>    -3.6851    10.1802    53.0214 </r>
       <r>    -3.6392     8.4218    53.4087 </r>
       <r>    -3.5932     6.5210    53.7085 </r>
       <r>    -3.5472     4.4629    53.9138 </r>
       <r>    -3.5012     2.4972    54.0286 </r>
       <r>    -3.4552     0.9480    54.0722 </r>
       <r>    -3.4092    -0.0064    54.0719 </r>
       <r>    -3.3632    -0.4112    54.0530 </r>
       <r>    -3.3172    -0.4566    54.0320 </r>
       <r>    -3.2713    -0.3498    54.0159 </r>
       <r>    -3.2253    -0.2340    54.0052 </r>
       <r>    -3.1793    -0.1745    53.9972 </r>
       <r>    -3.1333    -0.1810    53.9888 </r>
       <r>    -3.0873    -0.2234    53.9786 </r>
       <r>    -3.0413    -0.2303    53.9680 </r>
       <r>    -2.9953    -0.0876    53.9639 </r>
       <r>    -2.9493     0.3304    53.9791 </r>
       <r>    -2.9034     1.0821    54.0289 </r>
       <r>    -2.8574     2.0695    54.1241 </r>
       <r>    -2.8114     3.0216    54.2630 </r>
       <r>    -2.7654     3.6173    54.4294 </r>
       <r>    -2.7194     3.7098    54.6000 </r>
       <r>    -2.6734     3.4979    54.7608 </r>
       <r>    -2.6274     3.4859    54.9211 </r>
       <r>    -2.5814     4.2041    55.1145 </r>
       <r>    -2.5355     5.8498    55.3835 </r>
       <r>    -2.4895     8.0808    55.7551 </r>
       <r>    -2.4435    10.1151    56.2203 </r>
       <r>    -2.3975    11.0981    56.7307 </r>
       <r>    -2.3515    10.5339    57.2151 </r>
       <r>    -2.3055     8.5300    57.6074 </r>
       <r>    -2.2595     5.7180    57.8703 </r>
       <r>    -2.2135     2.9235    58.0048 </r>
       <r>    -2.1676     0.8112    58.0421 </r>
       <r>    -2.1216    -0.2887    58.0288 </r>
       <r>    -2.0756    -0.3399    58.0132 </r>
       <r>    -2.0296     0.5270    58.0374 </r>
       <r>    -1.9836     2.0856    58.1333 </r>
       <r>    -1.9376     4.0020    58.3174 </r>
       <r>    -1.8916     5.8249    58.5852 </r>
       <r>    -1.8456     7.0655    58.9102 </r>
       <r>    -1.7996     7.3639    59.2488 </r>
       <r>    -1.7537     6.6455    59.5544 </r>
       <r>    -1.7077     5.1601    59.7917 </r>
       <r>    -1.6617     3.3672    59.9466 </r>
       <r>    -1.6157     1.7329    60.0263 </r>
       <r>    -1.5697     0.5531    60.0517 </r>
       <r>    -1.5237    -0.1118    60.0465 </r>
       <r>    -1.4777    -0.3803    60.0291 </r>
       <r>    -1.4317    -0.4339    60.0091 </r>
       <r>    -1.3858    -0.4110    59.9902 </r>
       <r>    -1.3398    -0.3478    59.9742 </r>
       <r>    -1.2938    -0.1736    59.9662 </r>
       <r>    -1.2478     0.2421    59.9774 </r>
       <r>    -1.2018     0.9940    60.0231 </r>
       <r>    -1.1558     2.0314    60.1165 </r>
       <r>    -1.1098     3.1037    60.2592 </r>
       <r>    -1.0638     3.8342    60.4355 </r>
       <r>    -1.0179     3.9164    60.6156 </r>
       <r>    -0.9719     3.3207    60.7684 </r>
       <r>    -0.9259     2.3689    60.8773 </r>
       <r>    -0.8799     1.6088    60.9513 </r>
       <r>    -0.8339     1.5549    61.0228 </r>
       <r>    -0.7879     2.4328    61.1347 </r>
       <r>    -0.7419     4.0516    61.3210 </r>
       <r>    -0.6959     5.8617    61.5906 </r>
       <r>    -0.6500     7.1785    61.9207 </r>
       <r>    -0.6040     7.4786    62.2646 </r>
       <r>    -0.5580     6.6285    62.5694 </r>
       <r>    -0.5120     4.9291    62.7961 </r>
       <r>    -0.4660     2.9636    62.9324 </r>
       <r>    -0.4200     1.3440    62.9942 </r>
       <r>    -0.3740     0.4943    63.0169 </r>
       <r>    -0.3280     0.5503    63.0422 </r>
       <r>    -0.2821     1.3818    63.1058 </r>
       <r>    -0.2361     2.6990    63.2299 </r>
       <r>    -0.1901     4.1932    63.4228 </r>
       <r>    -0.1441     5.6470    63.6824 </r>
       <r>    -0.0981     6.9453    64.0018 </r>
       <r>    -0.0521     7.9840    64.3690 </r>
       <r>    -0.0061     8.5734    64.7633 </r>
       <r>     0.0399     8.4643    65.1525 </r>
       <r>     0.0858     7.5110    65.4980 </r>
       <r>     0.1318     5.8353    65.7663 </r>
       <r>     0.1778     3.8297    65.9424 </r>
       <r>     0.2238     1.9792    66.0334 </r>
       <r>     0.2698     0.6332    66.0626 </r>
       <r>     0.3158    -0.1127    66.0574 </r>
       <r>     0.3618    -0.3770    66.0400 </r>
       <r>     0.4078    -0.3647    66.0233 </r>
       <r>     0.4537    -0.2527    66.0117 </r>
       <r>     0.4997    -0.1423    66.0051 </r>
       <r>     0.5457    -0.0681    66.0020 </r>
       <r>     0.5917    -0.0282    66.0007 </r>
       <r>     0.6377    -0.0103    66.0002 </r>
       <r>     0.6837    -0.0033    66.0001 </r>
       <r>     0.7297    -0.0009    66.0000 </r>
       <r>     0.7757    -0.0002    66.0000 </r>
       <r>     0.8217    -0.0001    66.0000 </r>
       <r>     0.8676    -0.0000    66.0000 </r>
       <r>     0.9136    -0.0000    66.0000 </r>
       <r>     0.9596    -0.0000    66.0000 </r>
       <r>     1.0056    -0.0000    66.0000 </r>
       <r>     1.0516    -0.0000    66.0000 </r>
       <r>     1.0976    -0.0000    66.0000 </r>
       <r>     1.1436    -0.0000    66.0000 </r>
       <r>     1.1896    -0.0000    66.0000 </r>
       <r>     1.2355    -0.0000    66.0000 </r>
       <r>     1.2815    -0.0000    66.0000 </r>
       <r>     1.3275    -0.0000    66.0000 </r>
       <r>     1.3735     0.0000    66.0000 </r>
       <r>     1.4195     0.0000    66.0000 </r>
       <r>     1.4655     0.0000    66.0000 </r>
       <r>     1.5115     0.0000    66.0000 </r>
       <r>     1.5575     0.0000    66.0000 </r>
       <r>     1.6034     0.0000    66.0000 </r>
       <r>     1.6494     0.0000    66.0000 </r>
       <r>     1.6954     0.0000    66.0000 </r>
       <r>     1.7414     0.0000    66.0000 </r>
       <r>     1.7874     0.0000    66.0000 </r>
       <r>     1.8334     0.0000    66.0000 </r>
       <r>     1.8794     0.0000    66.0000 </r>
       <r>     1.9254     0.0000    66.0000 </r>
       <r>     1.9713     0.0000    66.0000 </r>
       <r>     2.0173     0.0000    66.0000 </r>
       <r>     2.0633     0.0000    66.0000 </r>
      </set>
     </set>
    </array>
   </total>
  </dos>
 </calculation>
 <structure name="finalpos" >
  <crystal>
   <varray name="basis" >
    <v>      23.25020416       0.00000000       0.00000000 </v>
    <v>       0.00000000      22.76543701       0.00000000 </v>
    <v>       0.00000000       0.00000000      24.19285794 </v>
   </varray>
   <i name="volume">  12805.30531372 </i>
   <varray name="rec_basis" >
    <v>       0.04301038       0.00000000       0.00000000 </v>
    <v>       0.00000000       0.04392624       0.00000000 </v>
    <v>       0.00000000       0.00000000       0.04133451 </v>
   </varray>
  </crystal>
  <varray name="positions" >
   <v>       0.51036876       0.51157187       0.55676367 </v>
   <v>       0.52849362       0.48216583       0.46467603 </v>
   <v>       0.47349049       0.59617605       0.52685149 </v>
   <v>       0.44003314       0.45908221       0.50700652 </v>
   <v>       0.49169227       0.56679430       0.43474686 </v>
   <v>       0.40328981       0.54331925       0.47703727 </v>
   <v>       0.60424320       0.52919556       0.51701359 </v>
   <v>       0.44164887       0.47529715       0.40438953 </v>
   <v>       0.40747346       0.53042720       0.57978352 </v>
   <v>       0.56175159       0.62681235       0.48239877 </v>
  </varray>
 </structure>
</modeling>
