unknown system                          
            1
    23.250204    0.000000    0.000000
     0.000000   22.765437    0.000000
     0.000000    0.000000   24.192858
   Ni   Pd
     6     4
Direct configuration=     1
   0.51039069  0.51154821  0.55694250
   0.52851385  0.48200493  0.46456597
   0.47340791  0.59630426  0.52690352
   0.44015697  0.45898507  0.50706666
   0.49165525  0.56684847  0.43458361
   0.40336755  0.54346236  0.47700787
   0.60417394  0.52931848  0.51698753
   0.44157048  0.47531996  0.40451121
   0.40744171  0.53037299  0.57966351
   0.56180687  0.62667703  0.48243486
Direct configuration=     2
   0.51038129  0.51155836  0.55686581
   0.52850517  0.48207393  0.46461317
   0.47344333  0.59624927  0.52688120
   0.44010387  0.45902673  0.50704087
   0.49167113  0.56682524  0.43465362
   0.40333421  0.54340099  0.47702048
   0.60420364  0.52926576  0.51699871
   0.44160410  0.47531018  0.40445903
   0.40745533  0.53039624  0.57971497
   0.56178316  0.62673507  0.48241938
Direct configuration=     3
   0.51036876  0.51157187  0.55676367
   0.52849362  0.48216583  0.46467603
   0.47349049  0.59617605  0.52685149
   0.44003314  0.45908221  0.50700652
   0.49169227  0.56679430  0.43474686
   0.40328981  0.54331925  0.47703727
   0.60424320  0.52919556  0.51701359
   0.44164887  0.47529715  0.40438953
   0.40747346  0.53042720  0.57978352
   0.56175159  0.62681235  0.48239877
