  13  13   0   0
  0.9791740E+03  0.2399967E-08  0.2352541E-08  0.2254554E-08  0.5000000E-15
   1.0000000000000000E-004
  CAR 
 unknown system                          
      2.35137987    -12.50945141  301     -3.84758201      1.00000000
    -12.509  0.0000E+00  0.0000E+00  0.0000E+00  0.0000E+00
    -12.460  0.0000E+00  0.0000E+00  0.0000E+00  0.0000E+00
    -12.410  0.0000E+00  0.0000E+00  0.0000E+00  0.0000E+00
    -12.361  0.0000E+00  0.0000E+00  0.0000E+00  0.0000E+00
    -12.311  0.0000E+00  0.0000E+00  0.0000E+00  0.0000E+00
    -12.262  0.0000E+00  0.0000E+00  0.0000E+00  0.0000E+00
    -12.212  0.0000E+00  0.0000E+00  0.0000E+00  0.0000E+00
    -12.163  0.0000E+00  0.0000E+00  0.0000E+00  0.0000E+00
    -12.113 -0.5440E-29 -0.5251E-29 -0.2695E-30 -0.2601E-30
    -12.064 -0.2578E-27 -0.2491E-27 -0.1304E-28 -0.1260E-28
    -12.014 -0.1100E-25 -0.1064E-25 -0.5577E-27 -0.5395E-27
    -11.965 -0.4141E-24 -0.4011E-24 -0.2107E-25 -0.2041E-25
    -11.915 -0.1377E-22 -0.1336E-22 -0.7034E-24 -0.6820E-24
    -11.865 -0.4046E-21 -0.3927E-21 -0.2074E-22 -0.2013E-22
    -11.816 -0.1049E-19 -0.1019E-19 -0.5404E-21 -0.5251E-21
    -11.766 -0.2401E-18 -0.2336E-18 -0.1244E-19 -0.1210E-19
    -11.717 -0.4850E-17 -0.4724E-17 -0.2527E-18 -0.2461E-18
    -11.667 -0.8420E-16 -0.8204E-16 -0.4424E-17 -0.4310E-17
    -11.618 -0.1315E-14 -0.1284E-14 -0.6957E-16 -0.6791E-16
    -11.568 -0.1817E-13 -0.1776E-13 -0.9697E-15 -0.9475E-15
    -11.519 -0.2212E-12 -0.2164E-12 -0.1193E-13 -0.1167E-13
    -11.469 -0.2371E-11 -0.2322E-11 -0.1294E-12 -0.1267E-12
    -11.420 -0.2237E-10 -0.2193E-10 -0.1237E-11 -0.1213E-11
    -11.370 -0.1855E-09 -0.1821E-09 -0.1043E-10 -0.1023E-10
    -11.321 -0.1351E-08 -0.1328E-08 -0.7736E-10 -0.7603E-10
    -11.271 -0.8637E-08 -0.8499E-08 -0.5052E-09 -0.4970E-09
    -11.222 -0.4836E-07 -0.4764E-07 -0.2901E-08 -0.2857E-08
    -11.172 -0.2367E-06 -0.2335E-06 -0.1463E-07 -0.1442E-07
    -11.122 -0.1010E-05 -0.9975E-06 -0.6466E-07 -0.6384E-07
    -11.073 -0.3743E-05 -0.3702E-05 -0.2501E-06 -0.2472E-06
    -11.023 -0.1199E-04 -0.1187E-04 -0.8438E-06 -0.8351E-06
    -10.974 -0.3287E-04 -0.3260E-04 -0.2472E-05 -0.2450E-05
    -10.924 -0.7614E-04 -0.7563E-04 -0.6244E-05 -0.6196E-05
    -10.875 -0.1451E-03 -0.1444E-03 -0.1343E-04 -0.1335E-04
    -10.825 -0.2142E-03 -0.2138E-03 -0.2404E-04 -0.2394E-04
    -10.776 -0.2000E-03 -0.2009E-03 -0.3395E-04 -0.3390E-04
    -10.726  0.4422E-04  0.4050E-04 -0.3176E-04 -0.3189E-04
    -10.677  0.6684E-03  0.6609E-03  0.1347E-05  0.8488E-06
    -10.627  0.1696E-02  0.1686E-02  0.8538E-04  0.8435E-04
    -10.578  0.2911E-02  0.2900E-02  0.2296E-03  0.2280E-03
    -10.528  0.3882E-02  0.3876E-02  0.4219E-03  0.4200E-03
    -10.478  0.4189E-02  0.4190E-02  0.6294E-03  0.6275E-03
    -10.429  0.3687E-02  0.3695E-02  0.8120E-03  0.8106E-03
    -10.379  0.2610E-02  0.2621E-02  0.9413E-03  0.9404E-03
    -10.330  0.1408E-02  0.1418E-02  0.1011E-02  0.1011E-02
    -10.280  0.4713E-03  0.4779E-03  0.1034E-02  0.1034E-02
    -10.231 -0.4788E-04 -0.4498E-04  0.1032E-02  0.1032E-02
    -10.181 -0.2187E-03 -0.2182E-03  0.1021E-02  0.1021E-02
    -10.132 -0.2002E-03 -0.2008E-03  0.1011E-02  0.1011E-02
    -10.082 -0.1260E-03 -0.1267E-03  0.1005E-02  0.1005E-02
    -10.033 -0.6273E-04 -0.6318E-04  0.1002E-02  0.1002E-02
     -9.983 -0.2591E-04 -0.2614E-04  0.1001E-02  0.1001E-02
     -9.934 -0.9084E-05 -0.9176E-05  0.1000E-02  0.1000E-02
     -9.884 -0.2762E-05 -0.2793E-05  0.1000E-02  0.1000E-02
     -9.835 -0.8636E-06 -0.8700E-06  0.1000E-02  0.1000E-02
     -9.785 -0.8376E-06 -0.8290E-06  0.1000E-02  0.1000E-02
     -9.735 -0.2644E-05 -0.2607E-05  0.9998E-03  0.9998E-03
     -9.686 -0.8733E-05 -0.8620E-05  0.9994E-03  0.9994E-03
     -9.636 -0.2505E-04 -0.2477E-04  0.9982E-03  0.9982E-03
     -9.587 -0.6100E-04 -0.6044E-04  0.9951E-03  0.9952E-03
     -9.537 -0.1234E-03 -0.1226E-03  0.9890E-03  0.9891E-03
     -9.488 -0.1980E-03 -0.1973E-03  0.9792E-03  0.9793E-03
     -9.438 -0.2203E-03 -0.2207E-03  0.9683E-03  0.9684E-03
     -9.389 -0.5890E-04 -0.6242E-04  0.9654E-03  0.9653E-03
     -9.339  0.4460E-03  0.4378E-03  0.9875E-03  0.9870E-03
     -9.290  0.1369E-02  0.1356E-02  0.1055E-02  0.1054E-02
     -9.240  0.2567E-02  0.2553E-02  0.1182E-02  0.1181E-02
     -9.191  0.3657E-02  0.3647E-02  0.1364E-02  0.1361E-02
     -9.141  0.4185E-02  0.4183E-02  0.1571E-02  0.1569E-02
     -9.091  0.3905E-02  0.3913E-02  0.1764E-02  0.1762E-02
     -9.042  0.2950E-02  0.2963E-02  0.1910E-02  0.1909E-02
     -8.992  0.1732E-02  0.1745E-02  0.1996E-02  0.1996E-02
     -8.943  0.6796E-03  0.6895E-03  0.2030E-02  0.2030E-02
     -8.893  0.1152E-04  0.1672E-04  0.2030E-02  0.2031E-02
     -8.844 -0.2983E-03 -0.2966E-03  0.2016E-02  0.2016E-02
     -8.794 -0.3927E-03 -0.3928E-03  0.1996E-02  0.1996E-02
     -8.745 -0.3744E-03 -0.3752E-03  0.1978E-02  0.1978E-02
     -8.695 -0.2185E-03 -0.2205E-03  0.1967E-02  0.1967E-02
     -8.646  0.2045E-03  0.2005E-03  0.1977E-02  0.1977E-02
     -8.596  0.1006E-02  0.1000E-02  0.2027E-02  0.2026E-02
     -8.547  0.2120E-02  0.2113E-02  0.2132E-02  0.2131E-02
     -8.497  0.3228E-02  0.3222E-02  0.2292E-02  0.2291E-02
     -8.447  0.3894E-02  0.3892E-02  0.2485E-02  0.2483E-02
     -8.398  0.3857E-02  0.3859E-02  0.2676E-02  0.2675E-02
     -8.348  0.3268E-02  0.3272E-02  0.2838E-02  0.2837E-02
     -8.299  0.2625E-02  0.2627E-02  0.2968E-02  0.2967E-02
     -8.249  0.2422E-02  0.2420E-02  0.3088E-02  0.3087E-02
     -8.200  0.2779E-02  0.2774E-02  0.3225E-02  0.3224E-02
     -8.150  0.3386E-02  0.3381E-02  0.3393E-02  0.3392E-02
     -8.101  0.3800E-02  0.3798E-02  0.3581E-02  0.3580E-02
     -8.051  0.3832E-02  0.3833E-02  0.3771E-02  0.3770E-02
     -8.002  0.3671E-02  0.3672E-02  0.3953E-02  0.3952E-02
     -7.952  0.3664E-02  0.3663E-02  0.4134E-02  0.4133E-02
     -7.903  0.4020E-02  0.4017E-02  0.4334E-02  0.4332E-02
     -7.853  0.4716E-02  0.4712E-02  0.4567E-02  0.4565E-02
     -7.804  0.5645E-02  0.5639E-02  0.4847E-02  0.4845E-02
     -7.754  0.6752E-02  0.6744E-02  0.5181E-02  0.5179E-02
     -7.704  0.7977E-02  0.7967E-02  0.5576E-02  0.5573E-02
     -7.655  0.9108E-02  0.9099E-02  0.6028E-02  0.6024E-02
     -7.605  0.9787E-02  0.9783E-02  0.6512E-02  0.6509E-02
     -7.556  0.9750E-02  0.9752E-02  0.6995E-02  0.6992E-02
     -7.506  0.9102E-02  0.9108E-02  0.7446E-02  0.7443E-02
     -7.457  0.8334E-02  0.8340E-02  0.7859E-02  0.7856E-02
     -7.407  0.8002E-02  0.8004E-02  0.8256E-02  0.8253E-02
     -7.358  0.8328E-02  0.8325E-02  0.8668E-02  0.8665E-02
     -7.308  0.9068E-02  0.9062E-02  0.9117E-02  0.9114E-02
     -7.259  0.9739E-02  0.9734E-02  0.9600E-02  0.9596E-02
     -7.209  0.9994E-02  0.9991E-02  0.1009E-01  0.1009E-01
     -7.160  0.9859E-02  0.9859E-02  0.1058E-01  0.1058E-01
     -7.110  0.9770E-02  0.9769E-02  0.1107E-01  0.1106E-01
     -7.060  0.1039E-01  0.1039E-01  0.1158E-01  0.1158E-01
     -7.011  0.1230E-01  0.1228E-01  0.1219E-01  0.1219E-01
     -6.961  0.1555E-01  0.1552E-01  0.1296E-01  0.1295E-01
     -6.912  0.1954E-01  0.1951E-01  0.1393E-01  0.1392E-01
     -6.862  0.2323E-01  0.2321E-01  0.1508E-01  0.1507E-01
     -6.813  0.2569E-01  0.2568E-01  0.1635E-01  0.1634E-01
     -6.763  0.2654E-01  0.2654E-01  0.1767E-01  0.1766E-01
     -6.714  0.2597E-01  0.2598E-01  0.1895E-01  0.1895E-01
     -6.664  0.2447E-01  0.2449E-01  0.2017E-01  0.2016E-01
     -6.615  0.2253E-01  0.2255E-01  0.2128E-01  0.2128E-01
     -6.565  0.2050E-01  0.2052E-01  0.2230E-01  0.2229E-01
     -6.516  0.1864E-01  0.1866E-01  0.2322E-01  0.2322E-01
     -6.466  0.1718E-01  0.1719E-01  0.2407E-01  0.2407E-01
     -6.417  0.1629E-01  0.1629E-01  0.2488E-01  0.2487E-01
     -6.367  0.1595E-01  0.1595E-01  0.2567E-01  0.2566E-01
     -6.317  0.1598E-01  0.1598E-01  0.2646E-01  0.2646E-01
     -6.268  0.1616E-01  0.1615E-01  0.2726E-01  0.2726E-01
     -6.218  0.1642E-01  0.1641E-01  0.2807E-01  0.2807E-01
     -6.169  0.1696E-01  0.1695E-01  0.2891E-01  0.2891E-01
     -6.119  0.1814E-01  0.1812E-01  0.2981E-01  0.2981E-01
     -6.070  0.2023E-01  0.2021E-01  0.3082E-01  0.3081E-01
     -6.020  0.2320E-01  0.2317E-01  0.3196E-01  0.3196E-01
     -5.971  0.2657E-01  0.2655E-01  0.3328E-01  0.3327E-01
     -5.921  0.2960E-01  0.2959E-01  0.3475E-01  0.3474E-01
     -5.872  0.3162E-01  0.3161E-01  0.3631E-01  0.3630E-01
     -5.822  0.3246E-01  0.3246E-01  0.3792E-01  0.3791E-01
     -5.773  0.3267E-01  0.3267E-01  0.3954E-01  0.3953E-01
     -5.723  0.3320E-01  0.3320E-01  0.4118E-01  0.4117E-01
     -5.673  0.3486E-01  0.3484E-01  0.4291E-01  0.4290E-01
     -5.624  0.3774E-01  0.3772E-01  0.4478E-01  0.4477E-01
     -5.574  0.4121E-01  0.4119E-01  0.4682E-01  0.4681E-01
     -5.525  0.4425E-01  0.4423E-01  0.4901E-01  0.4900E-01
     -5.475  0.4613E-01  0.4612E-01  0.5130E-01  0.5128E-01
     -5.426  0.4675E-01  0.4674E-01  0.5361E-01  0.5360E-01
     -5.376  0.4651E-01  0.4651E-01  0.5592E-01  0.5590E-01
     -5.327  0.4583E-01  0.4583E-01  0.5819E-01  0.5817E-01
     -5.277  0.4463E-01  0.4464E-01  0.6040E-01  0.6039E-01
     -5.228  0.4229E-01  0.4231E-01  0.6250E-01  0.6248E-01
     -5.178  0.3813E-01  0.3816E-01  0.6438E-01  0.6437E-01
     -5.129  0.3200E-01  0.3204E-01  0.6597E-01  0.6596E-01
     -5.079  0.2457E-01  0.2461E-01  0.6719E-01  0.6718E-01
     -5.029  0.1707E-01  0.1710E-01  0.6803E-01  0.6803E-01
     -4.980  0.1062E-01  0.1065E-01  0.6856E-01  0.6855E-01
     -4.930  0.5809E-02  0.5837E-02  0.6885E-01  0.6884E-01
     -4.881  0.2650E-02  0.2675E-02  0.6898E-01  0.6897E-01
     -4.831  0.9489E-03  0.9667E-03  0.6902E-01  0.6902E-01
     -4.782  0.5843E-03  0.5882E-03  0.6905E-01  0.6905E-01
     -4.732  0.1475E-02  0.1463E-02  0.6913E-01  0.6912E-01
     -4.683  0.3342E-02  0.3317E-02  0.6929E-01  0.6929E-01
     -4.633  0.5543E-02  0.5518E-02  0.6957E-01  0.6956E-01
     -4.584  0.7213E-02  0.7199E-02  0.6992E-01  0.6992E-01
     -4.534  0.7653E-02  0.7658E-02  0.7030E-01  0.7030E-01
     -4.485  0.6701E-02  0.6722E-02  0.7063E-01  0.7063E-01
     -4.435  0.4795E-02  0.4823E-02  0.7087E-01  0.7087E-01
     -4.386  0.2680E-02  0.2706E-02  0.7100E-01  0.7100E-01
     -4.336  0.9879E-03  0.1006E-02  0.7105E-01  0.7105E-01
     -4.286 -0.2653E-04 -0.1611E-04  0.7105E-01  0.7105E-01
     -4.237 -0.4591E-03 -0.4535E-03  0.7103E-01  0.7103E-01
     -4.187 -0.5489E-03 -0.5463E-03  0.7100E-01  0.7100E-01
     -4.138 -0.4653E-03 -0.4683E-03  0.7098E-01  0.7098E-01
     -4.088 -0.2112E-03 -0.2272E-03  0.7097E-01  0.7097E-01
     -4.039  0.3304E-03  0.2938E-03  0.7099E-01  0.7098E-01
     -3.989  0.1242E-02  0.1184E-02  0.7105E-01  0.7104E-01
     -3.940  0.2403E-02  0.2338E-02  0.7117E-01  0.7116E-01
     -3.890  0.3451E-02  0.3403E-02  0.7134E-01  0.7133E-01
     -3.841  0.3960E-02  0.3949E-02  0.7153E-01  0.7152E-01
     -3.791  0.3747E-02  0.3778E-02  0.7172E-01  0.7171E-01
     -3.742  0.3066E-02  0.3121E-02  0.7187E-01  0.7186E-01
     -3.692  0.2471E-02  0.2525E-02  0.7199E-01  0.7199E-01
     -3.642  0.2431E-02  0.2465E-02  0.7211E-01  0.7211E-01
     -3.593  0.2978E-02  0.2988E-02  0.7226E-01  0.7226E-01
     -3.543  0.3680E-02  0.3678E-02  0.7244E-01  0.7244E-01
     -3.494  0.3969E-02  0.3968E-02  0.7264E-01  0.7264E-01
     -3.444  0.3538E-02  0.3545E-02  0.7282E-01  0.7281E-01
     -3.395  0.2519E-02  0.2531E-02  0.7294E-01  0.7294E-01
     -3.345  0.1318E-02  0.1332E-02  0.7301E-01  0.7300E-01
     -3.296  0.3267E-03  0.3368E-03  0.7302E-01  0.7302E-01
     -3.246 -0.2721E-03 -0.2668E-03  0.7301E-01  0.7301E-01
     -3.197 -0.4661E-03 -0.4665E-03  0.7298E-01  0.7299E-01
     -3.147 -0.2768E-03 -0.2845E-03  0.7297E-01  0.7297E-01
     -3.098  0.3162E-03  0.2994E-03  0.7299E-01  0.7299E-01
     -3.048  0.1317E-02  0.1292E-02  0.7305E-01  0.7305E-01
     -2.999  0.2606E-02  0.2575E-02  0.7318E-01  0.7318E-01
     -2.949  0.3915E-02  0.3886E-02  0.7338E-01  0.7337E-01
     -2.899  0.4946E-02  0.4924E-02  0.7362E-01  0.7361E-01
     -2.850  0.5513E-02  0.5502E-02  0.7389E-01  0.7389E-01
     -2.800  0.5594E-02  0.5593E-02  0.7417E-01  0.7416E-01
     -2.751  0.5289E-02  0.5296E-02  0.7443E-01  0.7443E-01
     -2.701  0.4781E-02  0.4791E-02  0.7467E-01  0.7466E-01
     -2.652  0.4326E-02  0.4332E-02  0.7488E-01  0.7488E-01
     -2.602  0.4185E-02  0.4182E-02  0.7509E-01  0.7509E-01
     -2.553  0.4477E-02  0.4465E-02  0.7531E-01  0.7531E-01
     -2.503  0.5082E-02  0.5066E-02  0.7556E-01  0.7556E-01
     -2.454  0.5708E-02  0.5698E-02  0.7585E-01  0.7584E-01
     -2.404  0.6091E-02  0.6090E-02  0.7615E-01  0.7614E-01
     -2.355  0.6147E-02  0.6155E-02  0.7645E-01  0.7645E-01
     -2.305  0.5973E-02  0.5985E-02  0.7675E-01  0.7674E-01
     -2.255  0.5713E-02  0.5726E-02  0.7703E-01  0.7703E-01
     -2.206  0.5398E-02  0.5412E-02  0.7730E-01  0.7729E-01
     -2.156  0.4900E-02  0.4917E-02  0.7754E-01  0.7754E-01
     -2.107  0.4055E-02  0.4078E-02  0.7774E-01  0.7774E-01
     -2.057  0.2868E-02  0.2895E-02  0.7789E-01  0.7788E-01
     -2.008  0.1606E-02  0.1628E-02  0.7796E-01  0.7796E-01
     -1.958  0.6865E-03  0.6937E-03  0.7800E-01  0.7800E-01
     -1.909  0.4612E-03  0.4468E-03  0.7802E-01  0.7802E-01
     -1.859  0.1012E-02  0.9778E-03  0.7807E-01  0.7807E-01
     -1.810  0.2082E-02  0.2040E-02  0.7817E-01  0.7817E-01
     -1.760  0.3173E-02  0.3141E-02  0.7833E-01  0.7833E-01
     -1.711  0.3812E-02  0.3801E-02  0.7852E-01  0.7851E-01
     -1.661  0.3843E-02  0.3851E-02  0.7871E-01  0.7870E-01
     -1.612  0.3539E-02  0.3551E-02  0.7889E-01  0.7888E-01
     -1.562  0.3399E-02  0.3398E-02  0.7905E-01  0.7905E-01
     -1.512  0.3772E-02  0.3753E-02  0.7924E-01  0.7923E-01
     -1.463  0.4609E-02  0.4583E-02  0.7947E-01  0.7946E-01
     -1.413  0.5521E-02  0.5503E-02  0.7974E-01  0.7973E-01
     -1.364  0.6036E-02  0.6039E-02  0.8004E-01  0.8003E-01
     -1.314  0.5862E-02  0.5887E-02  0.8033E-01  0.8032E-01
     -1.265  0.5028E-02  0.5062E-02  0.8058E-01  0.8058E-01
     -1.215  0.3917E-02  0.3938E-02  0.8078E-01  0.8077E-01
     -1.166  0.3147E-02  0.3132E-02  0.8093E-01  0.8093E-01
     -1.116  0.3271E-02  0.3214E-02  0.8109E-01  0.8109E-01
     -1.067  0.4401E-02  0.4319E-02  0.8131E-01  0.8130E-01
     -1.017  0.6019E-02  0.5952E-02  0.8161E-01  0.8159E-01
     -0.968  0.7222E-02  0.7207E-02  0.8197E-01  0.8195E-01
     -0.918  0.7291E-02  0.7337E-02  0.8233E-01  0.8231E-01
     -0.868  0.6197E-02  0.6279E-02  0.8264E-01  0.8263E-01
     -0.819  0.4655E-02  0.4726E-02  0.8287E-01  0.8286E-01
     -0.769  0.3654E-02  0.3674E-02  0.8305E-01  0.8304E-01
     -0.720  0.3811E-02  0.3769E-02  0.8324E-01  0.8323E-01
     -0.670  0.4982E-02  0.4904E-02  0.8348E-01  0.8347E-01
     -0.621  0.6386E-02  0.6316E-02  0.8380E-01  0.8378E-01
     -0.571  0.7109E-02  0.7085E-02  0.8415E-01  0.8413E-01
     -0.522  0.6668E-02  0.6701E-02  0.8448E-01  0.8447E-01
     -0.472  0.5270E-02  0.5335E-02  0.8474E-01  0.8473E-01
     -0.423  0.3642E-02  0.3696E-02  0.8492E-01  0.8491E-01
     -0.373  0.2553E-02  0.2562E-02  0.8505E-01  0.8504E-01
     -0.324  0.2368E-02  0.2331E-02  0.8517E-01  0.8516E-01
     -0.274  0.2922E-02  0.2870E-02  0.8531E-01  0.8530E-01
     -0.224  0.3767E-02  0.3732E-02  0.8550E-01  0.8548E-01
     -0.175  0.4565E-02  0.4557E-02  0.8572E-01  0.8571E-01
     -0.125  0.5305E-02  0.5305E-02  0.8599E-01  0.8597E-01
     -0.076  0.6202E-02  0.6191E-02  0.8629E-01  0.8628E-01
     -0.026  0.7434E-02  0.7434E-02  0.8666E-01  0.8665E-01
      0.023  0.8989E-02  0.9064E-02  0.8711E-01  0.8710E-01
      0.073  0.1070E-01  0.1092E-01  0.8764E-01  0.8764E-01
      0.122  0.1234E-01  0.1271E-01  0.8825E-01  0.8827E-01
      0.172  0.1366E-01  0.1413E-01  0.8893E-01  0.8897E-01
      0.221  0.1437E-01  0.1479E-01  0.8964E-01  0.8970E-01
      0.271  0.1411E-01  0.1435E-01  0.9034E-01  0.9041E-01
      0.320  0.1265E-01  0.1264E-01  0.9096E-01  0.9104E-01
      0.370  0.1010E-01  0.9852E-02  0.9146E-01  0.9152E-01
      0.419  0.6953E-02  0.6571E-02  0.9181E-01  0.9185E-01
      0.469  0.3906E-02  0.3523E-02  0.9200E-01  0.9202E-01
      0.519  0.1553E-02  0.1266E-02  0.9208E-01  0.9209E-01
      0.568  0.1410E-03 -0.1939E-04  0.9209E-01  0.9209E-01
      0.618 -0.4483E-03 -0.5052E-03  0.9206E-01  0.9206E-01
      0.667 -0.5220E-03 -0.5206E-03  0.9204E-01  0.9203E-01
      0.717 -0.3822E-03 -0.3613E-03  0.9202E-01  0.9202E-01
      0.766 -0.2183E-03 -0.1986E-03  0.9201E-01  0.9201E-01
      0.816 -0.1033E-03 -0.9104E-04  0.9200E-01  0.9200E-01
      0.865 -0.4154E-04 -0.3558E-04  0.9200E-01  0.9200E-01
      0.915 -0.1439E-04 -0.1200E-04  0.9200E-01  0.9200E-01
      0.964 -0.4325E-05 -0.3513E-05  0.9200E-01  0.9200E-01
      1.014 -0.1133E-05 -0.8974E-06  0.9200E-01  0.9200E-01
      1.063 -0.2594E-06 -0.2005E-06  0.9200E-01  0.9200E-01
      1.113 -0.5205E-07 -0.3928E-07  0.9200E-01  0.9200E-01
      1.163 -0.9165E-08 -0.6754E-08  0.9200E-01  0.9200E-01
      1.212 -0.1418E-08 -0.1021E-08  0.9200E-01  0.9200E-01
      1.262 -0.1928E-09 -0.1357E-09  0.9200E-01  0.9200E-01
      1.311 -0.2308E-10 -0.1587E-10  0.9200E-01  0.9200E-01
      1.361 -0.2433E-11 -0.1635E-11  0.9200E-01  0.9200E-01
      1.410 -0.2259E-12 -0.1485E-12  0.9200E-01  0.9200E-01
      1.460 -0.1848E-13 -0.1188E-13  0.9200E-01  0.9200E-01
      1.509 -0.1336E-14 -0.8337E-15  0.9200E-01  0.9200E-01
      1.559 -0.8517E-16 -0.5379E-16  0.9200E-01  0.9200E-01
      1.608 -0.4482E-17 -0.4482E-17  0.9200E-01  0.9200E-01
      1.658  0.0000E+00  0.0000E+00  0.9200E-01  0.9200E-01
      1.707  0.0000E+00  0.0000E+00  0.9200E-01  0.9200E-01
      1.757  0.0000E+00  0.0000E+00  0.9200E-01  0.9200E-01
      1.806  0.0000E+00  0.0000E+00  0.9200E-01  0.9200E-01
      1.856  0.0000E+00  0.0000E+00  0.9200E-01  0.9200E-01
      1.906  0.0000E+00  0.0000E+00  0.9200E-01  0.9200E-01
      1.955  0.0000E+00  0.0000E+00  0.9200E-01  0.9200E-01
      2.005  0.0000E+00  0.0000E+00  0.9200E-01  0.9200E-01
      2.054  0.0000E+00  0.0000E+00  0.9200E-01  0.9200E-01
      2.104  0.0000E+00  0.0000E+00  0.9200E-01  0.9200E-01
      2.153  0.0000E+00  0.0000E+00  0.9200E-01  0.9200E-01
      2.203  0.0000E+00  0.0000E+00  0.9200E-01  0.9200E-01
      2.252  0.0000E+00  0.0000E+00  0.9200E-01  0.9200E-01
      2.302  0.0000E+00  0.0000E+00  0.9200E-01  0.9200E-01
      2.351  0.0000E+00  0.0000E+00  0.9200E-01  0.9200E-01
