   13   13 1000    2
  0.9791740E+03  0.2399967E-08  0.2352541E-08  0.2254554E-08  0.5000000E-15
   1.0000000000000000E-004
  CAR 
 unknown system                          
    143      1     92
 
  0.1262379E-14  0.1262379E-14  0.1262379E-14  0.1000000E+01
    1      -10.509451    -10.509006   1.000000   1.000000
    2       -9.157818     -9.157250   1.000000   1.000000
    3       -8.449310     -8.448998   1.000000   1.000000
    4       -8.126613     -8.126229   1.000000   1.000000
    5       -7.870264     -7.869880   1.000000   1.000000
    6       -7.701116     -7.700833   1.000000   1.000000
    7       -7.598371     -7.597927   1.000000   1.000000
    8       -7.532172     -7.531843   1.000000   1.000000
    9       -7.348861     -7.348457   1.000000   1.000000
   10       -7.284825     -7.284552   1.000000   1.000000
   11       -7.167530     -7.167081   1.000000   1.000000
   12       -7.095205     -7.094839   1.000000   1.000000
   13       -6.951018     -6.950707   1.000000   1.000000
   14       -6.911552     -6.911140   1.000000   1.000000
   15       -6.882238     -6.881932   1.000000   1.000000
   16       -6.856468     -6.855994   1.000000   1.000000
   17       -6.822405     -6.822154   1.000000   1.000000
   18       -6.739859     -6.739463   1.000000   1.000000
   19       -6.737631     -6.737299   1.000000   1.000000
   20       -6.730286     -6.729877   1.000000   1.000000
   21       -6.633973     -6.633718   1.000000   1.000000
   22       -6.607477     -6.607127   1.000000   1.000000
   23       -6.570193     -6.569789   1.000000   1.000000
   24       -6.496513     -6.496192   1.000000   1.000000
   25       -6.449418     -6.449140   1.000000   1.000000
   26       -6.351789     -6.351481   1.000000   1.000000
   27       -6.330094     -6.329835   1.000000   1.000000
   28       -6.250014     -6.249725   1.000000   1.000000
   29       -6.210441     -6.210077   1.000000   1.000000
   30       -6.123113     -6.122745   1.000000   1.000000
   31       -6.092297     -6.092021   1.000000   1.000000
   32       -6.027079     -6.026781   1.000000   1.000000
   33       -5.999607     -5.999295   1.000000   1.000000
   34       -5.927586     -5.927244   1.000000   1.000000
   35       -5.922903     -5.922597   1.000000   1.000000
   36       -5.914838     -5.914509   1.000000   1.000000
   37       -5.882691     -5.882386   1.000000   1.000000
   38       -5.828567     -5.828256   1.000000   1.000000
   39       -5.812184     -5.811889   1.000000   1.000000
   40       -5.794271     -5.793908   1.000000   1.000000
   41       -5.756831     -5.756488   1.000000   1.000000
   42       -5.705281     -5.704992   1.000000   1.000000
   43       -5.675051     -5.674818   1.000000   1.000000
   44       -5.641634     -5.641301   1.000000   1.000000
   45       -5.632790     -5.632484   1.000000   1.000000
   46       -5.603238     -5.602913   1.000000   1.000000
   47       -5.559425     -5.559139   1.000000   1.000000
   48       -5.555871     -5.555517   1.000000   1.000000
   49       -5.537531     -5.537197   1.000000   1.000000
   50       -5.513831     -5.513482   1.000000   1.000000
   51       -5.491763     -5.491486   1.000000   1.000000
   52       -5.485087     -5.484825   1.000000   1.000000
   53       -5.453974     -5.453643   1.000000   1.000000
   54       -5.436461     -5.436160   1.000000   1.000000
   55       -5.399039     -5.398751   1.000000   1.000000
   56       -5.397047     -5.396764   1.000000   1.000000
   57       -5.351304     -5.351002   1.000000   1.000000
   58       -5.346887     -5.346532   1.000000   1.000000
   59       -5.308330     -5.307981   1.000000   1.000000
   60       -5.287620     -5.287300   1.000000   1.000000
   61       -5.272372     -5.272057   1.000000   1.000000
   62       -5.254539     -5.254113   1.000000   1.000000
   63       -5.219844     -5.219495   1.000000   1.000000
   64       -5.196014     -5.195677   1.000000   1.000000
   65       -5.180573     -5.180215   1.000000   1.000000
   66       -5.161266     -5.160983   1.000000   1.000000
   67       -5.129337     -5.129024   1.000000   1.000000
   68       -5.095517     -5.095206   1.000000   1.000000
   69       -4.963416     -4.962511   1.000000   1.000000
   70       -4.612420     -4.611730   1.000000   1.000000
   71       -4.532397     -4.531794   1.000007   1.000007
   72       -3.854147     -3.851494   0.527762   0.516551
   73       -3.523975     -3.523370  -0.022234  -0.022095
   74       -2.926787     -2.925683  -0.000000  -0.000000
   75       -2.743308     -2.742007  -0.000000  -0.000000
   76       -2.507920     -2.506602  -0.000000  -0.000000
   77       -2.351101     -2.349933  -0.000000  -0.000000
   78       -2.158373     -2.157404  -0.000000  -0.000000
   79       -1.724262     -1.722464  -0.000000  -0.000000
   80       -1.448704     -1.446949  -0.000000  -0.000000
   81       -1.292996     -1.291614  -0.000000  -0.000000
   82       -0.997672     -0.994551  -0.000000  -0.000000
   83       -0.930097     -0.928785  -0.000000  -0.000000
   84       -0.637952     -0.636156  -0.000000  -0.000000
   85       -0.543930     -0.541065  -0.000000  -0.000000
   86       -0.231814     -0.228106  -0.000000  -0.000000
   87       -0.040463     -0.040379  -0.000000  -0.000000
   88        0.067527      0.072905  -0.000000  -0.000000
   89        0.140692      0.136936  -0.000000  -0.000000
   90        0.230142      0.225783  -0.000000  -0.000000
   91        0.274209      0.268733  -0.000000  -0.000000
   92        0.351380      0.342825  -0.000000  -0.000000
