       N       E                     dE             d eps       ncg     rms          rms(c)
DAV:   1     0.978896586673E+03    0.97890E+03   -0.25285E+04   368   0.746E+02
DAV:   2     0.229961917685E+03   -0.74893E+03   -0.65992E+03   408   0.217E+02
DAV:   3     0.440112510320E+01   -0.22556E+03   -0.21650E+03   464   0.137E+02
DAV:   4    -0.349363259322E+02   -0.39337E+02   -0.36131E+02   448   0.107E+02
DAV:   5    -0.368978653181E+02   -0.19615E+01   -0.19340E+01   488   0.209E+01    0.286E+01
DAV:   6    -0.135940178084E+02    0.23304E+02   -0.13631E+02   396   0.888E+01    0.117E+01
DAV:   7    -0.948553737890E+01    0.41085E+01   -0.30168E+01   448   0.612E+01    0.497E+00
DAV:   8    -0.962311911462E+01   -0.13758E+00   -0.58599E+00   440   0.498E+01    0.432E+00
DAV:   9    -0.111722616157E+02   -0.15491E+01   -0.13116E+00   512   0.282E+01    0.276E+00
DAV:  10    -0.161317074376E+02   -0.49594E+01   -0.28681E+00   472   0.108E+01    0.246E+00
DAV:  11    -0.169850254643E+02   -0.85332E+00   -0.34787E-01   504   0.818E+00    0.207E+00
DAV:  12    -0.196802208379E+02   -0.26952E+01   -0.11445E+00   568   0.810E+00    0.165E+00
DAV:  13    -0.245324113584E+02   -0.48522E+01   -0.29764E+00   480   0.806E+00    0.133E+00
DAV:  14    -0.267192353524E+02   -0.21868E+01   -0.74552E-01   504   0.109E+01    0.127E+00
DAV:  15    -0.283390067406E+02   -0.16198E+01   -0.40356E-01   480   0.543E+00    0.102E+00
DAV:  16    -0.304798991869E+02   -0.21409E+01   -0.64061E-01   580   0.642E+00    0.647E-01
DAV:  17    -0.311173884772E+02   -0.63749E+00   -0.15997E-01   500   0.305E+00    0.543E-01
DAV:  18    -0.314102826727E+02   -0.29289E+00   -0.36619E-02   496   0.269E+00    0.341E-01
DAV:  19    -0.318857739952E+02   -0.47549E+00   -0.34735E-02   520   0.178E+00    0.220E-01
DAV:  20    -0.323113942791E+02   -0.42562E+00   -0.17785E-02   512   0.137E+00    0.144E-01
DAV:  21    -0.325222098898E+02   -0.21082E+00   -0.83561E-03   520   0.989E-01    0.108E-01
DAV:  22    -0.326342794392E+02   -0.11207E+00   -0.39687E-03   520   0.877E-01    0.671E-02
DAV:  23    -0.326849352246E+02   -0.50656E-01   -0.20002E-03   532   0.406E-01    0.428E-02
DAV:  24    -0.327070531544E+02   -0.22118E-01   -0.11976E-03   448   0.367E-01    0.413E-02
DAV:  25    -0.327167769744E+02   -0.97238E-02   -0.52984E-04   344   0.263E-01    0.302E-02
DAV:  26    -0.327227606289E+02   -0.59837E-02   -0.36613E-04   312   0.189E-01    0.225E-02
DAV:  27    -0.327281668341E+02   -0.54062E-02   -0.43091E-04   312   0.139E-01    0.183E-02
DAV:  28    -0.327314114603E+02   -0.32446E-02   -0.25469E-04   304   0.107E-01    0.156E-02
DAV:  29    -0.327329108199E+02   -0.14994E-02   -0.10419E-04   280   0.124E-01    0.118E-02
DAV:  30    -0.327357469420E+02   -0.28361E-02   -0.10123E-04   260   0.850E-02    0.820E-03
DAV:  31    -0.327373722615E+02   -0.16253E-02   -0.93478E-05   260   0.622E-02    0.738E-03
DAV:  32    -0.327379935471E+02   -0.62129E-03   -0.45747E-05   272   0.655E-02    0.643E-03
DAV:  33    -0.327383662716E+02   -0.37272E-03   -0.29838E-05   252   0.416E-02    0.441E-03
DAV:  34    -0.327385502323E+02   -0.18396E-03   -0.20124E-05   248   0.337E-02    0.440E-03
DAV:  35    -0.327386847199E+02   -0.13449E-03   -0.14251E-05   240   0.284E-02    0.398E-03
DAV:  36    -0.327387440953E+02   -0.59375E-04   -0.94549E-06   256   0.218E-02
   1 F= -.32738744E+02 E0= -.32725661E+02  d E =-.327387E+02  mag=     0.0140
       N       E                     dE             d eps       ncg     rms          rms(c)
DAV:   1    -0.327390319280E+02   -0.34721E-03   -0.12862E-01   408   0.121E+00    0.211E-02
DAV:   2    -0.327392648507E+02   -0.23292E-03   -0.19716E-03   536   0.317E-01    0.249E-02
DAV:   3    -0.327392736343E+02   -0.87836E-05   -0.61404E-05   256   0.177E-01
   2 F= -.32739274E+02 E0= -.32726235E+02  d E =-.529539E-03  mag=     0.0138
       N       E                     dE             d eps       ncg     rms          rms(c)
DAV:   1    -0.327393690680E+02   -0.10422E-03   -0.26671E-01   400   0.175E+00    0.337E-02
DAV:   2    -0.327397958717E+02   -0.42680E-03   -0.42326E-03   560   0.471E-01    0.428E-02
DAV:   3    -0.327397855910E+02    0.10281E-04   -0.14350E-04   256   0.266E-01
   3 F= -.32739786E+02 E0= -.32726820E+02  d E =-.104150E-02  mag=     0.0134
