unknown system                          
            1
    23.999674    0.000000    0.000000
     0.000000   23.525410    0.000000
     0.000000    0.000000   22.545541
   Cu
    13
Direct configuration=     1
   0.46447807  0.42348274  0.57636362
   0.37893675  0.48183128  0.55796456
   0.45986662  0.48224063  0.48814638
   0.46411849  0.52346199  0.59446068
   0.54851068  0.47886928  0.55099935
   0.41127688  0.56884931  0.51299833
   0.55347483  0.50494758  0.44480922
   0.51585268  0.57646784  0.52080178
   0.47439294  0.56450336  0.42338167
   0.56885818  0.60565145  0.43342078
   0.61416069  0.55498340  0.51425124
   0.39928756  0.40083779  0.49870773
   0.62950984  0.45702576  0.48994154
Direct configuration=     2
   0.46447290  0.42343261  0.57636334
   0.37893394  0.48182139  0.55796670
   0.45986275  0.48222641  0.48817498
   0.46417376  0.52351417  0.59445303
   0.54848368  0.47884937  0.55098888
   0.41130547  0.56885336  0.51302992
   0.55344821  0.50491460  0.44482120
   0.51585741  0.57647893  0.52077346
   0.47438344  0.56447637  0.42341267
   0.56884952  0.60570175  0.43340005
   0.61415210  0.55498292  0.51420647
   0.39924303  0.40085078  0.49862642
   0.62955801  0.45704972  0.49002976
Direct configuration=     3
   0.46446547  0.42336066  0.57636293
   0.37892991  0.48180719  0.55796978
   0.45985720  0.48220600  0.48821603
   0.46425310  0.52358907  0.59444205
   0.54844492  0.47882078  0.55097384
   0.41134651  0.56885917  0.51307526
   0.55341000  0.50486726  0.44483840
   0.51586420  0.57649486  0.52073281
   0.47436980  0.56443764  0.42345718
   0.56883709  0.60577396  0.43337029
   0.61413977  0.55498224  0.51414221
   0.39917910  0.40086943  0.49850970
   0.62962715  0.45708411  0.49015640
