  10  10   0   0
  0.1159636E+04  0.2208998E-08  0.2168724E-08  0.2420596E-08  0.5000000E-15
   1.0000000000000000E-004
  CAR 
 unknown system                          
      2.02009417    -11.88848900  301     -4.11374628      1.00000000
    -11.888  0.0000E+00  0.0000E+00  0.0000E+00  0.0000E+00
    -11.842  0.0000E+00  0.0000E+00  0.0000E+00  0.0000E+00
    -11.796  0.0000E+00  0.0000E+00  0.0000E+00  0.0000E+00
    -11.749  0.0000E+00  0.0000E+00  0.0000E+00  0.0000E+00
    -11.703  0.0000E+00  0.0000E+00  0.0000E+00  0.0000E+00
    -11.657  0.0000E+00  0.0000E+00  0.0000E+00  0.0000E+00
    -11.610  0.0000E+00  0.0000E+00  0.0000E+00  0.0000E+00
    -11.564  0.0000E+00  0.0000E+00  0.0000E+00  0.0000E+00
    -11.518 -0.7584E-30  0.0000E+00 -0.3516E-31  0.0000E+00
    -11.471 -0.2973E-28  0.0000E+00 -0.1413E-29  0.0000E+00
    -11.425 -0.1069E-26 -0.7608E-29 -0.5098E-28 -0.3527E-30
    -11.379 -0.3449E-25 -0.2783E-27 -0.1650E-26 -0.1326E-28
    -11.332 -0.9980E-24 -0.9357E-26 -0.4792E-25 -0.4471E-27
    -11.286 -0.2590E-22 -0.2822E-24 -0.1248E-23 -0.1353E-25
    -11.239 -0.6025E-21 -0.7630E-23 -0.2918E-22 -0.3673E-24
    -11.193 -0.1257E-19 -0.1850E-21 -0.6118E-21 -0.8945E-23
    -11.147 -0.2350E-18 -0.4023E-20 -0.1151E-19 -0.1954E-21
    -11.100 -0.3938E-17 -0.7840E-19 -0.1941E-18 -0.3830E-20
    -11.054 -0.5674E-16 -0.1370E-17 -0.2825E-17 -0.6733E-19
    -11.008 -0.7704E-15 -0.2024E-16 -0.3854E-16 -0.1006E-17
    -10.961 -0.9256E-14 -0.2924E-15 -0.4677E-15 -0.1456E-16
    -10.915 -0.9952E-13 -0.3653E-14 -0.5082E-14 -0.1839E-15
    -10.869 -0.9573E-12 -0.4096E-13 -0.4947E-13 -0.2083E-14
    -10.822 -0.8234E-11 -0.4111E-12 -0.4312E-12 -0.2114E-13
    -10.776 -0.6329E-10 -0.3689E-11 -0.3366E-11 -0.1922E-12
    -10.729 -0.4345E-09 -0.2960E-10 -0.2351E-10 -0.1564E-11
    -10.683 -0.2661E-08 -0.2121E-09 -0.1469E-09 -0.1140E-10
    -10.637 -0.1452E-07 -0.1356E-08 -0.8201E-09 -0.7428E-10
    -10.590 -0.7053E-07 -0.7734E-08 -0.4090E-08 -0.4328E-09
    -10.544 -0.3044E-06 -0.3927E-07 -0.1820E-07 -0.2254E-08
    -10.498 -0.1164E-05 -0.1773E-06 -0.7217E-07 -0.1047E-07
    -10.451 -0.3933E-05 -0.7100E-06 -0.2545E-06 -0.4339E-07
    -10.405 -0.1168E-04 -0.2516E-05 -0.7962E-06 -0.1600E-06
    -10.359 -0.3032E-04 -0.7852E-05 -0.2202E-05 -0.5241E-06
    -10.312 -0.6794E-04 -0.2147E-04 -0.5352E-05 -0.1519E-05
    -10.266 -0.1289E-03 -0.5095E-04 -0.1133E-04 -0.3882E-05
    -10.219 -0.1990E-03 -0.1033E-03 -0.2055E-04 -0.8672E-05
    -10.173 -0.2232E-03 -0.1737E-03 -0.3090E-04 -0.1672E-04
    -10.127 -0.9441E-04 -0.2251E-03 -0.3528E-04 -0.2716E-04
    -10.080  0.3212E-03 -0.1698E-03 -0.2039E-04 -0.3503E-04
    -10.034  0.1105E-02  0.1222E-03  0.3086E-04 -0.2937E-04
     -9.988  0.2186E-02  0.7647E-03  0.1322E-03  0.6087E-05
     -9.941  0.3295E-02  0.1754E-02  0.2850E-03  0.8743E-04
     -9.895  0.4051E-02  0.2895E-02  0.4728E-03  0.2217E-03
     -9.849  0.4152E-02  0.3829E-02  0.6653E-03  0.3992E-03
     -9.802  0.3557E-02  0.4200E-02  0.8302E-03  0.5939E-03
     -9.756  0.2507E-02  0.3854E-02  0.9464E-03  0.7726E-03
     -9.709  0.1384E-02  0.2935E-02  0.1011E-02  0.9086E-03
     -9.663  0.5014E-03  0.1795E-02  0.1034E-02  0.9919E-03
     -9.617 -0.1311E-04  0.7950E-03  0.1033E-02  0.1029E-02
     -9.570 -0.2084E-03  0.1389E-03  0.1024E-02  0.1035E-02
     -9.524 -0.2139E-03 -0.1643E-03  0.1014E-02  0.1028E-02
     -9.478 -0.1489E-03 -0.2256E-03  0.1007E-02  0.1017E-02
     -9.431 -0.8263E-04 -0.1762E-03  0.1003E-02  0.1009E-02
     -9.385 -0.3852E-04 -0.1056E-03  0.1001E-02  0.1004E-02
     -9.339 -0.1544E-04 -0.5242E-04  0.1000E-02  0.1002E-02
     -9.292 -0.5392E-05 -0.2221E-04  0.1000E-02  0.1001E-02
     -9.246 -0.1653E-05 -0.8162E-05  0.1000E-02  0.1000E-02
     -9.199 -0.4486E-06 -0.2627E-05  0.1000E-02  0.1000E-02
     -9.153 -0.1153E-06 -0.7448E-06  0.1000E-02  0.1000E-02
     -9.107 -0.6439E-07 -0.1868E-06  0.1000E-02  0.1000E-02
     -9.060 -0.1937E-06 -0.4156E-07  0.1000E-02  0.1000E-02
     -9.014 -0.7674E-06 -0.8242E-08  0.1000E-02  0.1000E-02
     -8.968 -0.2754E-05 -0.1615E-08  0.9998E-03  0.1000E-02
     -8.921 -0.8756E-05 -0.1312E-08  0.9994E-03  0.1000E-02
     -8.875 -0.2452E-04 -0.6310E-08  0.9983E-03  0.1000E-02
     -8.829 -0.6011E-04 -0.3236E-07  0.9955E-03  0.1000E-02
     -8.782 -0.1275E-03 -0.1483E-06  0.9896E-03  0.1000E-02
     -8.736 -0.2294E-03 -0.6035E-06  0.9789E-03  0.1000E-02
     -8.690 -0.3348E-03 -0.2174E-05  0.9634E-03  0.9999E-03
     -8.643 -0.3484E-03 -0.6913E-05  0.9473E-03  0.9995E-03
     -8.597 -0.9874E-04 -0.1930E-04  0.9427E-03  0.9986E-03
     -8.550  0.6196E-03 -0.4694E-04  0.9714E-03  0.9965E-03
     -8.504  0.1933E-02 -0.9832E-04  0.1061E-02  0.9919E-03
     -8.458  0.3749E-02 -0.1734E-03  0.1235E-02  0.9839E-03
     -8.411  0.5685E-02 -0.2453E-03  0.1498E-02  0.9725E-03
     -8.365  0.7165E-02 -0.2409E-03  0.1831E-02  0.9613E-03
     -8.319  0.7664E-02 -0.3979E-04  0.2186E-02  0.9595E-03
     -8.272  0.6977E-02  0.4853E-03  0.2509E-02  0.9820E-03
     -8.226  0.5341E-02  0.1392E-02  0.2757E-02  0.1047E-02
     -8.180  0.3334E-02  0.2600E-02  0.2912E-02  0.1167E-02
     -8.133  0.1612E-02  0.3898E-02  0.2986E-02  0.1348E-02
     -8.087  0.6509E-03  0.5025E-02  0.3016E-02  0.1581E-02
     -8.040  0.6113E-03  0.5776E-02  0.3045E-02  0.1848E-02
     -7.994  0.1353E-02  0.6047E-02  0.3107E-02  0.2129E-02
     -7.948  0.2577E-02  0.5805E-02  0.3227E-02  0.2398E-02
     -7.901  0.4008E-02  0.5068E-02  0.3413E-02  0.2633E-02
     -7.855  0.5523E-02  0.3924E-02  0.3669E-02  0.2815E-02
     -7.809  0.7147E-02  0.2566E-02  0.4000E-02  0.2934E-02
     -7.762  0.8931E-02  0.1268E-02  0.4414E-02  0.2993E-02
     -7.716  0.1084E-01  0.3037E-03  0.4917E-02  0.3007E-02
     -7.670  0.1272E-01 -0.1334E-03  0.5506E-02  0.3001E-02
     -7.623  0.1438E-01  0.2733E-04  0.6173E-02  0.3002E-02
     -7.577  0.1562E-01  0.7216E-03  0.6897E-02  0.3035E-02
     -7.530  0.1625E-01  0.1750E-02  0.7650E-02  0.3116E-02
     -7.484  0.1610E-01  0.2819E-02  0.8397E-02  0.3247E-02
     -7.438  0.1524E-01  0.3675E-02  0.9103E-02  0.3417E-02
     -7.391  0.1407E-01  0.4275E-02  0.9755E-02  0.3616E-02
     -7.345  0.1318E-01  0.4857E-02  0.1037E-01  0.3841E-02
     -7.299  0.1303E-01  0.5792E-02  0.1097E-01  0.4109E-02
     -7.252  0.1355E-01  0.7264E-02  0.1160E-01  0.4446E-02
     -7.206  0.1413E-01  0.9010E-02  0.1225E-01  0.4864E-02
     -7.160  0.1403E-01  0.1036E-01  0.1290E-01  0.5344E-02
     -7.113  0.1286E-01  0.1062E-01  0.1350E-01  0.5837E-02
     -7.067  0.1083E-01  0.9519E-02  0.1400E-01  0.6278E-02
     -7.020  0.8537E-02  0.7475E-02  0.1440E-01  0.6625E-02
     -6.974  0.6602E-02  0.5442E-02  0.1470E-01  0.6877E-02
     -6.928  0.5341E-02  0.4409E-02  0.1495E-01  0.7081E-02
     -6.881  0.4686E-02  0.4903E-02  0.1517E-01  0.7309E-02
     -6.835  0.4313E-02  0.6779E-02  0.1537E-01  0.7623E-02
     -6.789  0.3860E-02  0.9383E-02  0.1555E-01  0.8058E-02
     -6.742  0.3162E-02  0.1192E-01  0.1569E-01  0.8611E-02
     -6.696  0.2395E-02  0.1381E-01  0.1581E-01  0.9251E-02
     -6.650  0.2037E-02  0.1477E-01  0.1590E-01  0.9936E-02
     -6.603  0.2663E-02  0.1484E-01  0.1602E-01  0.1062E-01
     -6.557  0.4662E-02  0.1423E-01  0.1624E-01  0.1128E-01
     -6.511  0.8028E-02  0.1314E-01  0.1661E-01  0.1189E-01
     -6.464  0.1229E-01  0.1175E-01  0.1718E-01  0.1244E-01
     -6.418  0.1665E-01  0.1017E-01  0.1795E-01  0.1291E-01
     -6.371  0.2023E-01  0.8639E-02  0.1889E-01  0.1331E-01
     -6.325  0.2242E-01  0.7566E-02  0.1993E-01  0.1366E-01
     -6.279  0.2304E-01  0.7457E-02  0.2100E-01  0.1401E-01
     -6.232  0.2233E-01  0.8571E-02  0.2203E-01  0.1440E-01
     -6.186  0.2069E-01  0.1061E-01  0.2299E-01  0.1490E-01
     -6.140  0.1845E-01  0.1277E-01  0.2385E-01  0.1549E-01
     -6.093  0.1583E-01  0.1414E-01  0.2458E-01  0.1614E-01
     -6.047  0.1313E-01  0.1434E-01  0.2519E-01  0.1681E-01
     -6.001  0.1081E-01  0.1371E-01  0.2569E-01  0.1744E-01
     -5.954  0.9339E-02  0.1302E-01  0.2613E-01  0.1805E-01
     -5.908  0.8927E-02  0.1291E-01  0.2654E-01  0.1865E-01
     -5.861  0.9387E-02  0.1344E-01  0.2698E-01  0.1927E-01
     -5.815  0.1032E-01  0.1414E-01  0.2745E-01  0.1992E-01
     -5.769  0.1146E-01  0.1442E-01  0.2799E-01  0.2059E-01
     -5.722  0.1281E-01  0.1393E-01  0.2858E-01  0.2124E-01
     -5.676  0.1442E-01  0.1279E-01  0.2925E-01  0.2183E-01
     -5.630  0.1610E-01  0.1151E-01  0.2999E-01  0.2237E-01
     -5.583  0.1735E-01  0.1077E-01  0.3080E-01  0.2287E-01
     -5.537  0.1773E-01  0.1113E-01  0.3162E-01  0.2338E-01
     -5.491  0.1725E-01  0.1274E-01  0.3242E-01  0.2397E-01
     -5.444  0.1661E-01  0.1509E-01  0.3319E-01  0.2467E-01
     -5.398  0.1683E-01  0.1718E-01  0.3397E-01  0.2547E-01
     -5.351  0.1870E-01  0.1801E-01  0.3484E-01  0.2630E-01
     -5.305  0.2235E-01  0.1717E-01  0.3587E-01  0.2710E-01
     -5.259  0.2715E-01  0.1511E-01  0.3713E-01  0.2780E-01
     -5.212  0.3191E-01  0.1283E-01  0.3861E-01  0.2839E-01
     -5.166  0.3531E-01  0.1132E-01  0.4025E-01  0.2892E-01
     -5.120  0.3626E-01  0.1101E-01  0.4193E-01  0.2943E-01
     -5.073  0.3438E-01  0.1166E-01  0.4352E-01  0.2997E-01
     -5.027  0.3027E-01  0.1273E-01  0.4493E-01  0.3056E-01
     -4.981  0.2542E-01  0.1369E-01  0.4611E-01  0.3119E-01
     -4.934  0.2148E-01  0.1432E-01  0.4710E-01  0.3186E-01
     -4.888  0.1943E-01  0.1463E-01  0.4800E-01  0.3254E-01
     -4.841  0.1906E-01  0.1475E-01  0.4889E-01  0.3322E-01
     -4.795  0.1922E-01  0.1487E-01  0.4978E-01  0.3391E-01
     -4.749  0.1864E-01  0.1522E-01  0.5064E-01  0.3462E-01
     -4.702  0.1664E-01  0.1608E-01  0.5141E-01  0.3536E-01
     -4.656  0.1343E-01  0.1758E-01  0.5204E-01  0.3618E-01
     -4.610  0.9716E-02  0.1950E-01  0.5249E-01  0.3708E-01
     -4.563  0.6242E-02  0.2124E-01  0.5278E-01  0.3806E-01
     -4.517  0.3504E-02  0.2204E-01  0.5294E-01  0.3909E-01
     -4.471  0.1737E-02  0.2146E-01  0.5302E-01  0.4008E-01
     -4.424  0.1007E-02  0.1967E-01  0.5307E-01  0.4099E-01
     -4.378  0.1226E-02  0.1741E-01  0.5312E-01  0.4180E-01
     -4.331  0.2102E-02  0.1565E-01  0.5322E-01  0.4253E-01
     -4.285  0.3151E-02  0.1495E-01  0.5337E-01  0.4322E-01
     -4.239  0.3850E-02  0.1530E-01  0.5354E-01  0.4393E-01
     -4.192  0.3865E-02  0.1621E-01  0.5372E-01  0.4468E-01
     -4.146  0.3196E-02  0.1718E-01  0.5387E-01  0.4548E-01
     -4.100  0.2139E-02  0.1797E-01  0.5397E-01  0.4631E-01
     -4.053  0.1085E-02  0.1856E-01  0.5402E-01  0.4717E-01
     -4.007  0.3131E-03  0.1901E-01  0.5404E-01  0.4805E-01
     -3.961 -0.9713E-04  0.1930E-01  0.5403E-01  0.4895E-01
     -3.914 -0.2237E-03  0.1932E-01  0.5402E-01  0.4984E-01
     -3.868 -0.1988E-03  0.1892E-01  0.5401E-01  0.5072E-01
     -3.822 -0.1287E-03  0.1791E-01  0.5401E-01  0.5155E-01
     -3.775 -0.6775E-04  0.1615E-01  0.5400E-01  0.5230E-01
     -3.729 -0.3021E-04  0.1364E-01  0.5400E-01  0.5293E-01
     -3.682 -0.1164E-04  0.1057E-01  0.5400E-01  0.5342E-01
     -3.636 -0.3940E-05  0.7342E-02  0.5400E-01  0.5376E-01
     -3.590 -0.1273E-05  0.4397E-02  0.5400E-01  0.5396E-01
     -3.543 -0.7829E-06  0.2086E-02  0.5400E-01  0.5406E-01
     -3.497 -0.1852E-05  0.5607E-03  0.5400E-01  0.5409E-01
     -3.451 -0.5870E-05 -0.2360E-03  0.5400E-01  0.5408E-01
     -3.404 -0.1698E-04 -0.5014E-03  0.5400E-01  0.5405E-01
     -3.358 -0.4322E-04 -0.4696E-03  0.5400E-01  0.5403E-01
     -3.312 -0.9584E-04 -0.3298E-03  0.5399E-01  0.5402E-01
     -3.265 -0.1827E-03 -0.1928E-03  0.5398E-01  0.5401E-01
     -3.219 -0.2916E-03 -0.1010E-03  0.5397E-01  0.5400E-01
     -3.172 -0.3661E-03 -0.5894E-04  0.5395E-01  0.5400E-01
     -3.126 -0.2869E-03 -0.6081E-04  0.5394E-01  0.5400E-01
     -3.080  0.1156E-03 -0.1040E-03  0.5395E-01  0.5399E-01
     -3.033  0.1006E-02 -0.1854E-03  0.5399E-01  0.5398E-01
     -2.987  0.2459E-02 -0.2832E-03  0.5411E-01  0.5397E-01
     -2.941  0.4389E-02 -0.3298E-03  0.5431E-01  0.5396E-01
     -2.894  0.6536E-02 -0.1976E-03  0.5461E-01  0.5395E-01
     -2.848  0.8525E-02  0.2775E-03  0.5501E-01  0.5396E-01
     -2.802  0.9979E-02  0.1224E-02  0.5547E-01  0.5402E-01
     -2.755  0.1064E-01  0.2639E-02  0.5596E-01  0.5414E-01
     -2.709  0.1044E-01  0.4341E-02  0.5645E-01  0.5434E-01
     -2.662  0.9522E-02  0.6013E-02  0.5689E-01  0.5462E-01
     -2.616  0.8108E-02  0.7332E-02  0.5727E-01  0.5496E-01
     -2.570  0.6422E-02  0.8096E-02  0.5756E-01  0.5533E-01
     -2.523  0.4638E-02  0.8285E-02  0.5778E-01  0.5572E-01
     -2.477  0.2928E-02  0.8027E-02  0.5791E-01  0.5609E-01
     -2.431  0.1511E-02  0.7521E-02  0.5798E-01  0.5644E-01
     -2.384  0.6362E-03  0.6946E-02  0.5801E-01  0.5676E-01
     -2.338  0.4886E-03  0.6386E-02  0.5804E-01  0.5706E-01
     -2.292  0.1071E-02  0.5795E-02  0.5809E-01  0.5732E-01
     -2.245  0.2138E-02  0.5044E-02  0.5818E-01  0.5756E-01
     -2.199  0.3244E-02  0.4038E-02  0.5834E-01  0.5775E-01
     -2.152  0.3909E-02  0.2854E-02  0.5852E-01  0.5788E-01
     -2.106  0.3841E-02  0.1772E-02  0.5869E-01  0.5796E-01
     -2.060  0.3089E-02  0.1156E-02  0.5884E-01  0.5801E-01
     -2.013  0.2031E-02  0.1241E-02  0.5893E-01  0.5807E-01
     -1.967  0.1183E-02  0.1972E-02  0.5899E-01  0.5816E-01
     -1.921  0.9525E-03  0.2981E-02  0.5903E-01  0.5830E-01
     -1.874  0.1451E-02  0.3751E-02  0.5910E-01  0.5848E-01
     -1.828  0.2448E-02  0.3880E-02  0.5921E-01  0.5865E-01
     -1.782  0.3475E-02  0.3292E-02  0.5937E-01  0.5881E-01
     -1.735  0.4050E-02  0.2280E-02  0.5956E-01  0.5891E-01
     -1.689  0.3908E-02  0.1345E-02  0.5974E-01  0.5898E-01
     -1.642  0.3118E-02  0.9448E-03  0.5989E-01  0.5902E-01
     -1.596  0.2010E-02  0.1277E-02  0.5998E-01  0.5908E-01
     -1.550  0.9668E-03  0.2189E-02  0.6002E-01  0.5918E-01
     -1.503  0.2363E-03  0.3255E-02  0.6004E-01  0.5933E-01
     -1.457 -0.1361E-03  0.3973E-02  0.6003E-01  0.5952E-01
     -1.411 -0.2505E-03  0.4007E-02  0.6002E-01  0.5970E-01
     -1.364 -0.2508E-03  0.3346E-02  0.6001E-01  0.5986E-01
     -1.318 -0.2502E-03  0.2270E-02  0.5999E-01  0.5996E-01
     -1.272 -0.3014E-03  0.1163E-02  0.5998E-01  0.6002E-01
     -1.225 -0.3852E-03  0.3088E-03  0.5996E-01  0.6003E-01
     -1.179 -0.3979E-03 -0.2076E-03  0.5994E-01  0.6002E-01
     -1.133 -0.1501E-03 -0.4496E-03  0.5994E-01  0.6000E-01
     -1.086  0.5823E-03 -0.5067E-03  0.5996E-01  0.5998E-01
     -1.040  0.1934E-02 -0.3905E-03  0.6005E-01  0.5996E-01
     -0.993  0.3797E-02 -0.1048E-04  0.6023E-01  0.5996E-01
     -0.947  0.5767E-02  0.7611E-03  0.6050E-01  0.5999E-01
     -0.901  0.7275E-02  0.1972E-02  0.6083E-01  0.6008E-01
     -0.854  0.7890E-02  0.3496E-02  0.6120E-01  0.6025E-01
     -0.808  0.7579E-02  0.5025E-02  0.6155E-01  0.6048E-01
     -0.762  0.6728E-02  0.6189E-02  0.6186E-01  0.6077E-01
     -0.715  0.5887E-02  0.6739E-02  0.6214E-01  0.6108E-01
     -0.669  0.5450E-02  0.6697E-02  0.6239E-01  0.6139E-01
     -0.623  0.5493E-02  0.6359E-02  0.6264E-01  0.6168E-01
     -0.576  0.5850E-02  0.6136E-02  0.6291E-01  0.6197E-01
     -0.530  0.6311E-02  0.6305E-02  0.6321E-01  0.6226E-01
     -0.483  0.6754E-02  0.6834E-02  0.6352E-01  0.6258E-01
     -0.437  0.7155E-02  0.7418E-02  0.6385E-01  0.6292E-01
     -0.391  0.7512E-02  0.7700E-02  0.6420E-01  0.6328E-01
     -0.344  0.7760E-02  0.7509E-02  0.6456E-01  0.6363E-01
     -0.298  0.7754E-02  0.6930E-02  0.6492E-01  0.6395E-01
     -0.252  0.7318E-02  0.6191E-02  0.6526E-01  0.6423E-01
     -0.205  0.6354E-02  0.5502E-02  0.6555E-01  0.6449E-01
     -0.159  0.4935E-02  0.4987E-02  0.6578E-01  0.6472E-01
     -0.113  0.3307E-02  0.4695E-02  0.6594E-01  0.6494E-01
     -0.066  0.1795E-02  0.4605E-02  0.6602E-01  0.6515E-01
     -0.020  0.6567E-03  0.4587E-02  0.6605E-01  0.6536E-01
      0.027 -0.1401E-04  0.4424E-02  0.6605E-01  0.6557E-01
      0.073 -0.2846E-03  0.3917E-02  0.6604E-01  0.6575E-01
      0.119 -0.3060E-03  0.3035E-02  0.6602E-01  0.6589E-01
      0.166 -0.2240E-03  0.1955E-02  0.6601E-01  0.6598E-01
      0.212 -0.1312E-03  0.9528E-03  0.6600E-01  0.6603E-01
      0.258 -0.6474E-04  0.2389E-03  0.6600E-01  0.6604E-01
      0.305 -0.2752E-04 -0.1321E-03  0.6600E-01  0.6603E-01
      0.351 -0.1020E-04 -0.2381E-03  0.6600E-01  0.6602E-01
      0.397 -0.3325E-05 -0.2041E-03  0.6600E-01  0.6601E-01
      0.444 -0.9565E-06 -0.1305E-03  0.6600E-01  0.6601E-01
      0.490 -0.2438E-06 -0.6836E-04  0.6600E-01  0.6600E-01
      0.537 -0.5516E-07 -0.3042E-04  0.6600E-01  0.6600E-01
      0.583 -0.1111E-07 -0.1171E-04  0.6600E-01  0.6600E-01
      0.629 -0.1992E-08 -0.3937E-05  0.6600E-01  0.6600E-01
      0.676 -0.3186E-09 -0.1165E-05  0.6600E-01  0.6600E-01
      0.722 -0.4550E-10 -0.3045E-06  0.6600E-01  0.6600E-01
      0.768 -0.5804E-11 -0.7055E-07  0.6600E-01  0.6600E-01
      0.815 -0.6618E-12 -0.1452E-07  0.6600E-01  0.6600E-01
      0.861 -0.6750E-13 -0.2661E-08  0.6600E-01  0.6600E-01
      0.907 -0.6159E-14 -0.4345E-09  0.6600E-01  0.6600E-01
      0.954 -0.5029E-15 -0.6330E-10  0.6600E-01  0.6600E-01
      1.000 -0.3353E-16 -0.8235E-11  0.6600E-01  0.6600E-01
      1.046 -0.4789E-17 -0.9573E-12  0.6600E-01  0.6600E-01
      1.093  0.0000E+00 -0.9952E-13  0.6600E-01  0.6600E-01
      1.139  0.0000E+00 -0.9258E-14  0.6600E-01  0.6600E-01
      1.186  0.0000E+00 -0.7663E-15  0.6600E-01  0.6600E-01
      1.232  0.0000E+00 -0.5747E-16  0.6600E-01  0.6600E-01
      1.278  0.0000E+00 -0.4789E-17  0.6600E-01  0.6600E-01
      1.325  0.0000E+00  0.0000E+00  0.6600E-01  0.6600E-01
      1.371  0.0000E+00  0.0000E+00  0.6600E-01  0.6600E-01
      1.417  0.0000E+00  0.0000E+00  0.6600E-01  0.6600E-01
      1.464  0.0000E+00  0.0000E+00  0.6600E-01  0.6600E-01
      1.510  0.0000E+00  0.0000E+00  0.6600E-01  0.6600E-01
      1.556  0.0000E+00  0.0000E+00  0.6600E-01  0.6600E-01
      1.603  0.0000E+00  0.0000E+00  0.6600E-01  0.6600E-01
      1.649  0.0000E+00  0.0000E+00  0.6600E-01  0.6600E-01
      1.696  0.0000E+00  0.0000E+00  0.6600E-01  0.6600E-01
      1.742  0.0000E+00  0.0000E+00  0.6600E-01  0.6600E-01
      1.788  0.0000E+00  0.0000E+00  0.6600E-01  0.6600E-01
      1.835  0.0000E+00  0.0000E+00  0.6600E-01  0.6600E-01
      1.881  0.0000E+00  0.0000E+00  0.6600E-01  0.6600E-01
      1.927  0.0000E+00  0.0000E+00  0.6600E-01  0.6600E-01
      1.974  0.0000E+00  0.0000E+00  0.6600E-01  0.6600E-01
      2.020  0.0000E+00  0.0000E+00  0.6600E-01  0.6600E-01
