   10   10 1000    2
  0.1159636E+04  0.2208998E-08  0.2168723E-08  0.2420596E-08  0.5000000E-15
   1.0000000000000000E-004
  CAR 
 unknown system                          
    100      1     66
 
  0.1262379E-14  0.1262379E-14  0.1262379E-14  0.1000000E+01
    1       -9.888489     -9.824545   1.000000   1.000000
    2       -8.387868     -8.103414   1.000000   1.000000
    3       -8.298979     -7.927411   1.000000   1.000000
    4       -7.899123     -7.435618   1.000000   1.000000
    5       -7.721243     -7.219470   1.000000   1.000000
    6       -7.691495     -7.115951   1.000000   1.000000
    7       -7.599021     -7.104902   1.000000   1.000000
    8       -7.515847     -6.817312   1.000000   1.000000
    9       -7.487538     -6.755877   1.000000   1.000000
   10       -7.444764     -6.672543   1.000000   1.000000
   11       -7.331469     -6.616326   1.000000   1.000000
   12       -7.205533     -6.556483   1.000000   1.000000
   13       -7.179269     -6.446173   1.000000   1.000000
   14       -7.174089     -6.380326   1.000000   1.000000
   15       -6.999691     -6.162283   1.000000   1.000000
   16       -6.800420     -6.149152   1.000000   1.000000
   17       -6.509496     -6.069529   1.000000   1.000000
   18       -6.403240     -6.045059   1.000000   1.000000
   19       -6.374103     -5.865989   1.000000   1.000000
   20       -6.371582     -5.851452   1.000000   1.000000
   21       -6.312765     -5.798579   1.000000   1.000000
   22       -6.246139     -5.686142   1.000000   1.000000
   23       -6.236546     -5.655484   1.000000   1.000000
   24       -6.126311     -5.511708   1.000000   1.000000
   25       -6.125347     -5.404183   1.000000   1.000000
   26       -6.051376     -5.376133   1.000000   1.000000
   27       -5.858421     -5.374364   1.000000   1.000000
   28       -5.844453     -5.324029   1.000000   1.000000
   29       -5.736082     -5.207335   1.000000   1.000000
   30       -5.602416     -5.067405   1.000000   1.000000
   31       -5.593642     -5.054472   1.000000   1.000000
   32       -5.591230     -4.965328   1.000000   1.000000
   33       -5.481747     -4.884020   1.000000   1.000000
   34       -5.474418     -4.812581   1.000000   1.000005
   35       -5.325456     -4.787157   1.000000   1.000010
   36       -5.301788     -4.681881   1.000000   1.000221
   37       -5.282634     -4.603401   1.000000   1.001454
   38       -5.248580     -4.603015   1.000000   1.001467
   39       -5.216021     -4.534151   1.000000   1.005671
   40       -5.141199     -4.486978   1.000000   1.012021
   41       -5.135432     -4.458135   1.000000   1.017601
   42       -5.129063     -4.452137   1.000000   1.018899
   43       -5.128224     -4.324253   1.000000   1.029755
   44       -5.106005     -4.216193   1.000000   0.876744
   45       -5.053274     -4.203885   1.000000   0.841826
   46       -5.043947     -4.192181   1.000000   0.805279
   47       -4.990405     -4.045740   1.000000   0.229856
   48       -4.871783     -4.040229   1.000001   0.210999
   49       -4.824927     -4.006345   1.000003   0.110258
   50       -4.798963     -3.921546   1.000007  -0.020592
   51       -4.768529     -3.877945   1.000019  -0.035115
   52       -4.736712     -3.802079   1.000048  -0.024994
   53       -4.602217     -3.792719   1.001492  -0.022828
   54       -4.245386     -3.680814   0.944423  -0.004532
   55       -2.902378     -2.673666  -0.000000  -0.000000
   56       -2.782500     -2.555903  -0.000000  -0.000000
   57       -2.728331     -2.426393  -0.000000  -0.000000
   58       -2.576966     -2.251681  -0.000000  -0.000000
   59       -2.156831     -1.867129  -0.000000  -0.000000
   60       -1.748261     -1.459057  -0.000000  -0.000000
   61       -0.920165     -0.798418  -0.000000  -0.000000
   62       -0.850178     -0.669917  -0.000000  -0.000000
   63       -0.640313     -0.471596  -0.000000  -0.000000
   64       -0.485883     -0.379298  -0.000000  -0.000000
   65       -0.344083     -0.200793  -0.000000  -0.000000
   66       -0.219470      0.020094  -0.000000  -0.000000
