 vasp.6.1.2 22Jul20 (build Aug  2 2021 21:04:21) gamma-only                      
 executed on             LinuxPGI date 2021.12.22  23:56:05
 running on   16 total cores
 distrk:  each k-point on   16 cores,    1 groups
 distr:  one band on NCORE=   8 cores,    2 groups


--------------------------------------------------------------------------------------------------------


 INCAR:
 POTCAR:    PAW_PBE Ni 02Aug2007                  
 POTCAR:    PAW_PBE Pd 04Jan2005                  
 -----------------------------------------------------------------------------
|                                                                             |
|           W    W    AA    RRRRR   N    N  II  N    N   GGGG   !!!           |
|           W    W   A  A   R    R  NN   N  II  NN   N  G    G  !!!           |
|           W    W  A    A  R    R  N N  N  II  N N  N  G       !!!           |
|           W WW W  AAAAAA  RRRRR   N  N N  II  N  N N  G  GGG   !            |
|           WW  WW  A    A  R   R   N   NN  II  N   NN  G    G                |
|           W    W  A    A  R    R  N    N  II  N    N   GGGG   !!!           |
|                                                                             |
|     You use a magnetic or noncollinear calculation, but did not specify     |
|     the initial magnetic moment with the MAGMOM tag. Note that a            |
|     default of 1 will be used for all atoms. This ferromagnetic setup       |
|     may break the symmetry of the crystal, in particular it may rule        |
|     out finding an antiferromagnetic solution. Thence, we recommend         |
|     setting the initial magnetic moment manually or verifying carefully     |
|     that this magnetic setup is desired.                                    |
|                                                                             |
 -----------------------------------------------------------------------------

 POTCAR:    PAW_PBE Ni 02Aug2007                  
   SHA256 =  0534bc51ca8003dfef23f56753fef9fdd3e22eac8d719fccacb59f3e6b7a69c7 Ni/POTCAR             
   COPYR  = (c) Copyright 02Aug2007 Georg Kresse                                                    
   COPYR  = This file is part of the software VASP. Any use, copying, and all other rights are regul
   COPYR  = If you do not have a valid VASP license, you may not use, copy or distribute this file. 
   VRHFIN =Ni:                                                                                      
   LEXCH  = PE                                                                                      
   EATOM  =  1077.6739 eV,   79.2068 Ry                                                             
                                                                                                    
   TITEL  = PAW_PBE Ni 02Aug2007                                                                    
   LULTRA =        F    use ultrasoft PP ?                                                          
   IUNSCR =        1    unscreen: 0-lin 1-nonlin 2-no                                               
   RPACOR =    2.000    partial core radius                                                         
   POMASS =   58.690; ZVAL   =   10.000    mass and valenz                                          
   RCORE  =    2.300    outmost cutoff radius                                                       
   RWIGS  =    2.430; RWIGS  =    1.286    wigner-seitz radius (au A)                               
   ENMAX  =  269.532; ENMIN  =  202.149 eV                                                          
   RCLOC  =    1.201    cutoff for local pot                                                        
   LCOR   =        T    correct aug charges                                                         
   LPAW   =        T    paw PP                                                                      
   EAUG   =  544.565                                                                                
   DEXC   =    0.000                                                                                
   RMAX   =    2.357    core radius for proj-oper                                                   
   RAUG   =    1.300    factor for augmentation sphere                                              
   RDEP   =    2.390    radius for radial grids                                                     
   RDEPT  =    1.838    core radius for aug-charge                                                  
                                                                                                    
   Atomic configuration                                                                             
    9 entries                                                                                       
     n  l   j            E        occ.                                                              
     1  0  0.50     -8206.4253   2.0000                                                             
     2  0  0.50      -976.1748   2.0000                                                             
     2  1  1.50      -839.0571   6.0000                                                             
     3  0  0.50      -105.9991   2.0000                                                             
     3  1  1.50       -66.4603   6.0000                                                             
     3  2  2.50        -4.6458   9.0000                                                             
     4  0  0.50        -4.4926   1.0000                                                             
     4  1  1.50        -4.0817   0.0000                                                             
     4  3  2.50        -1.3606   0.0000                                                             
   Description                                                                                      
     l       E           TYP  RCUT    TYP  RCUT                                                     
     2     -4.6457903     23  2.300                                                                 
     2     -6.0063729     23  2.300                                                                 
     0     -4.4925590     23  2.300                                                                 
     0      5.0102601     23  2.300                                                                 
     1     -2.7211652     23  2.300                                                                 
     1     16.5183231     23  2.300                                                                 
  local pseudopotential read in
  partial core-charges read in
  partial kinetic energy density read in
  atomic valenz-charges read in
  non local Contribution for L=            2  read in
    real space projection operators read in
  non local Contribution for L=            2  read in
    real space projection operators read in
  non local Contribution for L=            0  read in
    real space projection operators read in
  non local Contribution for L=            0  read in
    real space projection operators read in
  non local Contribution for L=            1  read in
    real space projection operators read in
  non local Contribution for L=            1  read in
    real space projection operators read in
    PAW grid and wavefunctions read in
 
   number of l-projection  operators is LMAX  =            6
   number of lm-projection operators is LMMAX =           18
 
 POTCAR:    PAW_PBE Pd 04Jan2005                  
   SHA256 =  dd6f6f02930356371984e2b707ff5e456046761dc76b07c1eba30abd15eb3c39 Pd/POTCAR             
   COPYR  = (c) Copyright 04Jan2005 Georg Kresse                                                    
   COPYR  = This file is part of the software VASP. Any use, copying, and all other rights are regul
   COPYR  = If you do not have a valid VASP license, you may not use, copy or distribute this file. 
   VRHFIN =Pd : s1 d9                                                                               
   LEXCH  = PE                                                                                      
   EATOM  =   809.7530 eV,   59.5152 Ry                                                             
                                                                                                    
   TITEL  = PAW_PBE Pd 04Jan2005                                                                    
   LULTRA =        F    use ultrasoft PP ?                                                          
   IUNSCR =        1    unscreen: 0-lin 1-nonlin 2-no                                               
   RPACOR =    2.000    partial core radius                                                         
   POMASS =  106.420; ZVAL   =   10.000    mass and valenz                                          
   RCORE  =    2.600    outmost cutoff radius                                                       
   RWIGS  =    2.710; RWIGS  =    1.434    wigner-seitz radius (au A)                               
   ENMAX  =  250.925; ENMIN  =  188.194 eV                                                          
   ICORE  =        3    local potential                                                             
   LCOR   =        T    correct aug charges                                                         
   LPAW   =        T    paw PP                                                                      
   EAUG   =  416.230                                                                                
   DEXC   =    0.000                                                                                
   RMAX   =    2.653    core radius for proj-oper                                                   
   RAUG   =    1.300    factor for augmentation sphere                                              
   RDEP   =    2.734    radius for radial grids                                                     
   RDEPT  =    2.103    core radius for aug-charge                                                  
                                                                                                    
   Atomic configuration                                                                             
   12 entries                                                                                       
     n  l   j            E        occ.                                                              
     1  0  0.50    -24164.6631   2.0000                                                             
     2  0  0.50     -3530.9218   2.0000                                                             
     2  1  1.50     -3165.6822   6.0000                                                             
     3  0  0.50      -639.4577   2.0000                                                             
     3  1  1.50      -519.4532   6.0000                                                             
     3  2  2.50      -328.9757  10.0000                                                             
     4  0  0.50       -88.7014   2.0000                                                             
     4  1  1.50       -54.4540   6.0000                                                             
     4  2  2.50        -6.6878   9.0000                                                             
     5  0  0.50        -4.3543   1.0000                                                             
     5  1  0.50        -1.3606   0.0000                                                             
     4  3  2.50        -1.3606   0.0000                                                             
   Description                                                                                      
     l       E           TYP  RCUT    TYP  RCUT                                                     
     2     -6.6878251     23  2.400                                                                 
     2     -8.0484077     23  2.400                                                                 
     0     -4.3542939     23  2.400                                                                 
     0      4.3406793     23  2.400                                                                 
     1     -4.0817478     23  2.600                                                                 
     1     15.8380318     23  2.600                                                                 
     3     -4.0817478     23  2.400                                                                 
  local pseudopotential read in
  partial core-charges read in
  partial kinetic energy density read in
  atomic valenz-charges read in
  non local Contribution for L=            2  read in
    real space projection operators read in
  non local Contribution for L=            2  read in
    real space projection operators read in
  non local Contribution for L=            0  read in
    real space projection operators read in
  non local Contribution for L=            0  read in
    real space projection operators read in
  non local Contribution for L=            1  read in
    real space projection operators read in
  non local Contribution for L=            1  read in
    real space projection operators read in
    PAW grid and wavefunctions read in
 
   number of l-projection  operators is LMAX  =            6
   number of lm-projection operators is LMMAX =           18
 
  PAW_PBE Ni 02Aug2007                  :
 energy of atom  1       EATOM=-1077.6739
 kinetic energy error for atom=    0.0101 (will be added to EATOM!!)
  PAW_PBE Pd 04Jan2005                  :
 energy of atom  2       EATOM= -809.7530
 kinetic energy error for atom=    0.0091 (will be added to EATOM!!)
 
 
 POSCAR: Ni Pd
  positions in cartesian coordinates
  No initial velocities read in
 exchange correlation table for  LEXCH =        8
   RHO(1)=    0.500       N(1)  =     2000
   RHO(2)=  100.500       N(2)  =     4000
 


--------------------------------------------------------------------------------------------------------


 ion  position               nearest neighbor table
   1  0.549  0.536  0.505-   3 2.31   6 2.32  10 2.47   8 2.47   9 2.47   7 2.47   5 3.04   2 3.04

   2  0.494  0.525  0.620-   3 2.31   6 2.32   4 2.32   8 2.48   7 2.48   1 3.04
   3  0.508  0.452  0.551-   2 2.31   1 2.31   5 2.32   4 2.38   9 2.54   8 2.54   6 2.65
   4  0.409  0.475  0.586-   2 2.32   5 2.32   3 2.38   6 2.39
   5  0.428  0.470  0.492-   6 2.31   3 2.32   4 2.32   9 2.48  10 2.48   1 3.04
   6  0.453  0.560  0.538-   5 2.31   2 2.32   1 2.32   4 2.39  10 2.53   7 2.54   3 2.65
   7  0.544  0.615  0.578-   1 2.47   2 2.48   6 2.54   8 2.72
   8  0.600  0.505  0.592-   1 2.47   2 2.48   3 2.54   7 2.72
   9  0.526  0.444  0.448-   1 2.47   5 2.48   3 2.54  10 2.72
  10  0.470  0.555  0.435-   1 2.47   5 2.48   6 2.53   9 2.72
 

IMPORTANT INFORMATION: All symmetrisations will be switched off!
NOSYMM: (Re-)initialisation of all symmetry stuff for point group C_1.


----------------------------------------------------------------------------------------

                                     Primitive cell                                     

  volume of cell :   11596.3626

  direct lattice vectors                    reciprocal lattice vectors
    22.089981303  0.000000000  0.000000000     0.045269391  0.000000000  0.000000000
     0.000000000 21.687234848  0.000000000     0.000000000  0.046110074  0.000000000
     0.000000000  0.000000000 24.205956978     0.000000000  0.000000000  0.041312145

  length of vectors
    22.089981303 21.687234848 24.205956978     0.045269391  0.046110074  0.041312145

  position of ions in fractional coordinates (direct lattice)
     0.548784360  0.535622684  0.505335234
     0.494465324  0.524534801  0.620473378
     0.507713399  0.451990671  0.551422966
     0.409198681  0.474766245  0.586138573
     0.427800403  0.470384726  0.491701126
     0.453282151  0.559845987  0.538376150
     0.544430630  0.615336455  0.578133610
     0.600258982  0.504738440  0.591525575
     0.525989450  0.444111230  0.448247500
     0.470258987  0.555019788  0.434953712

  ion indices of the primitive-cell ions
   primitive index   ion index
                 1           1
                 2           2
                 3           3
                 4           4
                 5           5
                 6           6
                 7           7
                 8           8
                 9           9
                10          10

----------------------------------------------------------------------------------------

 
 
 KPOINTS: KPOINTS created by Atomic Simulation Env

Automatic generation of k-mesh.
Space group operators:
 irot       det(A)        alpha          n_x          n_y          n_z        tau_x        tau_y        tau_z
    1     1.000000     0.000000     1.000000     0.000000     0.000000     0.000000     0.000000     0.000000
 
 Subroutine IBZKPT returns following result:
 ===========================================
 
 Found      1 irreducible k-points:
 
 Following reciprocal coordinates:
            Coordinates               Weight
  0.000000  0.000000  0.000000      1.000000
 
 Following cartesian coordinates:
            Coordinates               Weight
  0.000000  0.000000  0.000000      1.000000
 


--------------------------------------------------------------------------------------------------------




 Dimension of arrays:
   k-points           NKPTS =      1   k-points in BZ     NKDIM =      1   number of bands    NBANDS=     66
   number of dos      NEDOS =    301   number of ions     NIONS =     10
   non local maximal  LDIM  =      6   non local SUM 2l+1 LMDIM =     18
   total plane-waves  NPLWV = ******
   max r-space proj   IRMAX =      1   max aug-charges    IRDMAX=   6054
   dimension x,y,z NGX =   108 NGY =  108 NGZ =  120
   dimension x,y,z NGXF=   216 NGYF=  216 NGZF=  240
   support grid    NGXF=   216 NGYF=  216 NGZF=  240
   ions per type =               6   4
   NGX,Y,Z   is equivalent  to a cutoff of   8.13,  8.28,  8.24 a.u.
   NGXF,Y,Z  is equivalent  to a cutoff of  16.26, 16.56, 16.48 a.u.

 SYSTEM =  unknown system                          
 POSCAR =  Ni Pd                                   

 Startparameter for this run:
   NWRITE =      2    write-flag & timer
   PREC   = normal    normal or accurate (medium, high low for compatibility)
   ISTART =      0    job   : 0-new  1-cont  2-samecut
   ICHARG =      2    charge: 1-file 2-atom 10-const
   ISPIN  =      2    spin polarized calculation?
   LNONCOLLINEAR =      F non collinear calculations
   LSORBIT =      F    spin-orbit coupling
   INIWAV =      1    electr: 0-lowe 1-rand  2-diag
   LASPH  =      F    aspherical Exc in radial PAW
   METAGGA=      F    non-selfconsistent MetaGGA calc.

 Electronic Relaxation 1
   ENCUT  =  400.0 eV  29.40 Ry    5.42 a.u.  36.02 35.37 39.47*2*pi/ulx,y,z
   ENINI  =  400.0     initial cutoff
   ENAUG  =  544.6 eV  augmentation charge cutoff
   NELM   =     60;   NELMIN=  2; NELMDL=  0     # of ELM steps 
   EDIFF  = 0.1E-03   stopping-criterion for ELM
   LREAL  =      F    real-space projection
   NLSPLINE    = F    spline interpolate recip. space projectors
   LCOMPAT=      F    compatible to vasp.4.4
   GGA_COMPAT  = T    GGA compatible to vasp.4.4-vasp.4.6
   LMAXPAW     = -100 max onsite density
   LMAXMIX     =    2 max onsite mixed and CHGCAR
   VOSKOWN=      0    Vosko Wilk Nusair interpolation
   ROPT   =    0.00000   0.00000
 Ionic relaxation
   EDIFFG = 0.1E-02   stopping-criterion for IOM
   NSW    =   1000    number of steps for IOM
   NBLOCK =      1;   KBLOCK =   1000    inner block; outer block 
   IBRION =      2    ionic relax: 0-MD 1-quasi-New 2-CG
   NFREE  =      1    steps in history (QN), initial steepest desc. (CG)
   ISIF   =      0    stress and relaxation
   IWAVPR =     11    prediction:  0-non 1-charg 2-wave 3-comb
   ISYM   =      0    0-nonsym 1-usesym 2-fastsym
   LCORR  =      T    Harris-Foulkes like correction to forces

   POTIM  = 0.5000    time-step for ionic-motion
   TEIN   =    0.0    initial temperature
   TEBEG  =    0.0;   TEEND  =   0.0 temperature during run
   SMASS  =  -3.00    Nose mass-parameter (am)
   estimated Nose-frequenzy (Omega)   =  0.10E-29 period in steps = 0.13E+47 mass=  -0.112E-25a.u.
   SCALEE = 1.0000    scale energy and forces
   NPACO  =    256;   APACO  = 16.0  distance and # of slots for P.C.
   PSTRESS=    0.0 pullay stress

  Mass of Ions in am
   POMASS =  58.69106.42
  Ionic Valenz
   ZVAL   =  10.00 10.00
  Atomic Wigner-Seitz radii
   RWIGS  =  -1.00 -1.00
  virtual crystal weights 
   VCA    =   1.00  1.00
   NELECT =     100.0000    total number of electrons
   NUPDOWN=      -1.0000    fix difference up-down

 DOS related values:
   EMIN   =  10.00;   EMAX   =-10.00  energy-range for DOS
   EFERMI =   0.00
   ISMEAR =     1;   SIGMA  =   0.20  broadening in eV -4-tet -1-fermi 0-gaus

 Electronic relaxation 2 (details)
   IALGO  =     38    algorithm
   LDIAG  =      T    sub-space diagonalisation (order eigenvalues)
   LSUBROT=      F    optimize rotation matrix (better conditioning)
   TURBO    =      0    0=normal 1=particle mesh
   IRESTART =      0    0=no restart 2=restart with 2 vectors
   NREBOOT  =      0    no. of reboots
   NMIN     =      0    reboot dimension
   EREF     =   0.00    reference energy to select bands
   IMIX   =      4    mixing-type and parameters
     AMIX     =   0.40;   BMIX     =  1.00
     AMIX_MAG =   1.60;   BMIX_MAG =  1.00
     AMIN     =   0.10
     WC   =   100.;   INIMIX=   1;  MIXPRE=   1;  MAXMIX= -45

 Intra band minimization:
   WEIMIN = 0.0010     energy-eigenvalue tresh-hold
   EBREAK =  0.38E-06  absolut break condition
   DEPER  =   0.30     relativ break condition  

   TIME   =   0.40     timestep for ELM

  volume/ion in A,a.u.               =    1159.64      7825.61
  Fermi-wavevector in a.u.,A,eV,Ry     =   0.335713  0.634405  1.533416  0.112703
  Thomas-Fermi vector in A             =   1.235486
 
 Write flags
   LWAVE        =      F    write WAVECAR
   LDOWNSAMPLE  =      F    k-point downsampling of WAVECAR
   LCHARG       =      F    write CHGCAR
   LVTOT        =      F    write LOCPOT, total local potential
   LVHAR        =      F    write LOCPOT, Hartree potential only
   LELF         =      F    write electronic localiz. function (ELF)
   LORBIT       =      0    0 simple, 1 ext, 2 COOP (PROOUT), +10 PAW based schemes


 Dipole corrections
   LMONO  =      F    monopole corrections only (constant potential shift)
   LDIPOL =      F    correct potential (dipole corrections)
   IDIPOL =      0    1-x, 2-y, 3-z, 4-all directions 
   EPSILON=  1.0000000 bulk dielectric constant

 Exchange correlation treatment:
   GGA     =    PE    GGA type
   LEXCH   =     8    internal setting for exchange type
   VOSKOWN=      0    Vosko Wilk Nusair interpolation
   LHFCALC =     F    Hartree Fock is set to
   LHFONE  =     F    Hartree Fock one center treatment
   AEXX    =    0.0000 exact exchange contribution

 Linear response parameters
   LEPSILON=     F    determine dielectric tensor
   LRPA    =     F    only Hartree local field effects (RPA)
   LNABLA  =     F    use nabla operator in PAW spheres
   LVEL    =     F    velocity operator in full k-point grid
   LINTERFAST=   F  fast interpolation
   KINTER  =     0    interpolate to denser k-point grid
   CSHIFT  =0.1000    complex shift for real part using Kramers Kronig
   OMEGAMAX=  -1.0    maximum frequency
   DEG_THRESHOLD= 0.2000000E-02 threshold for treating states as degnerate
   RTIME   =   -0.100 relaxation time in fs
  (WPLASMAI=    0.000 imaginary part of plasma frequency in eV, 0.658/RTIME)
   DFIELD  = 0.0000000 0.0000000 0.0000000 field for delta impulse in time
 
 Orbital magnetization related:
   ORBITALMAG=     F  switch on orbital magnetization
   LCHIMAG   =     F  perturbation theory with respect to B field
   DQ        =  0.001000  dq finite difference perturbation B field
   LLRAUG    =     F  two centre corrections for induced B field



--------------------------------------------------------------------------------------------------------


 conjugate gradient relaxation of ions
 charge density and potential will be updated during run
 spin polarized calculation
 Variant of blocked Davidson
 Davidson routine will perform the subspace rotation
 perform sub-space diagonalisation
    after iterative eigenvector-optimisation
 modified Broyden-mixing scheme, WC =      100.0
 initial mixing is a Kerker type mixing with AMIX =  0.4000 and BMIX =      1.0000
 Hartree-type preconditioning will be used
 using additional bands            16
 reciprocal scheme for non local part
 use partial core corrections
 calculate Harris-corrections to forces 
   (improved forces if not selfconsistent)
 use gradient corrections 
 use of overlap-Matrix (Vanderbilt PP)
 Methfessel and Paxton  Order N= 1 SIGMA  =   0.20


--------------------------------------------------------------------------------------------------------


  energy-cutoff  :      400.00
  volume of cell :    11596.36
      direct lattice vectors                 reciprocal lattice vectors
    22.089981303  0.000000000  0.000000000     0.045269391  0.000000000  0.000000000
     0.000000000 21.687234848  0.000000000     0.000000000  0.046110074  0.000000000
     0.000000000  0.000000000 24.205956978     0.000000000  0.000000000  0.041312145

  length of vectors
    22.089981303 21.687234848 24.205956978     0.045269391  0.046110074  0.041312145


 
 k-points in units of 2pi/SCALE and weight: KPOINTS created by Atomic Simulation Env
   0.00000000  0.00000000  0.00000000       1.000
 
 k-points in reciprocal lattice and weights: KPOINTS created by Atomic Simulation Env
   0.00000000  0.00000000  0.00000000       1.000
 
 position of ions in fractional coordinates (direct lattice) 
   0.54878436  0.53562268  0.50533523
   0.49446532  0.52453480  0.62047338
   0.50771340  0.45199067  0.55142297
   0.40919868  0.47476624  0.58613857
   0.42780040  0.47038473  0.49170113
   0.45328215  0.55984599  0.53837615
   0.54443063  0.61533646  0.57813361
   0.60025898  0.50473844  0.59152557
   0.52598945  0.44411123  0.44824750
   0.47025899  0.55501979  0.43495371
 
 position of ions in cartesian coordinates  (Angst):
  12.12263625 11.61617493 12.23212293
  10.92272976 11.37570942 15.01915190
  11.21537948  9.80242782 13.34772059
   9.03919121 10.29636704 14.18804507
   9.45010290 10.20134403 11.90209631
  10.01299425 12.14151141 13.03190992
  12.02646244 13.34494621 13.99427728
  13.25970968 10.94638109 14.31844261
  11.61909711  9.63154454 10.85025970
  10.38801223 12.03684448 10.52847084
 


--------------------------------------------------------------------------------------------------------


 use parallel FFT for orbitals z direction half grid
 k-point   1 :   0.0000 0.0000 0.0000  plane waves:  105303

 maximum and minimum number of plane-waves per node :     13168    13154

 maximum number of plane-waves:    105303
 maximum index in each direction: 
   IXMAX=   36   IYMAX=   35   IZMAX=   39
   IXMIN=  -36   IYMIN=  -35   IZMIN=    0


 parallel 3D FFT for wavefunctions:
    minimum data exchange during FFTs selected (reduces bandwidth)
 parallel 3D FFT for charge:
    minimum data exchange during FFTs selected (reduces bandwidth)


 total amount of memory used by VASP MPI-rank0   151052. kBytes
=======================================================================

   base      :      30000. kBytes
   nonl-proj :       5898. kBytes
   fftplans  :      28190. kBytes
   grid      :      73011. kBytes
   one-center:         31. kBytes
   wavefun   :      13922. kBytes
 
     INWAV:  cpu time    0.0000: real time    0.0000
 Broyden mixing: mesh for mixing (old mesh)
   NGX = 73   NGY = 71   NGZ = 79
  (NGX  =216   NGY  =216   NGZ  =240)
  gives a total of 409457 points

 initial charge density was supplied:
 charge density of overlapping atoms calculated
 number of electron     100.0000000 magnetization      10.0000000
 keeping initial charge density in first step


--------------------------------------------------------------------------------------------------------


 Maximum index for augmentation-charges           381 (set IRDMAX)


--------------------------------------------------------------------------------------------------------


 First call to EWALD:  gamma=   0.078
 Maximum number of real-space cells 3x 3x 3
 Maximum number of reciprocal cells 3x 3x 3

    FEWALD:  cpu time    0.0012: real time    0.0012


--------------------------------------- Iteration      1(   1)  ---------------------------------------


    POTLOK:  cpu time    2.3888: real time    2.3988
    SETDIJ:  cpu time    0.0221: real time    0.0221
     EDDAV:  cpu time    6.0121: real time    6.0220
       DOS:  cpu time    0.0067: real time    0.0067
    --------------------------------------------
      LOOP:  cpu time    8.4297: real time    8.4496

 eigenvalue-minimisations  :   264
 total energy-change (2. order) : 0.7288568E+03  (-0.1599607E+04)
 number of electron     100.0000000 magnetization      10.0000000
 augmentation part      100.0000000 magnetization      10.0000000

 Free energy of the ion-electron system (eV)
  ---------------------------------------------------
  alpha Z        PSCENC =         4.88685396
  Ewald energy   TEWEN  =     13020.93562624
  -Hartree energ DENC   =    -21991.61012070
  -exchange      EXHF   =         0.00000000
  -V(xc)+E(xc)   XCENC  =        63.26326411
  PAW double counting   =      9003.59075477    -9155.75339974
  entropy T*S    EENTRO =         0.04998666
  eigenvalues    EBANDS =        78.53523232
  atomic energy  EATOM  =      9704.95859309
  Solvation  Ediel_sol  =         0.00000000
  ---------------------------------------------------
  free energy    TOTEN  =       728.85679072 eV

  energy without entropy =      728.80680405  energy(sigma->0) =      728.84012850


--------------------------------------------------------------------------------------------------------




--------------------------------------- Iteration      1(   2)  ---------------------------------------


     EDDAV:  cpu time    9.3180: real time    9.3273
       DOS:  cpu time    0.0064: real time    0.0064
    --------------------------------------------
      LOOP:  cpu time    9.3244: real time    9.3337

 eigenvalue-minimisations  :   472
 total energy-change (2. order) :-0.4803752E+03  (-0.4470834E+03)
 number of electron     100.0000000 magnetization      10.0000000
 augmentation part      100.0000000 magnetization      10.0000000

 Free energy of the ion-electron system (eV)
  ---------------------------------------------------
  alpha Z        PSCENC =         4.88685396
  Ewald energy   TEWEN  =     13020.93562624
  -Hartree energ DENC   =    -21991.61012070
  -exchange      EXHF   =         0.00000000
  -V(xc)+E(xc)   XCENC  =        63.26326411
  PAW double counting   =      9003.59075477    -9155.75339974
  entropy T*S    EENTRO =         0.05168245
  eigenvalues    EBANDS =      -401.84167160
  atomic energy  EATOM  =      9704.95859309
  Solvation  Ediel_sol  =         0.00000000
  ---------------------------------------------------
  free energy    TOTEN  =       248.48158258 eV

  energy without entropy =      248.42990013  energy(sigma->0) =      248.46435510


--------------------------------------------------------------------------------------------------------




--------------------------------------- Iteration      1(   3)  ---------------------------------------


     EDDAV:  cpu time    7.9021: real time    7.9125
       DOS:  cpu time    0.0064: real time    0.0064
    --------------------------------------------
      LOOP:  cpu time    7.9085: real time    7.9188

 eigenvalue-minimisations  :   384
 total energy-change (2. order) :-0.2250788E+03  (-0.2113528E+03)
 number of electron     100.0000000 magnetization      10.0000000
 augmentation part      100.0000000 magnetization      10.0000000

 Free energy of the ion-electron system (eV)
  ---------------------------------------------------
  alpha Z        PSCENC =         4.88685396
  Ewald energy   TEWEN  =     13020.93562624
  -Hartree energ DENC   =    -21991.61012070
  -exchange      EXHF   =         0.00000000
  -V(xc)+E(xc)   XCENC  =        63.26326411
  PAW double counting   =      9003.59075477    -9155.75339974
  entropy T*S    EENTRO =        -0.01987814
  eigenvalues    EBANDS =      -626.84894744
  atomic energy  EATOM  =      9704.95859309
  Solvation  Ediel_sol  =         0.00000000
  ---------------------------------------------------
  free energy    TOTEN  =        23.40274615 eV

  energy without entropy =       23.42262429  energy(sigma->0) =       23.40937220


--------------------------------------------------------------------------------------------------------




--------------------------------------- Iteration      1(   4)  ---------------------------------------


     EDDAV:  cpu time    8.4326: real time    8.4401
       DOS:  cpu time    0.0064: real time    0.0064
    --------------------------------------------
      LOOP:  cpu time    8.4390: real time    8.4466

 eigenvalue-minimisations  :   416
 total energy-change (2. order) :-0.6052658E+02  (-0.5120502E+02)
 number of electron     100.0000000 magnetization      10.0000000
 augmentation part      100.0000000 magnetization      10.0000000

 Free energy of the ion-electron system (eV)
  ---------------------------------------------------
  alpha Z        PSCENC =         4.88685396
  Ewald energy   TEWEN  =     13020.93562624
  -Hartree energ DENC   =    -21991.61012070
  -exchange      EXHF   =         0.00000000
  -V(xc)+E(xc)   XCENC  =        63.26326411
  PAW double counting   =      9003.59075477    -9155.75339974
  entropy T*S    EENTRO =        -0.01269726
  eigenvalues    EBANDS =      -687.38270912
  atomic energy  EATOM  =      9704.95859309
  Solvation  Ediel_sol  =         0.00000000
  ---------------------------------------------------
  free energy    TOTEN  =       -37.12383465 eV

  energy without entropy =      -37.11113739  energy(sigma->0) =      -37.11960223


--------------------------------------------------------------------------------------------------------




--------------------------------------- Iteration      1(   5)  ---------------------------------------


     EDDAV:  cpu time    6.4865: real time    6.4922
       DOS:  cpu time    0.0065: real time    0.0065
    CHARGE:  cpu time    0.6534: real time    0.6562
    MIXING:  cpu time    0.0427: real time    0.0428
    --------------------------------------------
      LOOP:  cpu time    7.1891: real time    7.1977

 eigenvalue-minimisations  :   296
 total energy-change (2. order) :-0.7173341E+01  (-0.6622115E+01)
 number of electron     100.0000156 magnetization       9.7995290
 augmentation part       52.0947698 magnetization       7.9783203

 Broyden mixing:
  rms(total) = 0.27434E+01    rms(broyden)= 0.27424E+01
  rms(prec ) = 0.28753E+01
  weight for this iteration     100.00

 Free energy of the ion-electron system (eV)
  ---------------------------------------------------
  alpha Z        PSCENC =         4.88685396
  Ewald energy   TEWEN  =     13020.93562624
  -Hartree energ DENC   =    -21991.61012070
  -exchange      EXHF   =         0.00000000
  -V(xc)+E(xc)   XCENC  =        63.26326411
  PAW double counting   =      9003.59075477    -9155.75339974
  entropy T*S    EENTRO =         0.00938914
  eigenvalues    EBANDS =      -694.57813672
  atomic energy  EATOM  =      9704.95859309
  Solvation  Ediel_sol  =         0.00000000
  ---------------------------------------------------
  free energy    TOTEN  =       -44.29717584 eV

  energy without entropy =      -44.30656498  energy(sigma->0) =      -44.30030555


--------------------------------------------------------------------------------------------------------




--------------------------------------- Iteration      1(   6)  ---------------------------------------


    POTLOK:  cpu time    2.4088: real time    2.4154
    SETDIJ:  cpu time    0.0237: real time    0.0237
     EDDAV:  cpu time    6.0339: real time    6.0438
       DOS:  cpu time    0.0009: real time    0.0009
    CHARGE:  cpu time    0.6235: real time    0.6244
    MIXING:  cpu time    0.0411: real time    0.0411
    --------------------------------------------
      LOOP:  cpu time    9.1318: real time    9.1492

 eigenvalue-minimisations  :   272
 total energy-change (2. order) :-0.1444276E+02  (-0.9871986E+01)
 number of electron     100.0000153 magnetization       9.5921261
 augmentation part       56.4719511 magnetization       8.8176512

 Broyden mixing:
  rms(total) = 0.55660E+01    rms(broyden)= 0.55656E+01
  rms(prec ) = 0.58585E+01
  weight for this iteration     100.00

 eigenvalues of (default mixing * dielectric matrix)
  average eigenvalue GAMMA=   0.2920
  0.2920

 Free energy of the ion-electron system (eV)
  ---------------------------------------------------
  alpha Z        PSCENC =         4.88685396
  Ewald energy   TEWEN  =     13020.93562624
  -Hartree energ DENC   =    -21911.89458618
  -exchange      EXHF   =         0.00000000
  -V(xc)+E(xc)   XCENC  =        60.60151749
  PAW double counting   =      9482.54660513    -9609.55419052
  entropy T*S    EENTRO =        -0.04391461
  eigenvalues    EBANDS =      -811.17643811
  atomic energy  EATOM  =      9704.95859309
  Solvation  Ediel_sol  =         0.00000000
  ---------------------------------------------------
  free energy    TOTEN  =       -58.73993351 eV

  energy without entropy =      -58.69601891  energy(sigma->0) =      -58.72529531


--------------------------------------------------------------------------------------------------------




--------------------------------------- Iteration      1(   7)  ---------------------------------------


    POTLOK:  cpu time    2.3994: real time    2.4038
    SETDIJ:  cpu time    0.0232: real time    0.0232
     EDDAV:  cpu time    7.1580: real time    7.1673
       DOS:  cpu time    0.0009: real time    0.0009
    CHARGE:  cpu time    0.6249: real time    0.6256
    MIXING:  cpu time    0.0439: real time    0.0440
    --------------------------------------------
      LOOP:  cpu time   10.2504: real time   10.2647

 eigenvalue-minimisations  :   336
 total energy-change (2. order) : 0.1863925E+02  (-0.3598703E+01)
 number of electron     100.0000182 magnetization       9.5547159
 augmentation part       54.6568148 magnetization       7.3258375

 Broyden mixing:
  rms(total) = 0.27389E+01    rms(broyden)= 0.27383E+01
  rms(prec ) = 0.28733E+01
  weight for this iteration     100.00

 eigenvalues of (default mixing * dielectric matrix)
  average eigenvalue GAMMA=   0.2528
  0.2528  0.2528

 Free energy of the ion-electron system (eV)
  ---------------------------------------------------
  alpha Z        PSCENC =         4.88685396
  Ewald energy   TEWEN  =     13020.93562624
  -Hartree energ DENC   =    -21971.38567689
  -exchange      EXHF   =         0.00000000
  -V(xc)+E(xc)   XCENC  =        61.30043266
  PAW double counting   =      9639.62110024    -9789.41348696
  entropy T*S    EENTRO =        -0.02082749
  eigenvalues    EBANDS =      -710.98329635
  atomic energy  EATOM  =      9704.95859309
  Solvation  Ediel_sol  =         0.00000000
  ---------------------------------------------------
  free energy    TOTEN  =       -40.10068151 eV

  energy without entropy =      -40.07985402  energy(sigma->0) =      -40.09373901


--------------------------------------------------------------------------------------------------------




--------------------------------------- Iteration      1(   8)  ---------------------------------------


    POTLOK:  cpu time    2.3962: real time    2.4008
    SETDIJ:  cpu time    0.0229: real time    0.0229
     EDDAV:  cpu time    7.2271: real time    7.2337
       DOS:  cpu time    0.0009: real time    0.0009
    CHARGE:  cpu time    0.6460: real time    0.6466
    MIXING:  cpu time    0.0459: real time    0.0482
    --------------------------------------------
      LOOP:  cpu time   10.3390: real time   10.3531

 eigenvalue-minimisations  :   344
 total energy-change (2. order) : 0.1655345E+01  (-0.2297534E+01)
 number of electron     100.0000173 magnetization       9.4540456
 augmentation part       55.7251676 magnetization       7.6306300

 Broyden mixing:
  rms(total) = 0.27829E+01    rms(broyden)= 0.27822E+01
  rms(prec ) = 0.29131E+01
  weight for this iteration     100.00

 eigenvalues of (default mixing * dielectric matrix)
  average eigenvalue GAMMA=   0.2862
  0.3356  0.3356  0.1874

 Free energy of the ion-electron system (eV)
  ---------------------------------------------------
  alpha Z        PSCENC =         4.88685396
  Ewald energy   TEWEN  =     13020.93562624
  -Hartree energ DENC   =    -21969.56065484
  -exchange      EXHF   =         0.00000000
  -V(xc)+E(xc)   XCENC  =        61.26660322
  PAW double counting   =      9710.05672032    -9858.62003367
  entropy T*S    EENTRO =        -0.03171008
  eigenvalues    EBANDS =      -712.33733452
  atomic energy  EATOM  =      9704.95859309
  Solvation  Ediel_sol  =         0.00000000
  ---------------------------------------------------
  free energy    TOTEN  =       -38.44533627 eV

  energy without entropy =      -38.41362619  energy(sigma->0) =      -38.43476624


--------------------------------------------------------------------------------------------------------




--------------------------------------- Iteration      1(   9)  ---------------------------------------


    POTLOK:  cpu time    2.3930: real time    2.3981
    SETDIJ:  cpu time    0.0227: real time    0.0227
     EDDAV:  cpu time    7.8074: real time    7.8193
       DOS:  cpu time    0.0009: real time    0.0009
    CHARGE:  cpu time    0.6514: real time    0.6521
    MIXING:  cpu time    0.0490: real time    0.0491
    --------------------------------------------
      LOOP:  cpu time   10.9245: real time   10.9421

 eigenvalue-minimisations  :   374
 total energy-change (2. order) :-0.1044185E+01  (-0.2682305E+01)
 number of electron     100.0000129 magnetization       9.3107719
 augmentation part       54.7641655 magnetization       7.1747657

 Broyden mixing:
  rms(total) = 0.38963E+01    rms(broyden)= 0.38955E+01
  rms(prec ) = 0.40933E+01
  weight for this iteration     100.00

 eigenvalues of (default mixing * dielectric matrix)
  average eigenvalue GAMMA=   0.3702
  0.9071  0.2101  0.1817  0.1817

 Free energy of the ion-electron system (eV)
  ---------------------------------------------------
  alpha Z        PSCENC =         4.88685396
  Ewald energy   TEWEN  =     13020.93562624
  -Hartree energ DENC   =    -21998.18262920
  -exchange      EXHF   =         0.00000000
  -V(xc)+E(xc)   XCENC  =        62.09948792
  PAW double counting   =      9828.07262817    -9981.94874160
  entropy T*S    EENTRO =         0.00625476
  eigenvalues    EBANDS =      -680.31759485
  atomic energy  EATOM  =      9704.95859309
  Solvation  Ediel_sol  =         0.00000000
  ---------------------------------------------------
  free energy    TOTEN  =       -39.48952151 eV

  energy without entropy =      -39.49577627  energy(sigma->0) =      -39.49160643


--------------------------------------------------------------------------------------------------------




--------------------------------------- Iteration      1(  10)  ---------------------------------------


    POTLOK:  cpu time    2.4137: real time    2.4178
    SETDIJ:  cpu time    0.0255: real time    0.0255
     EDDAV:  cpu time    7.5459: real time    7.5527
       DOS:  cpu time    0.0010: real time    0.0010
    CHARGE:  cpu time    0.6491: real time    0.6497
    MIXING:  cpu time    0.0584: real time    0.0585
    --------------------------------------------
      LOOP:  cpu time   10.6937: real time   10.7052

 eigenvalue-minimisations  :   360
 total energy-change (2. order) : 0.4180133E+01  (-0.1657410E+01)
 number of electron     100.0000169 magnetization       9.2285227
 augmentation part       54.5139326 magnetization       7.1135974

 Broyden mixing:
  rms(total) = 0.11699E+01    rms(broyden)= 0.11680E+01
  rms(prec ) = 0.12272E+01
  weight for this iteration     100.00

 eigenvalues of (default mixing * dielectric matrix)
  average eigenvalue GAMMA=   0.4004
  0.8869  0.5581  0.2500  0.1537  0.1537

 Free energy of the ion-electron system (eV)
  ---------------------------------------------------
  alpha Z        PSCENC =         4.88685396
  Ewald energy   TEWEN  =     13020.93562624
  -Hartree energ DENC   =    -22028.26568749
  -exchange      EXHF   =         0.00000000
  -V(xc)+E(xc)   XCENC  =        62.95039987
  PAW double counting   =      9995.94155204   -10156.62303770
  entropy T*S    EENTRO =        -0.02621671
  eigenvalues    EBANDS =      -640.06747176
  atomic energy  EATOM  =      9704.95859309
  Solvation  Ediel_sol  =         0.00000000
  ---------------------------------------------------
  free energy    TOTEN  =       -35.30938846 eV

  energy without entropy =      -35.28317175  energy(sigma->0) =      -35.30064956


--------------------------------------------------------------------------------------------------------




--------------------------------------- Iteration      1(  11)  ---------------------------------------


    POTLOK:  cpu time    2.4123: real time    2.4161
    SETDIJ:  cpu time    0.0228: real time    0.0228
     EDDAV:  cpu time    7.5740: real time    7.5819
       DOS:  cpu time    0.0021: real time    0.0021
    CHARGE:  cpu time    0.6523: real time    0.6529
    MIXING:  cpu time    0.0610: real time    0.0610
    --------------------------------------------
      LOOP:  cpu time   10.7245: real time   10.7368

 eigenvalue-minimisations  :   358
 total energy-change (2. order) :-0.1088891E+01  (-0.4759935E+00)
 number of electron     100.0000167 magnetization       9.1879873
 augmentation part       54.0791476 magnetization       6.9656058

 Broyden mixing:
  rms(total) = 0.24353E+01    rms(broyden)= 0.24348E+01
  rms(prec ) = 0.25702E+01
  weight for this iteration     100.00

 eigenvalues of (default mixing * dielectric matrix)
  average eigenvalue GAMMA=   0.3753
  0.8061  0.8061  0.2524  0.1524  0.1524  0.0823

 Free energy of the ion-electron system (eV)
  ---------------------------------------------------
  alpha Z        PSCENC =         4.88685396
  Ewald energy   TEWEN  =     13020.93562624
  -Hartree energ DENC   =    -22035.48453525
  -exchange      EXHF   =         0.00000000
  -V(xc)+E(xc)   XCENC  =        62.65565624
  PAW double counting   =     10047.77410805   -10210.80937407
  entropy T*S    EENTRO =         0.05976552
  eigenvalues    EBANDS =      -631.37497330
  atomic energy  EATOM  =      9704.95859309
  Solvation  Ediel_sol  =         0.00000000
  ---------------------------------------------------
  free energy    TOTEN  =       -36.39827952 eV

  energy without entropy =      -36.45804504  energy(sigma->0) =      -36.41820136


--------------------------------------------------------------------------------------------------------




--------------------------------------- Iteration      1(  12)  ---------------------------------------


    POTLOK:  cpu time    2.3912: real time    2.3946
    SETDIJ:  cpu time    0.0231: real time    0.0231
     EDDAV:  cpu time    6.8731: real time    6.8807
       DOS:  cpu time    0.0011: real time    0.0011
    CHARGE:  cpu time    0.6265: real time    0.6270
    MIXING:  cpu time    0.0793: real time    0.0794
    --------------------------------------------
      LOOP:  cpu time    9.9943: real time   10.0059

 eigenvalue-minimisations  :   318
 total energy-change (2. order) : 0.3888641E+00  (-0.7677493E+00)
 number of electron     100.0000171 magnetization       9.1341485
 augmentation part       54.1119152 magnetization       6.9462410

 Broyden mixing:
  rms(total) = 0.16069E+01    rms(broyden)= 0.16063E+01
  rms(prec ) = 0.16961E+01
  weight for this iteration     100.00

 eigenvalues of (default mixing * dielectric matrix)
  average eigenvalue GAMMA=   0.3673
  0.8675  0.8675  0.2871  0.1817  0.1528  0.1528  0.0614

 Free energy of the ion-electron system (eV)
  ---------------------------------------------------
  alpha Z        PSCENC =         4.88685396
  Ewald energy   TEWEN  =     13020.93562624
  -Hartree energ DENC   =    -22035.75196912
  -exchange      EXHF   =         0.00000000
  -V(xc)+E(xc)   XCENC  =        62.50094941
  PAW double counting   =     10071.28187709   -10234.71346868
  entropy T*S    EENTRO =         0.01744272
  eigenvalues    EBANDS =      -630.12532013
  atomic energy  EATOM  =      9704.95859309
  Solvation  Ediel_sol  =         0.00000000
  ---------------------------------------------------
  free energy    TOTEN  =       -36.00941541 eV

  energy without entropy =      -36.02685813  energy(sigma->0) =      -36.01522965


--------------------------------------------------------------------------------------------------------




--------------------------------------- Iteration      1(  13)  ---------------------------------------


    POTLOK:  cpu time    2.3895: real time    2.3922
    SETDIJ:  cpu time    0.0230: real time    0.0230
     EDDAV:  cpu time    6.6373: real time    6.6458
       DOS:  cpu time    0.0070: real time    0.0070
    CHARGE:  cpu time    0.6069: real time    0.6074
    MIXING:  cpu time    0.0675: real time    0.0675
    --------------------------------------------
      LOOP:  cpu time    9.7311: real time    9.7430

 eigenvalue-minimisations  :   302
 total energy-change (2. order) :-0.1205008E+00  (-0.3777016E+00)
 number of electron     100.0000160 magnetization       9.0091461
 augmentation part       54.1880402 magnetization       6.8450065

 Broyden mixing:
  rms(total) = 0.11653E+01    rms(broyden)= 0.11644E+01
  rms(prec ) = 0.12210E+01
  weight for this iteration     100.00

 eigenvalues of (default mixing * dielectric matrix)
  average eigenvalue GAMMA=   0.4424
  1.5036  0.6585  0.6585  0.2228  0.1557  0.1557  0.1240  0.0606

 Free energy of the ion-electron system (eV)
  ---------------------------------------------------
  alpha Z        PSCENC =         4.88685396
  Ewald energy   TEWEN  =     13020.93562624
  -Hartree energ DENC   =    -22034.67638736
  -exchange      EXHF   =         0.00000000
  -V(xc)+E(xc)   XCENC  =        62.23618012
  PAW double counting   =     10100.78853083   -10264.18304348
  entropy T*S    EENTRO =         0.00807151
  eigenvalues    EBANDS =      -631.08434117
  atomic energy  EATOM  =      9704.95859309
  Solvation  Ediel_sol  =         0.00000000
  ---------------------------------------------------
  free energy    TOTEN  =       -36.12991626 eV

  energy without entropy =      -36.13798776  energy(sigma->0) =      -36.13260676


--------------------------------------------------------------------------------------------------------




--------------------------------------- Iteration      1(  14)  ---------------------------------------


    POTLOK:  cpu time    2.4008: real time    2.4046
    SETDIJ:  cpu time    0.0254: real time    0.0254
     EDDAV:  cpu time    6.8970: real time    6.9052
       DOS:  cpu time    0.0075: real time    0.0075
    CHARGE:  cpu time    0.6410: real time    0.6415
    MIXING:  cpu time    0.0804: real time    0.0806
    --------------------------------------------
      LOOP:  cpu time   10.0521: real time   10.0648

 eigenvalue-minimisations  :   318
 total energy-change (2. order) : 0.6561938E-01  (-0.1529818E+00)
 number of electron     100.0000169 magnetization       8.9810989
 augmentation part       54.6031654 magnetization       6.9902691

 Broyden mixing:
  rms(total) = 0.75582E+00    rms(broyden)= 0.75529E+00
  rms(prec ) = 0.79351E+00
  weight for this iteration     100.00

 eigenvalues of (default mixing * dielectric matrix)
  average eigenvalue GAMMA=   0.4188
  1.5284  0.6921  0.6921  0.2278  0.1501  0.1501  0.1547  0.1137  0.0605

 Free energy of the ion-electron system (eV)
  ---------------------------------------------------
  alpha Z        PSCENC =         4.88685396
  Ewald energy   TEWEN  =     13020.93562624
  -Hartree energ DENC   =    -22036.09798382
  -exchange      EXHF   =         0.00000000
  -V(xc)+E(xc)   XCENC  =        61.91055955
  PAW double counting   =     10167.12339909   -10330.84642067
  entropy T*S    EENTRO =        -0.04557671
  eigenvalues    EBANDS =      -628.88934759
  atomic energy  EATOM  =      9704.95859309
  Solvation  Ediel_sol  =         0.00000000
  ---------------------------------------------------
  free energy    TOTEN  =       -36.06429687 eV

  energy without entropy =      -36.01872016  energy(sigma->0) =      -36.04910463


--------------------------------------------------------------------------------------------------------




--------------------------------------- Iteration      1(  15)  ---------------------------------------


    POTLOK:  cpu time    2.3975: real time    2.4030
    SETDIJ:  cpu time    0.0229: real time    0.0229
     EDDAV:  cpu time    7.2935: real time    7.3003
       DOS:  cpu time    0.0019: real time    0.0019
    CHARGE:  cpu time    0.6349: real time    0.6355
    MIXING:  cpu time    0.0826: real time    0.0827
    --------------------------------------------
      LOOP:  cpu time   10.4333: real time   10.4462

 eigenvalue-minimisations  :   344
 total energy-change (2. order) :-0.4411439E-01  (-0.3963355E-01)
 number of electron     100.0000159 magnetization       8.9464640
 augmentation part       54.5853844 magnetization       6.9458055

 Broyden mixing:
  rms(total) = 0.53221E+00    rms(broyden)= 0.53199E+00
  rms(prec ) = 0.55650E+00
  weight for this iteration     100.00

 eigenvalues of (default mixing * dielectric matrix)
  average eigenvalue GAMMA=   0.4061
  1.5374  0.7330  0.7330  0.2582  0.1946  0.1564  0.1564  0.1205  0.1107  0.0605

 Free energy of the ion-electron system (eV)
  ---------------------------------------------------
  alpha Z        PSCENC =         4.88685396
  Ewald energy   TEWEN  =     13020.93562624
  -Hartree energ DENC   =    -22037.56188115
  -exchange      EXHF   =         0.00000000
  -V(xc)+E(xc)   XCENC  =        61.83699795
  PAW double counting   =     10171.96403279   -10335.82678708
  entropy T*S    EENTRO =        -0.03352226
  eigenvalues    EBANDS =      -627.26832480
  atomic energy  EATOM  =      9704.95859309
  Solvation  Ediel_sol  =         0.00000000
  ---------------------------------------------------
  free energy    TOTEN  =       -36.10841127 eV

  energy without entropy =      -36.07488900  energy(sigma->0) =      -36.09723718


--------------------------------------------------------------------------------------------------------




--------------------------------------- Iteration      1(  16)  ---------------------------------------


    POTLOK:  cpu time    2.3864: real time    2.3916
    SETDIJ:  cpu time    0.0225: real time    0.0225
     EDDAV:  cpu time    7.5051: real time    7.5123
       DOS:  cpu time    0.0026: real time    0.0026
    CHARGE:  cpu time    0.6401: real time    0.6407
    MIXING:  cpu time    0.0930: real time    0.0931
    --------------------------------------------
      LOOP:  cpu time   10.6497: real time   10.6628

 eigenvalue-minimisations  :   358
 total energy-change (2. order) :-0.1023243E+00  (-0.8036407E-02)
 number of electron     100.0000162 magnetization       8.8668978
 augmentation part       54.5199621 magnetization       6.8278694

 Broyden mixing:
  rms(total) = 0.45069E+00    rms(broyden)= 0.45060E+00
  rms(prec ) = 0.46886E+00
  weight for this iteration     100.00

 eigenvalues of (default mixing * dielectric matrix)
  average eigenvalue GAMMA=   0.4784
  1.7264  0.9069  0.9069  0.4580  0.4580  0.2192  0.1554  0.1554  0.1201  0.0605
  0.0950

 Free energy of the ion-electron system (eV)
  ---------------------------------------------------
  alpha Z        PSCENC =         4.88685396
  Ewald energy   TEWEN  =     13020.93562624
  -Hartree energ DENC   =    -22039.55130081
  -exchange      EXHF   =         0.00000000
  -V(xc)+E(xc)   XCENC  =        61.75786885
  PAW double counting   =     10174.23402006   -10338.26048601
  entropy T*S    EENTRO =        -0.01883571
  eigenvalues    EBANDS =      -625.15307519
  atomic energy  EATOM  =      9704.95859309
  Solvation  Ediel_sol  =         0.00000000
  ---------------------------------------------------
  free energy    TOTEN  =       -36.21073552 eV

  energy without entropy =      -36.19189981  energy(sigma->0) =      -36.20445695


--------------------------------------------------------------------------------------------------------




--------------------------------------- Iteration      1(  17)  ---------------------------------------


    POTLOK:  cpu time    2.3997: real time    2.4045
    SETDIJ:  cpu time    0.0240: real time    0.0240
     EDDAV:  cpu time    6.8661: real time    6.8725
       DOS:  cpu time    0.0021: real time    0.0021
    CHARGE:  cpu time    0.6596: real time    0.6602
    MIXING:  cpu time    0.0991: real time    0.0991
    --------------------------------------------
      LOOP:  cpu time   10.0505: real time   10.0624

 eigenvalue-minimisations  :   318
 total energy-change (2. order) :-0.2888792E+00  (-0.7133521E-01)
 number of electron     100.0000167 magnetization       8.7674605
 augmentation part       54.4825263 magnetization       6.7755564

 Broyden mixing:
  rms(total) = 0.52845E+00    rms(broyden)= 0.52795E+00
  rms(prec ) = 0.55382E+00
  weight for this iteration     100.00

 eigenvalues of (default mixing * dielectric matrix)
  average eigenvalue GAMMA=   0.4961
  2.0415  0.7719  0.7719  0.6022  0.6022  0.3564  0.2200  0.1550  0.1550  0.1206
  0.0605  0.0954

 Free energy of the ion-electron system (eV)
  ---------------------------------------------------
  alpha Z        PSCENC =         4.88685396
  Ewald energy   TEWEN  =     13020.93562624
  -Hartree energ DENC   =    -22044.03131894
  -exchange      EXHF   =         0.00000000
  -V(xc)+E(xc)   XCENC  =        61.61844437
  PAW double counting   =     10171.55497490   -10335.89724713
  entropy T*S    EENTRO =        -0.03137902
  eigenvalues    EBANDS =      -620.49416221
  atomic energy  EATOM  =      9704.95859309
  Solvation  Ediel_sol  =         0.00000000
  ---------------------------------------------------
  free energy    TOTEN  =       -36.49961474 eV

  energy without entropy =      -36.46823572  energy(sigma->0) =      -36.48915507


--------------------------------------------------------------------------------------------------------




--------------------------------------- Iteration      1(  18)  ---------------------------------------


    POTLOK:  cpu time    2.4060: real time    2.4082
    SETDIJ:  cpu time    0.0234: real time    0.0234
     EDDAV:  cpu time    6.6113: real time    6.6206
       DOS:  cpu time    0.0012: real time    0.0012
    CHARGE:  cpu time    0.6404: real time    0.6409
    MIXING:  cpu time    0.1024: real time    0.1025
    --------------------------------------------
      LOOP:  cpu time    9.7845: real time    9.7968

 eigenvalue-minimisations  :   300
 total energy-change (2. order) :-0.2402107E+00  (-0.9332515E-02)
 number of electron     100.0000166 magnetization       8.6555264
 augmentation part       54.5487267 magnetization       6.7048222

 Broyden mixing:
  rms(total) = 0.47884E+00    rms(broyden)= 0.47876E+00
  rms(prec ) = 0.50610E+00
  weight for this iteration     100.00

 eigenvalues of (default mixing * dielectric matrix)
  average eigenvalue GAMMA=   0.5462
  2.1682  1.1382  0.7303  0.6728  0.6728  0.4559  0.4559  0.2201  0.1552  0.1552
  0.1205  0.0605  0.0954

 Free energy of the ion-electron system (eV)
  ---------------------------------------------------
  alpha Z        PSCENC =         4.88685396
  Ewald energy   TEWEN  =     13020.93562624
  -Hartree energ DENC   =    -22047.34263821
  -exchange      EXHF   =         0.00000000
  -V(xc)+E(xc)   XCENC  =        61.39782195
  PAW double counting   =     10181.22101393   -10345.73563678
  entropy T*S    EENTRO =        -0.03043044
  eigenvalues    EBANDS =      -617.03102917
  atomic energy  EATOM  =      9704.95859309
  Solvation  Ediel_sol  =         0.00000000
  ---------------------------------------------------
  free energy    TOTEN  =       -36.73982544 eV

  energy without entropy =      -36.70939499  energy(sigma->0) =      -36.72968195


--------------------------------------------------------------------------------------------------------




--------------------------------------- Iteration      1(  19)  ---------------------------------------


    POTLOK:  cpu time    2.3903: real time    2.3990
    SETDIJ:  cpu time    0.0226: real time    0.0226
     EDDAV:  cpu time    8.0462: real time    8.0560
       DOS:  cpu time    0.0011: real time    0.0011
    CHARGE:  cpu time    0.6036: real time    0.6063
    MIXING:  cpu time    0.1100: real time    0.1101
    --------------------------------------------
      LOOP:  cpu time   11.1737: real time   11.1950

 eigenvalue-minimisations  :   396
 total energy-change (2. order) :-0.2221890E+00  (-0.9727655E-02)
 number of electron     100.0000163 magnetization       8.5788753
 augmentation part       54.4352663 magnetization       6.5762466

 Broyden mixing:
  rms(total) = 0.15040E+00    rms(broyden)= 0.15005E+00
  rms(prec ) = 0.15742E+00
  weight for this iteration     100.00

 eigenvalues of (default mixing * dielectric matrix)
  average eigenvalue GAMMA=   0.5862
  2.2655  1.2860  0.9515  0.7002  0.7002  0.5517  0.4724  0.4724  0.2202  0.1552
  0.1552  0.1206  0.0605  0.0954

 Free energy of the ion-electron system (eV)
  ---------------------------------------------------
  alpha Z        PSCENC =         4.88685396
  Ewald energy   TEWEN  =     13020.93562624
  -Hartree energ DENC   =    -22053.25928925
  -exchange      EXHF   =         0.00000000
  -V(xc)+E(xc)   XCENC  =        61.25889460
  PAW double counting   =     10175.94444038   -10340.70737838
  entropy T*S    EENTRO =        -0.00897904
  eigenvalues    EBANDS =      -610.97077608
  atomic energy  EATOM  =      9704.95859309
  Solvation  Ediel_sol  =         0.00000000
  ---------------------------------------------------
  free energy    TOTEN  =       -36.96201448 eV

  energy without entropy =      -36.95303544  energy(sigma->0) =      -36.95902147


--------------------------------------------------------------------------------------------------------




--------------------------------------- Iteration      1(  20)  ---------------------------------------


    POTLOK:  cpu time    2.3844: real time    2.3973
    SETDIJ:  cpu time    0.0260: real time    0.0260
     EDDAV:  cpu time    6.8657: real time    6.8756
       DOS:  cpu time    0.0012: real time    0.0012
    CHARGE:  cpu time    0.6305: real time    0.6334
    MIXING:  cpu time    0.1260: real time    0.1261
    --------------------------------------------
      LOOP:  cpu time   10.0338: real time   10.0597

 eigenvalue-minimisations  :   320
 total energy-change (2. order) :-0.1918767E+00  (-0.3301323E-02)
 number of electron     100.0000162 magnetization       8.5064765
 augmentation part       54.4398251 magnetization       6.5307184

 Broyden mixing:
  rms(total) = 0.11737E+00    rms(broyden)= 0.11728E+00
  rms(prec ) = 0.12346E+00
  weight for this iteration     100.00

 eigenvalues of (default mixing * dielectric matrix)
  average eigenvalue GAMMA=   0.6093
  2.2940  1.4807  1.0252  0.6825  0.6825  0.6288  0.6288  0.4550  0.4550  0.2202
  0.1552  0.1552  0.1206  0.0605  0.0954

 Free energy of the ion-electron system (eV)
  ---------------------------------------------------
  alpha Z        PSCENC =         4.88685396
  Ewald energy   TEWEN  =     13020.93562624
  -Hartree energ DENC   =    -22056.20961096
  -exchange      EXHF   =         0.00000000
  -V(xc)+E(xc)   XCENC  =        61.12789569
  PAW double counting   =     10170.04492263   -10334.74065506
  entropy T*S    EENTRO =        -0.01560639
  eigenvalues    EBANDS =      -608.14191043
  atomic energy  EATOM  =      9704.95859309
  Solvation  Ediel_sol  =         0.00000000
  ---------------------------------------------------
  free energy    TOTEN  =       -37.15389123 eV

  energy without entropy =      -37.13828484  energy(sigma->0) =      -37.14868910


--------------------------------------------------------------------------------------------------------




--------------------------------------- Iteration      1(  21)  ---------------------------------------


    POTLOK:  cpu time    2.3853: real time    2.3906
    SETDIJ:  cpu time    0.0234: real time    0.0234
     EDDAV:  cpu time    6.4481: real time    6.4565
       DOS:  cpu time    0.0039: real time    0.0039
    CHARGE:  cpu time    0.6544: real time    0.6550
    MIXING:  cpu time    0.1291: real time    0.1292
    --------------------------------------------
      LOOP:  cpu time    9.6442: real time    9.6586

 eigenvalue-minimisations  :   296
 total energy-change (2. order) :-0.1882686E+00  (-0.1604803E-02)
 number of electron     100.0000162 magnetization       8.4370310
 augmentation part       54.4466669 magnetization       6.4751072

 Broyden mixing:
  rms(total) = 0.12951E+00    rms(broyden)= 0.12950E+00
  rms(prec ) = 0.13768E+00
  weight for this iteration     100.00

 eigenvalues of (default mixing * dielectric matrix)
  average eigenvalue GAMMA=   0.6314
  2.4090  1.7712  0.8778  0.8778  0.7499  0.6570  0.6570  0.4448  0.4448  0.4065
  0.2202  0.1552  0.1552  0.1206  0.0605  0.0954

 Free energy of the ion-electron system (eV)
  ---------------------------------------------------
  alpha Z        PSCENC =         4.88685396
  Ewald energy   TEWEN  =     13020.93562624
  -Hartree energ DENC   =    -22058.46069257
  -exchange      EXHF   =         0.00000000
  -V(xc)+E(xc)   XCENC  =        60.97762175
  PAW double counting   =     10164.49632312   -10329.08068311
  entropy T*S    EENTRO =        -0.01926770
  eigenvalues    EBANDS =      -606.03653458
  atomic energy  EATOM  =      9704.95859309
  Solvation  Ediel_sol  =         0.00000000
  ---------------------------------------------------
  free energy    TOTEN  =       -37.34215981 eV

  energy without entropy =      -37.32289211  energy(sigma->0) =      -37.33573724


--------------------------------------------------------------------------------------------------------




--------------------------------------- Iteration      1(  22)  ---------------------------------------


    POTLOK:  cpu time    2.4110: real time    2.4165
    SETDIJ:  cpu time    0.0230: real time    0.0230
     EDDAV:  cpu time    7.4899: real time    7.4969
       DOS:  cpu time    0.0038: real time    0.0038
    CHARGE:  cpu time    0.6341: real time    0.6348
    MIXING:  cpu time    0.1379: real time    0.1381
    --------------------------------------------
      LOOP:  cpu time   10.6997: real time   10.7131

 eigenvalue-minimisations  :   358
 total energy-change (2. order) :-0.1543202E+00  (-0.1216938E-02)
 number of electron     100.0000162 magnetization       8.3684442
 augmentation part       54.4245790 magnetization       6.4048993

 Broyden mixing:
  rms(total) = 0.60521E-01    rms(broyden)= 0.60479E-01
  rms(prec ) = 0.64681E-01
  weight for this iteration     100.00

 eigenvalues of (default mixing * dielectric matrix)
  average eigenvalue GAMMA=   0.6699
  2.5663  2.0052  0.9914  0.9914  0.8405  0.6763  0.6763  0.6012  0.4610  0.4610
  0.3102  0.2202  0.1552  0.1552  0.1206  0.0605  0.0954

 Free energy of the ion-electron system (eV)
  ---------------------------------------------------
  alpha Z        PSCENC =         4.88685396
  Ewald energy   TEWEN  =     13020.93562624
  -Hartree energ DENC   =    -22060.73449064
  -exchange      EXHF   =         0.00000000
  -V(xc)+E(xc)   XCENC  =        60.85876017
  PAW double counting   =     10159.46970365   -10324.03809189
  entropy T*S    EENTRO =        -0.01467987
  eigenvalues    EBANDS =      -603.81875467
  atomic energy  EATOM  =      9704.95859309
  Solvation  Ediel_sol  =         0.00000000
  ---------------------------------------------------
  free energy    TOTEN  =       -37.49647997 eV

  energy without entropy =      -37.48180009  energy(sigma->0) =      -37.49158667


--------------------------------------------------------------------------------------------------------




--------------------------------------- Iteration      1(  23)  ---------------------------------------


    POTLOK:  cpu time    2.3885: real time    2.3923
    SETDIJ:  cpu time    0.0229: real time    0.0229
     EDDAV:  cpu time    7.0068: real time    7.0134
       DOS:  cpu time    0.0055: real time    0.0055
    CHARGE:  cpu time    0.6180: real time    0.6187
    MIXING:  cpu time    0.1505: real time    0.1507
    --------------------------------------------
      LOOP:  cpu time   10.1922: real time   10.2034

 eigenvalue-minimisations  :   328
 total energy-change (2. order) :-0.1404815E+00  (-0.8111953E-03)
 number of electron     100.0000162 magnetization       8.3205033
 augmentation part       54.4118378 magnetization       6.3621016

 Broyden mixing:
  rms(total) = 0.26290E-01    rms(broyden)= 0.26254E-01
  rms(prec ) = 0.28194E-01
  weight for this iteration     100.00

 eigenvalues of (default mixing * dielectric matrix)
  average eigenvalue GAMMA=   0.6946
  2.4366  2.4366  1.2037  0.8809  0.8809  0.6740  0.6740  0.6401  0.6401  0.4634
  0.4634  0.3028  0.2202  0.1552  0.1552  0.1206  0.0605  0.0954

 Free energy of the ion-electron system (eV)
  ---------------------------------------------------
  alpha Z        PSCENC =         4.88685396
  Ewald energy   TEWEN  =     13020.93562624
  -Hartree energ DENC   =    -22062.62987447
  -exchange      EXHF   =         0.00000000
  -V(xc)+E(xc)   XCENC  =        60.74528715
  PAW double counting   =     10155.21284113   -10319.77371574
  entropy T*S    EENTRO =        -0.01091193
  eigenvalues    EBANDS =      -601.96166092
  atomic energy  EATOM  =      9704.95859309
  Solvation  Ediel_sol  =         0.00000000
  ---------------------------------------------------
  free energy    TOTEN  =       -37.63696150 eV

  energy without entropy =      -37.62604956  energy(sigma->0) =      -37.63332419


--------------------------------------------------------------------------------------------------------




--------------------------------------- Iteration      1(  24)  ---------------------------------------


    POTLOK:  cpu time    2.3826: real time    2.3852
    SETDIJ:  cpu time    0.0235: real time    0.0235
     EDDAV:  cpu time    6.1711: real time    6.1822
       DOS:  cpu time    0.0049: real time    0.0049
    CHARGE:  cpu time    0.6571: real time    0.6577
    MIXING:  cpu time    0.1658: real time    0.1683
    --------------------------------------------
      LOOP:  cpu time    9.4050: real time    9.4218

 eigenvalue-minimisations  :   274
 total energy-change (2. order) :-0.8854651E-01  (-0.2797863E-03)
 number of electron     100.0000162 magnetization       8.2657687
 augmentation part       54.4118388 magnetization       6.3132204

 Broyden mixing:
  rms(total) = 0.24634E-01    rms(broyden)= 0.24626E-01
  rms(prec ) = 0.26524E-01
  weight for this iteration     100.00

 eigenvalues of (default mixing * dielectric matrix)
  average eigenvalue GAMMA=   0.7140
  2.6839  2.4742  1.2830  0.9071  0.9071  0.6666  0.6666  0.7243  0.7243  0.4592
  0.4592  0.4958  0.3076  0.2202  0.1552  0.1552  0.1206  0.0605  0.0954

 Free energy of the ion-electron system (eV)
  ---------------------------------------------------
  alpha Z        PSCENC =         4.88685396
  Ewald energy   TEWEN  =     13020.93562624
  -Hartree energ DENC   =    -22063.73091569
  -exchange      EXHF   =         0.00000000
  -V(xc)+E(xc)   XCENC  =        60.66790286
  PAW double counting   =     10152.97696920   -10317.51219104
  entropy T*S    EENTRO =        -0.01058461
  eigenvalues    EBANDS =      -600.89776201
  atomic energy  EATOM  =      9704.95859309
  Solvation  Ediel_sol  =         0.00000000
  ---------------------------------------------------
  free energy    TOTEN  =       -37.72550800 eV

  energy without entropy =      -37.71492339  energy(sigma->0) =      -37.72197980


--------------------------------------------------------------------------------------------------------




--------------------------------------- Iteration      1(  25)  ---------------------------------------


    POTLOK:  cpu time    2.3801: real time    2.3843
    SETDIJ:  cpu time    0.0236: real time    0.0236
     EDDAV:  cpu time    6.2261: real time    6.2320
       DOS:  cpu time    0.0026: real time    0.0026
    CHARGE:  cpu time    0.6446: real time    0.6451
    MIXING:  cpu time    0.1720: real time    0.1744
    --------------------------------------------
      LOOP:  cpu time    9.4489: real time    9.4620

 eigenvalue-minimisations  :   280
 total energy-change (2. order) :-0.8390584E-01  (-0.2020129E-03)
 number of electron     100.0000162 magnetization       8.1974750
 augmentation part       54.4062981 magnetization       6.2496294

 Broyden mixing:
  rms(total) = 0.11916E-01    rms(broyden)= 0.11885E-01
  rms(prec ) = 0.13091E-01
  weight for this iteration     100.00

 eigenvalues of (default mixing * dielectric matrix)
  average eigenvalue GAMMA=   0.7412
  3.1866  2.3242  1.2419  1.1170  0.9255  0.9255  0.6691  0.6691  0.6463  0.6463
  0.4608  0.4608  0.4366  0.3083  0.2202  0.1552  0.1552  0.1206  0.0605  0.0954

 Free energy of the ion-electron system (eV)
  ---------------------------------------------------
  alpha Z        PSCENC =         4.88685396
  Ewald energy   TEWEN  =     13020.93562624
  -Hartree energ DENC   =    -22065.00745645
  -exchange      EXHF   =         0.00000000
  -V(xc)+E(xc)   XCENC  =        60.59862745
  PAW double counting   =     10151.04751834   -10315.57521285
  entropy T*S    EENTRO =        -0.00948329
  eigenvalues    EBANDS =      -599.64448033
  atomic energy  EATOM  =      9704.95859309
  Solvation  Ediel_sol  =         0.00000000
  ---------------------------------------------------
  free energy    TOTEN  =       -37.80941384 eV

  energy without entropy =      -37.79993055  energy(sigma->0) =      -37.80625275


--------------------------------------------------------------------------------------------------------




--------------------------------------- Iteration      1(  26)  ---------------------------------------


    POTLOK:  cpu time    2.3933: real time    2.3981
    SETDIJ:  cpu time    0.0186: real time    0.0186
     EDDAV:  cpu time    6.0234: real time    6.0313
       DOS:  cpu time    0.0053: real time    0.0053
    CHARGE:  cpu time    0.6256: real time    0.6261
    MIXING:  cpu time    0.1834: real time    0.1836
    --------------------------------------------
      LOOP:  cpu time    9.2497: real time    9.2631

 eigenvalue-minimisations  :   266
 total energy-change (2. order) :-0.8363721E-01  (-0.2136935E-03)
 number of electron     100.0000162 magnetization       8.1423449
 augmentation part       54.4015410 magnetization       6.2011628

 Broyden mixing:
  rms(total) = 0.26503E-01    rms(broyden)= 0.26478E-01
  rms(prec ) = 0.28148E-01
  weight for this iteration     100.00

 eigenvalues of (default mixing * dielectric matrix)
  average eigenvalue GAMMA=   0.7785
  3.3439  2.4843  1.6788  1.0326  1.0326  0.6740  0.6740  0.8031  0.8031  0.7196
  0.6272  0.4609  0.4609  0.4399  0.3074  0.2202  0.1552  0.1552  0.1206  0.0605
  0.0954

 Free energy of the ion-electron system (eV)
  ---------------------------------------------------
  alpha Z        PSCENC =         4.88685396
  Ewald energy   TEWEN  =     13020.93562624
  -Hartree energ DENC   =    -22066.41765071
  -exchange      EXHF   =         0.00000000
  -V(xc)+E(xc)   XCENC  =        60.52869116
  PAW double counting   =     10149.05726279   -10313.58210769
  entropy T*S    EENTRO =        -0.00835978
  eigenvalues    EBANDS =      -598.25196012
  atomic energy  EATOM  =      9704.95859309
  Solvation  Ediel_sol  =         0.00000000
  ---------------------------------------------------
  free energy    TOTEN  =       -37.89305106 eV

  energy without entropy =      -37.88469128  energy(sigma->0) =      -37.89026446


--------------------------------------------------------------------------------------------------------




--------------------------------------- Iteration      1(  27)  ---------------------------------------


    POTLOK:  cpu time    2.3914: real time    2.3947
    SETDIJ:  cpu time    0.0225: real time    0.0225
     EDDAV:  cpu time    6.6999: real time    6.7084
       DOS:  cpu time    0.0052: real time    0.0052
    CHARGE:  cpu time    0.6167: real time    0.6174
    MIXING:  cpu time    0.1973: real time    0.1975
    --------------------------------------------
      LOOP:  cpu time    9.9329: real time    9.9456

 eigenvalue-minimisations  :   308
 total energy-change (2. order) :-0.5567006E-01  (-0.1089038E-03)
 number of electron     100.0000162 magnetization       8.0889050
 augmentation part       54.4035630 magnetization       6.1539988

 Broyden mixing:
  rms(total) = 0.11709E-01    rms(broyden)= 0.11702E-01
  rms(prec ) = 0.12501E-01
  weight for this iteration     100.00

 eigenvalues of (default mixing * dielectric matrix)
  average eigenvalue GAMMA=   0.8164
  3.8740  2.2039  2.2039  1.0156  1.0156  0.8877  0.8241  0.8241  0.6728  0.6728
  0.6393  0.6393  0.4611  0.4611  0.4504  0.3073  0.2202  0.1552  0.1552  0.1206
  0.0605  0.0954

 Free energy of the ion-electron system (eV)
  ---------------------------------------------------
  alpha Z        PSCENC =         4.88685396
  Ewald energy   TEWEN  =     13020.93562624
  -Hartree energ DENC   =    -22067.28418737
  -exchange      EXHF   =         0.00000000
  -V(xc)+E(xc)   XCENC  =        60.47574098
  PAW double counting   =     10148.24609902   -10312.76660332
  entropy T*S    EENTRO =        -0.00883612
  eigenvalues    EBANDS =      -597.39200759
  atomic energy  EATOM  =      9704.95859309
  Solvation  Ediel_sol  =         0.00000000
  ---------------------------------------------------
  free energy    TOTEN  =       -37.94872111 eV

  energy without entropy =      -37.93988500  energy(sigma->0) =      -37.94577574


--------------------------------------------------------------------------------------------------------




--------------------------------------- Iteration      1(  28)  ---------------------------------------


    POTLOK:  cpu time    2.3818: real time    2.3890
    SETDIJ:  cpu time    0.0229: real time    0.0229
     EDDAV:  cpu time    5.5966: real time    5.6017
       DOS:  cpu time    0.0061: real time    0.0061
    CHARGE:  cpu time    0.6569: real time    0.6574
    MIXING:  cpu time    0.2056: real time    0.2058
    --------------------------------------------
      LOOP:  cpu time    8.8698: real time    8.8830

 eigenvalue-minimisations  :   238
 total energy-change (2. order) :-0.4280164E-01  (-0.6588595E-04)
 number of electron     100.0000162 magnetization       8.0508042
 augmentation part       54.4023687 magnetization       6.1207212

 Broyden mixing:
  rms(total) = 0.15153E-01    rms(broyden)= 0.15150E-01
  rms(prec ) = 0.16084E-01
  weight for this iteration     100.00

 eigenvalues of (default mixing * dielectric matrix)
[...]
 total energy-change (2. order) :-0.4209241E-04  (-0.1839219E-04)
 number of electron     100.0000183 magnetization       7.9004315
 augmentation part       54.4032963 magnetization       5.9931276

 Free energy of the ion-electron system (eV)
  ---------------------------------------------------
  alpha Z        PSCENC =         4.88685396
  Ewald energy   TEWEN  =     13011.45195958
  -Hartree energ DENC   =    -22059.94630436
  -exchange      EXHF   =         0.00000000
  -V(xc)+E(xc)   XCENC  =        60.34017616
  PAW double counting   =     10145.05054243   -10309.53651739
  entropy T*S    EENTRO =        -0.01026304
  eigenvalues    EBANDS =      -595.26443743
  atomic energy  EATOM  =      9704.95859309
  Solvation  Ediel_sol  =         0.00000000
  ---------------------------------------------------
  free energy    TOTEN  =       -38.06939700 eV

  energy without entropy =      -38.05913396  energy(sigma->0) =      -38.06597599


--------------------------------------------------------------------------------------------------------




 average (electrostatic) potential at core
  the test charge radii are     0.9791  1.1199
  (the norm of the test charge is              1.0000)
       1 -95.4778       2 -95.2358       3 -95.4298       4 -95.2178       5 -95.2366
       6 -95.4289       7 -83.5730       8 -83.5720       9 -83.5703      10 -83.5686
 
 
 
 E-fermi :  -4.1137     XC(G=0):  -0.3318     alpha+bet : -0.1776


 spin component 1

 k-point     1 :       0.0000    0.0000    0.0000
  band No.  band energies     occupation 
      1      -9.8885      1.00000
      2      -8.3879      1.00000
      3      -8.2990      1.00000
      4      -7.8991      1.00000
      5      -7.7212      1.00000
      6      -7.6915      1.00000
      7      -7.5990      1.00000
      8      -7.5158      1.00000
      9      -7.4875      1.00000
     10      -7.4448      1.00000
     11      -7.3315      1.00000
     12      -7.2055      1.00000
     13      -7.1793      1.00000
     14      -7.1741      1.00000
     15      -6.9997      1.00000
     16      -6.8004      1.00000
     17      -6.5095      1.00000
     18      -6.4032      1.00000
     19      -6.3741      1.00000
     20      -6.3716      1.00000
     21      -6.3128      1.00000
     22      -6.2461      1.00000
     23      -6.2365      1.00000
     24      -6.1263      1.00000
     25      -6.1253      1.00000
     26      -6.0514      1.00000
     27      -5.8584      1.00000
     28      -5.8445      1.00000
     29      -5.7361      1.00000
     30      -5.6024      1.00000
     31      -5.5936      1.00000
     32      -5.5912      1.00000
     33      -5.4817      1.00000
     34      -5.4744      1.00000
     35      -5.3255      1.00000
     36      -5.3018      1.00000
     37      -5.2826      1.00000
     38      -5.2486      1.00000
     39      -5.2160      1.00000
     40      -5.1412      1.00000
     41      -5.1354      1.00000
     42      -5.1291      1.00000
     43      -5.1282      1.00000
     44      -5.1060      1.00000
     45      -5.0533      1.00000
     46      -5.0439      1.00000
     47      -4.9904      1.00000
     48      -4.8718      1.00000
     49      -4.8249      1.00000
     50      -4.7990      1.00001
     51      -4.7685      1.00002
     52      -4.7367      1.00005
     53      -4.6022      1.00149
     54      -4.2454      0.94442
     55      -2.9024     -0.00000
     56      -2.7825     -0.00000
     57      -2.7283     -0.00000
     58      -2.5770     -0.00000
     59      -2.1568     -0.00000
     60      -1.7483     -0.00000
     61      -0.9202     -0.00000
     62      -0.8502     -0.00000
     63      -0.6403     -0.00000
     64      -0.4859     -0.00000
     65      -0.3441     -0.00000
     66      -0.2195     -0.00000

 spin component 2

 k-point     1 :       0.0000    0.0000    0.0000
  band No.  band energies     occupation 
      1      -9.8245      1.00000
      2      -8.1034      1.00000
      3      -7.9274      1.00000
      4      -7.4356      1.00000
      5      -7.2195      1.00000
      6      -7.1160      1.00000
      7      -7.1049      1.00000
      8      -6.8173      1.00000
      9      -6.7559      1.00000
     10      -6.6725      1.00000
     11      -6.6163      1.00000
     12      -6.5565      1.00000
     13      -6.4462      1.00000
     14      -6.3803      1.00000
     15      -6.1623      1.00000
     16      -6.1492      1.00000
     17      -6.0695      1.00000
     18      -6.0451      1.00000
     19      -5.8660      1.00000
     20      -5.8515      1.00000
     21      -5.7986      1.00000
     22      -5.6861      1.00000
     23      -5.6555      1.00000
     24      -5.5117      1.00000
     25      -5.4042      1.00000
     26      -5.3761      1.00000
     27      -5.3744      1.00000
     28      -5.3240      1.00000
     29      -5.2073      1.00000
     30      -5.0674      1.00000
     31      -5.0545      1.00000
     32      -4.9653      1.00000
     33      -4.8840      1.00000
     34      -4.8126      1.00000
     35      -4.7872      1.00001
     36      -4.6819      1.00022
     37      -4.6034      1.00145
     38      -4.6030      1.00147
     39      -4.5342      1.00567
     40      -4.4870      1.01202
     41      -4.4581      1.01760
     42      -4.4521      1.01890
     43      -4.3243      1.02975
     44      -4.2162      0.87674
     45      -4.2039      0.84183
     46      -4.1922      0.80528
     47      -4.0457      0.22986
     48      -4.0402      0.21100
     49      -4.0063      0.11026
     50      -3.9215     -0.02059
     51      -3.8779     -0.03511
     52      -3.8021     -0.02499
     53      -3.7927     -0.02283
     54      -3.6808     -0.00453
     55      -2.6737     -0.00000
     56      -2.5559     -0.00000
     57      -2.4264     -0.00000
     58      -2.2517     -0.00000
     59      -1.8671     -0.00000
     60      -1.4591     -0.00000
     61      -0.7984     -0.00000
     62      -0.6699     -0.00000
     63      -0.4716     -0.00000
     64      -0.3793     -0.00000
     65      -0.2008     -0.00000
     66       0.0201     -0.00000


--------------------------------------------------------------------------------------------------------


 soft charge-density along one line, spin component            1
         0         1         2         3         4         5         6         7         8         9
 total charge-density along one line
 
 soft charge-density along one line, spin component            2
         0         1         2         3         4         5         6         7         8         9
 total charge-density along one line
 
 pseudopotential strength for first ion, spin component:            1
-10.286   0.046   0.012   0.046   0.135 -10.555   0.044   0.012
  0.046 -10.503  -0.008   0.014   0.059   0.044 -10.763  -0.007
  0.012  -0.008 -10.248  -0.147   0.021   0.012  -0.007 -10.518
  0.046   0.014  -0.147 -10.442   0.011   0.044   0.013  -0.140
  0.135   0.059   0.021   0.011 -10.401   0.130   0.057   0.021
-10.555   0.044   0.012   0.044   0.130 -10.770   0.043   0.011
  0.044 -10.763  -0.007   0.013   0.057   0.043 -10.968  -0.007
  0.012  -0.007 -10.518  -0.140   0.021   0.011  -0.007 -10.734
  0.044   0.013  -0.140 -10.705   0.010   0.042   0.013  -0.134
  0.130   0.057   0.021   0.010 -10.666   0.124   0.054   0.020
 -0.002   0.005   0.005   0.009  -0.003  -0.002   0.005   0.004
 -0.004   0.009   0.008   0.016  -0.006  -0.004   0.009   0.008
  0.001   0.002  -0.001   0.001   0.002   0.001   0.002  -0.001
  0.001  -0.000  -0.007   0.002   0.000   0.001  -0.000  -0.006
  0.004   0.001   0.000   0.003   0.001   0.003   0.001   0.000
 -0.002   0.004  -0.001   0.002   0.004  -0.002   0.004  -0.000
  0.002  -0.002  -0.006   0.000   0.001   0.002  -0.002  -0.005
  0.003   0.002   0.002   0.006  -0.001   0.003   0.002   0.002
 pseudopotential strength for first ion, spin component:            2
 -9.485  -0.030  -0.002  -0.025  -0.059  -9.793  -0.028  -0.002
 -0.030  -9.406   0.001  -0.006  -0.017  -0.028  -9.716   0.001
 -0.002   0.001  -9.519   0.059  -0.010  -0.002   0.001  -9.825
 -0.025  -0.006   0.059  -9.430  -0.014  -0.024  -0.006   0.057
 -0.059  -0.017  -0.010  -0.014  -9.436  -0.057  -0.017  -0.010
 -9.793  -0.028  -0.002  -0.024  -0.057 -10.044  -0.027  -0.002
 -0.028  -9.716   0.001  -0.006  -0.017  -0.027  -9.970   0.001
 -0.002   0.001  -9.825   0.057  -0.010  -0.002   0.001 -10.075
 -0.024  -0.006   0.057  -9.739  -0.014  -0.023  -0.006   0.056
 -0.057  -0.017  -0.010  -0.014  -9.745  -0.055  -0.016  -0.009
 -0.000   0.002   0.002   0.003  -0.001  -0.000   0.002   0.002
 -0.001   0.003   0.003   0.006  -0.002  -0.001   0.003   0.003
  0.011  -0.007  -0.002  -0.000  -0.005   0.010  -0.006  -0.002
 -0.000   0.005  -0.007   0.010  -0.000  -0.000   0.004  -0.006
  0.004  -0.000  -0.006  -0.007   0.010   0.004  -0.000  -0.006
  0.012  -0.008  -0.003  -0.000  -0.006   0.010  -0.007  -0.002
 -0.000   0.005  -0.007   0.011  -0.000  -0.000   0.005  -0.006
  0.004  -0.000  -0.007  -0.008   0.011   0.003  -0.000  -0.006
 total augmentation occupancy for first ion, spin component:            1
  3.513   0.209  -0.015   0.262   0.464  -1.459  -0.122   0.045  -0.139  -0.138  -0.011   0.035   0.181   0.043   0.059  -0.004
  0.209   2.816   0.016   0.124   0.212  -0.121  -1.336  -0.023  -0.059  -0.023  -0.167  -0.012  -0.102   0.068   0.033   0.000
 -0.015   0.016   3.859  -0.504   0.034   0.047  -0.024  -1.717   0.140   0.005  -0.182   0.002  -0.055  -0.193  -0.109   0.002
  0.262   0.124  -0.504   3.088   0.097  -0.137  -0.058   0.141  -1.434  -0.093  -0.246  -0.036   0.037   0.174  -0.043  -0.004
  0.464   0.212   0.034   0.097   3.087  -0.139  -0.024   0.004  -0.095  -1.326   0.036   0.031  -0.088   0.033   0.158   0.002
 -1.459  -0.121   0.047  -0.137  -0.139   1.247   0.080  -0.066   0.067  -0.048  -0.007  -0.024  -0.227  -0.027  -0.050   0.021
 -0.122  -1.336  -0.024  -0.058  -0.024   0.080   1.468   0.024   0.012  -0.096   0.177  -0.005   0.152  -0.091  -0.021  -0.012
  0.045  -0.023  -1.717   0.141   0.004  -0.066   0.024   1.461   0.068  -0.024   0.184  -0.016   0.057   0.172   0.139  -0.005
 -0.139  -0.059   0.140  -1.434  -0.095   0.067   0.012   0.068   1.457   0.102   0.271   0.005  -0.023  -0.204   0.103   0.003
 -0.138  -0.023   0.005  -0.093  -1.326  -0.048  -0.096  -0.024   0.102   1.285  -0.054  -0.017   0.131  -0.027  -0.202  -0.011
 -0.011  -0.167  -0.182  -0.246   0.036  -0.007   0.177   0.184   0.271  -0.054   1.990  -0.206  -0.093   0.139  -0.218   0.016
  0.035  -0.012   0.002  -0.036   0.031  -0.024  -0.005  -0.016   0.005  -0.017  -0.206   0.029   0.016  -0.024   0.038  -0.002
  0.181  -0.102  -0.055   0.037  -0.088  -0.227   0.152   0.057  -0.023   0.131  -0.093   0.016   0.216   0.027  -0.007  -0.019
  0.043   0.068  -0.193   0.174   0.033  -0.027  -0.091   0.172  -0.204  -0.027   0.139  -0.024   0.027   0.248   0.045  -0.002
  0.059   0.033  -0.109  -0.043   0.158  -0.050  -0.021   0.139   0.103  -0.202  -0.218   0.038  -0.007   0.045   0.190  -0.001
 -0.004   0.000   0.002  -0.004   0.002   0.021  -0.012  -0.005   0.003  -0.011   0.016  -0.002  -0.019  -0.002  -0.001   0.002
 -0.004  -0.000   0.009  -0.003  -0.003   0.003   0.008  -0.019   0.019   0.003  -0.024   0.003  -0.002  -0.023  -0.002   0.000
 -0.001  -0.004   0.001  -0.006  -0.002   0.006   0.003  -0.011  -0.007   0.018   0.037  -0.005  -0.001  -0.002  -0.020   0.000
 total augmentation occupancy for first ion, spin component:            2
  0.899  -0.174  -0.031  -0.176  -0.606  -0.453   0.073   0.012   0.076   0.304   0.023   0.009   0.047  -0.013  -0.020   0.006
 -0.174   1.863   0.023  -0.108  -0.257   0.071  -0.945  -0.011   0.068   0.130  -0.035  -0.020  -0.056   0.026  -0.014  -0.005
 -0.031   0.023   0.731   0.630  -0.071   0.010  -0.010  -0.383  -0.310   0.027  -0.027  -0.017  -0.004   0.026  -0.035  -0.001
 -0.176  -0.108   0.630   1.530  -0.005   0.073   0.067  -0.312  -0.758  -0.018  -0.065  -0.034  -0.014   0.029  -0.062  -0.001
 -0.606  -0.257  -0.071  -0.005   1.407   0.305   0.132   0.029  -0.016  -0.705   0.028   0.012  -0.051  -0.003   0.041  -0.004
 -0.453   0.071   0.010   0.073   0.305   0.152  -0.026  -0.002  -0.024  -0.141  -0.012  -0.004  -0.016   0.004   0.012  -0.004
  0.073  -0.945  -0.010   0.067   0.132  -0.026   0.376   0.003  -0.039  -0.056   0.017   0.013   0.021  -0.010   0.005   0.002
  0.012  -0.011  -0.383  -0.312   0.029  -0.002   0.003   0.126   0.136  -0.009   0.013   0.012   0.001  -0.013   0.014   0.001
  0.076   0.068  -0.310  -0.758  -0.016  -0.024  -0.039   0.136   0.278   0.019   0.032   0.022   0.005  -0.009   0.022  -0.000
  0.304   0.130   0.027  -0.018  -0.705  -0.141  -0.056  -0.009   0.019   0.265  -0.014  -0.007   0.021  -0.000  -0.013   0.002
  0.023  -0.035  -0.027  -0.065   0.028  -0.012   0.017   0.013   0.032  -0.014  -0.144   0.056   0.011  -0.016   0.026  -0.001
  0.009  -0.020  -0.017  -0.034   0.012  -0.004   0.013   0.012   0.022  -0.007   0.056  -0.008  -0.002   0.002  -0.004   0.000
  0.047  -0.056  -0.004  -0.014  -0.051  -0.016   0.021   0.001   0.005   0.021   0.011  -0.002   0.003  -0.004  -0.004   0.002
 -0.013   0.026   0.026   0.029  -0.003   0.004  -0.010  -0.013  -0.009  -0.000  -0.016   0.002  -0.004  -0.010  -0.004   0.000
 -0.020  -0.014  -0.035  -0.062   0.041   0.012   0.005   0.014   0.022  -0.013   0.026  -0.004  -0.004  -0.004  -0.002   0.000
  0.006  -0.005  -0.001  -0.001  -0.004  -0.004   0.002   0.001  -0.000   0.002  -0.001   0.000   0.002   0.000   0.000  -0.000
 -0.000   0.003  -0.002   0.006  -0.000  -0.000  -0.002   0.002  -0.004  -0.000   0.002  -0.001   0.000   0.003   0.001  -0.000
  0.001  -0.001  -0.004  -0.006   0.006  -0.001   0.000   0.002   0.002  -0.003  -0.002   0.001   0.000   0.001   0.002  -0.000


------------------------ aborting loop because EDIFF is reached ----------------------------------------


    CHARGE:  cpu time    0.6099: real time    0.6126
    FORLOC:  cpu time    0.0802: real time    0.0802
    FORNL :  cpu time    2.6410: real time    2.6426
    FORCOR:  cpu time    2.3277: real time    2.3321
    FORHAR:  cpu time    0.3136: real time    0.3138
    MIXING:  cpu time    0.0515: real time    0.0538
    OFIELD:  cpu time    0.0000: real time    0.0000

 VOLUME and BASIS-vectors are now :
 -----------------------------------------------------------------------------
  energy-cutoff  :      400.00
  volume of cell :    11596.36
      direct lattice vectors                 reciprocal lattice vectors
    22.089981303  0.000000000  0.000000000     0.045269391  0.000000000  0.000000000
     0.000000000 21.687234848  0.000000000     0.000000000  0.046110074  0.000000000
     0.000000000  0.000000000 24.205956978     0.000000000  0.000000000  0.041312145

  length of vectors
    22.089981303 21.687234848 24.205956978     0.045269391  0.046110074  0.041312145


 FORCES acting on ions
    electron-ion (+dipol)            ewald-force                    non-local-force                 convergence-correction
 -----------------------------------------------------------------------------------------------
   -.734E+03 -.313E+03 0.467E+03   0.732E+03 0.312E+03 -.466E+03   0.196E+01 0.834E+00 -.124E+01   0.123E+00 0.976E-01 -.732E-01
   0.581E+02 -.111E+03 -.105E+04   -.572E+02 0.110E+03 0.104E+04   -.934E+00 0.151E+00 0.475E+01   0.502E-01 0.123E+00 0.641E-01
   -.241E+03 0.917E+03 -.234E+03   0.241E+03 -.915E+03 0.233E+03   -.245E+00 -.177E+01 0.802E+00   0.269E-01 0.953E-01 -.523E-01
   0.874E+03 0.375E+03 -.557E+03   -.868E+03 -.372E+03 0.553E+03   -.643E+01 -.276E+01 0.408E+01   -.244E-01 0.350E-01 0.976E-02
   0.789E+03 0.472E+03 0.507E+03   -.785E+03 -.470E+03 -.505E+03   -.397E+01 -.225E+01 -.164E+01   -.212E-01 -.248E-02 -.112E+00
   0.619E+03 -.755E+03 -.714E+01   -.617E+03 0.754E+03 0.670E+01   -.166E+01 0.955E+00 0.416E+00   0.100E+00 -.506E-02 0.204E-02
   -.338E+03 -.902E+03 -.291E+03   0.336E+03 0.895E+03 0.290E+03   0.219E+01 0.747E+01 0.146E+01   -.595E-03 0.367E-02 0.178E-01
   -.891E+03 0.173E+03 -.438E+03   0.884E+03 -.171E+03 0.435E+03   0.710E+01 -.212E+01 0.277E+01   0.235E-01 0.486E-01 0.355E-01
   -.344E+03 0.610E+03 0.727E+03   0.341E+03 -.605E+03 -.722E+03   0.342E+01 -.505E+01 -.504E+01   -.620E-02 0.183E-01 -.642E-01
   0.209E+03 -.466E+03 0.871E+03   -.207E+03 0.462E+03 -.865E+03   -.149E+01 0.452E+01 -.631E+01   -.580E-02 -.104E-01 -.255E-01
 -----------------------------------------------------------------------------------------------
   -.214E+00 -.395E+00 0.171E+00   0.000E+00 -.114E-12 0.114E-12   -.505E-01 -.223E-01 0.411E-01   0.266E+00 0.404E+00 -.198E+00
 
 
 POSITION                                       TOTAL-FORCE (eV/Angst)
 -----------------------------------------------------------------------------------
     12.12680     11.61788     12.23030         0.006545      0.002833     -0.007840
     10.92138     11.37734     15.01833         0.006117      0.001505      0.005217
     11.21384      9.80331     13.34721         0.012329      0.019280     -0.005079
      9.03768     10.29580     14.18852        -0.021246     -0.010000      0.012528
      9.45014     10.20023     11.90348         0.001135      0.001977     -0.005495
     10.01445     12.13867     13.03426         0.020925     -0.013102     -0.018814
     12.02594     13.34621     13.99553         0.002666     -0.004255      0.003299
     13.26139     10.94541     14.32054        -0.017872      0.005043      0.002299
     11.61848      9.63089     10.84910        -0.010505      0.015936     -0.000399
     10.38621     12.03752     10.52524        -0.000094     -0.019217      0.014284
 -----------------------------------------------------------------------------------
    total drift:                                0.001780     -0.013897      0.014312


--------------------------------------------------------------------------------------------------------



  FREE ENERGIE OF THE ION-ELECTRON SYSTEM (eV)
  ---------------------------------------------------
  free  energy   TOTEN  =       -38.06939700 eV

  energy  without entropy=      -38.05913396  energy(sigma->0) =      -38.06597599
 
 d Force = 0.1194334E-03[-0.485E-06, 0.239E-03]  d Energy = 0.1723574E-04 0.102E-03
 d Force = 0.5492962E+01[ 0.549E+01, 0.550E+01]  d Ewald  = 0.5492965E+01-0.278E-05


--------------------------------------------------------------------------------------------------------


    POTLOK:  cpu time    2.3898: real time    2.3924


--------------------------------------------------------------------------------------------------------




--------------------------------------------------------------------------------------------------------


  
 reached required accuracy - stopping structural energy minimisation
     LOOP+:  cpu time   64.3213: real time   64.4230
    4ORBIT:  cpu time    0.0000: real time    0.0000

 total amount of memory used by VASP MPI-rank0   151052. kBytes
=======================================================================

   base      :      30000. kBytes
   nonl-proj :       5898. kBytes
   fftplans  :      28190. kBytes
   grid      :      73011. kBytes
   one-center:         31. kBytes
   wavefun   :      13922. kBytes
 
  
  
 General timing and accounting informations for this job:
 ========================================================
  
                  Total CPU time used (sec):      529.050
                            User time (sec):      523.338
                          System time (sec):        5.712
                         Elapsed time (sec):      533.306
  
                   Maximum memory used (kb):      313876.
                   Average memory used (kb):           0.
  
                          Minor page faults:      1481081
                          Major page faults:        16732
                 Voluntary context switches:         3949
