unknown system                          
            1
    22.089981    0.000000    0.000000
     0.000000   21.687235    0.000000
     0.000000    0.000000   24.205957
   Ni   Pd
     6     4
Direct configuration=     1
   0.54878436  0.53562268  0.50533523
   0.49446532  0.52453480  0.62047338
   0.50771340  0.45199067  0.55142297
   0.40919868  0.47476624  0.58613857
   0.42780040  0.47038473  0.49170113
   0.45328215  0.55984599  0.53837615
   0.54443063  0.61533646  0.57813361
   0.60025898  0.50473844  0.59152557
   0.52598945  0.44411123  0.44824750
   0.47025899  0.55501979  0.43495371
Direct configuration=     2
   0.54886367  0.53565583  0.50530352
   0.49443965  0.52456636  0.62045910
   0.50768401  0.45200768  0.55141402
   0.40916986  0.47475527  0.58614683
   0.42780117  0.47036309  0.49172514
   0.45330988  0.55979083  0.53841701
   0.54442071  0.61536095  0.57815532
   0.60029106  0.50471970  0.59156202
   0.52597772  0.44409852  0.44822729
   0.47022463  0.55503280  0.43489758
Direct configuration=     3
   0.54897291  0.53570148  0.50525983
   0.49440429  0.52460982  0.62043943
   0.50764354  0.45203112  0.55140169
   0.40913017  0.47474016  0.58615820
   0.42780224  0.47033328  0.49175821
   0.45334807  0.55971485  0.53847330
   0.54440704  0.61539468  0.57818523
   0.60033523  0.50469388  0.59161222
   0.52596156  0.44408102  0.44819945
   0.47017730  0.55505073  0.43482028
