  13  13   0   0
  0.1036759E+04  0.2484532E-08  0.2303023E-08  0.2355474E-08  0.5000000E-15
   1.0000000000000000E-004
  CAR 
 unknown system                          
      2.34980940    -12.67940823  301     -3.83940030      1.00000000
    -12.679  0.0000E+00  0.0000E+00  0.0000E+00  0.0000E+00
    -12.629  0.0000E+00  0.0000E+00  0.0000E+00  0.0000E+00
    -12.579  0.0000E+00  0.0000E+00  0.0000E+00  0.0000E+00
    -12.529  0.0000E+00  0.0000E+00  0.0000E+00  0.0000E+00
    -12.479  0.0000E+00  0.0000E+00  0.0000E+00  0.0000E+00
    -12.429  0.0000E+00  0.0000E+00  0.0000E+00  0.0000E+00
    -12.379  0.0000E+00  0.0000E+00  0.0000E+00  0.0000E+00
    -12.329 -0.1356E-30  0.0000E+00 -0.6791E-32  0.0000E+00
    -12.279 -0.7550E-29 -0.4077E-29 -0.3850E-30 -0.2042E-30
    -12.229 -0.3763E-27 -0.2037E-27 -0.1924E-28 -0.1041E-28
    -12.178 -0.1652E-25 -0.9127E-26 -0.8469E-27 -0.4677E-27
    -12.128 -0.6388E-24 -0.3601E-24 -0.3285E-25 -0.1851E-25
    -12.078 -0.2175E-22 -0.1251E-22 -0.1123E-23 -0.6454E-24
    -12.028 -0.6522E-21 -0.3829E-21 -0.3379E-22 -0.1983E-22
    -11.978 -0.1721E-19 -0.1031E-19 -0.8962E-21 -0.5365E-21
    -11.928 -0.3999E-18 -0.2445E-18 -0.2093E-19 -0.1279E-19
    -11.878 -0.8175E-17 -0.5101E-17 -0.4305E-18 -0.2683E-18
    -11.828 -0.1426E-15 -0.9031E-16 -0.7574E-17 -0.4793E-17
    -11.778 -0.2249E-14 -0.1463E-14 -0.1203E-15 -0.7808E-16
    -11.728 -0.3118E-13 -0.2070E-13 -0.1682E-14 -0.1115E-14
    -11.677 -0.3796E-12 -0.2573E-12 -0.2070E-13 -0.1400E-13
    -11.627 -0.4057E-11 -0.2807E-11 -0.2240E-12 -0.1546E-12
    -11.577 -0.3804E-10 -0.2688E-10 -0.2130E-11 -0.1501E-11
    -11.527 -0.3127E-09 -0.2256E-09 -0.1779E-10 -0.1280E-10
    -11.477 -0.2250E-08 -0.1658E-08 -0.1305E-09 -0.9588E-10
    -11.427 -0.1416E-07 -0.1066E-07 -0.8398E-09 -0.6300E-09
    -11.377 -0.7776E-07 -0.5985E-07 -0.4736E-08 -0.3628E-08
    -11.327 -0.3720E-06 -0.2927E-06 -0.2337E-07 -0.1829E-07
    -11.277 -0.1545E-05 -0.1244E-05 -0.1008E-06 -0.8060E-07
    -11.227 -0.5547E-05 -0.4572E-05 -0.3787E-06 -0.3096E-06
    -11.176 -0.1711E-04 -0.1445E-04 -0.1236E-05 -0.1034E-05
    -11.126 -0.4486E-04 -0.3892E-04 -0.3483E-05 -0.2984E-05
    -11.076 -0.9824E-04 -0.8787E-04 -0.8405E-05 -0.7386E-05
    -11.026 -0.1734E-03 -0.1612E-03 -0.1709E-04 -0.1546E-04
    -10.976 -0.2253E-03 -0.2224E-03 -0.2838E-04 -0.2660E-04
    -10.926 -0.1410E-03 -0.1701E-03 -0.3545E-04 -0.3512E-04
    -10.876  0.2443E-03  0.1563E-03 -0.2321E-04 -0.2729E-04
    -10.826  0.1051E-02  0.8943E-03  0.2946E-04  0.1751E-04
    -10.776  0.2211E-02  0.2014E-02  0.1402E-03  0.1184E-03
    -10.726  0.3392E-02  0.3222E-02  0.3102E-03  0.2798E-03
    -10.676  0.4118E-02  0.4051E-02  0.5165E-03  0.4828E-03
    -10.625  0.4052E-02  0.4120E-02  0.7195E-03  0.6891E-03
    -10.575  0.3226E-02  0.3396E-02  0.8811E-03  0.8593E-03
    -10.525  0.2018E-02  0.2216E-02  0.9822E-03  0.9703E-03
    -10.475  0.8978E-03  0.1055E-02  0.1027E-02  0.1023E-02
    -10.425  0.1582E-03  0.2464E-03  0.1035E-02  0.1035E-02
    -10.375 -0.1696E-03 -0.1403E-03  0.1027E-02  0.1028E-02
    -10.325 -0.2225E-03 -0.2254E-03  0.1015E-02  0.1017E-02
    -10.275 -0.1614E-03 -0.1737E-03  0.1007E-02  0.1008E-02
    -10.225 -0.8810E-04 -0.9849E-04  0.1003E-02  0.1003E-02
    -10.175 -0.3905E-04 -0.4500E-04  0.1001E-02  0.1001E-02
    -10.124 -0.1451E-04 -0.1717E-04  0.1000E-02  0.1000E-02
    -10.074 -0.4592E-05 -0.5571E-05  0.1000E-02  0.1000E-02
    -10.024 -0.1250E-05 -0.1553E-05  0.1000E-02  0.1000E-02
     -9.974 -0.2947E-06 -0.3744E-06  0.1000E-02  0.1000E-02
     -9.924 -0.6306E-07 -0.8074E-07  0.1000E-02  0.1000E-02
     -9.874 -0.2841E-07 -0.2997E-07  0.1000E-02  0.1000E-02
     -9.824 -0.9713E-07 -0.8790E-07  0.1000E-02  0.1000E-02
     -9.774 -0.4489E-06 -0.4066E-06  0.1000E-02  0.1000E-02
     -9.724 -0.1830E-05 -0.1673E-05  0.9999E-03  0.9999E-03
     -9.674 -0.6449E-05 -0.5955E-05  0.9996E-03  0.9996E-03
     -9.623 -0.1950E-04 -0.1820E-04  0.9986E-03  0.9987E-03
     -9.573 -0.5004E-04 -0.4724E-04  0.9961E-03  0.9963E-03
     -9.523 -0.1070E-03 -0.1023E-03  0.9907E-03  0.9912E-03
     -9.473 -0.1831E-03 -0.1780E-03  0.9815E-03  0.9823E-03
     -9.423 -0.2261E-03 -0.2262E-03  0.9702E-03  0.9709E-03
     -9.373 -0.1153E-03 -0.1306E-03  0.9644E-03  0.9644E-03
     -9.323  0.3124E-03  0.2718E-03  0.9801E-03  0.9780E-03
     -9.273  0.1155E-02  0.1089E-02  0.1038E-02  0.1033E-02
     -9.223  0.2303E-02  0.2227E-02  0.1153E-02  0.1144E-02
     -9.173  0.3387E-02  0.3333E-02  0.1323E-02  0.1311E-02
     -9.122  0.3952E-02  0.3943E-02  0.1521E-02  0.1509E-02
     -9.072  0.3772E-02  0.3801E-02  0.1710E-02  0.1699E-02
     -9.022  0.3071E-02  0.3096E-02  0.1864E-02  0.1854E-02
     -8.972  0.2419E-02  0.2386E-02  0.1985E-02  0.1974E-02
     -8.922  0.2328E-02  0.2214E-02  0.2102E-02  0.2085E-02
     -8.872  0.2868E-02  0.2712E-02  0.2245E-02  0.2220E-02
     -8.822  0.3617E-02  0.3500E-02  0.2427E-02  0.2396E-02
     -8.772  0.3976E-02  0.3967E-02  0.2626E-02  0.2595E-02
     -8.722  0.3602E-02  0.3714E-02  0.2806E-02  0.2781E-02
     -8.672  0.2608E-02  0.2791E-02  0.2937E-02  0.2920E-02
     -8.622  0.1418E-02  0.1597E-02  0.3008E-02  0.3000E-02
     -8.571  0.4368E-03  0.5635E-03  0.3030E-02  0.3029E-02
     -8.521 -0.1626E-03 -0.9727E-04  0.3022E-02  0.3024E-02
     -8.471 -0.4293E-03 -0.4087E-03  0.3000E-02  0.3003E-02
     -8.421 -0.4713E-03 -0.4802E-03  0.2976E-02  0.2979E-02
     -8.371 -0.3102E-03 -0.3500E-03  0.2961E-02  0.2962E-02
     -8.321  0.1407E-03  0.5743E-04  0.2968E-02  0.2965E-02
     -8.271  0.9751E-03  0.8442E-03  0.3017E-02  0.3007E-02
     -8.221  0.2169E-02  0.2010E-02  0.3125E-02  0.3108E-02
     -8.171  0.3553E-02  0.3406E-02  0.3303E-02  0.3278E-02
     -8.121  0.4913E-02  0.4817E-02  0.3550E-02  0.3520E-02
     -8.070  0.6112E-02  0.6078E-02  0.3856E-02  0.3824E-02
     -8.020  0.7083E-02  0.7098E-02  0.4211E-02  0.4180E-02
     -7.970  0.7764E-02  0.7795E-02  0.4600E-02  0.4570E-02
     -7.920  0.8128E-02  0.8129E-02  0.5007E-02  0.4977E-02
     -7.870  0.8348E-02  0.8269E-02  0.5425E-02  0.5392E-02
     -7.820  0.8826E-02  0.8636E-02  0.5867E-02  0.5824E-02
     -7.770  0.9847E-02  0.9582E-02  0.6360E-02  0.6304E-02
     -7.720  0.1114E-01  0.1091E-01  0.6918E-02  0.6851E-02
     -7.670  0.1185E-01  0.1179E-01  0.7512E-02  0.7441E-02
     -7.620  0.1118E-01  0.1135E-01  0.8072E-02  0.8010E-02
     -7.569  0.9154E-02  0.9467E-02  0.8531E-02  0.8484E-02
     -7.519  0.6732E-02  0.7033E-02  0.8868E-02  0.8836E-02
     -7.469  0.5195E-02  0.5341E-02  0.9128E-02  0.9104E-02
     -7.419  0.5236E-02  0.5186E-02  0.9391E-02  0.9364E-02
     -7.369  0.6569E-02  0.6390E-02  0.9720E-02  0.9684E-02
     -7.319  0.8310E-02  0.8105E-02  0.1014E-01  0.1009E-01
     -7.269  0.9770E-02  0.9600E-02  0.1063E-01  0.1057E-01
     -7.219  0.1101E-01  0.1086E-01  0.1118E-01  0.1111E-01
     -7.169  0.1271E-01  0.1254E-01  0.1181E-01  0.1174E-01
     -7.119  0.1547E-01  0.1524E-01  0.1259E-01  0.1251E-01
     -7.069  0.1907E-01  0.1883E-01  0.1354E-01  0.1345E-01
     -7.018  0.2244E-01  0.2229E-01  0.1467E-01  0.1457E-01
     -6.968  0.2433E-01  0.2432E-01  0.1589E-01  0.1578E-01
     -6.918  0.2411E-01  0.2425E-01  0.1710E-01  0.1700E-01
     -6.868  0.2218E-01  0.2239E-01  0.1821E-01  0.1812E-01
     -6.818  0.1959E-01  0.1979E-01  0.1919E-01  0.1911E-01
     -6.768  0.1745E-01  0.1756E-01  0.2006E-01  0.1999E-01
     -6.718  0.1635E-01  0.1635E-01  0.2088E-01  0.2081E-01
     -6.668  0.1619E-01  0.1611E-01  0.2169E-01  0.2162E-01
     -6.618  0.1635E-01  0.1626E-01  0.2251E-01  0.2243E-01
     -6.568  0.1618E-01  0.1614E-01  0.2332E-01  0.2324E-01
     -6.517  0.1550E-01  0.1553E-01  0.2410E-01  0.2402E-01
     -6.467  0.1481E-01  0.1484E-01  0.2484E-01  0.2476E-01
     -6.417  0.1484E-01  0.1480E-01  0.2558E-01  0.2550E-01
     -6.367  0.1597E-01  0.1584E-01  0.2638E-01  0.2630E-01
     -6.317  0.1792E-01  0.1774E-01  0.2728E-01  0.2719E-01
     -6.267  0.1998E-01  0.1983E-01  0.2828E-01  0.2818E-01
     -6.217  0.2163E-01  0.2156E-01  0.2937E-01  0.2926E-01
     -6.167  0.2290E-01  0.2286E-01  0.3051E-01  0.3040E-01
     -6.117  0.2425E-01  0.2418E-01  0.3173E-01  0.3162E-01
     -6.067  0.2615E-01  0.2601E-01  0.3304E-01  0.3292E-01
     -6.016  0.2858E-01  0.2839E-01  0.3447E-01  0.3434E-01
     -5.966  0.3107E-01  0.3089E-01  0.3603E-01  0.3589E-01
     -5.916  0.3309E-01  0.3297E-01  0.3768E-01  0.3754E-01
     -5.866  0.3469E-01  0.3459E-01  0.3942E-01  0.3927E-01
     -5.816  0.3651E-01  0.3634E-01  0.4125E-01  0.4109E-01
     -5.766  0.3909E-01  0.3880E-01  0.4321E-01  0.4304E-01
     -5.716  0.4200E-01  0.4169E-01  0.4531E-01  0.4513E-01
     -5.666  0.4392E-01  0.4375E-01  0.4751E-01  0.4732E-01
     -5.616  0.4364E-01  0.4371E-01  0.4970E-01  0.4951E-01
     -5.566  0.4139E-01  0.4161E-01  0.5177E-01  0.5159E-01
     -5.515  0.3893E-01  0.3909E-01  0.5372E-01  0.5355E-01
     -5.465  0.3831E-01  0.3824E-01  0.5564E-01  0.5547E-01
     -5.415  0.4011E-01  0.3984E-01  0.5765E-01  0.5746E-01
     -5.365  0.4279E-01  0.4254E-01  0.5980E-01  0.5959E-01
     -5.315  0.4370E-01  0.4374E-01  0.6199E-01  0.6178E-01
     -5.265  0.4085E-01  0.4131E-01  0.6403E-01  0.6385E-01
     -5.215  0.3418E-01  0.3495E-01  0.6574E-01  0.6560E-01
     -5.165  0.2534E-01  0.2620E-01  0.6701E-01  0.6692E-01
     -5.115  0.1668E-01  0.1740E-01  0.6785E-01  0.6779E-01
     -5.065  0.9915E-02  0.1039E-01  0.6835E-01  0.6831E-01
     -5.015  0.5586E-02  0.5844E-02  0.6863E-01  0.6860E-01
     -4.964  0.3243E-02  0.3360E-02  0.6879E-01  0.6877E-01
     -4.914  0.2162E-02  0.2181E-02  0.6890E-01  0.6888E-01
     -4.864  0.1922E-02  0.1834E-02  0.6899E-01  0.6897E-01
     -4.814  0.2472E-02  0.2264E-02  0.6912E-01  0.6908E-01
     -4.764  0.3773E-02  0.3495E-02  0.6931E-01  0.6926E-01
     -4.714  0.5451E-02  0.5222E-02  0.6958E-01  0.6952E-01
     -4.664  0.6819E-02  0.6758E-02  0.6992E-01  0.6986E-01
     -4.614  0.7227E-02  0.7375E-02  0.7028E-01  0.7023E-01
     -4.564  0.6443E-02  0.6739E-02  0.7061E-01  0.7057E-01
     -4.514  0.4767E-02  0.5096E-02  0.7084E-01  0.7082E-01
     -4.463  0.2819E-02  0.3085E-02  0.7099E-01  0.7098E-01
     -4.413  0.1186E-02  0.1347E-02  0.7104E-01  0.7104E-01
     -4.363  0.1549E-03  0.2286E-03  0.7105E-01  0.7106E-01
     -4.313 -0.3098E-03 -0.2792E-03  0.7104E-01  0.7104E-01
     -4.263 -0.4266E-03 -0.3966E-03  0.7102E-01  0.7102E-01
     -4.213 -0.4117E-03 -0.3658E-03  0.7100E-01  0.7100E-01
     -4.163 -0.3599E-03 -0.3296E-03  0.7098E-01  0.7099E-01
     -4.113 -0.2131E-03 -0.2934E-03  0.7097E-01  0.7097E-01
     -4.063  0.1899E-03 -0.1400E-03  0.7098E-01  0.7097E-01
     -4.013  0.9859E-03  0.3081E-03  0.7103E-01  0.7098E-01
     -3.962  0.2123E-02  0.1162E-02  0.7113E-01  0.7104E-01
     -3.912  0.3277E-02  0.2316E-02  0.7130E-01  0.7115E-01
     -3.862  0.3965E-02  0.3401E-02  0.7149E-01  0.7133E-01
     -3.812  0.3845E-02  0.3945E-02  0.7169E-01  0.7152E-01
     -3.762  0.2985E-02  0.3699E-02  0.7184E-01  0.7171E-01
     -3.712  0.1885E-02  0.2866E-02  0.7193E-01  0.7185E-01
     -3.662  0.1206E-02  0.2035E-02  0.7199E-01  0.7195E-01
     -3.612  0.1410E-02  0.1825E-02  0.7206E-01  0.7205E-01
     -3.562  0.2532E-02  0.2510E-02  0.7219E-01  0.7217E-01
     -3.512  0.4186E-02  0.3875E-02  0.7240E-01  0.7236E-01
     -3.461  0.5768E-02  0.5375E-02  0.7269E-01  0.7263E-01
     -3.411  0.6714E-02  0.6420E-02  0.7302E-01  0.7296E-01
     -3.361  0.6706E-02  0.6627E-02  0.7336E-01  0.7329E-01
     -3.311  0.5762E-02  0.5925E-02  0.7365E-01  0.7358E-01
     -3.261  0.4200E-02  0.4540E-02  0.7386E-01  0.7381E-01
     -3.211  0.2496E-02  0.2889E-02  0.7398E-01  0.7396E-01
     -3.161  0.1080E-02  0.1406E-02  0.7404E-01  0.7403E-01
     -3.111  0.1746E-03  0.3748E-03  0.7405E-01  0.7405E-01
     -3.061 -0.2425E-03 -0.1603E-03  0.7403E-01  0.7404E-01
     -3.011 -0.3505E-03 -0.3387E-03  0.7402E-01  0.7402E-01
     -2.961 -0.3504E-03 -0.3606E-03  0.7400E-01  0.7400E-01
     -2.910 -0.3688E-03 -0.3727E-03  0.7398E-01  0.7398E-01
     -2.860 -0.4154E-03 -0.4086E-03  0.7396E-01  0.7396E-01
     -2.810 -0.3739E-03 -0.3735E-03  0.7394E-01  0.7395E-01
     -2.760 -0.2420E-04 -0.6569E-04  0.7394E-01  0.7394E-01
     -2.710  0.8791E-03  0.7493E-03  0.7398E-01  0.7398E-01
     -2.660  0.2469E-02  0.2213E-02  0.7411E-01  0.7409E-01
     -2.610  0.4628E-02  0.4250E-02  0.7434E-01  0.7430E-01
     -2.560  0.6957E-02  0.6519E-02  0.7469E-01  0.7463E-01
     -2.510  0.8886E-02  0.8497E-02  0.7513E-01  0.7506E-01
     -2.460  0.9918E-02  0.9662E-02  0.7563E-01  0.7554E-01
     -2.409  0.9865E-02  0.9730E-02  0.7612E-01  0.7603E-01
     -2.359  0.8945E-02  0.8826E-02  0.7657E-01  0.7647E-01
     -2.309  0.7636E-02  0.7436E-02  0.7696E-01  0.7684E-01
     -2.259  0.6366E-02  0.6121E-02  0.7727E-01  0.7715E-01
     -2.209  0.5260E-02  0.5155E-02  0.7754E-01  0.7741E-01
     -2.159  0.4174E-02  0.4404E-02  0.7775E-01  0.7763E-01
     -2.109  0.2955E-02  0.3553E-02  0.7789E-01  0.7781E-01
     -2.059  0.1654E-02  0.2445E-02  0.7798E-01  0.7793E-01
     -2.009  0.5122E-03  0.1222E-02  0.7800E-01  0.7799E-01
     -1.959 -0.1895E-03  0.1960E-03  0.7799E-01  0.7800E-01
     -1.908 -0.2566E-03 -0.3438E-03  0.7798E-01  0.7798E-01
     -1.858  0.3877E-03 -0.2097E-03  0.7800E-01  0.7797E-01
     -1.808  0.1688E-02  0.6819E-03  0.7809E-01  0.7801E-01
     -1.758  0.3427E-02  0.2280E-02  0.7826E-01  0.7812E-01
     -1.708  0.5241E-02  0.4329E-02  0.7852E-01  0.7834E-01
     -1.658  0.6743E-02  0.6382E-02  0.7886E-01  0.7866E-01
     -1.608  0.7675E-02  0.7950E-02  0.7924E-01  0.7905E-01
     -1.558  0.7972E-02  0.8707E-02  0.7964E-01  0.7949E-01
     -1.508  0.7682E-02  0.8576E-02  0.8003E-01  0.7992E-01
     -1.458  0.6863E-02  0.7670E-02  0.8037E-01  0.8030E-01
     -1.407  0.5569E-02  0.6183E-02  0.8065E-01  0.8061E-01
     -1.357  0.3935E-02  0.4363E-02  0.8085E-01  0.8083E-01
     -1.307  0.2246E-02  0.2519E-02  0.8096E-01  0.8096E-01
     -1.257  0.8825E-03  0.9972E-03  0.8100E-01  0.8101E-01
     -1.207  0.1816E-03  0.8852E-04  0.8101E-01  0.8101E-01
     -1.157  0.2946E-03 -0.5405E-04  0.8103E-01  0.8101E-01
     -1.107  0.1109E-02  0.5334E-03  0.8108E-01  0.8104E-01
     -1.057  0.2267E-02  0.1611E-02  0.8120E-01  0.8112E-01
     -1.007  0.3320E-02  0.2795E-02  0.8136E-01  0.8126E-01
     -0.957  0.4006E-02  0.3741E-02  0.8156E-01  0.8145E-01
     -0.907  0.4447E-02  0.4386E-02  0.8179E-01  0.8167E-01
     -0.856  0.5039E-02  0.4999E-02  0.8204E-01  0.8192E-01
     -0.806  0.6019E-02  0.5890E-02  0.8234E-01  0.8221E-01
     -0.756  0.7107E-02  0.6988E-02  0.8270E-01  0.8256E-01
     -0.706  0.7606E-02  0.7721E-02  0.8308E-01  0.8295E-01
     -0.656  0.6974E-02  0.7436E-02  0.8343E-01  0.8332E-01
     -0.606  0.5387E-02  0.6018E-02  0.8370E-01  0.8362E-01
     -0.556  0.3775E-02  0.4164E-02  0.8388E-01  0.8383E-01
     -0.506  0.3276E-02  0.3039E-02  0.8405E-01  0.8398E-01
     -0.456  0.4479E-02  0.3536E-02  0.8427E-01  0.8416E-01
     -0.406  0.6980E-02  0.5666E-02  0.8462E-01  0.8444E-01
     -0.355  0.9561E-02  0.8479E-02  0.8510E-01  0.8487E-01
     -0.305  0.1088E-01  0.1056E-01  0.8565E-01  0.8540E-01
     -0.255  0.1024E-01  0.1086E-01  0.8616E-01  0.8594E-01
     -0.205  0.8029E-02  0.9226E-02  0.8656E-01  0.8640E-01
     -0.155  0.5418E-02  0.6544E-02  0.8683E-01  0.8673E-01
     -0.105  0.3713E-02  0.4154E-02  0.8702E-01  0.8694E-01
     -0.055  0.3642E-02  0.3123E-02  0.8720E-01  0.8710E-01
     -0.005  0.5081E-02  0.3716E-02  0.8746E-01  0.8728E-01
      0.045  0.7342E-02  0.5385E-02  0.8782E-01  0.8755E-01
      0.095  0.9720E-02  0.7274E-02  0.8831E-01  0.8792E-01
      0.146  0.1181E-01  0.8873E-02  0.8890E-01  0.8836E-01
      0.196  0.1338E-01  0.1024E-01  0.8957E-01  0.8887E-01
      0.246  0.1403E-01  0.1159E-01  0.9028E-01  0.8945E-01
      0.296  0.1324E-01  0.1273E-01  0.9094E-01  0.9009E-01
      0.346  0.1085E-01  0.1291E-01  0.9148E-01  0.9074E-01
      0.396  0.7381E-02  0.1148E-01  0.9185E-01  0.9131E-01
      0.446  0.3863E-02  0.8550E-02  0.9205E-01  0.9174E-01
      0.496  0.1214E-02  0.5030E-02  0.9211E-01  0.9199E-01
      0.546 -0.2233E-03  0.2024E-02  0.9210E-01  0.9210E-01
      0.596 -0.6741E-03  0.1611E-03  0.9206E-01  0.9210E-01
      0.646 -0.5969E-03 -0.5895E-03  0.9203E-01  0.9207E-01
      0.697 -0.3707E-03 -0.6463E-03  0.9201E-01  0.9204E-01
      0.747 -0.1830E-03 -0.4427E-03  0.9201E-01  0.9202E-01
      0.797 -0.7502E-04 -0.2339E-03  0.9200E-01  0.9201E-01
      0.847 -0.2609E-04 -0.1014E-03  0.9200E-01  0.9200E-01
      0.897 -0.7787E-05 -0.3701E-04  0.9200E-01  0.9200E-01
      0.947 -0.2009E-05 -0.1155E-04  0.9200E-01  0.9200E-01
      0.997 -0.4501E-06 -0.3109E-05  0.9200E-01  0.9200E-01
      1.047 -0.8787E-07 -0.7251E-06  0.9200E-01  0.9200E-01
      1.097 -0.1499E-07 -0.1472E-06  0.9200E-01  0.9200E-01
      1.147 -0.2237E-08 -0.2606E-07  0.9200E-01  0.9200E-01
      1.198 -0.2926E-09 -0.4035E-08  0.9200E-01  0.9200E-01
      1.248 -0.3357E-10 -0.5471E-09  0.9200E-01  0.9200E-01
      1.298 -0.3383E-11 -0.6503E-10  0.9200E-01  0.9200E-01
      1.348 -0.2995E-12 -0.6784E-11  0.9200E-01  0.9200E-01
      1.398 -0.2331E-13 -0.6214E-12  0.9200E-01  0.9200E-01
      1.448 -0.1596E-14 -0.5002E-13  0.9200E-01  0.9200E-01
      1.498 -0.9751E-16 -0.3541E-14  0.9200E-01  0.9200E-01
      1.548 -0.4432E-17 -0.2216E-15  0.9200E-01  0.9200E-01
      1.598  0.0000E+00 -0.1330E-16  0.9200E-01  0.9200E-01
      1.648  0.0000E+00  0.0000E+00  0.9200E-01  0.9200E-01
      1.699  0.0000E+00  0.0000E+00  0.9200E-01  0.9200E-01
      1.749  0.0000E+00  0.0000E+00  0.9200E-01  0.9200E-01
      1.799  0.0000E+00  0.0000E+00  0.9200E-01  0.9200E-01
      1.849  0.0000E+00  0.0000E+00  0.9200E-01  0.9200E-01
      1.899  0.0000E+00  0.0000E+00  0.9200E-01  0.9200E-01
      1.949  0.0000E+00  0.0000E+00  0.9200E-01  0.9200E-01
      1.999  0.0000E+00  0.0000E+00  0.9200E-01  0.9200E-01
      2.049  0.0000E+00  0.0000E+00  0.9200E-01  0.9200E-01
      2.099  0.0000E+00  0.0000E+00  0.9200E-01  0.9200E-01
      2.149  0.0000E+00  0.0000E+00  0.9200E-01  0.9200E-01
      2.200  0.0000E+00  0.0000E+00  0.9200E-01  0.9200E-01
      2.250  0.0000E+00  0.0000E+00  0.9200E-01  0.9200E-01
      2.300  0.0000E+00  0.0000E+00  0.9200E-01  0.9200E-01
      2.350  0.0000E+00  0.0000E+00  0.9200E-01  0.9200E-01
