   13   13 1000    2
  0.1036759E+04  0.2484532E-08  0.2303023E-08  0.2355474E-08  0.5000000E-15
   1.0000000000000000E-004
  CAR 
 unknown system                          
    143      1     92
 
  0.1262379E-14  0.1262379E-14  0.1262379E-14  0.1000000E+01
    1      -10.679408    -10.671436   1.000000   1.000000
    2       -9.132706     -9.129350   1.000000   1.000000
    3       -8.798411     -8.790727   1.000000   1.000000
    4       -8.138565     -8.132405   1.000000   1.000000
    5       -7.966987     -7.963355   1.000000   1.000000
    6       -7.891807     -7.888557   1.000000   1.000000
    7       -7.695622     -7.687651   1.000000   1.000000
    8       -7.680813     -7.676020   1.000000   1.000000
    9       -7.629817     -7.624717   1.000000   1.000000
   10       -7.370621     -7.365986   1.000000   1.000000
   11       -7.290589     -7.285867   1.000000   1.000000
   12       -7.222641     -7.216463   1.000000   1.000000
   13       -7.066251     -7.060252   1.000000   1.000000
   14       -7.053487     -7.048435   1.000000   1.000000
   15       -7.027209     -7.023816   1.000000   1.000000
   16       -7.005878     -7.002358   1.000000   1.000000
   17       -6.941484     -6.937496   1.000000   1.000000
   18       -6.909678     -6.905391   1.000000   1.000000
   19       -6.886380     -6.882733   1.000000   1.000000
   20       -6.776350     -6.771186   1.000000   1.000000
   21       -6.766594     -6.762509   1.000000   1.000000
   22       -6.649355     -6.645471   1.000000   1.000000
   23       -6.613562     -6.610367   1.000000   1.000000
   24       -6.563537     -6.556336   1.000000   1.000000
   25       -6.528139     -6.522248   1.000000   1.000000
   26       -6.408261     -6.403923   1.000000   1.000000
   27       -6.319319     -6.316071   1.000000   1.000000
   28       -6.313659     -6.306432   1.000000   1.000000
   29       -6.283292     -6.278227   1.000000   1.000000
   30       -6.190679     -6.185135   1.000000   1.000000
   31       -6.183436     -6.178507   1.000000   1.000000
   32       -6.133942     -6.130601   1.000000   1.000000
   33       -6.096380     -6.092517   1.000000   1.000000
   34       -6.028605     -6.024407   1.000000   1.000000
   35       -5.996356     -5.991096   1.000000   1.000000
   36       -5.975120     -5.971208   1.000000   1.000000
   37       -5.961803     -5.956583   1.000000   1.000000
   38       -5.927546     -5.923807   1.000000   1.000000
   39       -5.895141     -5.889755   1.000000   1.000000
   40       -5.871961     -5.868512   1.000000   1.000000
   41       -5.858247     -5.854973   1.000000   1.000000
   42       -5.826623     -5.822103   1.000000   1.000000
   43       -5.746713     -5.742545   1.000000   1.000000
   44       -5.738764     -5.734551   1.000000   1.000000
   45       -5.711345     -5.707234   1.000000   1.000000
   46       -5.701216     -5.698625   1.000000   1.000000
   47       -5.680503     -5.674380   1.000000   1.000000
   48       -5.670248     -5.666614   1.000000   1.000000
   49       -5.653191     -5.647956   1.000000   1.000000
   50       -5.629905     -5.625072   1.000000   1.000000
   51       -5.608500     -5.602937   1.000000   1.000000
   52       -5.598118     -5.593630   1.000000   1.000000
   53       -5.581783     -5.576998   1.000000   1.000000
   54       -5.533287     -5.529174   1.000000   1.000000
   55       -5.508578     -5.504605   1.000000   1.000000
   56       -5.423052     -5.419650   1.000000   1.000000
   57       -5.401476     -5.396827   1.000000   1.000000
   58       -5.397208     -5.391921   1.000000   1.000000
   59       -5.373000     -5.367877   1.000000   1.000000
   60       -5.363538     -5.358812   1.000000   1.000000
   61       -5.357640     -5.354169   1.000000   1.000000
   62       -5.325082     -5.319600   1.000000   1.000000
   63       -5.322738     -5.316490   1.000000   1.000000
   64       -5.284725     -5.280973   1.000000   1.000000
   65       -5.260341     -5.257082   1.000000   1.000000
   66       -5.254883     -5.247782   1.000000   1.000000
   67       -5.192468     -5.189139   1.000000   1.000000
   68       -5.182761     -5.178601   1.000000   1.000000
   69       -4.993840     -4.987220   1.000000   1.000000
   70       -4.702797     -4.690768   1.000000   1.000000
   71       -4.597744     -4.593753   1.000001   1.000001
   72       -3.863727     -3.822564   0.602097   0.429040
   73       -3.482776     -3.475674  -0.015089  -0.013726
   74       -3.345986     -3.332164  -0.001340  -0.000984
   75       -2.572440     -2.567888  -0.000000  -0.000000
   76       -2.466363     -2.453224  -0.000000  -0.000000
   77       -2.392485     -2.384066  -0.000000  -0.000000
   78       -2.203369     -2.172946  -0.000000  -0.000000
   79       -1.705745     -1.667011  -0.000000  -0.000000
   80       -1.579289     -1.565453  -0.000000  -0.000000
   81       -1.436846     -1.430172  -0.000000  -0.000000
   82       -0.986401     -0.958769  -0.000000  -0.000000
   83       -0.745121     -0.724389  -0.000000  -0.000000
   84       -0.686442     -0.672464  -0.000000  -0.000000
   85       -0.360016     -0.331465  -0.000000  -0.000000
   86       -0.341812     -0.324664  -0.000000  -0.000000
   87       -0.252977     -0.229736  -0.000000  -0.000000
   88        0.040863      0.074876  -0.000000  -0.000000
   89        0.080627      0.119417  -0.000000  -0.000000
   90        0.244101      0.311935  -0.000000  -0.000000
   91        0.265598      0.334996  -0.000000  -0.000000
   92        0.287198      0.349809  -0.000000  -0.000000
