       N       E                     dE             d eps       ncg     rms          rms(c)
DAV:   1     0.976025097989E+03    0.97603E+03   -0.24714E+04   368   0.737E+02
DAV:   2     0.251719053300E+03   -0.72431E+03   -0.65029E+03   416   0.208E+02
DAV:   3     0.114061745989E+02   -0.24031E+03   -0.22614E+03   456   0.138E+02
DAV:   4    -0.351253187248E+02   -0.46531E+02   -0.43473E+02   448   0.113E+02
DAV:   5    -0.373803342092E+02   -0.22550E+01   -0.22259E+01   488   0.239E+01    0.286E+01
DAV:   6    -0.149056509798E+02    0.22475E+02   -0.13597E+02   404   0.891E+01    0.120E+01
DAV:   7    -0.110487817945E+02    0.38569E+01   -0.30444E+01   432   0.627E+01    0.497E+00
DAV:   8    -0.111267565852E+02   -0.77975E-01   -0.62396E+00   456   0.530E+01    0.461E+00
DAV:   9    -0.128662806063E+02   -0.17395E+01   -0.12405E+00   464   0.297E+01    0.276E+00
DAV:  10    -0.153027812988E+02   -0.24365E+01   -0.15269E+00   556   0.132E+01    0.232E+00
DAV:  11    -0.173347780712E+02   -0.20320E+01   -0.74040E-01   472   0.120E+01    0.206E+00
DAV:  12    -0.194025423159E+02   -0.20678E+01   -0.73840E-01   508   0.566E+00    0.178E+00
DAV:  13    -0.233409343681E+02   -0.39384E+01   -0.20460E+00   468   0.633E+00    0.129E+00
DAV:  14    -0.264920890346E+02   -0.31512E+01   -0.12981E+00   464   0.867E+00    0.118E+00
DAV:  15    -0.281845127378E+02   -0.16924E+01   -0.43998E-01   496   0.614E+00    0.918E-01
DAV:  16    -0.304510152030E+02   -0.22665E+01   -0.62275E-01   488   0.442E+00    0.623E-01
DAV:  17    -0.314762014211E+02   -0.10252E+01   -0.24977E-01   500   0.346E+00    0.548E-01
DAV:  18    -0.318881924958E+02   -0.41199E+00   -0.56097E-02   532   0.277E+00    0.348E-01
DAV:  19    -0.322444133386E+02   -0.35622E+00   -0.29576E-02   512   0.227E+00    0.238E-01
DAV:  20    -0.326781322248E+02   -0.43372E+00   -0.17530E-02   528   0.118E+00    0.188E-01
DAV:  21    -0.328981298063E+02   -0.22000E+00   -0.89800E-03   448   0.142E+00    0.131E-01
DAV:  22    -0.329989424682E+02   -0.10081E+00   -0.36024E-03   536   0.798E-01    0.969E-02
DAV:  23    -0.330892613414E+02   -0.90319E-01   -0.23172E-03   524   0.403E-01    0.749E-02
DAV:  24    -0.331177787766E+02   -0.28517E-01   -0.10298E-03   444   0.449E-01    0.425E-02
DAV:  25    -0.331348269881E+02   -0.17048E-01   -0.67098E-04   388   0.337E-01    0.414E-02
DAV:  26    -0.331465291852E+02   -0.11702E-01   -0.38057E-04   304   0.230E-01    0.283E-02
DAV:  27    -0.331547021669E+02   -0.81730E-02   -0.36860E-04   328   0.153E-01    0.241E-02
DAV:  28    -0.331595384593E+02   -0.48363E-02   -0.20236E-04   288   0.134E-01    0.231E-02
DAV:  29    -0.331626269698E+02   -0.30885E-02   -0.16314E-04   280   0.125E-01    0.165E-02
DAV:  30    -0.331659992662E+02   -0.33723E-02   -0.22233E-04   292   0.105E-01    0.136E-02
DAV:  31    -0.331685483239E+02   -0.25491E-02   -0.16803E-04   280   0.104E-01    0.154E-02
DAV:  32    -0.331697729573E+02   -0.12246E-02   -0.10759E-04   272   0.922E-02    0.119E-02
DAV:  33    -0.331706645035E+02   -0.89155E-03   -0.91372E-05   276   0.593E-02    0.108E-02
DAV:  34    -0.331713299105E+02   -0.66541E-03   -0.69609E-05   272   0.621E-02    0.109E-02
DAV:  35    -0.331716266038E+02   -0.29669E-03   -0.52816E-05   264   0.522E-02    0.878E-03
DAV:  36    -0.331718164406E+02   -0.18984E-03   -0.47742E-05   264   0.413E-02    0.869E-03
DAV:  37    -0.331719155247E+02   -0.99084E-04   -0.59654E-05   280   0.467E-02
   1 F= -.33171916E+02 E0= -.33165708E+02  d E =-.331719E+02  mag=     0.2169
       N       E                     dE             d eps       ncg     rms          rms(c)
DAV:   1    -0.331966512978E+02   -0.24835E-01   -0.20753E+01   412   0.156E+01    0.443E-01
DAV:   2    -0.332350816225E+02   -0.38430E-01   -0.43236E-01   552   0.710E+00    0.477E-01
DAV:   3    -0.332327915330E+02    0.22901E-02   -0.29411E-02   432   0.430E+00    0.217E-01
DAV:   4    -0.332329733788E+02   -0.18185E-03   -0.69623E-03   432   0.936E-01    0.189E-01
DAV:   5    -0.332327462620E+02    0.22712E-03   -0.12990E-03   416   0.530E-01    0.129E-01
DAV:   6    -0.332326632399E+02    0.83022E-04   -0.15425E-03   524   0.963E-01    0.711E-02
DAV:   7    -0.332325812225E+02    0.82017E-04   -0.53281E-04   416   0.605E-01
   2 F= -.33232581E+02 E0= -.33225473E+02  d E =-.606657E-01  mag=     0.2147
       N       E                     dE             d eps       ncg     rms          rms(c)
DAV:   1    -0.332100080630E+02    0.22655E-01   -0.31910E+01   412   0.194E+01    0.580E-01
DAV:   2    -0.332709711911E+02   -0.60963E-01   -0.69347E-01   548   0.930E+00    0.609E-01
DAV:   3    -0.332664671848E+02    0.45040E-02   -0.44581E-02   416   0.561E+00    0.265E-01
DAV:   4    -0.332667922883E+02   -0.32510E-03   -0.11823E-02   432   0.115E+00    0.231E-01
DAV:   5    -0.332663991407E+02    0.39315E-03   -0.20685E-03   408   0.709E-01    0.158E-01
DAV:   6    -0.332662144187E+02    0.18472E-03   -0.23744E-03   540   0.118E+00    0.824E-02
DAV:   7    -0.332661719207E+02    0.42498E-04   -0.80011E-04   456   0.715E-01
   3 F= -.33266172E+02 E0= -.33257189E+02  d E =-.942564E-01  mag=     0.2088
       N       E                     dE             d eps       ncg     rms          rms(c)
DAV:   1    -0.332708321809E+02   -0.46178E-02   -0.72568E+00   396   0.924E+00    0.196E-01
DAV:   2    -0.332832417873E+02   -0.12410E-01   -0.13145E-01   572   0.302E+00    0.230E-01
DAV:   3    -0.332829848226E+02    0.25696E-03   -0.76644E-03   432   0.150E+00    0.142E-01
DAV:   4    -0.332829429707E+02    0.41852E-04   -0.12869E-03   400   0.492E-01    0.119E-01
DAV:   5    -0.332828058451E+02    0.13713E-03   -0.21965E-04   280   0.229E-01    0.848E-02
DAV:   6    -0.332827932890E+02    0.12556E-04   -0.99146E-04   528   0.352E-01
   4 F= -.33282793E+02 E0= -.33272623E+02  d E =-.166214E-01  mag=     0.2030
       N       E                     dE             d eps       ncg     rms          rms(c)
DAV:   1    -0.332086376724E+02    0.74168E-01   -0.50813E+01   400   0.250E+01    0.570E-01
DAV:   2    -0.333073567000E+02   -0.98719E-01   -0.10511E+00   568   0.940E+00    0.676E-01
DAV:   3    -0.333030990812E+02    0.42576E-02   -0.53376E-02   432   0.488E+00    0.387E-01
DAV:   4    -0.333029863755E+02    0.11271E-03   -0.12401E-02   432   0.126E+00    0.337E-01
DAV:   5    -0.333017170533E+02    0.12693E-02   -0.24305E-03   424   0.814E-01    0.232E-01
DAV:   6    -0.333009604893E+02    0.75656E-03   -0.48613E-03   680   0.106E+00    0.961E-02
DAV:   7    -0.333008818853E+02    0.78604E-04   -0.82202E-04   432   0.762E-01
   5 F= -.33300882E+02 E0= -.33287559E+02  d E =-.347100E-01  mag=     0.1962
       N       E                     dE             d eps       ncg     rms          rms(c)
DAV:   1    -0.332839245166E+02    0.17036E-01   -0.15796E+01   392   0.137E+01    0.326E-01
DAV:   2    -0.333135551261E+02   -0.29631E-01   -0.31781E-01   548   0.437E+00    0.376E-01
DAV:   3    -0.333121916904E+02    0.13634E-02   -0.14760E-02   428   0.245E+00    0.219E-01
DAV:   4    -0.333120769169E+02    0.11477E-03   -0.33955E-03   440   0.830E-01    0.181E-01
DAV:   5    -0.333117308921E+02    0.34602E-03   -0.86019E-04   380   0.417E-01    0.119E-01
DAV:   6    -0.333116641833E+02    0.66709E-04   -0.13748E-03   552   0.689E-01    0.590E-02
DAV:   7    -0.333116433398E+02    0.20843E-04   -0.29528E-04   328   0.540E-01
   6 F= -.33311643E+02 E0= -.33297919E+02  d E =-.107615E-01  mag=     0.1897
       N       E                     dE             d eps       ncg     rms          rms(c)
DAV:   1    -0.333074712024E+02    0.41930E-02   -0.30764E+00   392   0.600E+00    0.123E-01
DAV:   2    -0.333127034159E+02   -0.52322E-02   -0.54473E-02   552   0.168E+00    0.130E-01
DAV:   3    -0.333125964145E+02    0.10700E-03   -0.20989E-03   416   0.902E-01    0.837E-02
DAV:   4    -0.333125787865E+02    0.17628E-04   -0.39419E-04   328   0.332E-01
   7 F= -.33312579E+02 E0= -.33298737E+02  d E =-.116969E-01  mag=     0.1869
       N       E                     dE             d eps       ncg     rms          rms(c)
DAV:   1    -0.333094341962E+02    0.31622E-02   -0.37277E+00   388   0.662E+00    0.129E-01
DAV:   2    -0.333156298337E+02   -0.61956E-02   -0.64567E-02   568   0.181E+00    0.170E-01
DAV:   3    -0.333153673453E+02    0.26249E-03   -0.23239E-03   416   0.908E-01    0.111E-01
DAV:   4    -0.333153162915E+02    0.51054E-04   -0.45782E-04   344   0.325E-01
   8 F= -.33315316E+02 E0= -.33301420E+02  d E =-.273750E-02  mag=     0.1845
       N       E                     dE             d eps       ncg     rms          rms(c)
DAV:   1    -0.333089134911E+02    0.64539E-02   -0.48335E+00   408   0.753E+00    0.142E-01
DAV:   2    -0.333168145723E+02   -0.79011E-02   -0.82335E-02   572   0.187E+00    0.186E-01
DAV:   3    -0.333164701071E+02    0.34447E-03   -0.16819E-03   416   0.603E-01    0.137E-01
DAV:   4    -0.333163541353E+02    0.11597E-03   -0.42854E-04   368   0.392E-01    0.115E-01
DAV:   5    -0.333161902649E+02    0.16387E-03   -0.44497E-04   388   0.482E-01    0.552E-02
DAV:   6    -0.333162567562E+02   -0.66491E-04   -0.62679E-04   408   0.300E-01
   9 F= -.33316257E+02 E0= -.33302330E+02  d E =-.367797E-02  mag=     0.1805
       N       E                     dE             d eps       ncg     rms          rms(c)
DAV:   1    -0.333143251526E+02    0.18651E-02   -0.16034E+00   396   0.432E+00    0.888E-02
DAV:   2    -0.333170939071E+02   -0.27688E-02   -0.28713E-02   576   0.133E+00    0.106E-01
DAV:   3    -0.333170220312E+02    0.71876E-04   -0.14046E-03   416   0.854E-01    0.557E-02
DAV:   4    -0.333170297463E+02   -0.77151E-05   -0.19863E-04   224   0.216E-01
  10 F= -.33317030E+02 E0= -.33303381E+02  d E =-.772990E-03  mag=     0.1784
       N       E                     dE             d eps       ncg     rms          rms(c)
DAV:   1    -0.333166817560E+02    0.34028E-03   -0.19399E-01   392   0.151E+00    0.347E-02
DAV:   2    -0.333170534028E+02   -0.37165E-03   -0.35918E-03   576   0.499E-01    0.352E-02
DAV:   3    -0.333170526978E+02    0.70495E-06   -0.18240E-04   208   0.351E-01
  11 F= -.33317053E+02 E0= -.33303306E+02  d E =-.795942E-03  mag=     0.1771
