 vasp.6.1.2 22Jul20 (build Jan 14 2022 17:24:41) gamma-only                      
 executed on             LinuxPGI date 2022.01.31  15:26:08
 running on    8 total cores
 distrk:  each k-point on    8 cores,    1 groups
 distr:  one band on NCORE=   8 cores,    1 groups


--------------------------------------------------------------------------------------------------------


 INCAR:
 POTCAR:    PAW_PBE Cu 22Jun2005                  
 -----------------------------------------------------------------------------
|                                                                             |
|           W    W    AA    RRRRR   N    N  II  N    N   GGGG   !!!           |
|           W    W   A  A   R    R  NN   N  II  NN   N  G    G  !!!           |
|           W    W  A    A  R    R  N N  N  II  N N  N  G       !!!           |
|           W WW W  AAAAAA  RRRRR   N  N N  II  N  N N  G  GGG   !            |
|           WW  WW  A    A  R   R   N   NN  II  N   NN  G    G                |
|           W    W  A    A  R    R  N    N  II  N    N   GGGG   !!!           |
|                                                                             |
|     You use a magnetic or noncollinear calculation, but did not specify     |
|     the initial magnetic moment with the MAGMOM tag. Note that a            |
|     default of 1 will be used for all atoms. This ferromagnetic setup       |
|     may break the symmetry of the crystal, in particular it may rule        |
|     out finding an antiferromagnetic solution. Thence, we recommend         |
|     setting the initial magnetic moment manually or verifying carefully     |
|     that this magnetic setup is desired.                                    |
|                                                                             |
 -----------------------------------------------------------------------------

 -----------------------------------------------------------------------------
|                                                                             |
|           W    W    AA    RRRRR   N    N  II  N    N   GGGG   !!!           |
|           W    W   A  A   R    R  NN   N  II  NN   N  G    G  !!!           |
|           W    W  A    A  R    R  N N  N  II  N N  N  G       !!!           |
|           W WW W  AAAAAA  RRRRR   N  N N  II  N  N N  G  GGG   !            |
|           WW  WW  A    A  R   R   N   NN  II  N   NN  G    G                |
|           W    W  A    A  R    R  N    N  II  N    N   GGGG   !!!           |
|                                                                             |
|     For optimal performance we recommend to set                             |
|       NCORE = 4 - approx SQRT(number of cores).                             |
|     NCORE specifies how many cores store one orbital (NPAR=cpu/NCORE).      |
|     This setting can greatly improve the performance of VASP for DFT.       |
|     The default, NCORE=1 might be grossly inefficient on modern             |
|     multi-core architectures or massively parallel machines. Do your        |
|     own testing!!!!                                                         |
|     Unfortunately you need to use the default for GW and RPA                |
|     calculations (for HF NCORE is supported but not extensively tested      |
|     yet).                                                                   |
|                                                                             |
 -----------------------------------------------------------------------------

 POTCAR:    PAW_PBE Cu 22Jun2005                  
   SHA256 =  0e71e558f37a4e8407882b4609ceaae59938afaad9ced71dfe8490308a0ab630 Cu/POTCAR             
   COPYR  = (c) Copyright 22Jun2005 Georg Kresse                                                    
   COPYR  = This file is part of the software VASP. Any use, copying, and all other rights are regul
   COPYR  = If you do not have a valid VASP license, you may not use, copy or distribute this file. 
   VRHFIN =Cu: d10 p1                                                                               
   LEXCH  = PE                                                                                      
   EATOM  =  1390.9808 eV,  102.2342 Ry                                                             
                                                                                                    
   TITEL  = PAW_PBE Cu 22Jun2005                                                                    
   LULTRA =        F    use ultrasoft PP ?                                                          
   IUNSCR =        1    unscreen: 0-lin 1-nonlin 2-no                                               
   RPACOR =    2.000    partial core radius                                                         
   POMASS =   63.546; ZVAL   =   11.000    mass and valenz                                          
   RCORE  =    2.300    outmost cutoff radius                                                       
   RWIGS  =    2.200; RWIGS  =    1.164    wigner-seitz radius (au A)                               
   ENMAX  =  295.446; ENMIN  =  221.585 eV                                                          
   ICORE  =        3    local potential                                                             
   LCOR   =        T    correct aug charges                                                         
   LPAW   =        T    paw PP                                                                      
   EAUG   =  586.980                                                                                
   DEXC   =    0.000                                                                                
   RMAX   =    2.344    core radius for proj-oper                                                   
   RAUG   =    1.300    factor for augmentation sphere                                              
   RDEP   =    2.302    radius for radial grids                                                     
   RDEPT  =    1.771    core radius for aug-charge                                                  
                                                                                                    
   Atomic configuration                                                                             
    9 entries                                                                                       
     n  l   j            E        occ.                                                              
     1  0  0.50     -8850.2468   2.0000                                                             
     2  0  0.50     -1062.3498   2.0000                                                             
     2  1  1.50      -916.8226   6.0000                                                             
     3  0  0.50      -114.6929   2.0000                                                             
     3  1  1.50       -72.1325   6.0000                                                             
     3  2  2.50        -5.0394  10.0000                                                             
     4  0  0.50        -4.6097   1.0000                                                             
     4  1  0.50        -4.0817   0.0000                                                             
     4  3  2.50        -1.3606   0.0000                                                             
   Description                                                                                      
     l       E           TYP  RCUT    TYP  RCUT                                                     
     2     -5.0393973     23  2.200                                                                 
     2     10.8846608     23  2.200                                                                 
     0     -4.6097109     23  2.200                                                                 
     0      8.2520465     23  2.200                                                                 
     1     -2.7211652     23  2.200                                                                 
     1     21.7055443     23  2.200                                                                 
     3      2.7211652     23  2.300                                                                 
  local pseudopotential read in
  partial core-charges read in
  partial kinetic energy density read in
  atomic valenz-charges read in
  non local Contribution for L=            2  read in
    real space projection operators read in
  non local Contribution for L=            2  read in
    real space projection operators read in
  non local Contribution for L=            0  read in
    real space projection operators read in
  non local Contribution for L=            0  read in
    real space projection operators read in
  non local Contribution for L=            1  read in
    real space projection operators read in
  non local Contribution for L=            1  read in
    real space projection operators read in
    PAW grid and wavefunctions read in
 
   number of l-projection  operators is LMAX  =            6
   number of lm-projection operators is LMMAX =           18
 
  PAW_PBE Cu 22Jun2005                  :
 energy of atom  1       EATOM=-1390.9808
 kinetic energy error for atom=    0.0232 (will be added to EATOM!!)
 
 
 POSCAR: Cu
  positions in cartesian coordinates
  No initial velocities read in
 exchange correlation table for  LEXCH =        8
   RHO(1)=    0.500       N(1)  =     2000
   RHO(2)=  100.500       N(2)  =     4000
 


--------------------------------------------------------------------------------------------------------


 ion  position               nearest neighbor table
   1  0.501  0.438  0.530-   8 2.45  13 2.45   4 2.47   6 2.49  11 2.50  10 2.51   9 2.58   7 2.65

   2  0.432  0.599  0.532-   4 2.46   3 2.46   9 2.48   5 2.51   7 2.54
   3  0.377  0.534  0.591-   7 2.45   4 2.45   2 2.46  11 2.47
   4  0.476  0.524  0.589-   3 2.45   2 2.46   1 2.47   6 2.49   5 2.49  11 2.50   9 2.59   7 2.66

   5  0.530  0.608  0.555-   9 2.45   6 2.48   4 2.49  12 2.50   2 2.51
   6  0.571  0.510  0.559-  12 2.42   5 2.48  10 2.49   1 2.49   4 2.49   9 2.59
   7  0.413  0.495  0.501-   9 2.44   8 2.45   3 2.45  11 2.46  13 2.53   2 2.54   1 2.65   4 2.66

   8  0.421  0.390  0.494-   1 2.45   7 2.45  13 2.46  11 2.46
   9  0.500  0.539  0.483-  12 2.43   7 2.44  10 2.44   5 2.45   2 2.48  13 2.48   1 2.58   4 2.59
                             6 2.59
  10  0.572  0.470  0.461-   9 2.44   6 2.49  12 2.49   1 2.51  13 2.52
  11  0.417  0.436  0.588-   8 2.46   7 2.46   3 2.47   1 2.50   4 2.50
  12  0.593  0.574  0.480-   6 2.42   9 2.43  10 2.49   5 2.50
  13  0.476  0.450  0.430-   1 2.45   8 2.46   9 2.48  10 2.52   7 2.53
 

IMPORTANT INFORMATION: All symmetrisations will be switched off!
NOSYMM: (Re-)initialisation of all symmetry stuff for point group C_1.


----------------------------------------------------------------------------------------

                                     Primitive cell                                     

  volume of cell :   13477.8637

  direct lattice vectors                    reciprocal lattice vectors
    24.845315864  0.000000000  0.000000000     0.040249035  0.000000000  0.000000000
     0.000000000 23.030230793  0.000000000     0.000000000  0.043421189  0.000000000
     0.000000000  0.000000000 23.554736350     0.000000000  0.000000000  0.042454307

  length of vectors
    24.845315864 23.030230793 23.554736350     0.040249035  0.043421189  0.042454307

  position of ions in fractional coordinates (direct lattice)
     0.501177757  0.438395300  0.530482241
     0.431697935  0.599192439  0.531511653
     0.377414480  0.533950105  0.591061029
     0.475677337  0.523614018  0.588536559
     0.529778019  0.608287117  0.555238651
     0.571039371  0.510222330  0.558543070
     0.412807296  0.495304636  0.501457000
     0.420978533  0.389510615  0.493946060
     0.500294171  0.539327823  0.482700794
     0.571520048  0.469804847  0.460668456
     0.416629628  0.435518225  0.588086176
     0.592707170  0.573820254  0.479757148
     0.476228394  0.449571358  0.430297119

  ion indices of the primitive-cell ions
   primitive index   ion index
                 1           1
                 2           2
                 3           3
                 4           4
                 5           5
                 6           6
                 7           7
                 8           8
                 9           9
                10          10
                11          11
                12          12
                13          13

----------------------------------------------------------------------------------------

 
 
 KPOINTS: KPOINTS created by Atomic Simulation Env

Automatic generation of k-mesh.
Space group operators:
 irot       det(A)        alpha          n_x          n_y          n_z        tau_x        tau_y        tau_z
    1     1.000000     0.000001     1.000000     0.000000     0.000000     0.000000     0.000000     0.000000
 
 Subroutine IBZKPT returns following result:
 ===========================================
 
 Found      1 irreducible k-points:
 
 Following reciprocal coordinates:
            Coordinates               Weight
  0.000000  0.000000  0.000000      1.000000
 
 Following cartesian coordinates:
            Coordinates               Weight
  0.000000  0.000000  0.000000      1.000000
 


--------------------------------------------------------------------------------------------------------




 Dimension of arrays:
   k-points           NKPTS =      1   k-points in BZ     NKDIM =      1   number of bands    NBANDS=     92
   number of dos      NEDOS =    301   number of ions     NIONS =     13
   non local maximal  LDIM  =      6   non local SUM 2l+1 LMDIM =     18
   total plane-waves  NPLWV = ******
   max r-space proj   IRMAX =      1   max aug-charges    IRDMAX=   4098
   dimension x,y,z NGX =   126 NGY =  120 NGZ =  120
   dimension x,y,z NGXF=   252 NGYF=  240 NGZF=  240
   support grid    NGXF=   252 NGYF=  240 NGZF=  240
   ions per type =              13
   NGX,Y,Z   is equivalent  to a cutoff of   8.43,  8.66,  8.47 a.u.
   NGXF,Y,Z  is equivalent  to a cutoff of  16.86, 17.32, 16.94 a.u.

 SYSTEM =  unknown system                          
 POSCAR =  Cu                                      

 Startparameter for this run:
   NWRITE =      2    write-flag & timer
   PREC   = normal    normal or accurate (medium, high low for compatibility)
   ISTART =      0    job   : 0-new  1-cont  2-samecut
   ICHARG =      2    charge: 1-file 2-atom 10-const
   ISPIN  =      2    spin polarized calculation?
   LNONCOLLINEAR =      F non collinear calculations
   LSORBIT =      F    spin-orbit coupling
   INIWAV =      1    electr: 0-lowe 1-rand  2-diag
   LASPH  =      F    aspherical Exc in radial PAW
   METAGGA=      F    non-selfconsistent MetaGGA calc.

 Electronic Relaxation 1
   ENCUT  =  400.0 eV  29.40 Ry    5.42 a.u.  40.52 37.56 38.41*2*pi/ulx,y,z
   ENINI  =  400.0     initial cutoff
   ENAUG  =  587.0 eV  augmentation charge cutoff
   NELM   =     60;   NELMIN=  2; NELMDL=  0     # of ELM steps 
   EDIFF  = 0.1E-03   stopping-criterion for ELM
   LREAL  =      F    real-space projection
   NLSPLINE    = F    spline interpolate recip. space projectors
   LCOMPAT=      F    compatible to vasp.4.4
   GGA_COMPAT  = T    GGA compatible to vasp.4.4-vasp.4.6
   LMAXPAW     = -100 max onsite density
   LMAXMIX     =    2 max onsite mixed and CHGCAR
   VOSKOWN=      0    Vosko Wilk Nusair interpolation
   ROPT   =    0.00000
 Ionic relaxation
   EDIFFG = 0.1E-02   stopping-criterion for IOM
   NSW    =   1000    number of steps for IOM
   NBLOCK =      1;   KBLOCK =   1000    inner block; outer block 
   IBRION =      2    ionic relax: 0-MD 1-quasi-New 2-CG
   NFREE  =      1    steps in history (QN), initial steepest desc. (CG)
   ISIF   =      0    stress and relaxation
   IWAVPR =     11    prediction:  0-non 1-charg 2-wave 3-comb
   ISYM   =      0    0-nonsym 1-usesym 2-fastsym
   LCORR  =      T    Harris-Foulkes like correction to forces

   POTIM  = 0.5000    time-step for ionic-motion
   TEIN   =    0.0    initial temperature
   TEBEG  =    0.0;   TEEND  =   0.0 temperature during run
   SMASS  =  -3.00    Nose mass-parameter (am)
   estimated Nose-frequenzy (Omega)   =  0.10E-29 period in steps = 0.13E+47 mass=  -0.141E-25a.u.
   SCALEE = 1.0000    scale energy and forces
   NPACO  =    256;   APACO  = 16.0  distance and # of slots for P.C.
   PSTRESS=    0.0 pullay stress

  Mass of Ions in am
   POMASS =  63.55
  Ionic Valenz
   ZVAL   =  11.00
  Atomic Wigner-Seitz radii
   RWIGS  =  -1.00
  virtual crystal weights 
   VCA    =   1.00
   NELECT =     143.0000    total number of electrons
   NUPDOWN=      -1.0000    fix difference up-down

 DOS related values:
   EMIN   =  10.00;   EMAX   =-10.00  energy-range for DOS
   EFERMI =   0.00
   ISMEAR =     1;   SIGMA  =   0.20  broadening in eV -4-tet -1-fermi 0-gaus

 Electronic relaxation 2 (details)
   IALGO  =     38    algorithm
   LDIAG  =      T    sub-space diagonalisation (order eigenvalues)
   LSUBROT=      F    optimize rotation matrix (better conditioning)
   TURBO    =      0    0=normal 1=particle mesh
   IRESTART =      0    0=no restart 2=restart with 2 vectors
   NREBOOT  =      0    no. of reboots
   NMIN     =      0    reboot dimension
   EREF     =   0.00    reference energy to select bands
   IMIX   =      4    mixing-type and parameters
     AMIX     =   0.40;   BMIX     =  1.00
     AMIX_MAG =   1.60;   BMIX_MAG =  1.00
     AMIN     =   0.10
     WC   =   100.;   INIMIX=   1;  MIXPRE=   1;  MAXMIX= -45

 Intra band minimization:
   WEIMIN = 0.0010     energy-eigenvalue tresh-hold
   EBREAK =  0.27E-06  absolut break condition
   DEPER  =   0.30     relativ break condition  

   TIME   =   0.40     timestep for ELM

  volume/ion in A,a.u.               =    1036.76      6996.39
  Fermi-wavevector in a.u.,A,eV,Ry     =   0.359733  0.679796  1.760697  0.129408
  Thomas-Fermi vector in A             =   1.278921
 
 Write flags
   LWAVE        =      F    write WAVECAR
   LDOWNSAMPLE  =      F    k-point downsampling of WAVECAR
   LCHARG       =      F    write CHGCAR
   LVTOT        =      F    write LOCPOT, total local potential
   LVHAR        =      F    write LOCPOT, Hartree potential only
   LELF         =      F    write electronic localiz. function (ELF)
   LORBIT       =      0    0 simple, 1 ext, 2 COOP (PROOUT), +10 PAW based schemes


 Dipole corrections
   LMONO  =      F    monopole corrections only (constant potential shift)
   LDIPOL =      F    correct potential (dipole corrections)
   IDIPOL =      0    1-x, 2-y, 3-z, 4-all directions 
   EPSILON=  1.0000000 bulk dielectric constant

 Exchange correlation treatment:
   GGA     =    PE    GGA type
   LEXCH   =     8    internal setting for exchange type
   VOSKOWN=      0    Vosko Wilk Nusair interpolation
   LHFCALC =     F    Hartree Fock is set to
   LHFONE  =     F    Hartree Fock one center treatment
   AEXX    =    0.0000 exact exchange contribution

 Linear response parameters
   LEPSILON=     F    determine dielectric tensor
   LRPA    =     F    only Hartree local field effects (RPA)
   LNABLA  =     F    use nabla operator in PAW spheres
   LVEL    =     F    velocity operator in full k-point grid
   LINTERFAST=   F  fast interpolation
   KINTER  =     0    interpolate to denser k-point grid
   CSHIFT  =0.1000    complex shift for real part using Kramers Kronig
   OMEGAMAX=  -1.0    maximum frequency
   DEG_THRESHOLD= 0.2000000E-02 threshold for treating states as degnerate
   RTIME   =   -0.100 relaxation time in fs
  (WPLASMAI=    0.000 imaginary part of plasma frequency in eV, 0.658/RTIME)
   DFIELD  = 0.0000000 0.0000000 0.0000000 field for delta impulse in time
 
 Orbital magnetization related:
   ORBITALMAG=     F  switch on orbital magnetization
   LCHIMAG   =     F  perturbation theory with respect to B field
   DQ        =  0.001000  dq finite difference perturbation B field
   LLRAUG    =     F  two centre corrections for induced B field



--------------------------------------------------------------------------------------------------------


 conjugate gradient relaxation of ions
 charge density and potential will be updated during run
 spin polarized calculation
 Variant of blocked Davidson
 Davidson routine will perform the subspace rotation
 perform sub-space diagonalisation
    after iterative eigenvector-optimisation
 modified Broyden-mixing scheme, WC =      100.0
 initial mixing is a Kerker type mixing with AMIX =  0.4000 and BMIX =      1.0000
 Hartree-type preconditioning will be used
 using additional bands            20
 reciprocal scheme for non local part
 use partial core corrections
 calculate Harris-corrections to forces 
   (improved forces if not selfconsistent)
 use gradient corrections 
 use of overlap-Matrix (Vanderbilt PP)
 Methfessel and Paxton  Order N= 1 SIGMA  =   0.20


--------------------------------------------------------------------------------------------------------


  energy-cutoff  :      400.00
  volume of cell :    13477.86
      direct lattice vectors                 reciprocal lattice vectors
    24.845315864  0.000000000  0.000000000     0.040249035  0.000000000  0.000000000
     0.000000000 23.030230793  0.000000000     0.000000000  0.043421189  0.000000000
     0.000000000  0.000000000 23.554736350     0.000000000  0.000000000  0.042454307

  length of vectors
    24.845315864 23.030230793 23.554736350     0.040249035  0.043421189  0.042454307


 
 k-points in units of 2pi/SCALE and weight: KPOINTS created by Atomic Simulation Env
   0.00000000  0.00000000  0.00000000       1.000
 
 k-points in reciprocal lattice and weights: KPOINTS created by Atomic Simulation Env
   0.00000000  0.00000000  0.00000000       1.000
 
 position of ions in fractional coordinates (direct lattice) 
   0.50117776  0.43839530  0.53048224
   0.43169794  0.59919244  0.53151165
   0.37741448  0.53395011  0.59106103
   0.47567734  0.52361402  0.58853656
   0.52977802  0.60828712  0.55523865
   0.57103937  0.51022233  0.55854307
   0.41280730  0.49530464  0.50145700
   0.42097853  0.38951061  0.49394606
   0.50029417  0.53932782  0.48270079
   0.57152005  0.46980485  0.46066846
   0.41662963  0.43551823  0.58808618
   0.59270717  0.57382025  0.47975715
   0.47622839  0.44957136  0.43029712
 
 position of ions in cartesian coordinates  (Angst):
  12.45191968 10.09634493 12.49536932
  10.72567156 13.79954016 12.51961686
   9.37698197 12.29699416 13.92228670
  11.81835369 12.05895168 13.86282349
  13.16250223 14.00899269 13.07850003
  14.18765355 11.75053801 13.15633476
  10.25632767 11.40698009 11.81168742
  10.45934462  8.97051935 11.63476921
  12.42996671 12.42084425 11.36988994
  14.19959611 10.81971405 10.85092403
  10.35129472 10.03008524 13.85221482
  14.72599685 13.21521287 11.30055314
  11.83204488 10.35373212 10.13553518
 


--------------------------------------------------------------------------------------------------------


 use parallel FFT for orbitals z direction half grid
 k-point   1 :   0.0000 0.0000 0.0000  plane waves:  122440

 maximum and minimum number of plane-waves per node :     15312    15295

 maximum number of plane-waves:    122440
 maximum index in each direction: 
   IXMAX=   40   IYMAX=   37   IZMAX=   38
   IXMIN=  -40   IYMIN=  -37   IZMIN=    0


 parallel 3D FFT for wavefunctions:
    minimum data exchange during FFTs selected (reduces bandwidth)
 parallel 3D FFT for charge:
    minimum data exchange during FFTs selected (reduces bandwidth)


 total amount of memory used by VASP MPI-rank0   299534. kBytes
=======================================================================

   base      :      30000. kBytes
   nonl-proj :       5383. kBytes
   fftplans  :      66975. kBytes
   grid      :     152064. kBytes
   one-center:         31. kBytes
   wavefun   :      45081. kBytes
 
     INWAV:  cpu time    0.0000: real time    0.0000
 Broyden mixing: mesh for mixing (old mesh)
   NGX = 81   NGY = 75   NGZ = 77
  (NGX  =252   NGY  =240   NGZ  =240)
  gives a total of 467775 points

 initial charge density was supplied:
 charge density of overlapping atoms calculated
 number of electron     143.0000000 magnetization      13.0000000
 keeping initial charge density in first step


--------------------------------------------------------------------------------------------------------


 Maximum index for augmentation-charges           488 (set IRDMAX)


--------------------------------------------------------------------------------------------------------


 First call to EWALD:  gamma=   0.074
 Maximum number of real-space cells 3x 3x 3
 Maximum number of reciprocal cells 3x 3x 3

    FEWALD:  cpu time    0.0014: real time    0.0014


--------------------------------------- Iteration      1(   1)  ---------------------------------------


    POTLOK:  cpu time    5.4359: real time    5.5021
    SETDIJ:  cpu time    0.0398: real time    0.0399
     EDDAV:  cpu time   20.6012: real time   20.6239
       DOS:  cpu time    0.0040: real time    0.0040
    --------------------------------------------
      LOOP:  cpu time   26.0809: real time   26.1699

 eigenvalue-minimisations  :   368
 total energy-change (2. order) : 0.9760251E+03  (-0.2471406E+04)
 number of electron     143.0000000 magnetization      13.0000000
 augmentation part      143.0000000 magnetization      13.0000000

 Free energy of the ion-electron system (eV)
  ---------------------------------------------------
  alpha Z        PSCENC =         9.17018016
  Ewald energy   TEWEN  =     25029.68364838
  -Hartree energ DENC   =    -41490.72825617
  -exchange      EXHF   =         0.00000000
  -V(xc)+E(xc)   XCENC  =       584.58168656
  PAW double counting   =     15965.26744864   -17340.97210982
  entropy T*S    EENTRO =         0.01692566
  eigenvalues    EBANDS =       136.55625199
  atomic energy  EATOM  =     18082.44932260
  Solvation  Ediel_sol  =         0.00000000
  ---------------------------------------------------
  free energy    TOTEN  =       976.02509799 eV

  energy without entropy =      976.00817232  energy(sigma->0) =      976.01945610


--------------------------------------------------------------------------------------------------------




--------------------------------------- Iteration      1(   2)  ---------------------------------------


     EDDAV:  cpu time   22.4334: real time   22.4632
       DOS:  cpu time    0.0036: real time    0.0036
    --------------------------------------------
      LOOP:  cpu time   22.4370: real time   22.4668

 eigenvalue-minimisations  :   416
 total energy-change (2. order) :-0.7243060E+03  (-0.6502947E+03)
 number of electron     143.0000000 magnetization      13.0000000
 augmentation part      143.0000000 magnetization      13.0000000

 Free energy of the ion-electron system (eV)
  ---------------------------------------------------
  alpha Z        PSCENC =         9.17018016
  Ewald energy   TEWEN  =     25029.68364838
  -Hartree energ DENC   =    -41490.72825617
  -exchange      EXHF   =         0.00000000
  -V(xc)+E(xc)   XCENC  =       584.58168656
  PAW double counting   =     15965.26744864   -17340.97210982
  entropy T*S    EENTRO =         0.01137273
  eigenvalues    EBANDS =      -587.74423976
  atomic energy  EATOM  =     18082.44932260
  Solvation  Ediel_sol  =         0.00000000
  ---------------------------------------------------
  free energy    TOTEN  =       251.71905330 eV

  energy without entropy =      251.70768057  energy(sigma->0) =      251.71526239


--------------------------------------------------------------------------------------------------------




--------------------------------------- Iteration      1(   3)  ---------------------------------------


     EDDAV:  cpu time   24.1308: real time   24.1595
       DOS:  cpu time    0.0036: real time    0.0036
    --------------------------------------------
      LOOP:  cpu time   24.1344: real time   24.1631

 eigenvalue-minimisations  :   456
 total energy-change (2. order) :-0.2403129E+03  (-0.2261415E+03)
 number of electron     143.0000000 magnetization      13.0000000
 augmentation part      143.0000000 magnetization      13.0000000

 Free energy of the ion-electron system (eV)
  ---------------------------------------------------
  alpha Z        PSCENC =         9.17018016
  Ewald energy   TEWEN  =     25029.68364838
  -Hartree energ DENC   =    -41490.72825617
  -exchange      EXHF   =         0.00000000
  -V(xc)+E(xc)   XCENC  =       584.58168656
  PAW double counting   =     15965.26744864   -17340.97210982
  entropy T*S    EENTRO =        -0.02647720
  eigenvalues    EBANDS =      -828.01926854
  atomic energy  EATOM  =     18082.44932260
  Solvation  Ediel_sol  =         0.00000000
  ---------------------------------------------------
  free energy    TOTEN  =        11.40617460 eV

  energy without entropy =       11.43265179  energy(sigma->0) =       11.41500033


--------------------------------------------------------------------------------------------------------




--------------------------------------- Iteration      1(   4)  ---------------------------------------


     EDDAV:  cpu time   22.9311: real time   22.9601
       DOS:  cpu time    0.0039: real time    0.0039
    --------------------------------------------
      LOOP:  cpu time   22.9350: real time   22.9640

 eigenvalue-minimisations  :   448
 total energy-change (2. order) :-0.4653149E+02  (-0.4347263E+02)
 number of electron     143.0000000 magnetization      13.0000000
 augmentation part      143.0000000 magnetization      13.0000000

 Free energy of the ion-electron system (eV)
  ---------------------------------------------------
  alpha Z        PSCENC =         9.17018016
  Ewald energy   TEWEN  =     25029.68364838
  -Hartree energ DENC   =    -41490.72825617
  -exchange      EXHF   =         0.00000000
  -V(xc)+E(xc)   XCENC  =       584.58168656
  PAW double counting   =     15965.26744864   -17340.97210982
  entropy T*S    EENTRO =         0.03046433
  eigenvalues    EBANDS =      -874.60770339
  atomic energy  EATOM  =     18082.44932260
  Solvation  Ediel_sol  =         0.00000000
  ---------------------------------------------------
  free energy    TOTEN  =       -35.12531872 eV

  energy without entropy =      -35.15578306  energy(sigma->0) =      -35.13547350


--------------------------------------------------------------------------------------------------------




--------------------------------------- Iteration      1(   5)  ---------------------------------------


     EDDAV:  cpu time   24.4225: real time   24.4495
       DOS:  cpu time    0.0049: real time    0.0049
    CHARGE:  cpu time    1.9415: real time    1.9436
    MIXING:  cpu time    0.0876: real time    0.0877
    --------------------------------------------
      LOOP:  cpu time   26.4565: real time   26.4857

 eigenvalue-minimisations  :   488
 total energy-change (2. order) :-0.2255015E+01  (-0.2225947E+01)
 number of electron     143.0000025 magnetization      11.8611998
 augmentation part       87.6062189 magnetization      11.9891534

 Broyden mixing:
  rms(total) = 0.28561E+01    rms(broyden)= 0.28560E+01
  rms(prec ) = 0.29217E+01
  weight for this iteration     100.00

 Free energy of the ion-electron system (eV)
  ---------------------------------------------------
  alpha Z        PSCENC =         9.17018016
  Ewald energy   TEWEN  =     25029.68364838
  -Hartree energ DENC   =    -41490.72825617
  -exchange      EXHF   =         0.00000000
  -V(xc)+E(xc)   XCENC  =       584.58168656
  PAW double counting   =     15965.26744864   -17340.97210982
  entropy T*S    EENTRO =         0.03781732
  eigenvalues    EBANDS =      -876.87007186
  atomic energy  EATOM  =     18082.44932260
  Solvation  Ediel_sol  =         0.00000000
  ---------------------------------------------------
  free energy    TOTEN  =       -37.38033421 eV

  energy without entropy =      -37.41815153  energy(sigma->0) =      -37.39293998


--------------------------------------------------------------------------------------------------------




--------------------------------------- Iteration      1(   6)  ---------------------------------------


    POTLOK:  cpu time    5.3519: real time    5.3571
    SETDIJ:  cpu time    0.0426: real time    0.0426
     EDDAV:  cpu time   21.0828: real time   21.1143
       DOS:  cpu time    0.0038: real time    0.0038
    CHARGE:  cpu time    1.7891: real time    1.7931
    MIXING:  cpu time    0.0937: real time    0.3286
    --------------------------------------------
      LOOP:  cpu time   28.3639: real time   28.6396

 eigenvalue-minimisations  :   404
 total energy-change (2. order) : 0.2247468E+02  (-0.1359728E+02)
 number of electron     143.0000030 magnetization      11.2348624
 augmentation part       94.8984182 magnetization       7.0226133

 Broyden mixing:
  rms(total) = 0.12033E+01    rms(broyden)= 0.12030E+01
  rms(prec ) = 0.12687E+01
  weight for this iteration     100.00

 eigenvalues of (default mixing * dielectric matrix)
  average eigenvalue GAMMA=   0.8187
  0.8187

 Free energy of the ion-electron system (eV)
  ---------------------------------------------------
  alpha Z        PSCENC =         9.17018016
  Ewald energy   TEWEN  =     25029.68364838
  -Hartree energ DENC   =    -41281.67781303
  -exchange      EXHF   =         0.00000000
  -V(xc)+E(xc)   XCENC  =       587.25320648
  PAW double counting   =     16126.48161847   -17457.92288715
  entropy T*S    EENTRO =        -0.02253701
  eigenvalues    EBANDS =     -1110.32038987
  atomic energy  EATOM  =     18082.44932260
  Solvation  Ediel_sol  =         0.00000000
  ---------------------------------------------------
  free energy    TOTEN  =       -14.90565098 eV

  energy without entropy =      -14.88311397  energy(sigma->0) =      -14.89813864


--------------------------------------------------------------------------------------------------------




--------------------------------------- Iteration      1(   7)  ---------------------------------------


    POTLOK:  cpu time    5.4194: real time    5.4301
    SETDIJ:  cpu time    0.0452: real time    0.0452
     EDDAV:  cpu time   22.1215: real time   22.1520
       DOS:  cpu time    0.0043: real time    0.0043
    CHARGE:  cpu time    1.8282: real time    1.8304
    MIXING:  cpu time    0.1085: real time    0.1106
    --------------------------------------------
      LOOP:  cpu time   29.5270: real time   29.5727

 eigenvalue-minimisations  :   432
 total energy-change (2. order) : 0.3856869E+01  (-0.3044369E+01)
 number of electron     143.0000031 magnetization      10.4791712
 augmentation part       91.8994409 magnetization       6.1382491

 Broyden mixing:
  rms(total) = 0.49676E+00    rms(broyden)= 0.49664E+00
  rms(prec ) = 0.51716E+00
  weight for this iteration     100.00

 eigenvalues of (default mixing * dielectric matrix)
  average eigenvalue GAMMA=   0.8301
  1.0139  0.6463

 Free energy of the ion-electron system (eV)
  ---------------------------------------------------
  alpha Z        PSCENC =         9.17018016
  Ewald energy   TEWEN  =     25029.68364838
  -Hartree energ DENC   =    -41438.74553337
  -exchange      EXHF   =         0.00000000
  -V(xc)+E(xc)   XCENC  =       593.83549106
  PAW double counting   =     16430.33552444   -17814.45198858
  entropy T*S    EENTRO =        -0.03253007
  eigenvalues    EBANDS =      -903.29289639
  atomic energy  EATOM  =     18082.44932260
  Solvation  Ediel_sol  =         0.00000000
  ---------------------------------------------------
  free energy    TOTEN  =       -11.04878179 eV

  energy without entropy =      -11.01625172  energy(sigma->0) =      -11.03793844


--------------------------------------------------------------------------------------------------------




--------------------------------------- Iteration      1(   8)  ---------------------------------------


    POTLOK:  cpu time    5.4163: real time    5.4252
    SETDIJ:  cpu time    0.0395: real time    0.0396
     EDDAV:  cpu time   23.0268: real time   23.0570
       DOS:  cpu time    0.0013: real time    0.0013
    CHARGE:  cpu time    1.8527: real time    1.8558
    MIXING:  cpu time    0.1129: real time    0.1130
    --------------------------------------------
      LOOP:  cpu time   30.4495: real time   30.4920

 eigenvalue-minimisations  :   456
 total energy-change (2. order) :-0.7797479E-01  (-0.6239580E+00)
 number of electron     143.0000029 magnetization      10.0315514
 augmentation part       91.5889365 magnetization       5.1921158

 Broyden mixing:
  rms(total) = 0.46072E+00    rms(broyden)= 0.46062E+00
  rms(prec ) = 0.48258E+00
  weight for this iteration     100.00

 eigenvalues of (default mixing * dielectric matrix)
  average eigenvalue GAMMA=   0.7480
  1.0842  0.6629  0.4968

 Free energy of the ion-electron system (eV)
  ---------------------------------------------------
  alpha Z        PSCENC =         9.17018016
  Ewald energy   TEWEN  =     25029.68364838
  -Hartree energ DENC   =    -41461.78997748
  -exchange      EXHF   =         0.00000000
  -V(xc)+E(xc)   XCENC  =       593.49929840
  PAW double counting   =     16614.05076557   -18006.73223942
  entropy T*S    EENTRO =        -0.03088005
  eigenvalues    EBANDS =      -871.42687474
  atomic energy  EATOM  =     18082.44932260
  Solvation  Ediel_sol  =         0.00000000
  ---------------------------------------------------
  free energy    TOTEN  =       -11.12675659 eV

  energy without entropy =      -11.09587653  energy(sigma->0) =      -11.11646323


--------------------------------------------------------------------------------------------------------




--------------------------------------- Iteration      1(   9)  ---------------------------------------


    POTLOK:  cpu time    5.5025: real time    5.5148
    SETDIJ:  cpu time    0.0360: real time    0.0360
     EDDAV:  cpu time   23.4972: real time   23.5328
       DOS:  cpu time    0.0035: real time    0.0035
    CHARGE:  cpu time    1.9086: real time    1.9110
    MIXING:  cpu time    0.1248: real time    0.1249
    --------------------------------------------
      LOOP:  cpu time   31.0726: real time   31.1231

 eigenvalue-minimisations  :   464
 total energy-change (2. order) :-0.1739524E+01  (-0.1240496E+00)
 number of electron     143.0000029 magnetization       9.0845135
 augmentation part       91.6272892 magnetization       4.8355935

 Broyden mixing:
  rms(total) = 0.27640E+00    rms(broyden)= 0.27635E+00
  rms(prec ) = 0.28342E+00
  weight for this iteration     100.00

 eigenvalues of (default mixing * dielectric matrix)
  average eigenvalue GAMMA=   0.8676
  1.3561  0.8418  0.8418  0.4309

 Free energy of the ion-electron system (eV)
  ---------------------------------------------------
  alpha Z        PSCENC =         9.17018016
  Ewald energy   TEWEN  =     25029.68364838
  -Hartree energ DENC   =    -41464.78068278
  -exchange      EXHF   =         0.00000000
  -V(xc)+E(xc)   XCENC  =       591.46935626
  PAW double counting   =     16679.36753064   -18073.04514871
  entropy T*S    EENTRO =        -0.04014622
  eigenvalues    EBANDS =      -867.14034092
  atomic energy  EATOM  =     18082.44932260
  Solvation  Ediel_sol  =         0.00000000
  ---------------------------------------------------
  free energy    TOTEN  =       -12.86628061 eV

  energy without entropy =      -12.82613438  energy(sigma->0) =      -12.85289853


--------------------------------------------------------------------------------------------------------




--------------------------------------- Iteration      1(  10)  ---------------------------------------


    POTLOK:  cpu time    5.2983: real time    5.3112
    SETDIJ:  cpu time    0.0428: real time    0.0429
     EDDAV:  cpu time   27.1733: real time   27.2060
       DOS:  cpu time    0.0044: real time    0.0044
    CHARGE:  cpu time    1.8144: real time    1.8166
    MIXING:  cpu time    0.1320: real time    0.1321
    --------------------------------------------
      LOOP:  cpu time   34.4652: real time   34.5132

 eigenvalue-minimisations  :   556
 total energy-change (2. order) :-0.2436501E+01  (-0.1526938E+00)
 number of electron     143.0000028 magnetization       8.3718228
 augmentation part       91.8658861 magnetization       5.0462432

 Broyden mixing:
  rms(total) = 0.23210E+00    rms(broyden)= 0.23202E+00
  rms(prec ) = 0.23816E+00
  weight for this iteration     100.00

 eigenvalues of (default mixing * dielectric matrix)
  average eigenvalue GAMMA=   0.9088
  1.7934  1.0117  0.7349  0.5019  0.5019

 Free energy of the ion-electron system (eV)
  ---------------------------------------------------
  alpha Z        PSCENC =         9.17018016
  Ewald energy   TEWEN  =     25029.68364838
  -Hartree energ DENC   =    -41468.66457188
  -exchange      EXHF   =         0.00000000
  -V(xc)+E(xc)   XCENC  =       589.03544120
  PAW double counting   =     16757.50775472   -18151.17022366
  entropy T*S    EENTRO =        -0.03853353
  eigenvalues    EBANDS =      -863.27579928
  atomic energy  EATOM  =     18082.44932260
  Solvation  Ediel_sol  =         0.00000000
  ---------------------------------------------------
  free energy    TOTEN  =       -15.30278130 eV

  energy without entropy =      -15.26424777  energy(sigma->0) =      -15.28993679


--------------------------------------------------------------------------------------------------------




--------------------------------------- Iteration      1(  11)  ---------------------------------------


    POTLOK:  cpu time    5.3826: real time    5.9429
    SETDIJ:  cpu time    0.0406: real time    0.0406
     EDDAV:  cpu time   23.7856: real time   23.8140
       DOS:  cpu time    0.0015: real time    0.0015
    CHARGE:  cpu time    1.8140: real time    1.8160
    MIXING:  cpu time    0.1320: real time    0.1341
    --------------------------------------------
      LOOP:  cpu time   31.1563: real time   31.7492

 eigenvalue-minimisations  :   472
 total energy-change (2. order) :-0.2031997E+01  (-0.7404018E-01)
 number of electron     143.0000028 magnetization       7.5882493
 augmentation part       91.9204429 magnetization       4.9278569

 Broyden mixing:
  rms(total) = 0.20558E+00    rms(broyden)= 0.20552E+00
  rms(prec ) = 0.20993E+00
  weight for this iteration     100.00

 eigenvalues of (default mixing * dielectric matrix)
  average eigenvalue GAMMA=   0.9100
  1.9739  0.9670  0.7806  0.7806  0.4951  0.4629

 Free energy of the ion-electron system (eV)
  ---------------------------------------------------
  alpha Z        PSCENC =         9.17018016
  Ewald energy   TEWEN  =     25029.68364838
  -Hartree energ DENC   =    -41475.79689732
  -exchange      EXHF   =         0.00000000
  -V(xc)+E(xc)   XCENC  =       587.46377785
  PAW double counting   =     16791.49815897   -18185.91921234
  entropy T*S    EENTRO =        -0.01791720
  eigenvalues    EBANDS =      -855.86583917
  atomic energy  EATOM  =     18082.44932260
  Solvation  Ediel_sol  =         0.00000000
  ---------------------------------------------------
  free energy    TOTEN  =       -17.33477807 eV

  energy without entropy =      -17.31686087  energy(sigma->0) =      -17.32880567


--------------------------------------------------------------------------------------------------------




--------------------------------------- Iteration      1(  12)  ---------------------------------------


    POTLOK:  cpu time    5.5410: real time    5.5517
    SETDIJ:  cpu time    0.0402: real time    0.0402
     EDDAV:  cpu time   25.0451: real time   25.0749
       DOS:  cpu time    0.0014: real time    0.0014
    CHARGE:  cpu time    1.6249: real time    1.6264
    MIXING:  cpu time    0.1568: real time    0.1570
    --------------------------------------------
      LOOP:  cpu time   32.4093: real time   32.4515

 eigenvalue-minimisations  :   508
 total energy-change (2. order) :-0.2067764E+01  (-0.7384038E-01)
 number of electron     143.0000027 magnetization       5.9389659
 augmentation part       91.8495554 magnetization       3.8271801

 Broyden mixing:
  rms(total) = 0.17762E+00    rms(broyden)= 0.17756E+00
  rms(prec ) = 0.18047E+00
  weight for this iteration     100.00

 eigenvalues of (default mixing * dielectric matrix)
  average eigenvalue GAMMA=   1.1484
  2.9604  1.7718  0.8379  0.8379  0.6718  0.4794  0.4794

 Free energy of the ion-electron system (eV)
  ---------------------------------------------------
  alpha Z        PSCENC =         9.17018016
  Ewald energy   TEWEN  =     25029.68364838
  -Hartree energ DENC   =    -41487.39282646
  -exchange      EXHF   =         0.00000000
  -V(xc)+E(xc)   XCENC  =       586.15512725
  PAW double counting   =     16807.04496389   -18202.84489563
  entropy T*S    EENTRO =         0.00974380
  eigenvalues    EBANDS =      -843.67780629
  atomic energy  EATOM  =     18082.44932260
  Solvation  Ediel_sol  =         0.00000000
  ---------------------------------------------------
  free energy    TOTEN  =       -19.40254232 eV

  energy without entropy =      -19.41228611  energy(sigma->0) =      -19.40579025


--------------------------------------------------------------------------------------------------------




--------------------------------------- Iteration      1(  13)  ---------------------------------------


    POTLOK:  cpu time    5.4188: real time    5.4252
    SETDIJ:  cpu time    0.0431: real time    0.0431
     EDDAV:  cpu time   23.4507: real time   23.4831
       DOS:  cpu time    0.0088: real time    0.0089
    CHARGE:  cpu time    1.8747: real time    1.8768
    MIXING:  cpu time    0.1635: real time    0.1637
    --------------------------------------------
      LOOP:  cpu time   30.9597: real time   31.0008

 eigenvalue-minimisations  :   468
 total energy-change (2. order) :-0.3938392E+01  (-0.2046033E+00)
 number of electron     143.0000027 magnetization       5.1637657
 augmentation part       91.7993403 magnetization       3.6289911

 Broyden mixing:
  rms(total) = 0.12911E+00    rms(broyden)= 0.12905E+00
  rms(prec ) = 0.13108E+00
  weight for this iteration     100.00

 eigenvalues of (default mixing * dielectric matrix)
  average eigenvalue GAMMA=   1.1630
  3.0397  1.9373  1.0492  1.0492  0.6342  0.6342  0.4801  0.4801

 Free energy of the ion-electron system (eV)
  ---------------------------------------------------
  alpha Z        PSCENC =         9.17018016
  Ewald energy   TEWEN  =     25029.68364838
  -Hartree energ DENC   =    -41499.25812339
  -exchange      EXHF   =         0.00000000
  -V(xc)+E(xc)   XCENC  =       583.36699072
  PAW double counting   =     16798.08015231   -18193.49985922
  entropy T*S    EENTRO =         0.03662135
  eigenvalues    EBANDS =      -833.36986727
  atomic energy  EATOM  =     18082.44932260
  Solvation  Ediel_sol  =         0.00000000
  ---------------------------------------------------
  free energy    TOTEN  =       -23.34093437 eV

  energy without entropy =      -23.37755572  energy(sigma->0) =      -23.35314148


--------------------------------------------------------------------------------------------------------




--------------------------------------- Iteration      1(  14)  ---------------------------------------


    POTLOK:  cpu time    5.4162: real time    5.4228
    SETDIJ:  cpu time    0.0430: real time    0.0430
     EDDAV:  cpu time   23.4791: real time   23.5076
       DOS:  cpu time    0.0014: real time    0.0014
    CHARGE:  cpu time    1.8845: real time    1.8870
    MIXING:  cpu time    0.1756: real time    0.1758
    --------------------------------------------
      LOOP:  cpu time   30.9997: real time   31.0376

 eigenvalue-minimisations  :   464
 total energy-change (2. order) :-0.3151155E+01  (-0.1298131E+00)
 number of electron     143.0000027 magnetization       4.8134105
 augmentation part       91.8477562 magnetization       3.4664364

 Broyden mixing:
  rms(total) = 0.11827E+00    rms(broyden)= 0.11826E+00
  rms(prec ) = 0.12129E+00
  weight for this iteration     100.00

 eigenvalues of (default mixing * dielectric matrix)
  average eigenvalue GAMMA=   1.1913
  2.8267  2.8267  1.1472  1.1472  0.6344  0.6344  0.6033  0.4507  0.4507

 Free energy of the ion-electron system (eV)
  ---------------------------------------------------
  alpha Z        PSCENC =         9.17018016
  Ewald energy   TEWEN  =     25029.68364838
  -Hartree energ DENC   =    -41492.70236597
  -exchange      EXHF   =         0.00000000
  -V(xc)+E(xc)   XCENC  =       580.77649809
  PAW double counting   =     16760.94918751   -18153.67978684
  entropy T*S    EENTRO =         0.02713292
  eigenvalues    EBANDS =      -843.16590587
  atomic energy  EATOM  =     18082.44932260
  Solvation  Ediel_sol  =         0.00000000
  ---------------------------------------------------
  free energy    TOTEN  =       -26.49208903 eV

  energy without entropy =      -26.51922196  energy(sigma->0) =      -26.50113334


--------------------------------------------------------------------------------------------------------




--------------------------------------- Iteration      1(  15)  ---------------------------------------


    POTLOK:  cpu time    5.6000: real time    6.2645
    SETDIJ:  cpu time    0.0437: real time    0.0437
     EDDAV:  cpu time   24.7900: real time   24.8271
       DOS:  cpu time    0.0013: real time    0.0013
    CHARGE:  cpu time    1.9468: real time    1.9489
    MIXING:  cpu time    0.1913: real time    0.1915
    --------------------------------------------
      LOOP:  cpu time   32.5732: real time   33.2771

 eigenvalue-minimisations  :   496
 total energy-change (2. order) :-0.1692424E+01  (-0.4399781E-01)
 number of electron     143.0000027 magnetization       3.8305977
 augmentation part       91.9028652 magnetization       2.5767850

 Broyden mixing:
  rms(total) = 0.91825E-01    rms(broyden)= 0.91820E-01
  rms(prec ) = 0.93864E-01
  weight for this iteration     100.00

 eigenvalues of (default mixing * dielectric matrix)
  average eigenvalue GAMMA=   1.2929
  3.5330  3.5330  1.1024  1.1024  0.8096  0.8096  0.6195  0.4639  0.4639  0.4913

 Free energy of the ion-electron system (eV)
  ---------------------------------------------------
  alpha Z        PSCENC =         9.17018016
  Ewald energy   TEWEN  =     25029.68364838
  -Hartree energ DENC   =    -41484.25200539
  -exchange      EXHF   =         0.00000000
  -V(xc)+E(xc)   XCENC  =       579.29611372
  PAW double counting   =     16729.21693435   -18120.63949975
  entropy T*S    EENTRO =         0.02907134
  eigenvalues    EBANDS =      -853.13827814
  atomic energy  EATOM  =     18082.44932260
  Solvation  Ediel_sol  =         0.00000000
  ---------------------------------------------------
  free energy    TOTEN  =       -28.18451274 eV

  energy without entropy =      -28.21358408  energy(sigma->0) =      -28.19420318


--------------------------------------------------------------------------------------------------------




--------------------------------------- Iteration      1(  16)  ---------------------------------------


    POTLOK:  cpu time    5.2140: real time    5.2217
    SETDIJ:  cpu time    0.0458: real time    0.0458
     EDDAV:  cpu time   24.5040: real time   24.5324
       DOS:  cpu time    0.0031: real time    0.0031
    CHARGE:  cpu time    1.8815: real time    1.8854
    MIXING:  cpu time    0.2056: real time    0.2058
    --------------------------------------------
      LOOP:  cpu time   31.8537: real time   31.8940

 eigenvalue-minimisations  :   488
 total energy-change (2. order) :-0.2266502E+01  (-0.6227489E-01)
 number of electron     143.0000027 magnetization       2.9395267
 augmentation part       91.8784147 magnetization       1.7675870

 Broyden mixing:
  rms(total) = 0.62282E-01    rms(broyden)= 0.62275E-01
  rms(prec ) = 0.63487E-01
  weight for this iteration     100.00

 eigenvalues of (default mixing * dielectric matrix)
  average eigenvalue GAMMA=   1.3658
  3.9550  3.9550  1.5057  1.1100  1.1100  0.7063  0.6597  0.6597  0.4616  0.4616
  0.4396

 Free energy of the ion-electron system (eV)
  ---------------------------------------------------
  alpha Z        PSCENC =         9.17018016
  Ewald energy   TEWEN  =     25029.68364838
  -Hartree energ DENC   =    -41475.31485255
  -exchange      EXHF   =         0.00000000
  -V(xc)+E(xc)   XCENC  =       577.38461259
  PAW double counting   =     16685.04960616   -18076.61541242
  entropy T*S    EENTRO =         0.04222887
  eigenvalues    EBANDS =      -862.30034898
  atomic energy  EATOM  =     18082.44932260
  Solvation  Ediel_sol  =         0.00000000
  ---------------------------------------------------
  free energy    TOTEN  =       -30.45101520 eV

  energy without entropy =      -30.49324407  energy(sigma->0) =      -30.46509149


--------------------------------------------------------------------------------------------------------




--------------------------------------- Iteration      1(  17)  ---------------------------------------


    POTLOK:  cpu time    5.3811: real time    5.3939
    SETDIJ:  cpu time    0.0430: real time    0.0431
     EDDAV:  cpu time   24.9616: real time   24.9929
       DOS:  cpu time    0.0015: real time    0.0015
    CHARGE:  cpu time    1.8118: real time    1.8138
    MIXING:  cpu time    0.2105: real time    0.2108
    --------------------------------------------
      LOOP:  cpu time   32.4096: real time   32.4559

 eigenvalue-minimisations  :   500
 total energy-change (2. order) :-0.1025186E+01  (-0.2497720E-01)
 number of electron     143.0000027 magnetization       2.3125095
 augmentation part       91.7983187 magnetization       1.3196848

 Broyden mixing:
  rms(total) = 0.54767E-01    rms(broyden)= 0.54761E-01
  rms(prec ) = 0.57281E-01
  weight for this iteration     100.00

 eigenvalues of (default mixing * dielectric matrix)
  average eigenvalue GAMMA=   1.4487
  5.8725  2.6060  2.6060  1.0942  1.0942  0.7552  0.7552  0.6768  0.5103  0.5103
  0.4519  0.4519

 Free energy of the ion-electron system (eV)
  ---------------------------------------------------
  alpha Z        PSCENC =         9.17018016
  Ewald energy   TEWEN  =     25029.68364838
  -Hartree energ DENC   =    -41472.10554970
  -exchange      EXHF   =         0.00000000
  -V(xc)+E(xc)   XCENC  =       576.53401378
  PAW double counting   =     16680.58192000   -18073.92580806
  entropy T*S    EENTRO =         0.03804064
  eigenvalues    EBANDS =      -863.90196922
  atomic energy  EATOM  =     18082.44932260
  Solvation  Ediel_sol  =         0.00000000
  ---------------------------------------------------
  free energy    TOTEN  =       -31.47620142 eV

  energy without entropy =      -31.51424206  energy(sigma->0) =      -31.48888163


--------------------------------------------------------------------------------------------------------




--------------------------------------- Iteration      1(  18)  ---------------------------------------


    POTLOK:  cpu time    5.4131: real time    5.4420
    SETDIJ:  cpu time    0.0434: real time    0.0435
     EDDAV:  cpu time   25.7853: real time   25.8177
       DOS:  cpu time    0.0021: real time    0.0021
    CHARGE:  cpu time    1.6654: real time    1.6671
    MIXING:  cpu time    0.1936: real time    0.1939
    --------------------------------------------
      LOOP:  cpu time   33.1030: real time   33.1663

 eigenvalue-minimisations  :   532
 total energy-change (2. order) :-0.4119911E+00  (-0.5609684E-02)
 number of electron     143.0000027 magnetization       1.9124258
 augmentation part       91.8216329 magnetization       1.0368002

 Broyden mixing:
  rms(total) = 0.34795E-01    rms(broyden)= 0.34787E-01
  rms(prec ) = 0.36835E-01
  weight for this iteration     100.00

 eigenvalues of (default mixing * dielectric matrix)
  average eigenvalue GAMMA=   1.4421
  6.2629  2.7458  2.7458  1.0635  1.0635  0.8186  0.8186  0.6630  0.5981  0.5981
  0.4623  0.4623  0.4445

 Free energy of the ion-electron system (eV)
  ---------------------------------------------------
  alpha Z        PSCENC =         9.17018016
  Ewald energy   TEWEN  =     25029.68364838
  -Hartree energ DENC   =    -41466.48340686
  -exchange      EXHF   =         0.00000000
  -V(xc)+E(xc)   XCENC  =       576.00890855
  PAW double counting   =     16686.62833525   -18080.50074660
  entropy T*S    EENTRO =         0.03019813
  eigenvalues    EBANDS =      -868.87463211
  atomic energy  EATOM  =     18082.44932260
  Solvation  Ediel_sol  =         0.00000000
  ---------------------------------------------------
  free energy    TOTEN  =       -31.88819250 eV

  energy without entropy =      -31.91839063  energy(sigma->0) =      -31.89825854


--------------------------------------------------------------------------------------------------------




--------------------------------------- Iteration      1(  19)  ---------------------------------------


    POTLOK:  cpu time    5.3854: real time    6.4585
    SETDIJ:  cpu time    0.0395: real time    0.0395
     EDDAV:  cpu time   25.4887: real time   25.5181
       DOS:  cpu time    0.0035: real time    0.0035
    CHARGE:  cpu time    1.8558: real time    1.8598
    MIXING:  cpu time    0.2507: real time    0.2509
    --------------------------------------------
      LOOP:  cpu time   33.0235: real time   34.1304

 eigenvalue-minimisations  :   512
 total energy-change (2. order) :-0.3562208E+00  (-0.2957607E-02)
 number of electron     143.0000027 magnetization       1.5214366
 augmentation part       91.8670209 magnetization       0.7294867

 Broyden mixing:
  rms(total) = 0.23766E-01    rms(broyden)= 0.23756E-01
  rms(prec ) = 0.25360E-01
  weight for this iteration     100.00

 eigenvalues of (default mixing * dielectric matrix)
  average eigenvalue GAMMA=   1.5361
  7.1414  3.0149  3.0149  1.2860  1.0785  1.0785  0.8601  0.8601  0.6514  0.6514
  0.5089  0.4613  0.4613  0.4370

 Free energy of the ion-electron system (eV)
  ---------------------------------------------------
  alpha Z        PSCENC =         9.17018016
  Ewald energy   TEWEN  =     25029.68364838
  -Hartree energ DENC   =    -41460.85347291
  -exchange      EXHF   =         0.00000000
  -V(xc)+E(xc)   XCENC  =       575.53457598
  PAW double counting   =     16688.38454659   -18082.00652384
  entropy T*S    EENTRO =         0.02155976
  eigenvalues    EBANDS =      -874.62825005
  atomic energy  EATOM  =     18082.44932260
  Solvation  Ediel_sol  =         0.00000000
  ---------------------------------------------------
  free energy    TOTEN  =       -32.24441334 eV

  energy without entropy =      -32.26597310  energy(sigma->0) =      -32.25159993


--------------------------------------------------------------------------------------------------------




--------------------------------------- Iteration      1(  20)  ---------------------------------------


    POTLOK:  cpu time    5.3442: real time    5.3583
    SETDIJ:  cpu time    0.0384: real time    0.0385
     EDDAV:  cpu time   26.0873: real time   26.1225
       DOS:  cpu time    0.0019: real time    0.0019
    CHARGE:  cpu time    1.8090: real time    1.8111
    MIXING:  cpu time    0.2646: real time    0.2669
    --------------------------------------------
      LOOP:  cpu time   33.5455: real time   33.5991

 eigenvalue-minimisations  :   528
 total energy-change (2. order) :-0.4337189E+00  (-0.1753045E-02)
 number of electron     143.0000027 magnetization       1.1602949
 augmentation part       91.8727115 magnetization       0.4452831

 Broyden mixing:
  rms(total) = 0.18843E-01    rms(broyden)= 0.18834E-01
  rms(prec ) = 0.20121E-01
  weight for this iteration     100.00

 eigenvalues of (default mixing * dielectric matrix)
  average eigenvalue GAMMA=   1.6387
  8.7511  3.1558  3.1558  1.8243  1.0465  1.0465  0.8517  0.8517  0.7148  0.7148
  0.5997  0.4626  0.4626  0.4436  0.4994

 Free energy of the ion-electron system (eV)
  ---------------------------------------------------
  alpha Z        PSCENC =         9.17018016
  Ewald energy   TEWEN  =     25029.68364838
  -Hartree energ DENC   =    -41455.60411399
  -exchange      EXHF   =         0.00000000
  -V(xc)+E(xc)   XCENC  =       575.06458443
  PAW double counting   =     16689.84789055   -18083.42953599
  entropy T*S    EENTRO =         0.01236554
  eigenvalues    EBANDS =      -879.87247390
  atomic energy  EATOM  =     18082.44932260
  Solvation  Ediel_sol  =         0.00000000
  ---------------------------------------------------
  free energy    TOTEN  =       -32.67813222 eV

  energy without entropy =      -32.69049776  energy(sigma->0) =      -32.68225407


--------------------------------------------------------------------------------------------------------




--------------------------------------- Iteration      1(  21)  ---------------------------------------


    POTLOK:  cpu time    5.4507: real time    5.4717
    SETDIJ:  cpu time    0.0455: real time    0.0455
     EDDAV:  cpu time   22.1393: real time   22.1677
       DOS:  cpu time    0.0042: real time    0.0042
    CHARGE:  cpu time    1.8518: real time    1.8538
    MIXING:  cpu time    0.2816: real time    0.2819
    --------------------------------------------
      LOOP:  cpu time   29.7731: real time   29.8249

 eigenvalue-minimisations  :   448
 total energy-change (2. order) :-0.2199976E+00  (-0.8979971E-03)
 number of electron     143.0000027 magnetization       0.9295154
 augmentation part       91.8631784 magnetization       0.3060557

 Broyden mixing:
  rms(total) = 0.13148E-01    rms(broyden)= 0.13135E-01
  rms(prec ) = 0.14079E-01
  weight for this iteration     100.00

 eigenvalues of (default mixing * dielectric matrix)
  average eigenvalue GAMMA=   1.6525
  9.4305  3.3047  3.3047  1.9879  1.0566  1.0566  1.1055  0.7662  0.7662  0.7231
  0.5692  0.5692  0.4599  0.4599  0.4398  0.4398

 Free energy of the ion-electron system (eV)
  ---------------------------------------------------
  alpha Z        PSCENC =         9.17018016
  Ewald energy   TEWEN  =     25029.68364838
  -Hartree energ DENC   =    -41453.66993676
  -exchange      EXHF   =         0.00000000
  -V(xc)+E(xc)   XCENC  =       574.85660177
  PAW double counting   =     16690.86697165   -18084.49472802
  entropy T*S    EENTRO =         0.00550108
  eigenvalues    EBANDS =      -881.76569066
  atomic energy  EATOM  =     18082.44932260
  Solvation  Ediel_sol  =         0.00000000
  ---------------------------------------------------
  free energy    TOTEN  =       -32.89812981 eV

  energy without entropy =      -32.90363089  energy(sigma->0) =      -32.89996350


--------------------------------------------------------------------------------------------------------




--------------------------------------- Iteration      1(  22)  ---------------------------------------


    POTLOK:  cpu time    5.3960: real time    5.4065
    SETDIJ:  cpu time    0.0405: real time    0.0405
     EDDAV:  cpu time   26.3805: real time   26.4174
       DOS:  cpu time    0.0032: real time    0.0032
    CHARGE:  cpu time    1.4384: real time    1.4397
    MIXING:  cpu time    0.3121: real time    0.3125
    --------------------------------------------
      LOOP:  cpu time   33.5707: real time   33.6197

 eigenvalue-minimisations  :   536
 total energy-change (2. order) :-0.1008127E+00  (-0.3602409E-03)
 number of electron     143.0000027 magnetization       0.7390901
 augmentation part       91.8549117 magnetization       0.1811565

 Broyden mixing:
  rms(total) = 0.96902E-02    rms(broyden)= 0.96796E-02
  rms(prec ) = 0.10586E-01
  weight for this iteration     100.00

 eigenvalues of (default mixing * dielectric matrix)
  average eigenvalue GAMMA=   1.7172
 10.3987  3.6212  3.6212  2.0120  1.3894  1.0705  1.0705  0.8405  0.8405  0.7061
  0.6402  0.6402  0.4920  0.4920  0.4408  0.4586  0.4586

 Free energy of the ion-electron system (eV)
  ---------------------------------------------------
  alpha Z        PSCENC =         9.17018016
  Ewald energy   TEWEN  =     25029.68364838
  -Hartree energ DENC   =    -41452.70246171
  -exchange      EXHF   =         0.00000000
  -V(xc)+E(xc)   XCENC  =       574.76247110
  PAW double counting   =     16692.50638475   -18086.14909765
  entropy T*S    EENTRO =         0.00050567
  eigenvalues    EBANDS =      -882.71989577
  atomic energy  EATOM  =     18082.44932260
  Solvation  Ediel_sol  =         0.00000000
  ---------------------------------------------------
  free energy    TOTEN  =       -32.99894247 eV

  energy without entropy =      -32.99944814  energy(sigma->0) =      -32.99911102


--------------------------------------------------------------------------------------------------------




--------------------------------------- Iteration      1(  23)  ---------------------------------------


    POTLOK:  cpu time    5.4142: real time    5.4277
    SETDIJ:  cpu time    0.0403: real time    0.0403
     EDDAV:  cpu time   26.0137: real time   26.0480
       DOS:  cpu time    0.0025: real time    0.0025
    CHARGE:  cpu time    1.9829: real time    1.9888
    MIXING:  cpu time    0.2812: real time    0.2835
    --------------------------------------------
      LOOP:  cpu time   33.7348: real time   33.7908

 eigenvalue-minimisations  :   524
 total energy-change (2. order) :-0.9031887E-01  (-0.2317248E-03)
 number of electron     143.0000027 magnetization       0.6537826
 augmentation part       91.8455586 magnetization       0.1523342

 Broyden mixing:
  rms(total) = 0.74928E-02    rms(broyden)= 0.74812E-02
  rms(prec ) = 0.82209E-02
  weight for this iteration     100.00

 eigenvalues of (default mixing * dielectric matrix)
  average eigenvalue GAMMA=   1.7381
 11.0603  3.7680  3.7680  2.0466  1.5123  0.9859  0.9859  0.9974  0.9974  0.7745
  0.7745  0.6457  0.6457  0.4637  0.4637  0.4430  0.4762  0.4762

 Free energy of the ion-electron system (eV)
  ---------------------------------------------------
  alpha Z        PSCENC =         9.17018016
  Ewald energy   TEWEN  =     25029.68364838
  -Hartree energ DENC   =    -41451.49280969
  -exchange      EXHF   =         0.00000000
  -V(xc)+E(xc)   XCENC  =       574.67106636
  PAW double counting   =     16695.72464542   -18089.43047575
  entropy T*S    EENTRO =        -0.00407911
  eigenvalues    EBANDS =      -883.86075972
  atomic energy  EATOM  =     18082.44932260
  Solvation  Ediel_sol  =         0.00000000
  ---------------------------------------------------
  free energy    TOTEN  =       -33.08926134 eV

  energy without entropy =      -33.08518224  energy(sigma->0) =      -33.08790164


--------------------------------------------------------------------------------------------------------




--------------------------------------- Iteration      1(  24)  ---------------------------------------


    POTLOK:  cpu time    5.1857: real time    5.1956
    SETDIJ:  cpu time    0.0431: real time    0.0431
     EDDAV:  cpu time   22.5974: real time   22.6286
       DOS:  cpu time    0.0037: real time    0.0037
    CHARGE:  cpu time    1.9064: real time    1.9107
    MIXING:  cpu time    0.3430: real time    0.3458
    --------------------------------------------
      LOOP:  cpu time   30.0794: real time   30.1276

 eigenvalue-minimisations  :   444
 total energy-change (2. order) :-0.2851744E-01  (-0.1029768E-03)
 number of electron     143.0000027 magnetization       0.6034653
 augmentation part       91.8547764 magnetization       0.1371187

 Broyden mixing:
  rms(total) = 0.42451E-02    rms(broyden)= 0.42346E-02
  rms(prec ) = 0.48376E-02
  weight for this iteration     100.00

 eigenvalues of (default mixing * dielectric matrix)
  average eigenvalue GAMMA=   1.7578
 11.5357  3.8448  3.8448  2.4355  1.8021  1.0314  1.0314  0.9521  0.9521  0.9100
  0.9100  0.6461  0.6461  0.5667  0.4708  0.4708  0.4356  0.4565  0.4565

 Free energy of the ion-electron system (eV)
  ---------------------------------------------------
  alpha Z        PSCENC =         9.17018016
  Ewald energy   TEWEN  =     25029.68364838
  -Hartree energ DENC   =    -41450.02331880
  -exchange      EXHF   =         0.00000000
  -V(xc)+E(xc)   XCENC  =       574.61905610
  PAW double counting   =     16694.49593203   -18088.03824711
  entropy T*S    EENTRO =        -0.00650840
  eigenvalues    EBANDS =      -885.46784372
  atomic energy  EATOM  =     18082.44932260
  Solvation  Ediel_sol  =         0.00000000
  ---------------------------------------------------
  free energy    TOTEN  =       -33.11777878 eV

  energy without entropy =      -33.11127038  energy(sigma->0) =      -33.11560931


--------------------------------------------------------------------------------------------------------




--------------------------------------- Iteration      1(  25)  ---------------------------------------


    POTLOK:  cpu time    5.1021: real time    5.1118
    SETDIJ:  cpu time    0.0364: real time    0.0364
     EDDAV:  cpu time   17.4276: real time   17.4519
       DOS:  cpu time    0.0045: real time    0.0045
    CHARGE:  cpu time    1.7150: real time    1.7214
    MIXING:  cpu time    0.2868: real time    0.2910
    --------------------------------------------
      LOOP:  cpu time   24.5724: real time   24.6171

 eigenvalue-minimisations  :   388
 total energy-change (2. order) :-0.1704821E-01  (-0.6709791E-04)
 number of electron     143.0000027 magnetization       0.5374806
 augmentation part       91.8622197 magnetization       0.0949652

 Broyden mixing:
  rms(total) = 0.41424E-02    rms(broyden)= 0.41367E-02
  rms(prec ) = 0.44912E-02
  weight for this iteration     100.00

 eigenvalues of (default mixing * dielectric matrix)
  average eigenvalue GAMMA=   1.7707
 12.0049  4.0619  4.0619  2.3053  2.3053  1.1688  1.1688  1.0132  1.0132  0.7959
  0.7959  0.6951  0.6041  0.6041  0.5016  0.5016  0.4603  0.4603  0.4404  0.4509

 Free energy of the ion-electron system (eV)
  ---------------------------------------------------
  alpha Z        PSCENC =         9.17018016
  Ewald energy   TEWEN  =     25029.68364838
  -Hartree energ DENC   =    -41448.75611999
  -exchange      EXHF   =         0.00000000
  -V(xc)+E(xc)   XCENC  =       574.58760648
  PAW double counting   =     16693.15797788   -18086.58397673
  entropy T*S    EENTRO =        -0.00831902
  eigenvalues    EBANDS =      -886.83514674
  atomic energy  EATOM  =     18082.44932260
  Solvation  Ediel_sol  =         0.00000000
  ---------------------------------------------------
  free energy    TOTEN  =       -33.13482699 eV

  energy without entropy =      -33.12650797  energy(sigma->0) =      -33.13205398


--------------------------------------------------------------------------------------------------------




--------------------------------------- Iteration      1(  26)  ---------------------------------------


    POTLOK:  cpu time    5.3060: real time    5.3202
    SETDIJ:  cpu time    0.0398: real time    0.0398
     EDDAV:  cpu time   17.8220: real time   17.8495
       DOS:  cpu time    0.0032: real time    0.0032
    CHARGE:  cpu time    1.4339: real time    1.4351
    MIXING:  cpu time    0.3979: real time    0.3983
    --------------------------------------------
      LOOP:  cpu time   25.0027: real time   25.0461

 eigenvalue-minimisations  :   304
 total energy-change (2. order) :-0.1170220E-01  (-0.3805669E-04)
 number of electron     143.0000027 magnetization       0.4740703
 augmentation part       91.8593048 magnetization       0.0580972

 Broyden mixing:
  rms(total) = 0.28335E-02    rms(broyden)= 0.28270E-02
  rms(prec ) = 0.31240E-02
  weight for this iteration     100.00

 eigenvalues of (default mixing * dielectric matrix)
  average eigenvalue GAMMA=   1.7797
 12.4697  4.2974  4.2974  2.3668  2.3668  1.2357  1.2357  1.0163  1.0163  0.8127
  0.8127  0.7840  0.6714  0.6714  0.5865  0.4631  0.4631  0.4819  0.4819  0.4422
  0.4016

 Free energy of the ion-electron system (eV)
  ---------------------------------------------------
  alpha Z        PSCENC =         9.17018016
  Ewald energy   TEWEN  =     25029.68364838
  -Hartree energ DENC   =    -41448.42875623
  -exchange      EXHF   =         0.00000000
  -V(xc)+E(xc)   XCENC  =       574.58269777
  PAW double counting   =     16693.24372679   -18086.74405721
  entropy T*S    EENTRO =        -0.00986176
  eigenvalues    EBANDS =      -887.09342969
  atomic energy  EATOM  =     18082.44932260
  Solvation  Ediel_sol  =         0.00000000
  ---------------------------------------------------
  free energy    TOTEN  =       -33.14652919 eV

  energy without entropy =      -33.13666743  energy(sigma->0) =      -33.14324193


--------------------------------------------------------------------------------------------------------




--------------------------------------- Iteration      1(  27)  ---------------------------------------


    POTLOK:  cpu time    5.4049: real time    5.4175
    SETDIJ:  cpu time    0.0426: real time    0.0426
     EDDAV:  cpu time   18.5533: real time   18.5777
       DOS:  cpu time    0.0036: real time    0.0036
    CHARGE:  cpu time    1.5311: real time    1.5325
    MIXING:  cpu time    0.4175: real time    0.4200
    --------------------------------------------
      LOOP:  cpu time   25.9530: real time   25.9939

 eigenvalue-minimisations  :   328
 total energy-change (2. order) :-0.8172982E-02  (-0.3685994E-04)
 number of electron     143.0000027 magnetization       0.4243713
 augmentation part       91.8563915 magnetization       0.0378154

 Broyden mixing:
  rms(total) = 0.24068E-02    rms(broyden)= 0.23987E-02
  rms(prec ) = 0.26281E-02
  weight for this iteration     100.00

 eigenvalues of (default mixing * dielectric matrix)
  average eigenvalue GAMMA=   1.7888
 12.9188  4.5550  4.5550  2.4775  2.4775  1.3443  1.0354  1.0354  1.1444  0.8875
  0.8875  0.7884  0.7182  0.7182  0.5719  0.5719  0.4695  0.4695  0.4531  0.4531
  0.4358  0.3852

 Free energy of the ion-electron system (eV)
  ---------------------------------------------------
  alpha Z        PSCENC =         9.17018016
  Ewald energy   TEWEN  =     25029.68364838
  -Hartree energ DENC   =    -41448.00221136
  -exchange      EXHF   =         0.00000000
  -V(xc)+E(xc)   XCENC  =       574.57473360
  PAW double counting   =     16693.44078858   -18086.99087428
  entropy T*S    EENTRO =        -0.01146333
  eigenvalues    EBANDS =      -887.46882651
  atomic energy  EATOM  =     18082.44932260
  Solvation  Ediel_sol  =         0.00000000
  ---------------------------------------------------
  free energy    TOTEN  =       -33.15470217 eV

  energy without entropy =      -33.14323883  energy(sigma->0) =      -33.15088106


--------------------------------------------------------------------------------------------------------




--------------------------------------- Iteration      1(  28)  ---------------------------------------


    POTLOK:  cpu time    5.4304: real time    5.4443
    SETDIJ:  cpu time    0.0403: real time    0.0403
     EDDAV:  cpu time   16.5951: real time   16.6148
       DOS:  cpu time    0.0045: real time    0.0045
    CHARGE:  cpu time    1.8956: real time    1.8977
    MIXING:  cpu time    0.4446: real time    0.4451
    --------------------------------------------
      LOOP:  cpu time   24.4104: real time   24.4468

 eigenvalue-minimisations  :   288
 total energy-change (2. order) :-0.4836292E-02  (-0.2023615E-04)
 number of electron     143.0000027 magnetization       0.3982140
 augmentation part       91.8567555 magnetization       0.0385904

 Broyden mixing:
  rms(total) = 0.23097E-02    rms(broyden)= 0.23019E-02
  rms(prec ) = 0.24721E-02
  weight for this iteration     100.00

 eigenvalues of (default mixing * dielectric matrix)
  average eigenvalue GAMMA=   1.7800
 13.2042  4.7009  4.7009  2.5955  2.5955  1.3567  1.1742  1.0702  1.0702  0.9437
  0.9437  0.7611  0.7611  0.7324  0.5561  0.5561  0.5190  0.5190  0.4591  0.4591
  0.4490  0.4439  0.3677

 Free energy of the ion-electron system (eV)
  ---------------------------------------------------
  alpha Z        PSCENC =         9.17018016
  Ewald energy   TEWEN  =     25029.68364838
  -Hartree energ DENC   =    -41447.51686656
  -exchange      EXHF   =         0.00000000
  -V(xc)+E(xc)   XCENC  =       574.56657783
  PAW double counting   =     16693.40111913   -18086.96596690
  entropy T*S    EENTRO =        -0.01285601
  eigenvalues    EBANDS =      -887.93469709
  atomic energy  EATOM  =     18082.44932260
  Solvation  Ediel_sol  =         0.00000000
  ---------------------------------------------------
  free energy    TOTEN  =       -33.15953846 eV

  energy without entropy =      -33.14668245  energy(sigma->0) =      -33.15525312


--------------------------------------------------------------------------------------------------------




--------------------------------------- Iteration      1(  29)  ---------------------------------------


    POTLOK:  cpu time    5.3600: real time    5.3745
    SETDIJ:  cpu time    0.0402: real time    0.0403
     EDDAV:  cpu time   16.1555: real time   16.1726
       DOS:  cpu time    0.0035: real time    0.0035
    CHARGE:  cpu time    1.8039: real time    1.8078
    MIXING:  cpu time    0.4572: real time    0.4577
    --------------------------------------------
      LOOP:  cpu time   23.8203: real time   23.8564

 eigenvalue-minimisations  :   280
 total energy-change (2. order) :-0.3088510E-02  (-0.1631373E-04)
 number of electron     143.0000027 magnetization       0.3598902
 augmentation part       91.8575360 magnetization       0.0180593

 Broyden mixing:
  rms(total) = 0.16529E-02    rms(broyden)= 0.16464E-02
  rms(prec ) = 0.17539E-02
  weight for this iteration     100.00

 eigenvalues of (default mixing * dielectric matrix)
  average eigenvalue GAMMA=   1.8463
 13.8238  5.1475  5.1475  2.7915  2.7915  1.5034  1.5034  1.1668  1.1668  0.9904
  0.9904  0.8025  0.8025  0.7103  0.6503  0.6503  0.6109  0.4768  0.4768  0.4628
  0.4628  0.4398  0.4151  0.3262

 Free energy of the ion-electron system (eV)
  ---------------------------------------------------
  alpha Z        PSCENC =         9.17018016
  Ewald energy   TEWEN  =     25029.68364838
  -Hartree energ DENC   =    -41447.07305297
  -exchange      EXHF   =         0.00000000
  -V(xc)+E(xc)   XCENC  =       574.55881557
  PAW double counting   =     16693.53351670   -18087.09643032
  entropy T*S    EENTRO =        -0.01381592
  eigenvalues    EBANDS =      -888.37481116
  atomic energy  EATOM  =     18082.44932260
  Solvation  Ediel_sol  =         0.00000000
  ---------------------------------------------------
  free energy    TOTEN  =       -33.16262697 eV

  energy without entropy =      -33.14881105  energy(sigma->0) =      -33.15802166


--------------------------------------------------------------------------------------------------------




--------------------------------------- Iteration      1(  30)  ---------------------------------------


    POTLOK:  cpu time    5.4173: real time    5.4313
    SETDIJ:  cpu time    0.0461: real time    0.0461
     EDDAV:  cpu time   15.0985: real time   15.1155
       DOS:  cpu time    0.0033: real time    0.0033
    CHARGE:  cpu time    1.4004: real time    1.4015
    MIXING:  cpu time    0.3716: real time    0.3739
    --------------------------------------------
      LOOP:  cpu time   22.3371: real time   22.3716

 eigenvalue-minimisations  :   292
[...]
     26      -6.4083      1.00000
     27      -6.3193      1.00000
     28      -6.3137      1.00000
     29      -6.2833      1.00000
     30      -6.1907      1.00000
     31      -6.1834      1.00000
     32      -6.1339      1.00000
     33      -6.0964      1.00000
     34      -6.0286      1.00000
     35      -5.9964      1.00000
     36      -5.9751      1.00000
     37      -5.9618      1.00000
     38      -5.9275      1.00000
     39      -5.8951      1.00000
     40      -5.8720      1.00000
     41      -5.8582      1.00000
     42      -5.8266      1.00000
     43      -5.7467      1.00000
     44      -5.7388      1.00000
     45      -5.7113      1.00000
     46      -5.7012      1.00000
     47      -5.6805      1.00000
     48      -5.6702      1.00000
     49      -5.6532      1.00000
     50      -5.6299      1.00000
     51      -5.6085      1.00000
     52      -5.5981      1.00000
     53      -5.5818      1.00000
     54      -5.5333      1.00000
     55      -5.5086      1.00000
     56      -5.4231      1.00000
     57      -5.4015      1.00000
     58      -5.3972      1.00000
     59      -5.3730      1.00000
     60      -5.3635      1.00000
     61      -5.3576      1.00000
     62      -5.3251      1.00000
     63      -5.3227      1.00000
     64      -5.2847      1.00000
     65      -5.2603      1.00000
     66      -5.2549      1.00000
     67      -5.1925      1.00000
     68      -5.1828      1.00000
     69      -4.9938      1.00000
     70      -4.7028      1.00000
     71      -4.5977      1.00000
     72      -3.8637      0.60210
     73      -3.4828     -0.01509
     74      -3.3460     -0.00134
     75      -2.5724     -0.00000
     76      -2.4664     -0.00000
     77      -2.3925     -0.00000
     78      -2.2034     -0.00000
     79      -1.7057     -0.00000
     80      -1.5793     -0.00000
     81      -1.4368     -0.00000
     82      -0.9864     -0.00000
     83      -0.7451     -0.00000
     84      -0.6864     -0.00000
     85      -0.3600     -0.00000
     86      -0.3418     -0.00000
     87      -0.2530     -0.00000
     88       0.0409     -0.00000
     89       0.0806     -0.00000
     90       0.2441     -0.00000
     91       0.2656     -0.00000
     92       0.2872     -0.00000

 spin component 2

 k-point     1 :       0.0000    0.0000    0.0000
  band No.  band energies     occupation 
      1     -10.6714      1.00000
      2      -9.1293      1.00000
      3      -8.7907      1.00000
      4      -8.1324      1.00000
      5      -7.9634      1.00000
      6      -7.8886      1.00000
      7      -7.6877      1.00000
      8      -7.6760      1.00000
      9      -7.6247      1.00000
     10      -7.3660      1.00000
     11      -7.2859      1.00000
     12      -7.2165      1.00000
     13      -7.0603      1.00000
     14      -7.0484      1.00000
     15      -7.0238      1.00000
     16      -7.0024      1.00000
     17      -6.9375      1.00000
     18      -6.9054      1.00000
     19      -6.8827      1.00000
     20      -6.7712      1.00000
     21      -6.7625      1.00000
     22      -6.6455      1.00000
     23      -6.6104      1.00000
     24      -6.5563      1.00000
     25      -6.5222      1.00000
     26      -6.4039      1.00000
     27      -6.3161      1.00000
     28      -6.3064      1.00000
     29      -6.2782      1.00000
     30      -6.1851      1.00000
     31      -6.1785      1.00000
     32      -6.1306      1.00000
     33      -6.0925      1.00000
     34      -6.0244      1.00000
     35      -5.9911      1.00000
     36      -5.9712      1.00000
     37      -5.9566      1.00000
     38      -5.9238      1.00000
     39      -5.8898      1.00000
     40      -5.8685      1.00000
     41      -5.8550      1.00000
     42      -5.8221      1.00000
     43      -5.7425      1.00000
     44      -5.7346      1.00000
     45      -5.7072      1.00000
     46      -5.6986      1.00000
     47      -5.6744      1.00000
     48      -5.6666      1.00000
     49      -5.6480      1.00000
     50      -5.6251      1.00000
     51      -5.6029      1.00000
     52      -5.5936      1.00000
     53      -5.5770      1.00000
     54      -5.5292      1.00000
     55      -5.5046      1.00000
     56      -5.4197      1.00000
     57      -5.3968      1.00000
     58      -5.3919      1.00000
     59      -5.3679      1.00000
     60      -5.3588      1.00000
     61      -5.3542      1.00000
     62      -5.3196      1.00000
     63      -5.3165      1.00000
     64      -5.2810      1.00000
     65      -5.2571      1.00000
     66      -5.2478      1.00000
     67      -5.1891      1.00000
     68      -5.1786      1.00000
     69      -4.9872      1.00000
     70      -4.6908      1.00000
     71      -4.5938      1.00000
     72      -3.8226      0.42904
     73      -3.4757     -0.01373
     74      -3.3322     -0.00098
     75      -2.5679     -0.00000
     76      -2.4532     -0.00000
     77      -2.3841     -0.00000
     78      -2.1729     -0.00000
     79      -1.6670     -0.00000
     80      -1.5655     -0.00000
     81      -1.4302     -0.00000
     82      -0.9588     -0.00000
     83      -0.7244     -0.00000
     84      -0.6725     -0.00000
     85      -0.3315     -0.00000
     86      -0.3247     -0.00000
     87      -0.2297     -0.00000
     88       0.0749     -0.00000
     89       0.1194     -0.00000
     90       0.3119     -0.00000
     91       0.3350     -0.00000
     92       0.3498     -0.00000


--------------------------------------------------------------------------------------------------------


 soft charge-density along one line, spin component            1
         0         1         2         3         4         5         6         7         8         9
 total charge-density along one line
 
 soft charge-density along one line, spin component            2
         0         1         2         3         4         5         6         7         8         9
 total charge-density along one line
 
 pseudopotential strength for first ion, spin component:            1
-10.952   0.001   0.035  -0.007  -0.002   1.352  -0.002  -0.027
  0.001 -10.945  -0.003  -0.029   0.006  -0.002   1.347   0.003
  0.035  -0.003 -10.976   0.005   0.025  -0.027   0.003   1.372
 -0.007  -0.029   0.005 -10.991   0.003   0.006   0.023  -0.004
 -0.002   0.006   0.025   0.003 -10.945   0.002  -0.005  -0.020
  1.352  -0.002  -0.027   0.006   0.002   6.051   0.002   0.020
 -0.002   1.347   0.003   0.023  -0.005   0.002   6.054  -0.003
 -0.027   0.003   1.372  -0.004  -0.020   0.020  -0.003   6.037
  0.006   0.023  -0.004   1.383  -0.002  -0.004  -0.017   0.004
  0.002  -0.005  -0.020  -0.002   1.348  -0.001   0.004   0.015
  0.010   0.003   0.003  -0.001   0.007  -0.004  -0.001  -0.001
  0.017   0.006   0.006  -0.003   0.013  -0.007  -0.001  -0.002
  0.007   0.007   0.009   0.000   0.016  -0.007  -0.007  -0.007
  0.000  -0.016   0.007   0.006   0.000  -0.001   0.013  -0.009
 -0.015   0.000  -0.004   0.007   0.007   0.012  -0.001   0.005
  0.008   0.009   0.010   0.000   0.018  -0.009  -0.009  -0.008
  0.000  -0.018   0.009   0.007   0.000  -0.001   0.015  -0.013
 -0.017   0.000  -0.005   0.009   0.009   0.013  -0.001   0.006
 pseudopotential strength for first ion, spin component:            2
-10.951   0.002   0.036  -0.007  -0.002   1.351  -0.002  -0.028
  0.002 -10.944  -0.003  -0.029   0.007  -0.002   1.346   0.003
  0.036  -0.003 -10.975   0.005   0.026  -0.028   0.003   1.371
 -0.007  -0.029   0.005 -10.991   0.003   0.006   0.023  -0.004
 -0.002   0.007   0.026   0.003 -10.945   0.001  -0.006  -0.020
  1.351  -0.002  -0.028   0.006   0.001   6.051   0.003   0.020
 -0.002   1.346   0.003   0.023  -0.006   0.003   6.055  -0.003
 -0.028   0.003   1.371  -0.004  -0.020   0.020  -0.003   6.037
  0.006   0.023  -0.004   1.383  -0.002  -0.004  -0.017   0.004
  0.001  -0.006  -0.020  -0.002   1.347  -0.001   0.004   0.015
  0.010   0.003   0.003  -0.002   0.007  -0.004  -0.001  -0.001
  0.018   0.006   0.006  -0.003   0.013  -0.007  -0.001  -0.002
  0.007   0.007   0.009   0.000   0.016  -0.007  -0.007  -0.007
  0.000  -0.016   0.007   0.006   0.000  -0.001   0.013  -0.009
 -0.015   0.000  -0.005   0.007   0.007   0.012  -0.001   0.005
  0.008   0.009   0.010   0.001   0.018  -0.009  -0.010  -0.008
  0.001  -0.018   0.009   0.008   0.000  -0.001   0.014  -0.013
 -0.017   0.001  -0.006   0.009   0.009   0.014  -0.001   0.006
 total augmentation occupancy for first ion, spin component:            1
  1.935   0.003   0.013  -0.003  -0.001  -0.017   0.002  -0.009   0.004   0.003   0.002  -0.010  -0.014   0.002   0.043   0.006
  0.003   1.937  -0.007  -0.012   0.003   0.002  -0.024  -0.000   0.006  -0.004  -0.013  -0.007   0.003   0.031   0.003   0.003
  0.013  -0.007   1.924   0.008   0.010  -0.009  -0.000  -0.017  -0.002  -0.004  -0.020   0.001  -0.017  -0.022  -0.009   0.010
 -0.003  -0.012   0.008   1.919  -0.001   0.004   0.006  -0.002  -0.013  -0.001  -0.012   0.003   0.012  -0.020   0.007   0.000
 -0.001   0.003   0.010  -0.001   1.939   0.003  -0.003  -0.004  -0.001  -0.024   0.007  -0.006  -0.028  -0.002  -0.004   0.019
 -0.017   0.002  -0.009   0.004   0.003   0.014   0.001  -0.001   0.000   0.001   0.037  -0.001  -0.010  -0.003   0.016   0.000
  0.002  -0.024  -0.000   0.006  -0.003   0.001   0.012  -0.001   0.001  -0.000   0.021   0.001  -0.006   0.022  -0.003   0.000
 -0.009  -0.000  -0.017  -0.002  -0.004  -0.001  -0.001   0.013   0.001  -0.001   0.006   0.001  -0.009  -0.022   0.008   0.000
  0.004   0.006  -0.002  -0.013  -0.001   0.000   0.001   0.001   0.014  -0.001   0.002  -0.000  -0.006  -0.017  -0.013   0.000
  0.003  -0.004  -0.004  -0.001  -0.024   0.001  -0.000  -0.001  -0.001   0.013   0.022  -0.002  -0.019  -0.003  -0.018   0.001
  0.002  -0.013  -0.020  -0.012   0.007   0.037   0.021   0.006   0.002   0.022   1.678  -0.142   0.172  -0.066  -0.084  -0.023
 -0.010  -0.007   0.001   0.003  -0.006  -0.001   0.001   0.001  -0.000  -0.002  -0.142   0.017  -0.022   0.014   0.017   0.003
 -0.014   0.003  -0.017   0.012  -0.028  -0.010  -0.006  -0.009  -0.006  -0.019   0.172  -0.022   0.151   0.025   0.041  -0.011
  0.002   0.031  -0.022  -0.020  -0.002  -0.003   0.022  -0.022  -0.017  -0.003  -0.066   0.014   0.025   0.179  -0.007  -0.000
  0.043   0.003  -0.009   0.007  -0.004   0.016  -0.003   0.008  -0.013  -0.018  -0.084   0.017   0.041  -0.007   0.202  -0.002
  0.006   0.003   0.010   0.000   0.019   0.000   0.000   0.000   0.000   0.001  -0.023   0.003  -0.011  -0.000  -0.002   0.001
  0.000  -0.019   0.005   0.005   0.000   0.000  -0.001   0.001   0.001   0.000   0.011  -0.001  -0.000  -0.011   0.000  -0.000
 -0.019  -0.000  -0.003   0.004   0.005  -0.001   0.000  -0.000   0.001   0.001   0.013  -0.002  -0.002   0.000  -0.013   0.000
 total augmentation occupancy for first ion, spin component:            2
  0.000   0.001   0.001  -0.000   0.000  -0.000  -0.000  -0.000   0.000  -0.000  -0.000  -0.000   0.001   0.001  -0.001   0.000
  0.001   0.000   0.000   0.000   0.000  -0.000   0.000  -0.000  -0.000  -0.000  -0.000  -0.000   0.001   0.001  -0.000   0.000
  0.001   0.000   0.000   0.000   0.000  -0.000  -0.000  -0.000  -0.000  -0.000  -0.000  -0.000   0.001   0.001  -0.001   0.000
 -0.000   0.000   0.000  -0.000   0.000   0.000  -0.000  -0.000   0.000  -0.000  -0.000   0.000   0.000  -0.000   0.000   0.000
  0.000   0.000   0.000   0.000  -0.000  -0.000  -0.000  -0.000  -0.000   0.000  -0.000  -0.000   0.001   0.000  -0.000   0.000
 -0.000  -0.000  -0.000   0.000  -0.000   0.000   0.000   0.000  -0.000   0.000  -0.000   0.000  -0.000  -0.000   0.000   0.000
 -0.000   0.000  -0.000  -0.000  -0.000   0.000   0.000   0.000   0.000   0.000   0.000  -0.000  -0.000  -0.000   0.000  -0.000
 -0.000  -0.000  -0.000  -0.000  -0.000   0.000   0.000   0.000  -0.000   0.000   0.000   0.000  -0.000  -0.000   0.000   0.000
  0.000  -0.000  -0.000   0.000  -0.000  -0.000   0.000  -0.000  -0.000  -0.000  -0.000   0.000   0.000   0.000  -0.000   0.000
 -0.000  -0.000  -0.000  -0.000   0.000   0.000   0.000   0.000  -0.000  -0.000  -0.000   0.000  -0.000  -0.000   0.000   0.000
 -0.000  -0.000  -0.000  -0.000  -0.000  -0.000   0.000   0.000  -0.000  -0.000   0.000  -0.000  -0.001  -0.000   0.000  -0.000
 -0.000  -0.000  -0.000   0.000  -0.000   0.000  -0.000   0.000   0.000   0.000  -0.000   0.000  -0.000  -0.000   0.000  -0.000
  0.001   0.001   0.001   0.000   0.001  -0.000  -0.000  -0.000   0.000  -0.000  -0.001  -0.000   0.002   0.002  -0.001  -0.000
  0.001   0.001   0.001  -0.000   0.000  -0.000  -0.000  -0.000   0.000  -0.000  -0.000  -0.000   0.002   0.001  -0.001  -0.000
 -0.001  -0.000  -0.001   0.000  -0.000   0.000   0.000   0.000  -0.000   0.000   0.000   0.000  -0.001  -0.001   0.001   0.000
  0.000   0.000   0.000   0.000   0.000   0.000  -0.000   0.000   0.000   0.000  -0.000  -0.000  -0.000  -0.000   0.000   0.000
 -0.000   0.000   0.000   0.000  -0.000   0.000   0.000   0.000  -0.000   0.000   0.000  -0.000  -0.000  -0.000   0.000   0.000
 -0.000   0.000  -0.000   0.000  -0.000  -0.000   0.000  -0.000   0.000  -0.000   0.000  -0.000   0.000   0.000  -0.000  -0.000


------------------------ aborting loop because EDIFF is reached ----------------------------------------


    CHARGE:  cpu time    1.4359: real time    1.4384
    FORLOC:  cpu time    0.1989: real time    0.1991
    FORNL :  cpu time   11.1486: real time   11.1623
    FORCOR:  cpu time    4.7113: real time    4.7179
    FORHAR:  cpu time    0.6398: real time    0.6408
    MIXING:  cpu time    0.0959: real time    0.0960
    OFIELD:  cpu time    0.0000: real time    0.0000

 VOLUME and BASIS-vectors are now :
 -----------------------------------------------------------------------------
  energy-cutoff  :      400.00
  volume of cell :    13477.86
      direct lattice vectors                 reciprocal lattice vectors
    24.845315864  0.000000000  0.000000000     0.040249035  0.000000000  0.000000000
     0.000000000 23.030230793  0.000000000     0.000000000  0.043421189  0.000000000
     0.000000000  0.000000000 23.554736350     0.000000000  0.000000000  0.042454307

  length of vectors
    24.845315864 23.030230793 23.554736350     0.040249035  0.043421189  0.042454307


 FORCES acting on ions
    electron-ion (+dipol)            ewald-force                    non-local-force                 convergence-correction
 -----------------------------------------------------------------------------------------------
   -.496E+03 0.109E+04 -.368E+03   0.495E+03 -.109E+04 0.368E+03   0.488E+00 -.449E+01 0.771E-01   -.133E-01 -.499E-01 -.599E-01
   0.677E+03 -.123E+04 0.704E+02   -.673E+03 0.122E+04 -.676E+02   -.405E+01 0.700E+01 -.275E+01   -.104E-01 -.387E-01 -.364E-01
   0.114E+04 -.360E+03 -.712E+03   -.113E+04 0.358E+03 0.707E+03   -.811E+01 0.250E+01 0.474E+01   0.693E-02 0.235E-01 0.122E-01
   -.853E+02 -.168E+03 -.124E+04   0.868E+02 0.167E+03 0.124E+04   -.138E+01 0.133E+01 0.406E+01   -.629E-01 0.686E-01 0.278E-01
   -.454E+03 -.123E+04 -.487E+03   0.452E+03 0.123E+04 0.483E+03   0.257E+01 0.678E+01 0.353E+01   -.335E-02 0.292E-01 0.488E-01
   -.114E+04 0.179E+03 -.792E+03   0.114E+04 -.179E+03 0.789E+03   0.632E+01 -.302E+00 0.341E+01   0.300E-01 0.289E-01 -.256E-01
   0.107E+04 -.765E+02 0.611E+03   -.107E+04 0.767E+02 -.610E+03   -.376E+01 -.240E+00 -.141E+01   -.218E-01 0.245E-01 -.307E-01
   0.643E+03 0.118E+04 0.355E+03   -.639E+03 -.117E+04 -.352E+03   -.470E+01 -.809E+01 -.259E+01   0.302E-01 -.341E-01 -.188E-01
   0.260E+01 -.631E+03 0.914E+03   -.432E+01 0.629E+03 -.913E+03   0.176E+01 0.141E+01 -.123E+01   -.304E-01 -.156E-01 0.221E-01
   -.104E+04 0.565E+03 0.762E+03   0.103E+04 -.561E+03 -.758E+03   0.596E+01 -.383E+01 -.379E+01   0.184E-01 -.286E-01 -.265E-01
   0.654E+03 0.840E+03 -.915E+03   -.653E+03 -.835E+03 0.908E+03   -.144E+01 -.514E+01 0.677E+01   0.708E-01 0.231E-01 0.838E-02
   -.108E+04 -.700E+03 0.511E+03   0.107E+04 0.695E+03 -.507E+03   0.675E+01 0.530E+01 -.451E+01   -.344E-02 0.970E-02 0.161E-01
   0.104E+03 0.538E+03 0.129E+04   -.102E+03 -.537E+03 -.129E+04   -.141E+01 -.110E+01 -.832E+01   -.447E-01 0.284E-01 -.134E-01
 -----------------------------------------------------------------------------------------------
   0.103E+01 -.120E+01 0.209E+01   -.469E-12 0.000E+00 -.227E-12   -.100E+01 0.115E+01 -.202E+01   -.338E-01 0.689E-01 -.761E-01
 
 
 POSITION                                       TOTAL-FORCE (eV/Angst)
 -----------------------------------------------------------------------------------
     12.43588     10.05238     12.52747        -0.000325      0.023350      0.005860
     10.77897     13.75320     12.61490        -0.001836      0.013998      0.008255
      9.35914     12.29929     13.93848        -0.005858      0.001273     -0.008205
     11.79583     12.03376     13.89445         0.011260     -0.010269     -0.022941
     13.16661     14.03621     13.02525         0.007592     -0.010877     -0.013436
     14.04747     11.76879     13.06612         0.017386     -0.009783      0.024697
     10.34425     11.41513     11.84668        -0.004291     -0.010792      0.010552
     10.43988      8.95234     11.62880        -0.012728      0.011656     -0.001379
     12.46375     12.48107     11.30022         0.013521      0.001150      0.001735
     14.19471     10.85098     10.82219        -0.000624      0.007714      0.011796
     10.28690     10.05434     13.79031        -0.023922     -0.005808     -0.005902
     14.77365     13.22464     11.30261        -0.012037     -0.005299     -0.012791
     11.89061     10.30633     10.23303         0.011863     -0.006313      0.001758
 -----------------------------------------------------------------------------------
    total drift:                               -0.007510      0.024179     -0.005453


--------------------------------------------------------------------------------------------------------



  FREE ENERGIE OF THE ION-ELECTRON SYSTEM (eV)
  ---------------------------------------------------
  free  energy   TOTEN  =       -33.31705270 eV

  energy  without entropy=      -33.27581121  energy(sigma->0) =      -33.30330554
 
 d Force =-0.4149436E-05[-0.326E-03, 0.318E-03]  d Energy = 0.2295153E-04-0.271E-04
 d Force = 0.2888927E+01[ 0.289E+01, 0.289E+01]  d Ewald  = 0.2888924E+01 0.346E-05


--------------------------------------------------------------------------------------------------------


    POTLOK:  cpu time    4.7702: real time    4.7780


--------------------------------------------------------------------------------------------------------




--------------------------------------------------------------------------------------------------------


  
 reached required accuracy - stopping structural energy minimisation
     LOOP+:  cpu time   85.3102: real time   85.5008
    4ORBIT:  cpu time    0.0000: real time    0.0000

 total amount of memory used by VASP MPI-rank0   299534. kBytes
=======================================================================

   base      :      30000. kBytes
   nonl-proj :       5383. kBytes
   fftplans  :      66975. kBytes
   grid      :     152064. kBytes
   one-center:         31. kBytes
   wavefun   :      45081. kBytes
 
  
  
 General timing and accounting informations for this job:
 ========================================================
  
                  Total CPU time used (sec):     2790.588
                            User time (sec):     2771.124
                          System time (sec):       19.464
                         Elapsed time (sec):     2841.442
  
                   Maximum memory used (kb):      605520.
                   Average memory used (kb):           0.
  
                          Minor page faults:      7309966
                          Major page faults:        52011
                 Voluntary context switches:         3590
