<?xml version="1.0" encoding="ISO-8859-1"?>
<modeling>
 <generator>
  <i name="program" type="string">vasp </i>
  <i name="version" type="string">6.1.2  </i>
  <i name="subversion" type="string">22Jul20 (build Jan 14 2022 17:24:41) gamma-only                       parallel </i>
  <i name="platform" type="string">LinuxPGI </i>
  <i name="date" type="string">2022 01 31 </i>
  <i name="time" type="string">15:26:08 </i>
 </generator>
 <incar>
  <i type="int" name="ISPIN">     2</i>
  <i type="int" name="IBRION">     2</i>
  <i type="int" name="NSW">  1000</i>
  <i type="int" name="ISIF">     0</i>
  <i type="int" name="ISYM">     0</i>
  <i name="ENCUT">    400.00000000</i>
  <i type="logical" name="LREAL"> F  </i>
  <i type="int" name="ISMEAR">     1</i>
  <i name="SIGMA">      0.20000000</i>
  <i type="logical" name="LWAVE"> F  </i>
  <i type="logical" name="LCHARG"> F  </i>
  <i type="int" name="KPAR">     1</i>
  <i type="int" name="NCORE">     8</i>
  <i type="string" name="GGA"> PE</i>
  <i type="int" name="ISPIN">     2</i>
 </incar>
 <structure name="primitive_cell" >
  <crystal>
   <varray name="basis" >
    <v>      24.84531586       0.00000000       0.00000000 </v>
    <v>       0.00000000      23.03023079       0.00000000 </v>
    <v>       0.00000000       0.00000000      23.55473635 </v>
   </varray>
   <i name="volume">  13477.86369979 </i>
   <varray name="rec_basis" >
    <v>       0.04024904       0.00000000       0.00000000 </v>
    <v>       0.00000000       0.04342119       0.00000000 </v>
    <v>       0.00000000       0.00000000       0.04245431 </v>
   </varray>
  </crystal>
  <varray name="positions" >
   <v>       0.50117776       0.43839530       0.53048224 </v>
   <v>       0.43169794       0.59919244       0.53151165 </v>
   <v>       0.37741448       0.53395011       0.59106103 </v>
   <v>       0.47567734       0.52361402       0.58853656 </v>
   <v>       0.52977802       0.60828712       0.55523865 </v>
   <v>       0.57103937       0.51022233       0.55854307 </v>
   <v>       0.41280730       0.49530464       0.50145700 </v>
   <v>       0.42097853       0.38951061       0.49394606 </v>
   <v>       0.50029417       0.53932782       0.48270079 </v>
   <v>       0.57152005       0.46980485       0.46066846 </v>
   <v>       0.41662963       0.43551823       0.58808618 </v>
   <v>       0.59270717       0.57382025       0.47975715 </v>
   <v>       0.47622839       0.44957136       0.43029712 </v>
  </varray>
 </structure>
 <varray name="primitive_index" >
  <v type="int" >        1 </v>
  <v type="int" >        2 </v>
  <v type="int" >        3 </v>
  <v type="int" >        4 </v>
  <v type="int" >        5 </v>
  <v type="int" >        6 </v>
  <v type="int" >        7 </v>
  <v type="int" >        8 </v>
  <v type="int" >        9 </v>
  <v type="int" >       10 </v>
  <v type="int" >       11 </v>
  <v type="int" >       12 </v>
  <v type="int" >       13 </v>
 </varray>
 <kpoints>
  <generation param="Gamma">
   <v type="int" name="divisions">       1        1        1 </v>
   <v name="usershift">      0.00000000       0.00000000       0.00000000 </v>
   <v name="genvec1">      1.00000000       0.00000000       0.00000000 </v>
   <v name="genvec2">      0.00000000       1.00000000       0.00000000 </v>
   <v name="genvec3">      0.00000000       0.00000000       1.00000000 </v>
   <v name="shift">      0.00000000       0.00000000       0.00000000 </v>
  </generation>
  <varray name="kpointlist" >
   <v>       0.00000000       0.00000000       0.00000000 </v>
  </varray>
  <varray name="weights" >
   <v>       1.00000000 </v>
  </varray>
 </kpoints>
 <parameters>
  <separator name="general" >
   <i type="string" name="SYSTEM">unknown system</i>
   <i type="logical" name="LCOMPAT"> F  </i>
  </separator>
  <separator name="electronic" >
   <i type="string" name="PREC">normal</i>
   <i name="ENMAX">    400.00000000</i>
   <i name="ENAUG">    586.98000000</i>
   <i name="EDIFF">      0.00010000</i>
   <i type="int" name="IALGO">    38</i>
   <i type="int" name="IWAVPR">    11</i>
   <i type="int" name="NBANDS">    92</i>
   <i type="int" name="NBANDSLOW">    -1</i>
   <i type="int" name="NBANDSHIGH">    -1</i>
   <i name="NELECT">    143.00000000</i>
   <i type="int" name="TURBO">     0</i>
   <i type="int" name="IRESTART">     0</i>
   <i type="int" name="NREBOOT">     0</i>
   <i type="int" name="NMIN">     0</i>
   <i name="EREF">      0.00000000</i>
   <separator name="electronic smearing" >
    <i type="int" name="ISMEAR">     1</i>
    <i name="SIGMA">      0.20000000</i>
    <i name="KSPACING">      0.50000000</i>
    <i type="logical" name="KGAMMA"> T  </i>
    <i type="logical" name="KBLOWUP"> T  </i>
   </separator>
   <separator name="electronic projectors" >
    <i type="logical" name="LREAL"> F  </i>
    <v name="ROPT">      0.00000000</v>
    <i type="int" name="LMAXPAW">  -100</i>
    <i type="int" name="LMAXMIX">     2</i>
    <i type="logical" name="NLSPLINE"> F  </i>
   </separator>
   <separator name="electronic startup" >
    <i type="int" name="ISTART">     0</i>
    <i type="int" name="ICHARG">     2</i>
    <i type="int" name="INIWAV">     1</i>
   </separator>
   <separator name="electronic spin" >
    <i type="int" name="ISPIN">     2</i>
    <i type="logical" name="LNONCOLLINEAR"> F  </i>
    <v name="MAGMOM">      1.00000000      1.00000000      1.00000000      1.00000000      1.00000000      1.00000000      1.00000000      1.00000000      1.00000000      1.00000000      1.00000000      1.00000000      1.00000000</v>
    <i name="NUPDOWN">     -1.00000000</i>
    <i type="logical" name="LSORBIT"> F  </i>
    <v name="SAXIS">      0.00000000      0.00000000      1.00000000</v>
    <i type="logical" name="LSPIRAL"> F  </i>
    <v name="QSPIRAL">      0.00000000      0.00000000      0.00000000</v>
    <i type="logical" name="LZEROZ"> F  </i>
   </separator>
   <separator name="electronic exchange-correlation" >
    <i type="logical" name="LASPH"> F  </i>
    <i type="logical" name="LMETAGGA"> F  </i>
   </separator>
   <separator name="electronic convergence" >
    <i type="int" name="NELM">    60</i>
    <i type="int" name="NELMDL">     0</i>
    <i type="int" name="NELMIN">     2</i>
    <i name="ENINI">    400.00000000</i>
    <separator name="electronic convergence detail" >
     <i type="logical" name="LDIAG"> T  </i>
     <i type="logical" name="LSUBROT"> F  </i>
     <i name="WEIMIN">      0.00100000</i>
     <i name="EBREAK">      0.00000027</i>
     <i name="DEPER">      0.30000000</i>
     <i type="int" name="NRMM">     4</i>
     <i name="TIME">      0.40000000</i>
    </separator>
   </separator>
   <separator name="electronic mixer" >
    <i name="AMIX">      0.40000000</i>
    <i name="BMIX">      1.00000000</i>
    <i name="AMIN">      0.10000000</i>
    <i name="AMIX_MAG">      1.60000000</i>
    <i name="BMIX_MAG">      1.00000000</i>
    <separator name="electronic mixer details" >
     <i type="int" name="IMIX">     4</i>
     <i type="logical" name="MIXFIRST"> F  </i>
     <i type="int" name="MAXMIX">   -45</i>
     <i name="WC">    100.00000000</i>
     <i type="int" name="INIMIX">     1</i>
     <i type="int" name="MIXPRE">     1</i>
     <i type="int" name="MREMOVE">     5</i>
    </separator>
   </separator>
   <separator name="electronic dipolcorrection" >
    <i type="logical" name="LDIPOL"> F  </i>
    <i type="logical" name="LMONO"> F  </i>
    <i type="int" name="IDIPOL">     0</i>
    <i name="EPSILON">      1.00000000</i>
    <v name="DIPOL">   -100.00000000   -100.00000000   -100.00000000</v>
    <i name="EFIELD">      0.00000000</i>
   </separator>
  </separator>
  <separator name="grids" >
   <i type="int" name="NGX">   126</i>
   <i type="int" name="NGY">   120</i>
   <i type="int" name="NGZ">   120</i>
   <i type="int" name="NGXF">   252</i>
   <i type="int" name="NGYF">   240</i>
   <i type="int" name="NGZF">   240</i>
   <i type="logical" name="ADDGRID"> F  </i>
  </separator>
  <separator name="ionic" >
   <i type="int" name="NSW">  1000</i>
   <i type="int" name="IBRION">     2</i>
   <i type="int" name="MDALGO">     0</i>
   <i type="int" name="ISIF">     0</i>
   <i name="PSTRESS">      0.00000000</i>
   <i name="EDIFFG">      0.00100000</i>
   <i type="int" name="NFREE">     1</i>
   <i name="POTIM">      0.50000000</i>
   <i name="SMASS">     -3.00000000</i>
   <i name="SCALEE">      1.00000000</i>
  </separator>
  <separator name="ionic md" >
   <i name="TEBEG">      0.00010000</i>
   <i name="TEEND">      0.00010000</i>
   <i type="int" name="NBLOCK">     1</i>
   <i type="int" name="KBLOCK">  1000</i>
   <i type="int" name="NPACO">   256</i>
   <i name="APACO">     16.00000000</i>
  </separator>
  <separator name="symmetry" >
   <i type="int" name="ISYM">     0</i>
   <i name="SYMPREC">      0.00001000</i>
  </separator>
  <separator name="dos" >
   <i type="int" name="LORBIT">     0</i>
   <v name="RWIGS">     -1.00000000</v>
   <i type="int" name="NEDOS">   301</i>
   <i name="EMIN">     10.00000000</i>
   <i name="EMAX">    -10.00000000</i>
   <i name="EFERMI">      0.00000000</i>
  </separator>
  <separator name="writing" >
   <i type="int" name="NWRITE">     2</i>
   <i type="logical" name="LWAVE"> F  </i>
   <i type="logical" name="LDOWNSAMPLE"> F  </i>
   <i type="logical" name="LCHARG"> F  </i>
   <i type="logical" name="LPARD"> F  </i>
   <i type="logical" name="LVTOT"> F  </i>
   <i type="logical" name="LVHAR"> F  </i>
   <i type="logical" name="LELF"> F  </i>
   <i type="logical" name="LOPTICS"> F  </i>
   <v name="STM">      0.00000000      0.00000000      0.00000000      0.00000000      0.00000000      0.00000000      0.00000000</v>
  </separator>
  <separator name="performance" >
   <i type="int" name="NPAR">     1</i>
   <i type="int" name="NSIM">     4</i>
   <i type="int" name="NBLK">    -1</i>
   <i type="logical" name="LPLANE"> T  </i>
   <i type="logical" name="LSCALAPACK"> T  </i>
   <i type="logical" name="LSCAAWARE"> F  </i>
   <i type="logical" name="LSCALU"> F  </i>
   <i type="logical" name="LASYNC"> F  </i>
   <i type="logical" name="LORBITALREAL"> F  </i>
  </separator>
  <separator name="miscellaneous" >
   <i type="int" name="IDIOT">     3</i>
   <i type="int" name="PHON_NSTRUCT">    -1</i>
   <i type="logical" name="LMUSIC"> F  </i>
   <v name="POMASS">     63.54600000</v>
   <v name="DARWINR">      0.00000000</v>
   <v name="DARWINV">      1.00000000</v>
   <i type="logical" name="LCORR"> T  </i>
  </separator>
  <i type="logical" name="GGA_COMPAT"> T  </i>
  <i type="logical" name="LBERRY"> F  </i>
  <i type="int" name="ICORELEVEL">     0</i>
  <i type="logical" name="LDAU"> F  </i>
  <i type="int" name="I_CONSTRAINED_M">     0</i>
  <separator name="electronic exchange-correlation" >
   <i type="string" name="GGA">PE</i>
   <i type="int" name="VOSKOWN">     0</i>
   <i type="logical" name="LHFCALC"> F  </i>
   <i type="string" name="PRECFOCK"></i>
   <i type="logical" name="LSYMGRAD"> F  </i>
   <i type="logical" name="LHFONE"> F  </i>
   <i type="logical" name="LRHFCALC"> F  </i>
   <i type="logical" name="LTHOMAS"> F  </i>
   <i type="logical" name="LMODELHF"> F  </i>
   <i type="logical" name="LFOCKACE"> F  </i>
   <i name="ENCUT4O">     -1.00000000</i>
   <i type="int" name="EXXOEP">     0</i>
   <i type="int" name="FOURORBIT">     0</i>
   <i name="AEXX">      0.00000000</i>
   <i name="HFALPHA">      0.00000000</i>
   <i name="MCALPHA">      0.00000000</i>
   <i name="ALDAX">      1.00000000</i>
   <i name="AGGAX">      1.00000000</i>
   <i name="ALDAC">      1.00000000</i>
   <i name="AGGAC">      1.00000000</i>
   <i type="int" name="NKREDX">     1</i>
   <i type="int" name="NKREDY">     1</i>
   <i type="int" name="NKREDZ">     1</i>
   <i type="logical" name="SHIFTRED"> F  </i>
   <i type="logical" name="ODDONLY"> F  </i>
   <i type="logical" name="EVENONLY"> F  </i>
   <i type="int" name="LMAXFOCK">     0</i>
   <i type="int" name="NMAXFOCKAE">     0</i>
   <i type="logical" name="LFOCKAEDFT"> F  </i>
   <i name="HFSCREEN">      0.00000000</i>
   <i name="HFSCREENC">      0.00000000</i>
   <i type="int" name="NBANDSGWLOW">     0</i>
  </separator>
  <separator name="vdW DFT" >
   <i type="logical" name="LUSE_VDW"> F  </i>
   <i name="Zab_VDW">     -0.84910000</i>
   <i name="PARAM1">      0.12340000</i>
   <i name="PARAM2">      1.00000000</i>
   <i name="PARAM3">      0.00000000</i>
  </separator>
  <separator name="model GW" >
   <i type="int" name="MODEL_GW">     0</i>
   <i name="MODEL_EPS0">    622.05524768</i>
   <i name="MODEL_ALPHA">      1.00000000</i>
  </separator>
  <separator name="linear response parameters" >
   <i type="logical" name="LEPSILON"> F  </i>
   <i type="logical" name="LRPA"> F  </i>
   <i type="logical" name="LNABLA"> F  </i>
   <i type="logical" name="LVEL"> F  </i>
   <i type="int" name="KINTER">     0</i>
   <i name="CSHIFT">      0.10000000</i>
   <i name="OMEGAMAX">     -1.00000000</i>
   <i name="DEG_THRESHOLD">      0.00200000</i>
   <i name="RTIME">     -0.10000000</i>
   <i name="WPLASMAI">      0.00000000</i>
   <v name="DFIELD">      0.00000000      0.00000000      0.00000000</v>
   <v name="WPLASMA">      0.00000000      0.00000000      0.00000000      0.00000000      0.00000000      0.00000000      0.00000000      0.00000000      0.00000000</v>
  </separator>
  <separator name="orbital magnetization" >
   <i type="logical" name="NUCIND"> F  </i>
   <v name="MAGPOS">      0.00000000      0.00000000      0.00000000</v>
   <i type="logical" name="LNICSALL"> T  </i>
   <i type="logical" name="ORBITALMAG"> F  </i>
   <i type="logical" name="LMAGBLOCH"> F  </i>
   <i type="logical" name="LCHIMAG"> F  </i>
   <i type="logical" name="LGAUGE"> T  </i>
   <i type="int" name="MAGATOM">     0</i>
   <v name="MAGDIPOL">      0.00000000      0.00000000      0.00000000</v>
   <v name="AVECCONST">      0.00000000      0.00000000      0.00000000</v>
  </separator>
  <separator name="response functions" >
   <i type="logical" name="LFINITE_TEMPERATURE"> F  </i>
   <i type="logical" name="LADDER"> F  </i>
   <i type="logical" name="LRPAFORCE"> F  </i>
   <i type="logical" name="LFXC"> F  </i>
   <i type="logical" name="LHARTREE"> T  </i>
   <i type="int" name="IBSE">     0</i>
   <v type="int" name="KPOINT">    -1     0     0     0</v>
   <i type="logical" name="LTCTC"> F  </i>
   <i type="logical" name="LTCTE"> F  </i>
   <i type="logical" name="LTETE"> F  </i>
   <i type="logical" name="LTRIPLET"> F  </i>
   <i type="logical" name="LFXCEPS"> F  </i>
   <i type="logical" name="LFXHEG"> F  </i>
   <i type="int" name="NATURALO">     2</i>
   <i type="logical" name="LHOLEGF"> F  </i>
   <i type="logical" name="L2ORDER"> F  </i>
   <i type="logical" name="LDMP1"> F  </i>
   <i type="logical" name="LMP2LT"> F  </i>
   <i type="logical" name="LSMP2LT"> F  </i>
   <i type="logical" name="LGWLF"> F  </i>
   <i name="ENCUTGW">     -2.00000000</i>
   <i name="ENCUTGWSOFT">     -2.00000000</i>
   <i name="ENCUTLF">     -1.00000000</i>
   <i type="logical" name="LESF_SPLINES"> F  </i>
   <i type="int" name="LMAXMP2">    -1</i>
   <i name="SCISSOR">      0.00000000</i>
   <i type="int" name="NOMEGA">     0</i>
   <i type="int" name="NOMEGAR">     0</i>
   <i type="int" name="NBANDSGW">    -1</i>
   <i type="int" name="NBANDSO">    -1</i>
   <i type="int" name="NBANDSV">    -1</i>
   <i type="int" name="NELM">     1</i>
   <i type="int" name="NELMHF">     1</i>
   <i type="int" name="DIM">     3</i>
   <i type="int" name="IESPILON">     4</i>
   <i type="int" name="ANTIRES">     0</i>
   <i name="OMEGAMAX">    -30.00000000</i>
   <i name="OMEGAMIN">    -30.00000000</i>
   <i name="OMEGATL">   -200.00000000</i>
   <i type="int" name="OMEGAGRID">     0</i>
   <i name="CSHIFT">     -0.10000000</i>
   <i type="logical" name="LSELFENERGY"> F  </i>
   <i type="logical" name="LSPECTRAL"> F  </i>
   <i type="logical" name="LSPECTRALGW"> F  </i>
   <i type="logical" name="LSINGLES"> F  </i>
   <i type="logical" name="LFERMIGW"> F  </i>
   <i type="logical" name="ODDONLYGW"> F  </i>
   <i type="logical" name="EVENONLYGW"> F  </i>
   <i type="int" name="NKREDLFX">     1</i>
   <i type="int" name="NKREDLFY">     1</i>
   <i type="int" name="NKREDLFZ">     1</i>
   <i type="int" name="MAXMEM">  2800</i>
   <i type="int" name="TELESCOPE">     0</i>
   <i type="int" name="NTAUPAR">    -1</i>
   <i type="int" name="NOMEGAPAR">    -1</i>
   <i name="LAMBDA">      1.00000000</i>
  </separator>
  <separator name="External order field" >
   <i name="OFIELD_KAPPA">      0.00000000</i>
   <v name="OFIELD_K">      0.00000000      0.00000000      0.00000000</v>
   <i name="OFIELD_Q6_NEAR">      0.00000000</i>
   <i name="OFIELD_Q6_FAR">      0.00000000</i>
   <i name="OFIELD_A">      0.00000000</i>
  </separator>
 </parameters>
 <atominfo>
  <atoms>      13 </atoms>
  <types>       1 </types>
  <array name="atoms" >
   <dimension dim="1">ion</dimension>
   <field type="string">element</field>
   <field type="int">atomtype</field>
   <set>
    <rc><c>Cu</c><c>   1</c></rc>
    <rc><c>Cu</c><c>   1</c></rc>
    <rc><c>Cu</c><c>   1</c></rc>
    <rc><c>Cu</c><c>   1</c></rc>
    <rc><c>Cu</c><c>   1</c></rc>
    <rc><c>Cu</c><c>   1</c></rc>
    <rc><c>Cu</c><c>   1</c></rc>
    <rc><c>Cu</c><c>   1</c></rc>
    <rc><c>Cu</c><c>   1</c></rc>
    <rc><c>Cu</c><c>   1</c></rc>
    <rc><c>Cu</c><c>   1</c></rc>
    <rc><c>Cu</c><c>   1</c></rc>
    <rc><c>Cu</c><c>   1</c></rc>
   </set>
  </array>
  <array name="atomtypes" >
   <dimension dim="1">type</dimension>
   <field type="int">atomspertype</field>
   <field type="string">element</field>
   <field>mass</field>
   <field>valence</field>
   <field type="string">pseudopotential</field>
   <set>
    <rc><c>  13</c><c>Cu</c><c>     63.54600000</c><c>     11.00000000</c><c>  PAW_PBE Cu 22Jun2005                  </c></rc>
   </set>
  </array>
 </atominfo>
 <structure name="initialpos" >
  <crystal>
   <varray name="basis" >
    <v>      24.84531586       0.00000000       0.00000000 </v>
    <v>       0.00000000      23.03023079       0.00000000 </v>
    <v>       0.00000000       0.00000000      23.55473635 </v>
   </varray>
   <i name="volume">  13477.86369979 </i>
   <varray name="rec_basis" >
    <v>       0.04024904       0.00000000       0.00000000 </v>
    <v>       0.00000000       0.04342119       0.00000000 </v>
    <v>       0.00000000       0.00000000       0.04245431 </v>
   </varray>
  </crystal>
  <varray name="positions" >
   <v>       0.50117776       0.43839530       0.53048224 </v>
   <v>       0.43169794       0.59919244       0.53151165 </v>
   <v>       0.37741448       0.53395011       0.59106103 </v>
   <v>       0.47567734       0.52361402       0.58853656 </v>
   <v>       0.52977802       0.60828712       0.55523865 </v>
   <v>       0.57103937       0.51022233       0.55854307 </v>
   <v>       0.41280730       0.49530464       0.50145700 </v>
   <v>       0.42097853       0.38951061       0.49394606 </v>
   <v>       0.50029417       0.53932782       0.48270079 </v>
   <v>       0.57152005       0.46980485       0.46066846 </v>
   <v>       0.41662963       0.43551823       0.58808618 </v>
   <v>       0.59270717       0.57382025       0.47975715 </v>
   <v>       0.47622839       0.44957136       0.43029712 </v>
  </varray>
 </structure>
 <calculation>
  <scstep>
   <time name="dav">   20.60   20.62</time>
   <time name="total">   26.08   26.17</time>
   <energy>
    <i name="alphaZ">      9.17018016 </i>
    <i name="ewald">  25029.68364838 </i>
    <i name="hartreedc"> -41490.72825617 </i>
    <i name="XCdc">    584.58168656 </i>
    <i name="pawpsdc">  15965.26744864 </i>
    <i name="pawaedc"> -17340.97210982 </i>
    <i name="eentropy">      0.01692566 </i>
    <i name="bandstr">    136.55625199 </i>
    <i name="atom">  18082.44932260 </i>
    <i name="e_fr_energy">    976.02509799 </i>
    <i name="e_wo_entrp">    976.00817232 </i>
    <i name="e_0_energy">    976.01945610 </i>
   </energy>
  </scstep>
  <scstep>
   <time name="dav">   22.43   22.46</time>
   <time name="total">   22.44   22.47</time>
   <energy>
    <i name="e_fr_energy">    251.71905330 </i>
    <i name="e_wo_entrp">    251.70768057 </i>
    <i name="e_0_energy">    251.71526239 </i>
   </energy>
  </scstep>
  <scstep>
   <time name="dav">   24.13   24.16</time>
   <time name="total">   24.13   24.16</time>
   <energy>
    <i name="e_fr_energy">     11.40617460 </i>
    <i name="e_wo_entrp">     11.43265179 </i>
    <i name="e_0_energy">     11.41500033 </i>
   </energy>
  </scstep>
  <scstep>
   <time name="dav">   22.93   22.96</time>
   <time name="total">   22.93   22.96</time>
   <energy>
    <i name="e_fr_energy">    -35.12531872 </i>
    <i name="e_wo_entrp">    -35.15578306 </i>
    <i name="e_0_energy">    -35.13547350 </i>
   </energy>
  </scstep>
  <scstep>
   <time name="dav">   24.42   24.45</time>
   <time name="total">   26.46   26.49</time>
   <energy>
    <i name="e_fr_energy">    -37.38033421 </i>
    <i name="e_wo_entrp">    -37.41815153 </i>
    <i name="e_0_energy">    -37.39293998 </i>
   </energy>
  </scstep>
  <scstep>
   <time name="dav">   21.08   21.11</time>
   <time name="total">   28.36   28.64</time>
   <energy>
    <i name="e_fr_energy">    -14.90565098 </i>
    <i name="e_wo_entrp">    -14.88311397 </i>
    <i name="e_0_energy">    -14.89813864 </i>
   </energy>
  </scstep>
  <scstep>
   <time name="dav">   22.12   22.15</time>
   <time name="total">   29.53   29.57</time>
   <energy>
    <i name="e_fr_energy">    -11.04878179 </i>
    <i name="e_wo_entrp">    -11.01625172 </i>
    <i name="e_0_energy">    -11.03793844 </i>
   </energy>
  </scstep>
  <scstep>
   <time name="dav">   23.03   23.06</time>
   <time name="total">   30.45   30.49</time>
   <energy>
    <i name="e_fr_energy">    -11.12675659 </i>
    <i name="e_wo_entrp">    -11.09587653 </i>
    <i name="e_0_energy">    -11.11646323 </i>
   </energy>
  </scstep>
  <scstep>
   <time name="dav">   23.50   23.53</time>
   <time name="total">   31.07   31.12</time>
   <energy>
    <i name="e_fr_energy">    -12.86628061 </i>
    <i name="e_wo_entrp">    -12.82613438 </i>
    <i name="e_0_energy">    -12.85289853 </i>
   </energy>
  </scstep>
  <scstep>
   <time name="dav">   27.17   27.21</time>
   <time name="total">   34.47   34.51</time>
   <energy>
    <i name="e_fr_energy">    -15.30278130 </i>
    <i name="e_wo_entrp">    -15.26424777 </i>
    <i name="e_0_energy">    -15.28993679 </i>
   </energy>
  </scstep>
  <scstep>
   <time name="dav">   23.79   23.81</time>
   <time name="total">   31.16   31.75</time>
   <energy>
    <i name="e_fr_energy">    -17.33477807 </i>
    <i name="e_wo_entrp">    -17.31686087 </i>
    <i name="e_0_energy">    -17.32880567 </i>
   </energy>
  </scstep>
  <scstep>
   <time name="dav">   25.05   25.07</time>
   <time name="total">   32.41   32.45</time>
   <energy>
    <i name="e_fr_energy">    -19.40254232 </i>
    <i name="e_wo_entrp">    -19.41228611 </i>
    <i name="e_0_energy">    -19.40579025 </i>
   </energy>
  </scstep>
  <scstep>
   <time name="dav">   23.45   23.48</time>
   <time name="total">   30.96   31.00</time>
   <energy>
    <i name="e_fr_energy">    -23.34093437 </i>
    <i name="e_wo_entrp">    -23.37755572 </i>
    <i name="e_0_energy">    -23.35314148 </i>
   </energy>
  </scstep>
  <scstep>
   <time name="dav">   23.48   23.51</time>
   <time name="total">   31.00   31.04</time>
   <energy>
    <i name="e_fr_energy">    -26.49208903 </i>
    <i name="e_wo_entrp">    -26.51922196 </i>
    <i name="e_0_energy">    -26.50113334 </i>
   </energy>
  </scstep>
  <scstep>
   <time name="dav">   24.79   24.83</time>
   <time name="total">   32.57   33.28</time>
   <energy>
    <i name="e_fr_energy">    -28.18451274 </i>
    <i name="e_wo_entrp">    -28.21358408 </i>
    <i name="e_0_energy">    -28.19420318 </i>
   </energy>
  </scstep>
  <scstep>
   <time name="dav">   24.50   24.53</time>
   <time name="total">   31.85   31.89</time>
   <energy>
    <i name="e_fr_energy">    -30.45101520 </i>
    <i name="e_wo_entrp">    -30.49324407 </i>
    <i name="e_0_energy">    -30.46509149 </i>
   </energy>
  </scstep>
  <scstep>
   <time name="dav">   24.96   24.99</time>
   <time name="total">   32.41   32.46</time>
   <energy>
    <i name="e_fr_energy">    -31.47620142 </i>
    <i name="e_wo_entrp">    -31.51424206 </i>
    <i name="e_0_energy">    -31.48888163 </i>
   </energy>
  </scstep>
  <scstep>
   <time name="dav">   25.79   25.82</time>
   <time name="total">   33.10   33.17</time>
   <energy>
    <i name="e_fr_energy">    -31.88819250 </i>
    <i name="e_wo_entrp">    -31.91839063 </i>
    <i name="e_0_energy">    -31.89825854 </i>
   </energy>
  </scstep>
  <scstep>
   <time name="dav">   25.49   25.52</time>
   <time name="total">   33.02   34.13</time>
   <energy>
    <i name="e_fr_energy">    -32.24441334 </i>
    <i name="e_wo_entrp">    -32.26597310 </i>
    <i name="e_0_energy">    -32.25159993 </i>
   </energy>
  </scstep>
  <scstep>
   <time name="dav">   26.09   26.12</time>
   <time name="total">   33.55   33.60</time>
   <energy>
    <i name="e_fr_energy">    -32.67813222 </i>
    <i name="e_wo_entrp">    -32.69049776 </i>
    <i name="e_0_energy">    -32.68225407 </i>
   </energy>
  </scstep>
  <scstep>
   <time name="dav">   22.14   22.17</time>
   <time name="total">   29.77   29.82</time>
   <energy>
    <i name="e_fr_energy">    -32.89812981 </i>
    <i name="e_wo_entrp">    -32.90363089 </i>
    <i name="e_0_energy">    -32.89996350 </i>
   </energy>
  </scstep>
  <scstep>
   <time name="dav">   26.38   26.42</time>
   <time name="total">   33.57   33.62</time>
   <energy>
    <i name="e_fr_energy">    -32.99894247 </i>
    <i name="e_wo_entrp">    -32.99944814 </i>
    <i name="e_0_energy">    -32.99911102 </i>
   </energy>
  </scstep>
  <scstep>
   <time name="dav">   26.01   26.05</time>
   <time name="total">   33.73   33.79</time>
   <energy>
    <i name="e_fr_energy">    -33.08926134 </i>
    <i name="e_wo_entrp">    -33.08518224 </i>
    <i name="e_0_energy">    -33.08790164 </i>
   </energy>
  </scstep>
  <scstep>
   <time name="dav">   22.60   22.63</time>
   <time name="total">   30.08   30.13</time>
   <energy>
    <i name="e_fr_energy">    -33.11777878 </i>
    <i name="e_wo_entrp">    -33.11127038 </i>
    <i name="e_0_energy">    -33.11560931 </i>
   </energy>
  </scstep>
  <scstep>
   <time name="dav">   17.43   17.45</time>
   <time name="total">   24.57   24.62</time>
   <energy>
    <i name="e_fr_energy">    -33.13482699 </i>
    <i name="e_wo_entrp">    -33.12650797 </i>
    <i name="e_0_energy">    -33.13205398 </i>
   </energy>
  </scstep>
  <scstep>
   <time name="dav">   17.82   17.85</time>
   <time name="total">   25.00   25.05</time>
   <energy>
    <i name="e_fr_energy">    -33.14652919 </i>
    <i name="e_wo_entrp">    -33.13666743 </i>
    <i name="e_0_energy">    -33.14324193 </i>
   </energy>
  </scstep>
  <scstep>
   <time name="dav">   18.55   18.58</time>
   <time name="total">   25.95   25.99</time>
   <energy>
    <i name="e_fr_energy">    -33.15470217 </i>
    <i name="e_wo_entrp">    -33.14323883 </i>
    <i name="e_0_energy">    -33.15088106 </i>
   </energy>
  </scstep>
  <scstep>
   <time name="dav">   16.60   16.61</time>
   <time name="total">   24.41   24.45</time>
   <energy>
    <i name="e_fr_energy">    -33.15953846 </i>
    <i name="e_wo_entrp">    -33.14668245 </i>
    <i name="e_0_energy">    -33.15525312 </i>
   </energy>
  </scstep>
  <scstep>
   <time name="dav">   16.16   16.17</time>
   <time name="total">   23.82   23.86</time>
   <energy>
    <i name="e_fr_energy">    -33.16262697 </i>
    <i name="e_wo_entrp">    -33.14881105 </i>
    <i name="e_0_energy">    -33.15802166 </i>
   </energy>
  </scstep>
  <scstep>
   <time name="dav">   15.10   15.12</time>
   <time name="total">   22.34   22.37</time>
   <energy>
    <i name="e_fr_energy">    -33.16599927 </i>
    <i name="e_wo_entrp">    -33.15103074 </i>
    <i name="e_0_energy">    -33.16100976 </i>
   </energy>
  </scstep>
  <scstep>
   <time name="dav">   13.78   13.80</time>
   <time name="total">   21.10   21.14</time>
   <energy>
    <i name="e_fr_energy">    -33.16854832 </i>
    <i name="e_wo_entrp">    -33.15262508 </i>
    <i name="e_0_energy">    -33.16324058 </i>
   </energy>
  </scstep>
  <scstep>
   <time name="dav">   16.50   16.52</time>
   <time name="total">   24.21   24.24</time>
   <energy>
    <i name="e_fr_energy">    -33.16977296 </i>
    <i name="e_wo_entrp">    -33.15334212 </i>
    <i name="e_0_energy">    -33.16429601 </i>
   </energy>
  </scstep>
  <scstep>
   <time name="dav">   16.69   16.71</time>
   <time name="total">   24.42   24.45</time>
   <energy>
    <i name="e_fr_energy">    -33.17066450 </i>
    <i name="e_wo_entrp">    -33.15374692 </i>
    <i name="e_0_energy">    -33.16502531 </i>
   </energy>
  </scstep>
  <scstep>
   <time name="dav">   16.57   16.59</time>
   <time name="total">   24.53   24.57</time>
   <energy>
    <i name="e_fr_energy">    -33.17132991 </i>
    <i name="e_wo_entrp">    -33.15390556 </i>
    <i name="e_0_energy">    -33.16552179 </i>
   </energy>
  </scstep>
  <scstep>
   <time name="dav">   16.25   16.28</time>
   <time name="total">   23.54   23.58</time>
   <energy>
    <i name="e_fr_energy">    -33.17162660 </i>
    <i name="e_wo_entrp">    -33.15385418 </i>
    <i name="e_0_energy">    -33.16570246 </i>
   </energy>
  </scstep>
  <scstep>
   <time name="dav">   16.21   16.24</time>
   <time name="total">   24.24   24.29</time>
   <energy>
    <i name="e_fr_energy">    -33.17181644 </i>
    <i name="e_wo_entrp">    -33.15367544 </i>
    <i name="e_0_energy">    -33.16576944 </i>
   </energy>
  </scstep>
  <scstep>
   <time name="dav">   16.45   16.47</time>
   <time name="total">   21.71   21.74</time>
   <energy>
    <i name="alphaZ">      9.17018016 </i>
    <i name="ewald">  25029.68364838 </i>
    <i name="hartreedc"> -41446.08445340 </i>
    <i name="XCdc">    574.54202246 </i>
    <i name="pawpsdc">  16693.83084669 </i>
    <i name="pawaedc"> -18087.38355162 </i>
    <i name="eentropy">     -0.01862245 </i>
    <i name="bandstr">   -889.36130834 </i>
    <i name="atom">  18082.44932260 </i>
    <i name="e_fr_energy">    -33.17191552 </i>
    <i name="e_wo_entrp">    -33.15329308 </i>
    <i name="e_0_energy">    -33.16570804 </i>
   </energy>
  </scstep>
  <structure>
   <crystal>
    <varray name="basis" >
     <v>      24.84531586       0.00000000       0.00000000 </v>
     <v>       0.00000000      23.03023079       0.00000000 </v>
     <v>       0.00000000       0.00000000      23.55473635 </v>
    </varray>
    <i name="volume">  13477.86369979 </i>
    <varray name="rec_basis" >
     <v>       0.04024904       0.00000000       0.00000000 </v>
     <v>       0.00000000       0.04342119       0.00000000 </v>
     <v>       0.00000000       0.00000000       0.04245431 </v>
    </varray>
   </crystal>
   <varray name="positions" >
    <v>       0.50117776       0.43839530       0.53048224 </v>
    <v>       0.43169794       0.59919244       0.53151165 </v>
    <v>       0.37741448       0.53395011       0.59106103 </v>
    <v>       0.47567734       0.52361402       0.58853656 </v>
    <v>       0.52977802       0.60828712       0.55523865 </v>
    <v>       0.57103937       0.51022233       0.55854307 </v>
    <v>       0.41280730       0.49530464       0.50145700 </v>
    <v>       0.42097853       0.38951061       0.49394606 </v>
    <v>       0.50029417       0.53932782       0.48270079 </v>
    <v>       0.57152005       0.46980485       0.46066846 </v>
    <v>       0.41662963       0.43551823       0.58808618 </v>
    <v>       0.59270717       0.57382025       0.47975715 </v>
    <v>       0.47622839       0.44957136       0.43029712 </v>
   </varray>
  </structure>
  <varray name="forces" >
   <v>      -0.06320464       0.05251960      -0.13524921 </v>
   <v>       0.19994148      -0.35103568       0.28295507 </v>
   <v>       0.07651642      -0.00192553      -0.04166290 </v>
   <v>      -0.10807634       0.05744243      -0.13079291 </v>
   <v>      -0.03716310      -0.07955213      -0.13669519 </v>
   <v>      -0.54817530       0.08107981      -0.37538449 </v>
   <v>       0.24211121      -0.11616340       0.32284509 </v>
   <v>       0.02418512       0.04001402      -0.01424118 </v>
   <v>       0.27155645       0.08423115       0.01762724 </v>
   <v>      -0.13514615       0.10684191       0.02590007 </v>
   <v>      -0.03570770       0.26161720      -0.36176773 </v>
   <v>      -0.02957717      -0.05988726       0.07175400 </v>
   <v>       0.14273974      -0.07518212       0.47471215 </v>
  </varray>
  <energy>
   <i name="e_fr_energy">    -33.17191552 </i>
   <i name="e_wo_entrp">    -33.15329308 </i>
   <i name="e_0_energy">    -33.16570804 </i>
  </energy>
  <time name="totalsc"> 1062.06 1066.23</time>
 </calculation>
 <calculation>
  <scstep>
   <time name="dav">   21.22   21.25</time>
   <time name="total">   28.62   28.66</time>
   <energy>
    <i name="alphaZ">      9.17018016 </i>
    <i name="ewald">  25224.77574244 </i>
    <i name="hartreedc"> -41639.37961465 </i>
    <i name="XCdc">    574.87921106 </i>
    <i name="pawpsdc">  16693.82522171 </i>
    <i name="pawaedc"> -18087.37443095 </i>
    <i name="eentropy">     -0.02069719 </i>
    <i name="bandstr">   -891.52158647 </i>
    <i name="atom">  18082.44932260 </i>
    <i name="e_fr_energy">    -33.19665130 </i>
    <i name="e_wo_entrp">    -33.17595411 </i>
    <i name="e_0_energy">    -33.18975223 </i>
   </energy>
  </scstep>
  <scstep>
   <time name="dav">   26.88   26.92</time>
   <time name="total">   33.99   34.04</time>
   <energy>
    <i name="e_fr_energy">    -33.23508162 </i>
    <i name="e_wo_entrp">    -33.21401691 </i>
    <i name="e_0_energy">    -33.22806005 </i>
   </energy>
  </scstep>
  <scstep>
   <time name="dav">   20.52   20.55</time>
   <time name="total">   27.71   27.76</time>
   <energy>
    <i name="e_fr_energy">    -33.23279153 </i>
    <i name="e_wo_entrp">    -33.21184890 </i>
    <i name="e_0_energy">    -33.22581066 </i>
   </energy>
  </scstep>
  <scstep>
   <time name="dav">   18.62   18.65</time>
   <time name="total">   26.05   26.08</time>
   <energy>
    <i name="e_fr_energy">    -33.23297338 </i>
    <i name="e_wo_entrp">    -33.21195724 </i>
    <i name="e_0_energy">    -33.22596800 </i>
   </energy>
  </scstep>
  <scstep>
   <time name="dav">   21.64   21.67</time>
   <time name="total">   29.02   29.06</time>
   <energy>
    <i name="e_fr_energy">    -33.23274626 </i>
    <i name="e_wo_entrp">    -33.21166660 </i>
    <i name="e_0_energy">    -33.22571971 </i>
   </energy>
  </scstep>
  <scstep>
   <time name="dav">   25.91   25.95</time>
   <time name="total">   33.13   33.19</time>
   <energy>
    <i name="e_fr_energy">    -33.23266324 </i>
    <i name="e_wo_entrp">    -33.21138589 </i>
    <i name="e_0_energy">    -33.22557079 </i>
   </energy>
  </scstep>
  <scstep>
   <time name="dav">   21.54   21.57</time>
   <time name="total">   27.00   27.03</time>
   <energy>
    <i name="alphaZ">      9.17018016 </i>
    <i name="ewald">  25224.77574244 </i>
    <i name="hartreedc"> -41636.93310751 </i>
    <i name="XCdc">    574.75418801 </i>
    <i name="pawpsdc">  16734.72849466 </i>
    <i name="pawaedc"> -18129.09202449 </i>
    <i name="eentropy">     -0.02132483 </i>
    <i name="bandstr">   -893.06405226 </i>
    <i name="atom">  18082.44932260 </i>
    <i name="e_fr_energy">    -33.23258122 </i>
    <i name="e_wo_entrp">    -33.21125639 </i>
    <i name="e_0_energy">    -33.22547295 </i>
   </energy>
  </scstep>
  <structure>
   <crystal>
    <varray name="basis" >
     <v>      24.84531586       0.00000000       0.00000000 </v>
     <v>       0.00000000      23.03023079       0.00000000 </v>
     <v>       0.00000000       0.00000000      23.55473635 </v>
    </varray>
    <i name="volume">  13477.86369979 </i>
    <varray name="rec_basis" >
     <v>       0.04024904       0.00000000       0.00000000 </v>
     <v>       0.00000000       0.04342119       0.00000000 </v>
     <v>       0.00000000       0.00000000       0.04245431 </v>
    </varray>
   </crystal>
   <varray name="positions" >
    <v>       0.50105503       0.43850532       0.53020524 </v>
    <v>       0.43208617       0.59845711       0.53209118 </v>
    <v>       0.37756305       0.53394607       0.59097570 </v>
    <v>       0.47546748       0.52373435       0.58826868 </v>
    <v>       0.52970586       0.60812047       0.55495868 </v>
    <v>       0.56997497       0.51039217       0.55777424 </v>
    <v>       0.41327741       0.49506130       0.50211822 </v>
    <v>       0.42102549       0.38959443       0.49391689 </v>
    <v>       0.50082146       0.53950427       0.48273690 </v>
    <v>       0.57125763       0.47002865       0.46072150 </v>
    <v>       0.41656029       0.43606625       0.58734524 </v>
    <v>       0.59264974       0.57369480       0.47990411 </v>
    <v>       0.47650555       0.44941387       0.43126938 </v>
   </varray>
  </structure>
  <varray name="forces" >
   <v>      -0.03285537      -0.01181199      -0.04161121 </v>
   <v>       0.14416298      -0.21400611       0.20817549 </v>
   <v>      -0.00616140       0.02066561       0.02029568 </v>
   <v>      -0.06120470       0.01537423      -0.02771971 </v>
   <v>      -0.01554447       0.01682490      -0.07976587 </v>
   <v>      -0.41414297       0.03432421      -0.24047419 </v>
   <v>       0.19988238      -0.04198926       0.17020133 </v>
   <v>      -0.00974723      -0.03196426      -0.02355031 </v>
   <v>       0.12753833       0.08218077      -0.04909137 </v>
   <v>      -0.05137192       0.04551121      -0.03613449 </v>
   <v>      -0.04880789       0.14189935      -0.22205797 </v>
   <v>       0.05234276       0.00604562       0.01737194 </v>
   <v>       0.11590950      -0.06305429       0.30436065 </v>
  </varray>
  <energy>
   <i name="e_fr_energy">    -33.23258122 </i>
   <i name="e_wo_entrp">    -33.21125639 </i>
   <i name="e_0_energy">    -33.22547295 </i>
  </energy>
  <time name="totalsc">  232.83  233.21</time>
 </calculation>
 <calculation>
  <scstep>
   <time name="dav">   21.42   21.44</time>
   <time name="total">   28.87   28.91</time>
   <energy>
    <i name="alphaZ">      9.17018016 </i>
    <i name="ewald">  25468.90484079 </i>
    <i name="hartreedc"> -41878.71016228 </i>
    <i name="XCdc">    575.18887333 </i>
    <i name="pawpsdc">  16734.72111157 </i>
    <i name="pawaedc"> -18129.09212758 </i>
    <i name="eentropy">     -0.02582147 </i>
    <i name="bandstr">   -895.81622517 </i>
    <i name="atom">  18082.44932260 </i>
    <i name="e_fr_energy">    -33.21000806 </i>
    <i name="e_wo_entrp">    -33.18418659 </i>
    <i name="e_0_energy">    -33.20140091 </i>
   </energy>
  </scstep>
  <scstep>
   <time name="dav">   23.34   23.36</time>
   <time name="total">   30.38   30.43</time>
   <energy>
    <i name="e_fr_energy">    -33.27097119 </i>
    <i name="e_wo_entrp">    -33.24449559 </i>
    <i name="e_0_energy">    -33.26214599 </i>
   </energy>
  </scstep>
  <scstep>
   <time name="dav">   21.58   21.61</time>
   <time name="total">   28.98   29.02</time>
   <energy>
    <i name="e_fr_energy">    -33.26646718 </i>
    <i name="e_wo_entrp">    -33.24017852 </i>
    <i name="e_0_energy">    -33.25770430 </i>
   </energy>
  </scstep>
  <scstep>
   <time name="dav">   22.02   22.05</time>
   <time name="total">   29.43   29.47</time>
   <energy>
    <i name="e_fr_energy">    -33.26679229 </i>
    <i name="e_wo_entrp">    -33.24032995 </i>
    <i name="e_0_energy">    -33.25797151 </i>
   </energy>
  </scstep>
  <scstep>
   <time name="dav">   20.61   20.64</time>
   <time name="total">   27.85   27.89</time>
   <energy>
    <i name="e_fr_energy">    -33.26639914 </i>
    <i name="e_wo_entrp">    -33.23985108 </i>
    <i name="e_0_energy">    -33.25754979 </i>
   </energy>
  </scstep>
  <scstep>
   <time name="dav">   24.88   24.91</time>
   <time name="total">   31.98   32.02</time>
   <energy>
    <i name="e_fr_energy">    -33.26621442 </i>
    <i name="e_wo_entrp">    -33.23932553 </i>
    <i name="e_0_energy">    -33.25725145 </i>
   </energy>
  </scstep>
  <scstep>
   <time name="dav">   23.32   23.35</time>
   <time name="total">   28.76   28.80</time>
   <energy>
    <i name="alphaZ">      9.17018016 </i>
    <i name="ewald">  25468.90484079 </i>
    <i name="hartreedc"> -41875.55417120 </i>
    <i name="XCdc">    575.02601198 </i>
    <i name="pawpsdc">  16788.70712115 </i>
    <i name="pawaedc"> -18184.09848666 </i>
    <i name="eentropy">     -0.02694898 </i>
    <i name="bandstr">   -897.84404175 </i>
    <i name="atom">  18082.44932260 </i>
    <i name="e_fr_energy">    -33.26617192 </i>
    <i name="e_wo_entrp">    -33.23922294 </i>
    <i name="e_0_energy">    -33.25718893 </i>
   </energy>
  </scstep>
  <structure>
   <crystal>
    <varray name="basis" >
     <v>      24.84531586       0.00000000       0.00000000 </v>
     <v>       0.00000000      23.03023079       0.00000000 </v>
     <v>       0.00000000       0.00000000      23.55473635 </v>
    </varray>
    <i name="volume">  13477.86369979 </i>
    <varray name="rec_basis" >
     <v>       0.04024904       0.00000000       0.00000000 </v>
     <v>       0.00000000       0.04342119       0.00000000 </v>
     <v>       0.00000000       0.00000000       0.04245431 </v>
    </varray>
   </crystal>
   <varray name="positions" >
    <v>       0.50090306       0.43864155       0.52986222 </v>
    <v>       0.43256692       0.59754653       0.53280881 </v>
    <v>       0.37774703       0.53394108       0.59087003 </v>
    <v>       0.47520762       0.52388335       0.58793696 </v>
    <v>       0.52961650       0.60791412       0.55461200 </v>
    <v>       0.56865690       0.51060249       0.55682219 </v>
    <v>       0.41385956       0.49475998       0.50293702 </v>
    <v>       0.42108365       0.38969823       0.49388077 </v>
    <v>       0.50147440       0.53972276       0.48278160 </v>
    <v>       0.57093268       0.47030580       0.46078719 </v>
    <v>       0.41647444       0.43674487       0.58642772 </v>
    <v>       0.59257862       0.57353946       0.48008609 </v>
    <v>       0.47684877       0.44921885       0.43247335 </v>
   </varray>
  </structure>
  <varray name="forces" >
   <v>       0.01168722      -0.10315823       0.09931719 </v>
   <v>       0.06448153      -0.01123404       0.09978613 </v>
   <v>      -0.11679405       0.04420688       0.09735828 </v>
   <v>       0.00958011      -0.05405580       0.12021889 </v>
   <v>       0.01306986       0.14000654      -0.01056920 </v>
   <v>      -0.22115554      -0.02938535      -0.05314562 </v>
   <v>       0.13674556       0.06190398      -0.04553778 </v>
   <v>      -0.05826371      -0.12362503      -0.03414879 </v>
   <v>      -0.06775688       0.08589433      -0.14979386 </v>
   <v>       0.05864831      -0.03114498      -0.11834063 </v>
   <v>      -0.06784483      -0.01399476      -0.03033418 </v>
   <v>       0.16096197       0.08902316      -0.05121233 </v>
   <v>       0.07664044      -0.05443672       0.07640191 </v>
  </varray>
  <energy>
   <i name="e_fr_energy">    -33.26617192 </i>
   <i name="e_wo_entrp">    -33.23922294 </i>
   <i name="e_0_energy">    -33.25718893 </i>
  </energy>
  <time name="totalsc">  233.77  240.07</time>
 </calculation>
 <calculation>
  <scstep>
   <time name="dav">   20.66   20.68</time>
   <time name="total">   28.03   28.07</time>
   <energy>
    <i name="alphaZ">      9.17018016 </i>
    <i name="ewald">  25436.48760355 </i>
    <i name="hartreedc"> -41843.69560120 </i>
    <i name="XCdc">    574.98059537 </i>
    <i name="pawpsdc">  16788.58477619 </i>
    <i name="pawaedc"> -18183.97293527 </i>
    <i name="eentropy">     -0.02948256 </i>
    <i name="bandstr">   -897.24529102 </i>
    <i name="atom">  18082.44932260 </i>
    <i name="e_fr_energy">    -33.27083218 </i>
    <i name="e_wo_entrp">    -33.24134962 </i>
    <i name="e_0_energy">    -33.26100466 </i>
   </energy>
  </scstep>
  <scstep>
   <time name="dav">   27.63   27.66</time>
   <time name="total">   34.78   34.83</time>
   <energy>
    <i name="e_fr_energy">    -33.28324179 </i>
    <i name="e_wo_entrp">    -33.25354713 </i>
    <i name="e_0_energy">    -33.27334357 </i>
   </energy>
  </scstep>
  <scstep>
   <time name="dav">   19.36   19.38</time>
   <time name="total">   26.30   26.34</time>
   <energy>
    <i name="e_fr_energy">    -33.28298482 </i>
    <i name="e_wo_entrp">    -33.25325039 </i>
    <i name="e_0_energy">    -33.27307334 </i>
   </energy>
  </scstep>
  <scstep>
   <time name="dav">   20.91   20.93</time>
   <time name="total">   28.33   28.36</time>
   <energy>
    <i name="e_fr_energy">    -33.28294297 </i>
    <i name="e_wo_entrp">    -33.25311647 </i>
    <i name="e_0_energy">    -33.27300080 </i>
   </energy>
  </scstep>
  <scstep>
   <time name="dav">   16.11   16.12</time>
   <time name="total">   23.52   23.56</time>
   <energy>
    <i name="e_fr_energy">    -33.28280585 </i>
    <i name="e_wo_entrp">    -33.25278710 </i>
    <i name="e_0_energy">    -33.27279960 </i>
   </energy>
  </scstep>
  <scstep>
   <time name="dav">   25.76   25.80</time>
   <time name="total">   31.21   31.25</time>
   <energy>
    <i name="alphaZ">      9.17018016 </i>
    <i name="ewald">  25436.48760355 </i>
    <i name="hartreedc"> -41843.74010113 </i>
    <i name="XCdc">    574.98274700 </i>
    <i name="pawpsdc">  16782.02917300 </i>
    <i name="pawaedc"> -18177.22681301 </i>
    <i name="eentropy">     -0.03050995 </i>
    <i name="bandstr">   -897.40439550 </i>
    <i name="atom">  18082.44932260 </i>
    <i name="e_fr_energy">    -33.28279329 </i>
    <i name="e_wo_entrp">    -33.25228334 </i>
    <i name="e_0_energy">    -33.27262331 </i>
   </energy>
  </scstep>
  <structure>
   <crystal>
    <varray name="basis" >
     <v>      24.84531586       0.00000000       0.00000000 </v>
     <v>       0.00000000      23.03023079       0.00000000 </v>
     <v>       0.00000000       0.00000000      23.55473635 </v>
    </varray>
    <i name="volume">  13477.86369979 </i>
    <varray name="rec_basis" >
     <v>       0.04024904       0.00000000       0.00000000 </v>
     <v>       0.00000000       0.04342119       0.00000000 </v>
     <v>       0.00000000       0.00000000       0.04245431 </v>
    </varray>
   </crystal>
   <varray name="positions" >
    <v>       0.50091557       0.43838611       0.53008033 </v>
    <v>       0.43277313       0.59742246       0.53313844 </v>
    <v>       0.37748322       0.53405609       0.59110783 </v>
    <v>       0.47520380       0.52375757       0.58820966 </v>
    <v>       0.52963887       0.60825857       0.55454893 </v>
    <v>       0.56798404       0.51054756       0.55658736 </v>
    <v>       0.41425139       0.49489043       0.50290582 </v>
    <v>       0.42094854       0.38938592       0.49378975 </v>
    <v>       0.50137817       0.53996997       0.48240348 </v>
    <v>       0.57104096       0.47025323       0.46049162 </v>
    <v>       0.41630114       0.43677888       0.58625478 </v>
    <v>       0.59296117       0.57375597       0.47997415 </v>
    <v>       0.47707013       0.44905629       0.43279380 </v>
   </varray>
  </structure>
  <varray name="forces" >
   <v>      -0.00342962      -0.10156059       0.08293832 </v>
   <v>       0.04186013       0.00186817       0.09330935 </v>
   <v>      -0.07492852       0.02327839       0.06342935 </v>
   <v>      -0.01411626      -0.04539633       0.10675147 </v>
   <v>       0.01807562       0.09302208      -0.03537730 </v>
   <v>      -0.14761333       0.00570366      -0.07349068 </v>
   <v>       0.09102393       0.04462797      -0.02779287 </v>
   <v>      -0.04282030      -0.07737270      -0.01825024 </v>
   <v>       0.00668583       0.08468482      -0.12418626 </v>
   <v>       0.03815519       0.00678599      -0.07888570 </v>
   <v>      -0.07195179      -0.01103029      -0.02954416 </v>
   <v>       0.09540426       0.03883039      -0.01551172 </v>
   <v>       0.06365488      -0.06344156       0.05661046 </v>
  </varray>
  <energy>
   <i name="e_fr_energy">    -33.28279329 </i>
   <i name="e_wo_entrp">    -33.25228334 </i>
   <i name="e_0_energy">    -33.27262331 </i>
  </energy>
  <time name="totalsc">  198.99  199.28</time>
 </calculation>
 <calculation>
  <scstep>
   <time name="dav">   20.66   20.68</time>
   <time name="total">   28.12   28.16</time>
   <energy>
    <i name="alphaZ">      9.17018016 </i>
    <i name="ewald">  25350.60647579 </i>
    <i name="hartreedc"> -41759.16995277 </i>
    <i name="XCdc">    574.87471269 </i>
    <i name="pawpsdc">  16782.09990442 </i>
    <i name="pawaedc"> -18177.32477906 </i>
    <i name="eentropy">     -0.03782206 </i>
    <i name="bandstr">   -895.87667943 </i>
    <i name="atom">  18082.44932260 </i>
    <i name="e_fr_energy">    -33.20863767 </i>
    <i name="e_wo_entrp">    -33.17081561 </i>
    <i name="e_0_energy">    -33.19603032 </i>
   </energy>
  </scstep>
  <scstep>
   <time name="dav">   27.58   27.61</time>
   <time name="total">   35.16   35.21</time>
   <energy>
    <i name="e_fr_energy">    -33.30735670 </i>
    <i name="e_wo_entrp">    -33.26896244 </i>
    <i name="e_0_energy">    -33.29455861 </i>
   </energy>
  </scstep>
  <scstep>
   <time name="dav">   22.13   22.17</time>
   <time name="total">   29.31   29.36</time>
   <energy>
    <i name="e_fr_energy">    -33.30309908 </i>
    <i name="e_wo_entrp">    -33.26460370 </i>
    <i name="e_0_energy">    -33.29026729 </i>
   </energy>
  </scstep>
  <scstep>
   <time name="dav">   22.10   22.12</time>
   <time name="total">   29.49   29.52</time>
   <energy>
    <i name="e_fr_energy">    -33.30298638 </i>
    <i name="e_wo_entrp">    -33.26424258 </i>
    <i name="e_0_energy">    -33.29007178 </i>
   </energy>
  </scstep>
  <scstep>
   <time name="dav">   21.78   21.81</time>
   <time name="total">   29.22   29.27</time>
   <energy>
    <i name="e_fr_energy">    -33.30171705 </i>
    <i name="e_wo_entrp">    -33.26266221 </i>
    <i name="e_0_energy">    -33.28869877 </i>
   </energy>
  </scstep>
  <scstep>
   <time name="dav">   26.24   26.27</time>
   <time name="total">   33.60   33.64</time>
   <energy>
    <i name="e_fr_energy">    -33.30096049 </i>
    <i name="e_wo_entrp">    -33.26104359 </i>
    <i name="e_0_energy">    -33.28765486 </i>
   </energy>
  </scstep>
  <scstep>
   <time name="dav">   22.04   22.07</time>
   <time name="total">   27.51   27.55</time>
   <energy>
    <i name="alphaZ">      9.17018016 </i>
    <i name="ewald">  25350.60647579 </i>
    <i name="hartreedc"> -41759.56176871 </i>
    <i name="XCdc">    574.90145285 </i>
    <i name="pawpsdc">  16767.45751651 </i>
    <i name="pawaedc"> -18162.47822618 </i>
    <i name="eentropy">     -0.03996853 </i>
    <i name="bandstr">   -895.80586637 </i>
    <i name="atom">  18082.44932260 </i>
    <i name="e_fr_energy">    -33.30088189 </i>
    <i name="e_wo_entrp">    -33.26091335 </i>
    <i name="e_0_energy">    -33.28755904 </i>
   </energy>
  </scstep>
  <structure>
   <crystal>
    <varray name="basis" >
     <v>      24.84531586       0.00000000       0.00000000 </v>
     <v>       0.00000000      23.03023079       0.00000000 </v>
     <v>       0.00000000       0.00000000      23.55473635 </v>
    </varray>
    <i name="volume">  13477.86369979 </i>
    <varray name="rec_basis" >
     <v>       0.04024904       0.00000000       0.00000000 </v>
     <v>       0.00000000       0.04342119       0.00000000 </v>
     <v>       0.00000000       0.00000000       0.04245431 </v>
    </varray>
   </crystal>
   <varray name="positions" >
    <v>       0.50094854       0.43771257       0.53065544 </v>
    <v>       0.43331688       0.59709532       0.53400759 </v>
    <v>       0.37678761       0.53435937       0.59173484 </v>
    <v>       0.47519373       0.52342592       0.58892871 </v>
    <v>       0.52969785       0.60916681       0.55438264 </v>
    <v>       0.56620984       0.51040274       0.55596817 </v>
    <v>       0.41528455       0.49523439       0.50282355 </v>
    <v>       0.42059231       0.38856245       0.49354976 </v>
    <v>       0.50112442       0.54062182       0.48140644 </v>
    <v>       0.57132648       0.47011460       0.45971227 </v>
    <v>       0.41584421       0.43686855       0.58579876 </v>
    <v>       0.59396988       0.57432685       0.47967900 </v>
    <v>       0.47765383       0.44862767       0.43363878 </v>
   </varray>
  </structure>
  <varray name="forces" >
   <v>      -0.05396357      -0.11341918       0.04282792 </v>
   <v>      -0.01342796       0.03342165       0.06494494 </v>
   <v>       0.04268912      -0.03411893      -0.02473505 </v>
   <v>      -0.08818863      -0.02481706       0.08127032 </v>
   <v>       0.03597970      -0.02942742      -0.09569307 </v>
   <v>       0.06790842       0.10730551      -0.12482097 </v>
   <v>      -0.04193360      -0.01204758       0.02634223 </v>
   <v>       0.00322050       0.04236253       0.02532694 </v>
   <v>       0.19041485       0.09203937      -0.06508581 </v>
   <v>      -0.00831126       0.10111326       0.02441480 </v>
   <v>      -0.07651345      -0.00461797      -0.01723038 </v>
   <v>      -0.08162745      -0.08755958       0.07408254 </v>
   <v>       0.02375333      -0.07023459      -0.01164439 </v>
  </varray>
  <energy>
   <i name="e_fr_energy">    -33.30088189 </i>
   <i name="e_wo_entrp">    -33.26091335 </i>
   <i name="e_0_energy">    -33.28755904 </i>
  </energy>
  <time name="totalsc">  239.72  241.51</time>
 </calculation>
 <calculation>
  <scstep>
   <time name="dav">   20.52   20.54</time>
   <time name="total">   27.98   28.02</time>
   <energy>
    <i name="alphaZ">      9.17018016 </i>
    <i name="ewald">  25320.22612418 </i>
    <i name="hartreedc"> -41729.90100492 </i>
    <i name="XCdc">    574.90980067 </i>
    <i name="pawpsdc">  16767.90010134 </i>
    <i name="pawaedc"> -18163.00641892 </i>
    <i name="eentropy">     -0.04048255 </i>
    <i name="bandstr">   -894.99154708 </i>
    <i name="atom">  18082.44932260 </i>
    <i name="e_fr_energy">    -33.28392452 </i>
    <i name="e_wo_entrp">    -33.24344197 </i>
    <i name="e_0_energy">    -33.27043033 </i>
   </energy>
  </scstep>
  <scstep>
   <time name="dav">   23.82   23.85</time>
   <time name="total">   31.10   31.14</time>
   <energy>
    <i name="e_fr_energy">    -33.31355513 </i>
    <i name="e_wo_entrp">    -33.27279989 </i>
    <i name="e_0_energy">    -33.29997005 </i>
   </energy>
  </scstep>
  <scstep>
   <time name="dav">   22.33   22.36</time>
   <time name="total">   29.55   29.60</time>
   <energy>
    <i name="e_fr_energy">    -33.31219169 </i>
    <i name="e_wo_entrp">    -33.27133286 </i>
    <i name="e_0_energy">    -33.29857208 </i>
   </energy>
  </scstep>
  <scstep>
   <time name="dav">   21.28   21.31</time>
   <time name="total">   28.10   28.14</time>
   <energy>
    <i name="e_fr_energy">    -33.31207692 </i>
    <i name="e_wo_entrp">    -33.27125380 </i>
    <i name="e_0_energy">    -33.29846921 </i>
   </energy>
  </scstep>
  <scstep>
   <time name="dav">   19.10   19.13</time>
   <time name="total">   26.22   26.30</time>
   <energy>
    <i name="e_fr_energy">    -33.31173089 </i>
    <i name="e_wo_entrp">    -33.27079971 </i>
    <i name="e_0_energy">    -33.29808716 </i>
   </energy>
  </scstep>
  <scstep>
   <time name="dav">   26.88   26.92</time>
   <time name="total">   34.36   34.40</time>
   <energy>
    <i name="e_fr_energy">    -33.31166418 </i>
    <i name="e_wo_entrp">    -33.27044483 </i>
    <i name="e_0_energy">    -33.29792440 </i>
   </energy>
  </scstep>
  <scstep>
   <time name="dav">   17.92   17.94</time>
   <time name="total">   23.21   23.24</time>
   <energy>
    <i name="alphaZ">      9.17018016 </i>
    <i name="ewald">  25320.22612418 </i>
    <i name="hartreedc"> -41729.30969779 </i>
    <i name="XCdc">    574.88606240 </i>
    <i name="pawpsdc">  16766.24789291 </i>
    <i name="pawaedc"> -18161.19076166 </i>
    <i name="eentropy">     -0.04117338 </i>
    <i name="bandstr">   -895.74959275 </i>
    <i name="atom">  18082.44932260 </i>
    <i name="e_fr_energy">    -33.31164334 </i>
    <i name="e_wo_entrp">    -33.27046996 </i>
    <i name="e_0_energy">    -33.29791888 </i>
   </energy>
  </scstep>
  <structure>
   <crystal>
    <varray name="basis" >
     <v>      24.84531586       0.00000000       0.00000000 </v>
     <v>       0.00000000      23.03023079       0.00000000 </v>
     <v>       0.00000000       0.00000000      23.55473635 </v>
    </varray>
    <i name="volume">  13477.86369979 </i>
    <varray name="rec_basis" >
     <v>       0.04024904       0.00000000       0.00000000 </v>
     <v>       0.00000000       0.04342119       0.00000000 </v>
     <v>       0.00000000       0.00000000       0.04245431 </v>
    </varray>
   </crystal>
   <varray name="positions" >
    <v>       0.50076165       0.43699874       0.53104553 </v>
    <v>       0.43347797       0.59710192       0.53459798 </v>
    <v>       0.37667593       0.53434073       0.59188135 </v>
    <v>       0.47486351       0.52319829       0.58952463 </v>
    <v>       0.52985385       0.60940140       0.55394469 </v>
    <v>       0.56577338       0.51077495       0.55524099 </v>
    <v>       0.41552988       0.49531963       0.50289447 </v>
    <v>       0.42046614       0.38841235       0.49355558 </v>
    <v>       0.50173062       0.54124190       0.48076594 </v>
    <v>       0.57140641       0.47046449       0.45950546 </v>
    <v>       0.41538398       0.43688488       0.58555474 </v>
    <v>       0.59405885       0.57419863       0.47985373 </v>
    <v>       0.47796798       0.44818115       0.43392087 </v>
   </varray>
  </structure>
  <varray name="forces" >
   <v>      -0.01928604      -0.02066089       0.02945590 </v>
   <v>       0.01224736       0.00878585       0.03895659 </v>
   <v>       0.02605951      -0.02683479      -0.02413255 </v>
   <v>      -0.01461163      -0.02636467       0.00477566 </v>
   <v>       0.00190780      -0.01983425      -0.05679034 </v>
   <v>       0.03274173       0.02538945      -0.02394477 </v>
   <v>       0.03159152       0.01825037       0.00269783 </v>
   <v>      -0.00381044       0.03892227       0.01614615 </v>
   <v>      -0.00661881       0.02453068      -0.03659664 </v>
   <v>      -0.01426373       0.04706428       0.01745810 </v>
   <v>      -0.07561794      -0.02031730       0.00730477 </v>
   <v>       0.00468210      -0.01792672       0.01359244 </v>
   <v>       0.02497857      -0.03100428       0.01107687 </v>
  </varray>
  <energy>
   <i name="e_fr_energy">    -33.31164334 </i>
   <i name="e_wo_entrp">    -33.27046996 </i>
   <i name="e_0_energy">    -33.29791888 </i>
  </energy>
  <time name="totalsc">  227.01  227.93</time>
 </calculation>
 <calculation>
  <scstep>
   <time name="dav">   20.56   20.58</time>
   <time name="total">   28.02   28.06</time>
   <energy>
    <i name="alphaZ">      9.17018016 </i>
    <i name="ewald">  25306.73519605 </i>
    <i name="hartreedc"> -41716.15559795 </i>
    <i name="XCdc">    574.89063326 </i>
    <i name="pawpsdc">  16766.44939571 </i>
    <i name="pawaedc"> -18161.44606990 </i>
    <i name="eentropy">     -0.04135429 </i>
    <i name="bandstr">   -895.35917684 </i>
    <i name="atom">  18082.44932260 </i>
    <i name="e_fr_energy">    -33.30747120 </i>
    <i name="e_wo_entrp">    -33.26611691 </i>
    <i name="e_0_energy">    -33.29368644 </i>
   </energy>
  </scstep>
  <scstep>
   <time name="dav">   22.00   22.02</time>
   <time name="total">   28.88   28.92</time>
   <energy>
    <i name="e_fr_energy">    -33.31270342 </i>
    <i name="e_wo_entrp">    -33.27128548 </i>
    <i name="e_0_energy">    -33.29889744 </i>
   </energy>
  </scstep>
  <scstep>
   <time name="dav">   15.58   15.61</time>
   <time name="total">   21.99   22.03</time>
   <energy>
    <i name="e_fr_energy">    -33.31259641 </i>
    <i name="e_wo_entrp">    -33.27104913 </i>
    <i name="e_0_energy">    -33.29874732 </i>
   </energy>
  </scstep>
  <scstep>
   <time name="dav">   13.23   13.25</time>
   <time name="total">   17.99   18.03</time>
   <energy>
    <i name="alphaZ">      9.17018016 </i>
    <i name="ewald">  25306.73519605 </i>
    <i name="hartreedc"> -41715.93572952 </i>
    <i name="XCdc">    574.88016515 </i>
    <i name="pawpsdc">  16766.30359826 </i>
    <i name="pawaedc"> -18161.19835101 </i>
    <i name="eentropy">     -0.04152524 </i>
    <i name="bandstr">   -895.67543524 </i>
    <i name="atom">  18082.44932260 </i>
    <i name="e_fr_energy">    -33.31257879 </i>
    <i name="e_wo_entrp">    -33.27105355 </i>
    <i name="e_0_energy">    -33.29873704 </i>
   </energy>
  </scstep>
  <structure>
   <crystal>
    <varray name="basis" >
     <v>      24.84531586       0.00000000       0.00000000 </v>
     <v>       0.00000000      23.03023079       0.00000000 </v>
     <v>       0.00000000       0.00000000      23.55473635 </v>
    </varray>
    <i name="volume">  13477.86369979 </i>
    <varray name="rec_basis" >
     <v>       0.04024904       0.00000000       0.00000000 </v>
     <v>       0.00000000       0.04342119       0.00000000 </v>
     <v>       0.00000000       0.00000000       0.04245431 </v>
    </varray>
   </crystal>
   <varray name="positions" >
    <v>       0.50067904       0.43668321       0.53121796 </v>
    <v>       0.43354917       0.59710484       0.53485895 </v>
    <v>       0.37662656       0.53433249       0.59194611 </v>
    <v>       0.47471754       0.52309768       0.58978804 </v>
    <v>       0.52992280       0.60950510       0.55375111 </v>
    <v>       0.56558045       0.51093947       0.55491955 </v>
    <v>       0.41563832       0.49535731       0.50292582 </v>
    <v>       0.42041037       0.38834600       0.49355815 </v>
    <v>       0.50199858       0.54151600       0.48048282 </v>
    <v>       0.57144173       0.47061915       0.45941404 </v>
    <v>       0.41518054       0.43689209       0.58544688 </v>
    <v>       0.59409817       0.57414195       0.47993096 </v>
    <v>       0.47810685       0.44798378       0.43404556 </v>
   </varray>
  </structure>
  <varray name="forces" >
   <v>      -0.00285631       0.02555185       0.02132324 </v>
   <v>       0.01795664      -0.00312706       0.01872486 </v>
   <v>       0.02244626      -0.02495029      -0.03040442 </v>
   <v>       0.02035236      -0.02692731      -0.03299184 </v>
   <v>      -0.01370719      -0.01714849      -0.03326239 </v>
   <v>       0.02516262      -0.01757285       0.03356871 </v>
   <v>       0.05660814       0.03020502      -0.00989130 </v>
   <v>      -0.00509513       0.04471731       0.01174349 </v>
   <v>      -0.10220433      -0.01114646      -0.01998568 </v>
   <v>      -0.01630635       0.01904463       0.01641546 </v>
   <v>      -0.07162911      -0.03126294       0.02638950 </v>
   <v>       0.05194488       0.02004755      -0.01844459 </v>
   <v>       0.01732752      -0.00743095       0.01681496 </v>
  </varray>
  <energy>
   <i name="e_fr_energy">    -33.31257879 </i>
   <i name="e_wo_entrp">    -33.27105355 </i>
   <i name="e_0_energy">    -33.29873704 </i>
  </energy>
  <time name="totalsc">  121.38  137.34</time>
 </calculation>
 <calculation>
  <scstep>
   <time name="dav">   14.93   14.95</time>
   <time name="total">   21.27   21.30</time>
   <energy>
    <i name="alphaZ">      9.17018016 </i>
    <i name="ewald">  25305.62451661 </i>
    <i name="hartreedc"> -41714.78325371 </i>
    <i name="XCdc">    574.88224919 </i>
    <i name="pawpsdc">  16766.02051763 </i>
    <i name="pawaedc"> -18160.89407217 </i>
    <i name="eentropy">     -0.04143444 </i>
    <i name="bandstr">   -895.73746007 </i>
    <i name="atom">  18082.44932260 </i>
    <i name="e_fr_energy">    -33.30943420 </i>
    <i name="e_wo_entrp">    -33.26799976 </i>
    <i name="e_0_energy">    -33.29562272 </i>
   </energy>
  </scstep>
  <scstep>
   <time name="dav">   19.81   19.83</time>
   <time name="total">   26.18   26.22</time>
   <energy>
    <i name="e_fr_energy">    -33.31562983 </i>
    <i name="e_wo_entrp">    -33.27388528 </i>
    <i name="e_0_energy">    -33.30171498 </i>
   </energy>
  </scstep>
  <scstep>
   <time name="dav">   15.60   15.62</time>
   <time name="total">   21.95   21.98</time>
   <energy>
    <i name="e_fr_energy">    -33.31536735 </i>
    <i name="e_wo_entrp">    -33.27371336 </i>
    <i name="e_0_energy">    -33.30148268 </i>
   </energy>
  </scstep>
  <scstep>
   <time name="dav">   13.61   13.63</time>
   <time name="total">   18.36   18.39</time>
   <energy>
    <i name="alphaZ">      9.17018016 </i>
    <i name="ewald">  25305.62451661 </i>
    <i name="hartreedc"> -41714.67810861 </i>
    <i name="XCdc">    574.87691304 </i>
    <i name="pawpsdc">  16766.46526868 </i>
    <i name="pawaedc"> -18161.27988709 </i>
    <i name="eentropy">     -0.04168838 </i>
    <i name="bandstr">   -895.90183330 </i>
    <i name="atom">  18082.44932260 </i>
    <i name="e_fr_energy">    -33.31531629 </i>
    <i name="e_wo_entrp">    -33.27362791 </i>
    <i name="e_0_energy">    -33.30142017 </i>
   </energy>
  </scstep>
  <structure>
   <crystal>
    <varray name="basis" >
     <v>      24.84531586       0.00000000       0.00000000 </v>
     <v>       0.00000000      23.03023079       0.00000000 </v>
     <v>       0.00000000       0.00000000      23.55473635 </v>
    </varray>
    <i name="volume">  13477.86369979 </i>
    <varray name="rec_basis" >
     <v>       0.04024904       0.00000000       0.00000000 </v>
     <v>       0.00000000       0.04342119       0.00000000 </v>
     <v>       0.00000000       0.00000000       0.04245431 </v>
    </varray>
   </crystal>
   <varray name="positions" >
    <v>       0.50059881       0.43653173       0.53145199 </v>
    <v>       0.43368073       0.59709368       0.53515560 </v>
    <v>       0.37667589       0.53421724       0.59187083 </v>
    <v>       0.47467808       0.52289698       0.58986703 </v>
    <v>       0.52992496       0.60951686       0.55344877 </v>
    <v>       0.56552129       0.51099999       0.55479474 </v>
    <v>       0.41595652       0.49551989       0.50290988 </v>
    <v>       0.42034345       0.38848508       0.49361018 </v>
    <v>       0.50180990       0.54169559       0.48016238 </v>
    <v>       0.57140545       0.47083056       0.45940772 </v>
    <v>       0.41472283       0.43676227       0.58546925 </v>
    <v>       0.59434009       0.57418189       0.47991686 </v>
    <v>       0.47829215       0.44778730       0.43422073 </v>
   </varray>
  </structure>
  <varray name="forces" >
   <v>       0.00408404       0.03185604       0.02316836 </v>
   <v>       0.00556992       0.01593058       0.01265351 </v>
   <v>       0.00285508      -0.01252200      -0.01707159 </v>
   <v>       0.03131972      -0.02894534      -0.02767870 </v>
   <v>      -0.00281823      -0.01603415      -0.02507646 </v>
   <v>       0.00353504      -0.01550239       0.02446178 </v>
   <v>       0.02223648       0.00411147       0.00097071 </v>
   <v>      -0.01206903       0.02747453       0.00619551 </v>
   <v>      -0.03140001      -0.00268890      -0.01030415 </v>
   <v>      -0.01218087       0.01640569       0.01585903 </v>
   <v>      -0.04790935      -0.02037105       0.01000239 </v>
   <v>       0.02025898       0.00824044      -0.01575451 </v>
   <v>       0.01651823      -0.00795492       0.00257412 </v>
  </varray>
  <energy>
   <i name="e_fr_energy">    -33.31531629 </i>
   <i name="e_wo_entrp">    -33.27362791 </i>
   <i name="e_0_energy">    -33.30142017 </i>
  </energy>
  <time name="totalsc">  112.17  128.18</time>
 </calculation>
 <calculation>
  <scstep>
   <time name="dav">   15.28   15.31</time>
   <time name="total">   21.56   21.60</time>
   <energy>
    <i name="alphaZ">      9.17018016 </i>
    <i name="ewald">  25304.06881658 </i>
    <i name="hartreedc"> -41713.09280891 </i>
    <i name="XCdc">    574.88322951 </i>
    <i name="pawpsdc">  16766.35702676 </i>
    <i name="pawaedc"> -18161.20139299 </i>
    <i name="eentropy">     -0.04149244 </i>
    <i name="bandstr">   -895.90179475 </i>
    <i name="atom">  18082.44932260 </i>
    <i name="e_fr_energy">    -33.30891349 </i>
    <i name="e_wo_entrp">    -33.26742105 </i>
    <i name="e_0_energy">    -33.29508268 </i>
   </energy>
  </scstep>
  <scstep>
   <time name="dav">   19.86   19.89</time>
   <time name="total">   26.10   26.15</time>
   <energy>
    <i name="e_fr_energy">    -33.31681457 </i>
    <i name="e_wo_entrp">    -33.27509120 </i>
    <i name="e_0_energy">    -33.30290678 </i>
   </energy>
  </scstep>
  <scstep>
   <time name="dav">   15.56   15.59</time>
   <time name="total">   21.85   21.89</time>
   <energy>
    <i name="e_fr_energy">    -33.31647011 </i>
    <i name="e_wo_entrp">    -33.27475768 </i>
    <i name="e_0_energy">    -33.30256596 </i>
   </energy>
  </scstep>
  <scstep>
   <time name="dav">   14.23   14.26</time>
   <time name="total">   20.51   20.55</time>
   <energy>
    <i name="e_fr_energy">    -33.31635414 </i>
    <i name="e_wo_entrp">    -33.27463594 </i>
    <i name="e_0_energy">    -33.30244807 </i>
   </energy>
  </scstep>
  <scstep>
   <time name="dav">   14.78   14.80</time>
   <time name="total">   21.07   21.11</time>
   <energy>
    <i name="e_fr_energy">    -33.31619026 </i>
    <i name="e_wo_entrp">    -33.27442918 </i>
    <i name="e_0_energy">    -33.30226990 </i>
   </energy>
  </scstep>
  <scstep>
   <time name="dav">   15.43   15.46</time>
   <time name="total">   20.20   21.25</time>
   <energy>
    <i name="alphaZ">      9.17018016 </i>
    <i name="ewald">  25304.06881658 </i>
    <i name="hartreedc"> -41712.82532421 </i>
    <i name="XCdc">    574.88233775 </i>
    <i name="pawpsdc">  16767.44283751 </i>
    <i name="pawaedc"> -18162.41581159 </i>
    <i name="eentropy">     -0.04177962 </i>
    <i name="bandstr">   -896.04683594 </i>
    <i name="atom">  18082.44932260 </i>
    <i name="e_fr_energy">    -33.31625676 </i>
    <i name="e_wo_entrp">    -33.27447714 </i>
    <i name="e_0_energy">    -33.30233022 </i>
   </energy>
  </scstep>
  <structure>
   <crystal>
    <varray name="basis" >
     <v>      24.84531586       0.00000000       0.00000000 </v>
     <v>       0.00000000      23.03023079       0.00000000 </v>
     <v>       0.00000000       0.00000000      23.55473635 </v>
    </varray>
    <i name="volume">  13477.86369979 </i>
    <varray name="rec_basis" >
     <v>       0.04024904       0.00000000       0.00000000 </v>
     <v>       0.00000000       0.04342119       0.00000000 </v>
     <v>       0.00000000       0.00000000       0.04245431 </v>
    </varray>
   </crystal>
   <varray name="positions" >
    <v>       0.50050747       0.43635927       0.53171841 </v>
    <v>       0.43383049       0.59708098       0.53549331 </v>
    <v>       0.37673205       0.53408603       0.59178513 </v>
    <v>       0.47463315       0.52266850       0.58995696 </v>
    <v>       0.52992742       0.60953025       0.55310457 </v>
    <v>       0.56545393       0.51106889       0.55465266 </v>
    <v>       0.41631876       0.49570497       0.50289173 </v>
    <v>       0.42026727       0.38864342       0.49366940 </v>
    <v>       0.50159509       0.54190005       0.47979759 </v>
    <v>       0.57136415       0.47107124       0.45940053 </v>
    <v>       0.41420174       0.43661447       0.58549472 </v>
    <v>       0.59461549       0.57422737       0.47990081 </v>
    <v>       0.47850311       0.44756362       0.43442014 </v>
   </varray>
  </structure>
  <varray name="forces" >
   <v>       0.01320735       0.04618347       0.02217375 </v>
   <v>      -0.00507111       0.02938583      -0.00042705 </v>
   <v>      -0.01447722      -0.00313244      -0.00598838 </v>
   <v>       0.04559739      -0.03007039      -0.02804846 </v>
   <v>       0.00475709      -0.01838763      -0.01779969 </v>
   <v>      -0.01361491      -0.01939346       0.02595974 </v>
   <v>      -0.01320952      -0.02364212       0.01597803 </v>
   <v>      -0.01789028       0.01359472       0.00351149 </v>
   <v>       0.03117802       0.00093267       0.00462724 </v>
   <v>      -0.01024313       0.01292018       0.01455644 </v>
   <v>      -0.01970671      -0.00424968      -0.01221580 </v>
   <v>      -0.01347528      -0.00194875      -0.01568898 </v>
   <v>       0.01294831      -0.00219240      -0.00663833 </v>
  </varray>
  <energy>
   <i name="e_fr_energy">    -33.31625676 </i>
   <i name="e_wo_entrp">    -33.27447714 </i>
   <i name="e_0_energy">    -33.30233022 </i>
  </energy>
  <time name="totalsc">  155.79  157.09</time>
 </calculation>
 <calculation>
  <scstep>
   <time name="dav">   15.02   15.05</time>
   <time name="total">   21.36   21.40</time>
   <energy>
    <i name="alphaZ">      9.17018016 </i>
    <i name="ewald">  25312.30953072 </i>
    <i name="hartreedc"> -41721.06561249 </i>
    <i name="XCdc">    574.89777578 </i>
    <i name="pawpsdc">  16767.46199633 </i>
    <i name="pawaedc"> -18162.44288534 </i>
    <i name="eentropy">     -0.04088709 </i>
    <i name="bandstr">   -896.05374582 </i>
    <i name="atom">  18082.44932260 </i>
    <i name="e_fr_energy">    -33.31432515 </i>
    <i name="e_wo_entrp">    -33.27343806 </i>
    <i name="e_0_energy">    -33.30069612 </i>
   </energy>
  </scstep>
  <scstep>
   <time name="dav">   20.05   20.08</time>
   <time name="total">   26.36   26.40</time>
   <energy>
    <i name="e_fr_energy">    -33.31709391 </i>
    <i name="e_wo_entrp">    -33.27618491 </i>
    <i name="e_0_energy">    -33.30345758 </i>
   </energy>
  </scstep>
  <scstep>
   <time name="dav">   15.60   15.62</time>
   <time name="total">   21.89   21.93</time>
   <energy>
    <i name="e_fr_energy">    -33.31702203 </i>
    <i name="e_wo_entrp">    -33.27604352 </i>
    <i name="e_0_energy">    -33.30336253 </i>
   </energy>
  </scstep>
  <scstep>
   <time name="dav">   10.28   10.30</time>
   <time name="total">   15.03   15.06</time>
   <energy>
    <i name="alphaZ">      9.17018016 </i>
    <i name="ewald">  25312.30953072 </i>
    <i name="hartreedc"> -41720.90552758 </i>
    <i name="XCdc">    574.89008132 </i>
    <i name="pawpsdc">  16768.42287484 </i>
    <i name="pawaedc"> -18163.37090090 </i>
    <i name="eentropy">     -0.04094734 </i>
    <i name="bandstr">   -896.24164355 </i>
    <i name="atom">  18082.44932260 </i>
    <i name="e_fr_energy">    -33.31702975 </i>
    <i name="e_wo_entrp">    -33.27608240 </i>
    <i name="e_0_energy">    -33.30338063 </i>
   </energy>
  </scstep>
  <structure>
   <crystal>
    <varray name="basis" >
     <v>      24.84531586       0.00000000       0.00000000 </v>
     <v>       0.00000000      23.03023079       0.00000000 </v>
     <v>       0.00000000       0.00000000      23.55473635 </v>
    </varray>
    <i name="volume">  13477.86369979 </i>
    <varray name="rec_basis" >
     <v>       0.04024904       0.00000000       0.00000000 </v>
     <v>       0.00000000       0.04342119       0.00000000 </v>
     <v>       0.00000000       0.00000000       0.04245431 </v>
    </varray>
   </crystal>
   <varray name="positions" >
    <v>       0.50054567       0.43655443       0.53191313 </v>
    <v>       0.43384987       0.59723395       0.53559132 </v>
    <v>       0.37667714       0.53403038       0.59172846 </v>
    <v>       0.47484526       0.52244030       0.58983737 </v>
    <v>       0.52995168       0.60943615       0.55290959 </v>
    <v>       0.56536663       0.51098590       0.55474587 </v>
    <v>       0.41636096       0.49563380       0.50296968 </v>
    <v>       0.42015621       0.38876293       0.49370529 </v>
    <v>       0.50168549       0.54196571       0.47971345 </v>
    <v>       0.57130125       0.47121158       0.45947431 </v>
    <v>       0.41394966       0.43654794       0.58543857 </v>
    <v>       0.59463060       0.57423047       0.47981423 </v>
    <v>       0.47862974       0.44748554       0.43444471 </v>
   </varray>
  </structure>
  <varray name="forces" >
   <v>      -0.01613873      -0.01339578      -0.02387623 </v>
   <v>      -0.00097020      -0.01710271       0.00242322 </v>
   <v>       0.00973376       0.01006759      -0.00557578 </v>
   <v>      -0.03689345       0.02527710      -0.00271982 </v>
   <v>       0.00768589       0.00585494       0.00825289 </v>
   <v>       0.04649890       0.00782395       0.01163964 </v>
   <v>      -0.00215554       0.00733155      -0.00105049 </v>
   <v>       0.00424531      -0.00130908      -0.00968062 </v>
   <v>      -0.01019892      -0.00549499       0.00848917 </v>
   <v>       0.01544436      -0.01265581      -0.00109980 </v>
   <v>       0.00111883      -0.00101678       0.00787615 </v>
   <v>      -0.01262128      -0.00729182      -0.00087577 </v>
   <v>      -0.00574891       0.00191184       0.00619744 </v>
  </varray>
  <energy>
   <i name="e_fr_energy">    -33.31702975 </i>
   <i name="e_wo_entrp">    -33.27608240 </i>
   <i name="e_0_energy">    -33.30338063 </i>
  </energy>
  <time name="totalsc">  109.09  109.86</time>
 </calculation>
 <calculation>
  <scstep>
   <time name="dav">   14.92   14.95</time>
   <time name="total">   21.25   21.29</time>
   <energy>
    <i name="alphaZ">      9.17018016 </i>
    <i name="ewald">  25309.42060688 </i>
    <i name="hartreedc"> -41717.95650717 </i>
    <i name="XCdc">    574.88314847 </i>
    <i name="pawpsdc">  16768.75240826 </i>
    <i name="pawaedc"> -18163.70696902 </i>
    <i name="eentropy">     -0.04124041 </i>
    <i name="bandstr">   -896.28763152 </i>
    <i name="atom">  18082.44932260 </i>
    <i name="e_fr_energy">    -33.31668176 </i>
    <i name="e_wo_entrp">    -33.27544135 </i>
    <i name="e_0_energy">    -33.30293495 </i>
   </energy>
  </scstep>
  <scstep>
   <time name="dav">   20.09   20.12</time>
   <time name="total">   26.42   26.47</time>
   <energy>
    <i name="e_fr_energy">    -33.31705340 </i>
    <i name="e_wo_entrp">    -33.27579050 </i>
    <i name="e_0_energy">    -33.30329910 </i>
   </energy>
  </scstep>
  <scstep>
   <time name="dav">    9.86    9.88</time>
   <time name="total">   14.63   14.66</time>
   <energy>
    <i name="alphaZ">      9.17018016 </i>
    <i name="ewald">  25309.42060688 </i>
    <i name="hartreedc"> -41718.01433727 </i>
    <i name="XCdc">    574.88569245 </i>
    <i name="pawpsdc">  16768.73415645 </i>
    <i name="pawaedc"> -18163.70139148 </i>
    <i name="eentropy">     -0.04124149 </i>
    <i name="bandstr">   -896.22004100 </i>
    <i name="atom">  18082.44932260 </i>
    <i name="e_fr_energy">    -33.31705270 </i>
    <i name="e_wo_entrp">    -33.27581121 </i>
    <i name="e_0_energy">    -33.30330554 </i>
   </energy>
  </scstep>
  <structure>
   <crystal>
    <varray name="basis" >
     <v>      24.84531586       0.00000000       0.00000000 </v>
     <v>       0.00000000      23.03023079       0.00000000 </v>
     <v>       0.00000000       0.00000000      23.55473635 </v>
    </varray>
    <i name="volume">  13477.86369979 </i>
    <varray name="rec_basis" >
     <v>       0.04024904       0.00000000       0.00000000 </v>
     <v>       0.00000000       0.04342119       0.00000000 </v>
     <v>       0.00000000       0.00000000       0.04245431 </v>
    </varray>
   </crystal>
   <varray name="positions" >
    <v>       0.50053229       0.43648608       0.53184493 </v>
    <v>       0.43384308       0.59718037       0.53555699 </v>
[...]
       <r>    -1.3574     3.9353    80.8459 </r>
       <r>    -1.3073     2.2460    80.9584 </r>
       <r>    -1.2572     0.8825    81.0027 </r>
       <r>    -1.2071     0.1816    81.0117 </r>
       <r>    -1.1570     0.2946    81.0265 </r>
       <r>    -1.1069     1.1091    81.0821 </r>
       <r>    -1.0568     2.2668    81.1956 </r>
       <r>    -1.0067     3.3200    81.3620 </r>
       <r>    -0.9566     4.0058    81.5626 </r>
       <r>    -0.9065     4.4473    81.7854 </r>
       <r>    -0.8564     5.0387    82.0379 </r>
       <r>    -0.8063     6.0192    82.3394 </r>
       <r>    -0.7562     7.1070    82.6954 </r>
       <r>    -0.7061     7.6056    83.0765 </r>
       <r>    -0.6560     6.9741    83.4258 </r>
       <r>    -0.6059     5.3868    83.6957 </r>
       <r>    -0.5558     3.7750    83.8848 </r>
       <r>    -0.5057     3.2763    84.0490 </r>
       <r>    -0.4556     4.4787    84.2733 </r>
       <r>    -0.4055     6.9801    84.6230 </r>
       <r>    -0.3554     9.5613    85.1020 </r>
       <r>    -0.3054    10.8769    85.6469 </r>
       <r>    -0.2553    10.2433    86.1601 </r>
       <r>    -0.2052     8.0295    86.5623 </r>
       <r>    -0.1551     5.4184    86.8338 </r>
       <r>    -0.1050     3.7134    87.0198 </r>
       <r>    -0.0549     3.6415    87.2022 </r>
       <r>    -0.0048     5.0809    87.4568 </r>
       <r>     0.0453     7.3425    87.8246 </r>
       <r>     0.0954     9.7204    88.3116 </r>
       <r>     0.1455    11.8150    88.9035 </r>
       <r>     0.1956    13.3842    89.5740 </r>
       <r>     0.2457    14.0313    90.2769 </r>
       <r>     0.2958    13.2443    90.9404 </r>
       <r>     0.3459    10.8514    91.4841 </r>
       <r>     0.3960     7.3812    91.8538 </r>
       <r>     0.4461     3.8627    92.0474 </r>
       <r>     0.4962     1.2140    92.1082 </r>
       <r>     0.5463    -0.2233    92.0970 </r>
       <r>     0.5964    -0.6741    92.0632 </r>
       <r>     0.6465    -0.5969    92.0333 </r>
       <r>     0.6966    -0.3707    92.0148 </r>
       <r>     0.7467    -0.1830    92.0056 </r>
       <r>     0.7968    -0.0750    92.0018 </r>
       <r>     0.8469    -0.0261    92.0005 </r>
       <r>     0.8970    -0.0078    92.0001 </r>
       <r>     0.9471    -0.0020    92.0000 </r>
       <r>     0.9972    -0.0005    92.0000 </r>
       <r>     1.0473    -0.0001    92.0000 </r>
       <r>     1.0974    -0.0000    92.0000 </r>
       <r>     1.1475    -0.0000    92.0000 </r>
       <r>     1.1976    -0.0000    92.0000 </r>
       <r>     1.2477    -0.0000    92.0000 </r>
       <r>     1.2978    -0.0000    92.0000 </r>
       <r>     1.3479    -0.0000    92.0000 </r>
       <r>     1.3980    -0.0000    92.0000 </r>
       <r>     1.4481    -0.0000    92.0000 </r>
       <r>     1.4982    -0.0000    92.0000 </r>
       <r>     1.5483    -0.0000    92.0000 </r>
       <r>     1.5983     0.0000    92.0000 </r>
       <r>     1.6484     0.0000    92.0000 </r>
       <r>     1.6985     0.0000    92.0000 </r>
       <r>     1.7486     0.0000    92.0000 </r>
       <r>     1.7987     0.0000    92.0000 </r>
       <r>     1.8488     0.0000    92.0000 </r>
       <r>     1.8989     0.0000    92.0000 </r>
       <r>     1.9490     0.0000    92.0000 </r>
       <r>     1.9991     0.0000    92.0000 </r>
       <r>     2.0492     0.0000    92.0000 </r>
       <r>     2.0993     0.0000    92.0000 </r>
       <r>     2.1494     0.0000    92.0000 </r>
       <r>     2.1995     0.0000    92.0000 </r>
       <r>     2.2496     0.0000    92.0000 </r>
       <r>     2.2997     0.0000    92.0000 </r>
       <r>     2.3498     0.0000    92.0000 </r>
      </set>
      <set comment="spin 2">
       <r>   -12.6794     0.0000     0.0000 </r>
       <r>   -12.6293     0.0000     0.0000 </r>
       <r>   -12.5792     0.0000     0.0000 </r>
       <r>   -12.5291     0.0000     0.0000 </r>
       <r>   -12.4790     0.0000     0.0000 </r>
       <r>   -12.4289     0.0000     0.0000 </r>
       <r>   -12.3788     0.0000     0.0000 </r>
       <r>   -12.3287     0.0000     0.0000 </r>
       <r>   -12.2786    -0.0000    -0.0000 </r>
       <r>   -12.2285    -0.0000    -0.0000 </r>
       <r>   -12.1784    -0.0000    -0.0000 </r>
       <r>   -12.1283    -0.0000    -0.0000 </r>
       <r>   -12.0782    -0.0000    -0.0000 </r>
       <r>   -12.0281    -0.0000    -0.0000 </r>
       <r>   -11.9780    -0.0000    -0.0000 </r>
       <r>   -11.9279    -0.0000    -0.0000 </r>
       <r>   -11.8778    -0.0000    -0.0000 </r>
       <r>   -11.8278    -0.0000    -0.0000 </r>
       <r>   -11.7777    -0.0000    -0.0000 </r>
       <r>   -11.7276    -0.0000    -0.0000 </r>
       <r>   -11.6775    -0.0000    -0.0000 </r>
       <r>   -11.6274    -0.0000    -0.0000 </r>
       <r>   -11.5773    -0.0000    -0.0000 </r>
       <r>   -11.5272    -0.0000    -0.0000 </r>
       <r>   -11.4771    -0.0000    -0.0000 </r>
       <r>   -11.4270    -0.0000    -0.0000 </r>
       <r>   -11.3769    -0.0001    -0.0000 </r>
       <r>   -11.3268    -0.0003    -0.0000 </r>
       <r>   -11.2767    -0.0012    -0.0001 </r>
       <r>   -11.2266    -0.0046    -0.0003 </r>
       <r>   -11.1765    -0.0145    -0.0010 </r>
       <r>   -11.1264    -0.0389    -0.0030 </r>
       <r>   -11.0763    -0.0879    -0.0074 </r>
       <r>   -11.0262    -0.1612    -0.0155 </r>
       <r>   -10.9761    -0.2224    -0.0266 </r>
       <r>   -10.9260    -0.1701    -0.0351 </r>
       <r>   -10.8759     0.1563    -0.0273 </r>
       <r>   -10.8258     0.8943     0.0175 </r>
       <r>   -10.7757     2.0138     0.1184 </r>
       <r>   -10.7256     3.2223     0.2798 </r>
       <r>   -10.6755     4.0506     0.4828 </r>
       <r>   -10.6254     4.1195     0.6891 </r>
       <r>   -10.5753     3.3958     0.8593 </r>
       <r>   -10.5252     2.2158     0.9703 </r>
       <r>   -10.4751     1.0549     1.0231 </r>
       <r>   -10.4250     0.2464     1.0354 </r>
       <r>   -10.3749    -0.1403     1.0284 </r>
       <r>   -10.3248    -0.2254     1.0171 </r>
       <r>   -10.2747    -0.1737     1.0084 </r>
       <r>   -10.2246    -0.0985     1.0035 </r>
       <r>   -10.1745    -0.0450     1.0012 </r>
       <r>   -10.1244    -0.0172     1.0004 </r>
       <r>   -10.0743    -0.0056     1.0001 </r>
       <r>   -10.0242    -0.0016     1.0000 </r>
       <r>    -9.9741    -0.0004     1.0000 </r>
       <r>    -9.9241    -0.0001     1.0000 </r>
       <r>    -9.8740    -0.0000     1.0000 </r>
       <r>    -9.8239    -0.0001     1.0000 </r>
       <r>    -9.7738    -0.0004     1.0000 </r>
       <r>    -9.7237    -0.0017     0.9999 </r>
       <r>    -9.6736    -0.0060     0.9996 </r>
       <r>    -9.6235    -0.0182     0.9987 </r>
       <r>    -9.5734    -0.0472     0.9963 </r>
       <r>    -9.5233    -0.1023     0.9912 </r>
       <r>    -9.4732    -0.1780     0.9823 </r>
       <r>    -9.4231    -0.2262     0.9709 </r>
       <r>    -9.3730    -0.1306     0.9644 </r>
       <r>    -9.3229     0.2718     0.9780 </r>
       <r>    -9.2728     1.0888     1.0326 </r>
       <r>    -9.2227     2.2270     1.1441 </r>
       <r>    -9.1726     3.3328     1.3111 </r>
       <r>    -9.1225     3.9429     1.5086 </r>
       <r>    -9.0724     3.8009     1.6990 </r>
       <r>    -9.0223     3.0960     1.8541 </r>
       <r>    -8.9722     2.3857     1.9737 </r>
       <r>    -8.9221     2.2141     2.0846 </r>
       <r>    -8.8720     2.7123     2.2205 </r>
       <r>    -8.8219     3.4996     2.3958 </r>
       <r>    -8.7718     3.9671     2.5945 </r>
       <r>    -8.7217     3.7136     2.7806 </r>
       <r>    -8.6716     2.7906     2.9204 </r>
       <r>    -8.6215     1.5973     3.0004 </r>
       <r>    -8.5714     0.5635     3.0286 </r>
       <r>    -8.5213    -0.0973     3.0237 </r>
       <r>    -8.4712    -0.4087     3.0033 </r>
       <r>    -8.4211    -0.4802     2.9792 </r>
       <r>    -8.3710    -0.3500     2.9617 </r>
       <r>    -8.3209     0.0574     2.9646 </r>
       <r>    -8.2708     0.8442     3.0069 </r>
       <r>    -8.2207     2.0104     3.1076 </r>
       <r>    -8.1706     3.4063     3.2782 </r>
       <r>    -8.1205     4.8166     3.5195 </r>
       <r>    -8.0704     6.0782     3.8240 </r>
       <r>    -8.0204     7.0985     4.1796 </r>
       <r>    -7.9703     7.7949     4.5701 </r>
       <r>    -7.9202     8.1286     4.9774 </r>
       <r>    -7.8701     8.2687     5.3916 </r>
       <r>    -7.8200     8.6358     5.8242 </r>
       <r>    -7.7699     9.5816     6.3043 </r>
       <r>    -7.7198    10.9079     6.8507 </r>
       <r>    -7.6697    11.7868     7.4412 </r>
       <r>    -7.6196    11.3456     8.0096 </r>
       <r>    -7.5695     9.4667     8.4838 </r>
       <r>    -7.5194     7.0328     8.8362 </r>
       <r>    -7.4693     5.3406     9.1037 </r>
       <r>    -7.4192     5.1860     9.3635 </r>
       <r>    -7.3691     6.3896     9.6836 </r>
       <r>    -7.3190     8.1049    10.0897 </r>
       <r>    -7.2689     9.5999    10.5706 </r>
       <r>    -7.2188    10.8619    11.1147 </r>
       <r>    -7.1687    12.5354    11.7427 </r>
       <r>    -7.1186    15.2386    12.5062 </r>
       <r>    -7.0685    18.8305    13.4495 </r>
       <r>    -7.0184    22.2859    14.5660 </r>
       <r>    -6.9683    24.3213    15.7844 </r>
       <r>    -6.9182    24.2507    16.9993 </r>
       <r>    -6.8681    22.3915    18.1211 </r>
       <r>    -6.8180    19.7863    19.1123 </r>
       <r>    -6.7679    17.5573    19.9919 </r>
       <r>    -6.7178    16.3481    20.8109 </r>
       <r>    -6.6677    16.1087    21.6179 </r>
       <r>    -6.6176    16.2585    22.4324 </r>
       <r>    -6.5675    16.1406    23.2410 </r>
       <r>    -6.5174    15.5310    24.0191 </r>
       <r>    -6.4673    14.8406    24.7625 </r>
       <r>    -6.4172    14.7967    25.5038 </r>
       <r>    -6.3671    15.8351    26.2971 </r>
       <r>    -6.3170    17.7375    27.1857 </r>
       <r>    -6.2669    19.8329    28.1793 </r>
       <r>    -6.2168    21.5553    29.2592 </r>
       <r>    -6.1667    22.8610    30.4044 </r>
       <r>    -6.1166    24.1844    31.6160 </r>
       <r>    -6.0666    26.0066    32.9189 </r>
       <r>    -6.0165    28.3915    34.3412 </r>
       <r>    -5.9664    30.8921    35.8888 </r>
       <r>    -5.9163    32.9698    37.5405 </r>
       <r>    -5.8662    34.5874    39.2733 </r>
       <r>    -5.8161    36.3352    41.0936 </r>
       <r>    -5.7660    38.7970    43.0372 </r>
       <r>    -5.7159    41.6898    45.1257 </r>
       <r>    -5.6658    43.7467    47.3173 </r>
       <r>    -5.6157    43.7058    49.5069 </r>
       <r>    -5.5656    41.6055    51.5912 </r>
       <r>    -5.5155    39.0906    53.5495 </r>
       <r>    -5.4654    38.2423    55.4654 </r>
       <r>    -5.4153    39.8369    57.4611 </r>
       <r>    -5.3652    42.5393    59.5922 </r>
       <r>    -5.3151    43.7365    61.7833 </r>
       <r>    -5.2650    41.3085    63.8528 </r>
       <r>    -5.2149    34.9510    65.6037 </r>
       <r>    -5.1648    26.2037    66.9164 </r>
       <r>    -5.1147    17.4000    67.7881 </r>
       <r>    -5.0646    10.3927    68.3088 </r>
       <r>    -5.0145     5.8441    68.6016 </r>
       <r>    -4.9644     3.3598    68.7699 </r>
       <r>    -4.9143     2.1814    68.8792 </r>
       <r>    -4.8642     1.8337    68.9710 </r>
       <r>    -4.8141     2.2639    69.0844 </r>
       <r>    -4.7640     3.4950    69.2595 </r>
       <r>    -4.7139     5.2221    69.5211 </r>
       <r>    -4.6638     6.7580    69.8597 </r>
       <r>    -4.6137     7.3745    70.2291 </r>
       <r>    -4.5636     6.7387    70.5667 </r>
       <r>    -4.5135     5.0963    70.8221 </r>
       <r>    -4.4634     3.0846    70.9766 </r>
       <r>    -4.4133     1.3469    71.0441 </r>
       <r>    -4.3632     0.2286    71.0555 </r>
       <r>    -4.3131    -0.2792    71.0415 </r>
       <r>    -4.2630    -0.3966    71.0217 </r>
       <r>    -4.2129    -0.3658    71.0033 </r>
       <r>    -4.1629    -0.3296    70.9868 </r>
       <r>    -4.1128    -0.2934    70.9721 </r>
       <r>    -4.0627    -0.1400    70.9651 </r>
       <r>    -4.0126     0.3081    70.9805 </r>
       <r>    -3.9625     1.1621    71.0388 </r>
       <r>    -3.9124     2.3164    71.1548 </r>
       <r>    -3.8623     3.4008    71.3252 </r>
       <r>    -3.8122     3.9450    71.5228 </r>
       <r>    -3.7621     3.6988    71.7081 </r>
       <r>    -3.7120     2.8663    71.8517 </r>
       <r>    -3.6619     2.0355    71.9537 </r>
       <r>    -3.6118     1.8254    72.0451 </r>
       <r>    -3.5617     2.5096    72.1708 </r>
       <r>    -3.5116     3.8753    72.3650 </r>
       <r>    -3.4615     5.3747    72.6342 </r>
       <r>    -3.4114     6.4195    72.9558 </r>
       <r>    -3.3613     6.6265    73.2878 </r>
       <r>    -3.3112     5.9248    73.5846 </r>
       <r>    -3.2611     4.5400    73.8121 </r>
       <r>    -3.2110     2.8887    73.9568 </r>
       <r>    -3.1609     1.4064    74.0273 </r>
       <r>    -3.1108     0.3748    74.0460 </r>
       <r>    -3.0607    -0.1603    74.0380 </r>
       <r>    -3.0106    -0.3387    74.0210 </r>
       <r>    -2.9605    -0.3606    74.0030 </r>
       <r>    -2.9104    -0.3727    73.9843 </r>
       <r>    -2.8603    -0.4086    73.9638 </r>
       <r>    -2.8102    -0.3735    73.9451 </r>
       <r>    -2.7601    -0.0657    73.9418 </r>
       <r>    -2.7100     0.7493    73.9794 </r>
       <r>    -2.6599     2.2132    74.0902 </r>
       <r>    -2.6098     4.2497    74.3031 </r>
       <r>    -2.5597     6.5189    74.6297 </r>
       <r>    -2.5096     8.4966    75.0554 </r>
       <r>    -2.4595     9.6616    75.5394 </r>
       <r>    -2.4094     9.7304    76.0269 </r>
       <r>    -2.3593     8.8255    76.4690 </r>
       <r>    -2.3092     7.4356    76.8415 </r>
       <r>    -2.2592     6.1212    77.1482 </r>
       <r>    -2.2091     5.1555    77.4064 </r>
       <r>    -2.1590     4.4043    77.6271 </r>
       <r>    -2.1089     3.5528    77.8051 </r>
       <r>    -2.0588     2.4452    77.9276 </r>
       <r>    -2.0087     1.2225    77.9888 </r>
       <r>    -1.9586     0.1960    77.9986 </r>
       <r>    -1.9085    -0.3438    77.9814 </r>
       <r>    -1.8584    -0.2097    77.9709 </r>
       <r>    -1.8083     0.6819    78.0051 </r>
       <r>    -1.7582     2.2798    78.1193 </r>
       <r>    -1.7081     4.3294    78.3362 </r>
       <r>    -1.6580     6.3824    78.6559 </r>
       <r>    -1.6079     7.9503    79.0542 </r>
       <r>    -1.5578     8.7068    79.4904 </r>
       <r>    -1.5077     8.5762    79.9200 </r>
       <r>    -1.4576     7.6697    80.3043 </r>
       <r>    -1.4075     6.1830    80.6140 </r>
       <r>    -1.3574     4.3627    80.8326 </r>
       <r>    -1.3073     2.5192    80.9588 </r>
       <r>    -1.2572     0.9972    81.0087 </r>
       <r>    -1.2071     0.0885    81.0132 </r>
       <r>    -1.1570    -0.0540    81.0105 </r>
       <r>    -1.1069     0.5334    81.0372 </r>
       <r>    -1.0568     1.6114    81.1179 </r>
       <r>    -1.0067     2.7953    81.2579 </r>
       <r>    -0.9566     3.7413    81.4454 </r>
       <r>    -0.9065     4.3862    81.6651 </r>
       <r>    -0.8564     4.9990    81.9155 </r>
       <r>    -0.8063     5.8904    82.2106 </r>
       <r>    -0.7562     6.9878    82.5607 </r>
       <r>    -0.7061     7.7213    82.9475 </r>
       <r>    -0.6560     7.4363    83.3201 </r>
       <r>    -0.6059     6.0176    83.6215 </r>
       <r>    -0.5558     4.1642    83.8302 </r>
       <r>    -0.5057     3.0394    83.9824 </r>
       <r>    -0.4556     3.5358    84.1596 </r>
       <r>    -0.4055     5.6660    84.4434 </r>
       <r>    -0.3554     8.4788    84.8682 </r>
       <r>    -0.3054    10.5650    85.3974 </r>
       <r>    -0.2553    10.8553    85.9413 </r>
       <r>    -0.2052     9.2258    86.4035 </r>
       <r>    -0.1551     6.5445    86.7313 </r>
       <r>    -0.1050     4.1537    86.9394 </r>
       <r>    -0.0549     3.1229    87.0959 </r>
       <r>    -0.0048     3.7163    87.2820 </r>
       <r>     0.0453     5.3845    87.5518 </r>
       <r>     0.0954     7.2742    87.9162 </r>
       <r>     0.1455     8.8728    88.3607 </r>
       <r>     0.1956    10.2381    88.8736 </r>
       <r>     0.2457    11.5932    89.4544 </r>
       <r>     0.2958    12.7270    90.0920 </r>
       <r>     0.3459    12.9070    90.7386 </r>
       <r>     0.3960    11.4795    91.3137 </r>
       <r>     0.4461     8.5503    91.7420 </r>
       <r>     0.4962     5.0305    91.9940 </r>
       <r>     0.5463     2.0240    92.0954 </r>
       <r>     0.5964     0.1611    92.1035 </r>
       <r>     0.6465    -0.5895    92.0740 </r>
       <r>     0.6966    -0.6463    92.0416 </r>
       <r>     0.7467    -0.4427    92.0194 </r>
       <r>     0.7968    -0.2339    92.0077 </r>
       <r>     0.8469    -0.1014    92.0026 </r>
       <r>     0.8970    -0.0370    92.0008 </r>
       <r>     0.9471    -0.0116    92.0002 </r>
       <r>     0.9972    -0.0031    92.0000 </r>
       <r>     1.0473    -0.0007    92.0000 </r>
       <r>     1.0974    -0.0001    92.0000 </r>
       <r>     1.1475    -0.0000    92.0000 </r>
       <r>     1.1976    -0.0000    92.0000 </r>
       <r>     1.2477    -0.0000    92.0000 </r>
       <r>     1.2978    -0.0000    92.0000 </r>
       <r>     1.3479    -0.0000    92.0000 </r>
       <r>     1.3980    -0.0000    92.0000 </r>
       <r>     1.4481    -0.0000    92.0000 </r>
       <r>     1.4982    -0.0000    92.0000 </r>
       <r>     1.5483    -0.0000    92.0000 </r>
       <r>     1.5983    -0.0000    92.0000 </r>
       <r>     1.6484     0.0000    92.0000 </r>
       <r>     1.6985     0.0000    92.0000 </r>
       <r>     1.7486     0.0000    92.0000 </r>
       <r>     1.7987     0.0000    92.0000 </r>
       <r>     1.8488     0.0000    92.0000 </r>
       <r>     1.8989     0.0000    92.0000 </r>
       <r>     1.9490     0.0000    92.0000 </r>
       <r>     1.9991     0.0000    92.0000 </r>
       <r>     2.0492     0.0000    92.0000 </r>
       <r>     2.0993     0.0000    92.0000 </r>
       <r>     2.1494     0.0000    92.0000 </r>
       <r>     2.1995     0.0000    92.0000 </r>
       <r>     2.2496     0.0000    92.0000 </r>
       <r>     2.2997     0.0000    92.0000 </r>
       <r>     2.3498     0.0000    92.0000 </r>
      </set>
     </set>
    </array>
   </total>
  </dos>
 </calculation>
 <structure name="finalpos" >
  <crystal>
   <varray name="basis" >
    <v>      24.84531586       0.00000000       0.00000000 </v>
    <v>       0.00000000      23.03023079       0.00000000 </v>
    <v>       0.00000000       0.00000000      23.55473635 </v>
   </varray>
   <i name="volume">  13477.86369979 </i>
   <varray name="rec_basis" >
    <v>       0.04024904       0.00000000       0.00000000 </v>
    <v>       0.00000000       0.04342119       0.00000000 </v>
    <v>       0.00000000       0.00000000       0.04245431 </v>
   </varray>
  </crystal>
  <varray name="positions" >
   <v>       0.50053229       0.43648608       0.53184493 </v>
   <v>       0.43384308       0.59718037       0.53555699 </v>
   <v>       0.37669637       0.53404987       0.59174831 </v>
   <v>       0.47477097       0.52252022       0.58987925 </v>
   <v>       0.52994318       0.60946911       0.55297788 </v>
   <v>       0.56539720       0.51101497       0.55471322 </v>
   <v>       0.41634618       0.49565872       0.50294238 </v>
   <v>       0.42019510       0.38872107       0.49369272 </v>
   <v>       0.50165383       0.54194271       0.47974292 </v>
   <v>       0.57132328       0.47116243       0.45944847 </v>
   <v>       0.41403795       0.43657124       0.58545823 </v>
   <v>       0.59462531       0.57422939       0.47984455 </v>
   <v>       0.47858539       0.44751289       0.43443610 </v>
  </varray>
 </structure>
</modeling>
