unknown system                          
            1
    24.845316    0.000000    0.000000
     0.000000   23.030231    0.000000
     0.000000    0.000000   23.554736
   Cu
    13
Direct configuration=     1
   0.50117776  0.43839530  0.53048224
   0.43169794  0.59919244  0.53151165
   0.37741448  0.53395011  0.59106103
   0.47567734  0.52361402  0.58853656
   0.52977802  0.60828712  0.55523865
   0.57103937  0.51022233  0.55854307
   0.41280730  0.49530464  0.50145700
   0.42097853  0.38951061  0.49394606
   0.50029417  0.53932782  0.48270079
   0.57152005  0.46980485  0.46066846
   0.41662963  0.43551823  0.58808618
   0.59270717  0.57382025  0.47975715
   0.47622839  0.44957136  0.43029712
Direct configuration=     2
   0.50105503  0.43850532  0.53020524
   0.43208617  0.59845711  0.53209118
   0.37756305  0.53394607  0.59097570
   0.47546748  0.52373435  0.58826868
   0.52970586  0.60812047  0.55495868
   0.56997497  0.51039217  0.55777424
   0.41327741  0.49506130  0.50211822
   0.42102549  0.38959443  0.49391689
   0.50082146  0.53950427  0.48273690
   0.57125763  0.47002865  0.46072150
   0.41656029  0.43606625  0.58734524
   0.59264974  0.57369480  0.47990411
   0.47650555  0.44941387  0.43126938
Direct configuration=     3
   0.50090306  0.43864155  0.52986222
   0.43256692  0.59754653  0.53280881
   0.37774703  0.53394108  0.59087003
   0.47520762  0.52388335  0.58793696
   0.52961650  0.60791412  0.55461200
   0.56865690  0.51060249  0.55682219
   0.41385956  0.49475998  0.50293702
   0.42108365  0.38969823  0.49388077
   0.50147440  0.53972276  0.48278160
   0.57093268  0.47030580  0.46078719
   0.41647444  0.43674487  0.58642772
   0.59257862  0.57353946  0.48008609
   0.47684877  0.44921885  0.43247335
Direct configuration=     4
   0.50091557  0.43838611  0.53008033
   0.43277313  0.59742246  0.53313844
   0.37748322  0.53405609  0.59110783
   0.47520380  0.52375757  0.58820966
   0.52963887  0.60825857  0.55454893
   0.56798404  0.51054756  0.55658736
   0.41425139  0.49489043  0.50290582
   0.42094854  0.38938592  0.49378975
   0.50137817  0.53996997  0.48240348
   0.57104096  0.47025323  0.46049162
   0.41630114  0.43677888  0.58625478
   0.59296117  0.57375597  0.47997415
   0.47707013  0.44905629  0.43279380
Direct configuration=     5
   0.50094854  0.43771257  0.53065544
   0.43331688  0.59709532  0.53400759
   0.37678761  0.53435937  0.59173484
   0.47519373  0.52342592  0.58892871
   0.52969785  0.60916681  0.55438264
   0.56620984  0.51040274  0.55596817
   0.41528455  0.49523439  0.50282355
   0.42059231  0.38856245  0.49354976
   0.50112442  0.54062182  0.48140644
   0.57132648  0.47011460  0.45971227
   0.41584421  0.43686855  0.58579876
   0.59396988  0.57432685  0.47967900
   0.47765383  0.44862767  0.43363878
Direct configuration=     6
   0.50076165  0.43699874  0.53104553
   0.43347797  0.59710192  0.53459798
   0.37667593  0.53434073  0.59188135
   0.47486351  0.52319829  0.58952463
   0.52985385  0.60940140  0.55394469
   0.56577338  0.51077495  0.55524099
   0.41552988  0.49531963  0.50289447
   0.42046614  0.38841235  0.49355558
   0.50173062  0.54124190  0.48076594
   0.57140641  0.47046449  0.45950546
   0.41538398  0.43688488  0.58555474
   0.59405885  0.57419863  0.47985373
   0.47796798  0.44818115  0.43392087
Direct configuration=     7
   0.50067904  0.43668321  0.53121796
   0.43354917  0.59710484  0.53485895
   0.37662656  0.53433249  0.59194611
   0.47471754  0.52309768  0.58978804
   0.52992280  0.60950510  0.55375111
   0.56558045  0.51093947  0.55491955
   0.41563832  0.49535731  0.50292582
   0.42041037  0.38834600  0.49355815
   0.50199858  0.54151600  0.48048282
   0.57144173  0.47061915  0.45941404
   0.41518054  0.43689209  0.58544688
   0.59409817  0.57414195  0.47993096
   0.47810685  0.44798378  0.43404556
Direct configuration=     8
   0.50059881  0.43653173  0.53145199
   0.43368073  0.59709368  0.53515560
   0.37667589  0.53421724  0.59187083
   0.47467808  0.52289698  0.58986703
   0.52992496  0.60951686  0.55344877
   0.56552129  0.51099999  0.55479474
   0.41595652  0.49551989  0.50290988
   0.42034345  0.38848508  0.49361018
   0.50180990  0.54169559  0.48016238
   0.57140545  0.47083056  0.45940772
   0.41472283  0.43676227  0.58546925
   0.59434009  0.57418189  0.47991686
   0.47829215  0.44778730  0.43422073
Direct configuration=     9
   0.50050747  0.43635927  0.53171841
   0.43383049  0.59708098  0.53549331
   0.37673205  0.53408603  0.59178513
   0.47463315  0.52266850  0.58995696
   0.52992742  0.60953025  0.55310457
   0.56545393  0.51106889  0.55465266
   0.41631876  0.49570497  0.50289173
   0.42026727  0.38864342  0.49366940
   0.50159509  0.54190005  0.47979759
   0.57136415  0.47107124  0.45940053
   0.41420174  0.43661447  0.58549472
   0.59461549  0.57422737  0.47990081
   0.47850311  0.44756362  0.43442014
Direct configuration=    10
   0.50054567  0.43655443  0.53191313
   0.43384987  0.59723395  0.53559132
   0.37667714  0.53403038  0.59172846
   0.47484526  0.52244030  0.58983737
   0.52995168  0.60943615  0.55290959
   0.56536663  0.51098590  0.55474587
   0.41636096  0.49563380  0.50296968
   0.42015621  0.38876293  0.49370529
   0.50168549  0.54196571  0.47971345
   0.57130125  0.47121158  0.45947431
   0.41394966  0.43654794  0.58543857
   0.59463060  0.57423047  0.47981423
   0.47862974  0.44748554  0.43444471
Direct configuration=    11
   0.50053229  0.43648608  0.53184493
   0.43384308  0.59718037  0.53555699
   0.37669637  0.53404987  0.59174831
   0.47477097  0.52252022  0.58987925
   0.52994318  0.60946911  0.55297788
   0.56539720  0.51101497  0.55471322
   0.41634618  0.49565872  0.50294238
   0.42019510  0.38872107  0.49369272
   0.50165383  0.54194271  0.47974292
   0.57132328  0.47116243  0.45944847
   0.41403795  0.43657124  0.58545823
   0.59462531  0.57422939  0.47984455
   0.47858539  0.44751289  0.43443610
