  10  10   0   0
  0.1295752E+04  0.2340337E-08  0.2571532E-08  0.2153038E-08  0.5000000E-15
   1.0000000000000000E-004
  CAR 
 unknown system                          
      1.88376787    -11.82142660  301     -4.13776144      1.00000000
    -11.821  0.0000E+00  0.0000E+00  0.0000E+00  0.0000E+00
    -11.776  0.0000E+00  0.0000E+00  0.0000E+00  0.0000E+00
    -11.730  0.0000E+00  0.0000E+00  0.0000E+00  0.0000E+00
    -11.684  0.0000E+00  0.0000E+00  0.0000E+00  0.0000E+00
    -11.639  0.0000E+00  0.0000E+00  0.0000E+00  0.0000E+00
    -11.593  0.0000E+00  0.0000E+00  0.0000E+00  0.0000E+00
    -11.547  0.0000E+00  0.0000E+00  0.0000E+00  0.0000E+00
    -11.502  0.0000E+00  0.0000E+00  0.0000E+00  0.0000E+00
    -11.456 -0.4961E-30  0.0000E+00 -0.2266E-31  0.0000E+00
    -11.410 -0.1865E-28  0.0000E+00 -0.8747E-30  0.0000E+00
    -11.365 -0.6460E-27 -0.1821E-29 -0.3039E-28 -0.8321E-31
    -11.319 -0.2013E-25 -0.6591E-28 -0.9502E-27 -0.3094E-29
    -11.273 -0.5646E-24 -0.2200E-26 -0.2674E-25 -0.1036E-27
    -11.228 -0.1424E-22 -0.6605E-25 -0.6774E-24 -0.3121E-26
    -11.182 -0.3232E-21 -0.1784E-23 -0.1544E-22 -0.8463E-25
    -11.136 -0.6597E-20 -0.4336E-22 -0.3168E-21 -0.2066E-23
    -11.090 -0.1211E-18 -0.9479E-21 -0.5848E-20 -0.4537E-22
    -11.045 -0.1998E-17 -0.1864E-19 -0.9713E-19 -0.8967E-21
    -10.999 -0.2843E-16 -0.3295E-18 -0.1396E-17 -0.1595E-19
    -10.953 -0.3831E-15 -0.5237E-17 -0.1890E-16 -0.2552E-18
    -10.908 -0.4576E-14 -0.7239E-16 -0.2280E-15 -0.3562E-17
    -10.862 -0.4910E-13 -0.9304E-15 -0.2471E-14 -0.4607E-16
    -10.816 -0.4729E-12 -0.1070E-13 -0.2408E-13 -0.5349E-15
    -10.771 -0.4086E-11 -0.1105E-12 -0.2108E-12 -0.5584E-14
    -10.725 -0.3166E-10 -0.1024E-11 -0.1657E-11 -0.5239E-13
    -10.679 -0.2199E-09 -0.8519E-11 -0.1170E-10 -0.4416E-12
    -10.634 -0.1367E-08 -0.6351E-10 -0.7415E-10 -0.3343E-11
    -10.588 -0.7603E-08 -0.4242E-09 -0.4215E-09 -0.2272E-10
    -10.542 -0.3778E-07 -0.2536E-08 -0.2148E-08 -0.1386E-09
    -10.497 -0.1675E-06 -0.1356E-07 -0.9800E-08 -0.7580E-09
    -10.451 -0.6612E-06 -0.6473E-07 -0.4000E-07 -0.3715E-08
    -10.405 -0.2317E-05 -0.2755E-06 -0.1459E-06 -0.1630E-07
    -10.360 -0.7183E-05 -0.1043E-05 -0.4740E-06 -0.6396E-07
    -10.314 -0.1959E-04 -0.3503E-05 -0.1369E-05 -0.2240E-06
    -10.268 -0.4662E-04 -0.1039E-04 -0.3499E-05 -0.6986E-06
    -10.222 -0.9543E-04 -0.2703E-04 -0.7858E-05 -0.1934E-05
    -10.177 -0.1637E-03 -0.6112E-04 -0.1534E-04 -0.4726E-05
    -10.131 -0.2214E-03 -0.1180E-03 -0.2545E-04 -0.1012E-04
    -10.085 -0.1923E-03 -0.1880E-03 -0.3423E-04 -0.1871E-04
    -10.040  0.4430E-04 -0.2265E-03 -0.3221E-04 -0.2906E-04
     -9.994  0.6066E-03 -0.1394E-03 -0.4497E-05 -0.3543E-04
     -9.948  0.1521E-02  0.2011E-03  0.6499E-04 -0.2624E-04
     -9.903  0.2639E-02  0.8924E-03  0.1856E-03  0.1453E-04
     -9.857  0.3644E-02  0.1906E-02  0.3520E-03  0.1016E-03
     -9.811  0.4173E-02  0.3026E-02  0.5427E-03  0.2398E-03
     -9.766  0.4017E-02  0.3900E-02  0.7262E-03  0.4180E-03
     -9.720  0.3238E-02  0.4199E-02  0.8741E-03  0.6099E-03
     -9.674  0.2137E-02  0.3801E-02  0.9717E-03  0.7835E-03
     -9.629  0.1078E-02  0.2867E-02  0.1021E-02  0.9145E-03
     -9.583  0.3129E-03  0.1742E-02  0.1035E-02  0.9941E-03
     -9.537 -0.9438E-04  0.7676E-03  0.1031E-02  0.1029E-02
     -9.492 -0.2228E-03  0.1303E-03  0.1021E-02  0.1035E-02
     -9.446 -0.2008E-03 -0.1650E-03  0.1012E-02  0.1028E-02
     -9.400 -0.1321E-03 -0.2259E-03  0.1006E-02  0.1017E-02
     -9.354 -0.7093E-04 -0.1781E-03  0.1002E-02  0.1009E-02
     -9.309 -0.3235E-04 -0.1083E-03  0.1001E-02  0.1004E-02
     -9.263 -0.1280E-04 -0.5471E-04  0.1000E-02  0.1002E-02
     -9.217 -0.4534E-05 -0.2368E-04  0.1000E-02  0.1001E-02
     -9.172 -0.1798E-05 -0.8921E-05  0.1000E-02  0.1000E-02
     -9.126 -0.1989E-05 -0.2953E-05  0.9999E-03  0.1000E-02
     -9.080 -0.5315E-05 -0.8643E-06  0.9997E-03  0.1000E-02
     -9.035 -0.1486E-04 -0.2277E-06  0.9990E-03  0.1000E-02
     -8.989 -0.3693E-04 -0.7031E-07  0.9973E-03  0.1000E-02
     -8.943 -0.7963E-04 -0.9720E-07  0.9937E-03  0.1000E-02
     -8.898 -0.1461E-03 -0.3621E-06  0.9870E-03  0.1000E-02
     -8.852 -0.2194E-03 -0.1333E-05  0.9770E-03  0.9999E-03
     -8.806 -0.2436E-03 -0.4369E-05  0.9658E-03  0.9997E-03
     -8.761 -0.1162E-03 -0.1264E-04  0.9605E-03  0.9991E-03
     -8.715  0.2840E-03 -0.3204E-04  0.9735E-03  0.9977E-03
     -8.669  0.1030E-02 -0.7039E-04  0.1021E-02  0.9945E-03
     -8.624  0.2074E-02 -0.1315E-03  0.1115E-02  0.9885E-03
     -8.578  0.3231E-02 -0.2006E-03  0.1263E-02  0.9793E-03
     -8.532  0.4254E-02 -0.2248E-03  0.1457E-02  0.9690E-03
     -8.486  0.4960E-02 -0.1024E-03  0.1684E-02  0.9643E-03
     -8.441  0.5295E-02  0.2914E-03  0.1926E-02  0.9777E-03
     -8.395  0.5299E-02  0.1031E-02  0.2168E-02  0.1025E-02
     -8.349  0.5037E-02  0.2045E-02  0.2398E-02  0.1118E-02
     -8.304  0.4576E-02  0.3083E-02  0.2607E-02  0.1259E-02
     -8.258  0.4031E-02  0.3801E-02  0.2791E-02  0.1433E-02
     -8.212  0.3583E-02  0.3959E-02  0.2955E-02  0.1614E-02
     -8.167  0.3382E-02  0.3601E-02  0.3109E-02  0.1778E-02
     -8.121  0.3428E-02  0.3060E-02  0.3266E-02  0.1918E-02
     -8.075  0.3570E-02  0.2754E-02  0.3429E-02  0.2044E-02
     -8.030  0.3663E-02  0.2903E-02  0.3596E-02  0.2176E-02
     -7.984  0.3764E-02  0.3370E-02  0.3768E-02  0.2330E-02
     -7.938  0.4146E-02  0.3760E-02  0.3958E-02  0.2502E-02
     -7.893  0.5103E-02  0.3701E-02  0.4191E-02  0.2671E-02
     -7.847  0.6705E-02  0.3113E-02  0.4497E-02  0.2813E-02
     -7.801  0.8714E-02  0.2268E-02  0.4895E-02  0.2917E-02
     -7.756  0.1070E-01  0.1621E-02  0.5384E-02  0.2991E-02
     -7.710  0.1223E-01  0.1527E-02  0.5943E-02  0.3061E-02
     -7.664  0.1300E-01  0.2024E-02  0.6537E-02  0.3153E-02
     -7.619  0.1288E-01  0.2821E-02  0.7125E-02  0.3282E-02
     -7.573  0.1192E-01  0.3495E-02  0.7670E-02  0.3442E-02
     -7.527  0.1053E-01  0.3765E-02  0.8151E-02  0.3614E-02
     -7.481  0.9404E-02  0.3686E-02  0.8580E-02  0.3782E-02
     -7.436  0.9302E-02  0.3602E-02  0.9005E-02  0.3947E-02
     -7.390  0.1062E-01  0.3913E-02  0.9490E-02  0.4125E-02
     -7.344  0.1302E-01  0.4809E-02  0.1009E-01  0.4345E-02
     -7.299  0.1550E-01  0.6152E-02  0.1079E-01  0.4626E-02
     -7.253  0.1691E-01  0.7551E-02  0.1157E-01  0.4971E-02
     -7.207  0.1656E-01  0.8561E-02  0.1232E-01  0.5362E-02
     -7.162  0.1462E-01  0.8862E-02  0.1299E-01  0.5767E-02
     -7.116  0.1195E-01  0.8396E-02  0.1354E-01  0.6151E-02
     -7.070  0.9585E-02  0.7404E-02  0.1397E-01  0.6489E-02
     -7.025  0.8188E-02  0.6369E-02  0.1435E-01  0.6780E-02
     -6.979  0.7815E-02  0.5841E-02  0.1470E-01  0.7047E-02
     -6.933  0.8033E-02  0.6208E-02  0.1507E-01  0.7330E-02
     -6.888  0.8263E-02  0.7503E-02  0.1545E-01  0.7673E-02
     -6.842  0.8125E-02  0.9379E-02  0.1582E-01  0.8102E-02
     -6.796  0.7629E-02  0.1125E-01  0.1617E-01  0.8615E-02
     -6.751  0.7146E-02  0.1254E-01  0.1650E-01  0.9188E-02
     -6.705  0.7189E-02  0.1295E-01  0.1682E-01  0.9780E-02
     -6.659  0.8087E-02  0.1257E-01  0.1719E-01  0.1035E-01
     -6.613  0.9731E-02  0.1182E-01  0.1764E-01  0.1089E-01
     -6.568  0.1157E-01  0.1124E-01  0.1817E-01  0.1141E-01
     -6.522  0.1292E-01  0.1120E-01  0.1876E-01  0.1192E-01
     -6.476  0.1335E-01  0.1167E-01  0.1937E-01  0.1245E-01
     -6.431  0.1294E-01  0.1231E-01  0.1996E-01  0.1302E-01
     -6.385  0.1218E-01  0.1269E-01  0.2051E-01  0.1359E-01
     -6.339  0.1161E-01  0.1258E-01  0.2104E-01  0.1417E-01
     -6.294  0.1154E-01  0.1212E-01  0.2157E-01  0.1472E-01
     -6.248  0.1197E-01  0.1160E-01  0.2212E-01  0.1525E-01
     -6.202  0.1271E-01  0.1126E-01  0.2270E-01  0.1577E-01
     -6.157  0.1350E-01  0.1107E-01  0.2332E-01  0.1627E-01
     -6.111  0.1420E-01  0.1081E-01  0.2396E-01  0.1677E-01
     -6.065  0.1476E-01  0.1040E-01  0.2464E-01  0.1724E-01
     -6.020  0.1517E-01  0.1005E-01  0.2533E-01  0.1770E-01
     -5.974  0.1538E-01  0.1027E-01  0.2603E-01  0.1817E-01
     -5.928  0.1534E-01  0.1154E-01  0.2673E-01  0.1870E-01
     -5.883  0.1505E-01  0.1388E-01  0.2742E-01  0.1933E-01
     -5.837  0.1465E-01  0.1669E-01  0.2809E-01  0.2009E-01
     -5.791  0.1438E-01  0.1894E-01  0.2875E-01  0.2096E-01
     -5.745  0.1450E-01  0.1967E-01  0.2941E-01  0.2186E-01
     -5.700  0.1512E-01  0.1858E-01  0.3010E-01  0.2271E-01
     -5.654  0.1609E-01  0.1616E-01  0.3084E-01  0.2344E-01
     -5.608  0.1717E-01  0.1337E-01  0.3162E-01  0.2406E-01
     -5.563  0.1817E-01  0.1115E-01  0.3245E-01  0.2457E-01
     -5.517  0.1915E-01  0.9989E-02  0.3333E-01  0.2502E-01
     -5.471  0.2036E-01  0.9842E-02  0.3426E-01  0.2547E-01
     -5.426  0.2194E-01  0.1037E-01  0.3526E-01  0.2594E-01
     -5.380  0.2370E-01  0.1119E-01  0.3634E-01  0.2646E-01
     -5.334  0.2514E-01  0.1206E-01  0.3749E-01  0.2701E-01
     -5.289  0.2580E-01  0.1290E-01  0.3867E-01  0.2760E-01
     -5.243  0.2564E-01  0.1374E-01  0.3984E-01  0.2822E-01
     -5.197  0.2515E-01  0.1459E-01  0.4099E-01  0.2889E-01
     -5.152  0.2512E-01  0.1533E-01  0.4214E-01  0.2959E-01
     -5.106  0.2615E-01  0.1574E-01  0.4333E-01  0.3031E-01
     -5.060  0.2824E-01  0.1558E-01  0.4462E-01  0.3102E-01
     -5.015  0.3064E-01  0.1478E-01  0.4602E-01  0.3170E-01
     -4.969  0.3219E-01  0.1362E-01  0.4749E-01  0.3232E-01
     -4.923  0.3180E-01  0.1265E-01  0.4894E-01  0.3290E-01
     -4.877  0.2899E-01  0.1246E-01  0.5027E-01  0.3347E-01
     -4.832  0.2405E-01  0.1337E-01  0.5137E-01  0.3408E-01
     -4.786  0.1789E-01  0.1525E-01  0.5219E-01  0.3477E-01
     -4.740  0.1165E-01  0.1756E-01  0.5272E-01  0.3558E-01
     -4.695  0.6288E-02  0.1962E-01  0.5300E-01  0.3647E-01
     -4.649  0.2431E-02  0.2091E-01  0.5312E-01  0.3743E-01
     -4.603  0.2741E-03  0.2124E-01  0.5313E-01  0.3840E-01
     -4.558 -0.3246E-03  0.2077E-01  0.5311E-01  0.3935E-01
     -4.512  0.2608E-03  0.1978E-01  0.5313E-01  0.4025E-01
     -4.466  0.1516E-02  0.1854E-01  0.5319E-01  0.4110E-01
     -4.421  0.2866E-02  0.1720E-01  0.5333E-01  0.4188E-01
     -4.375  0.3796E-02  0.1582E-01  0.5350E-01  0.4261E-01
     -4.329  0.3991E-02  0.1454E-01  0.5368E-01  0.4327E-01
     -4.284  0.3447E-02  0.1361E-01  0.5384E-01  0.4389E-01
     -4.238  0.2437E-02  0.1331E-01  0.5395E-01  0.4450E-01
     -4.192  0.1348E-02  0.1384E-01  0.5401E-01  0.4513E-01
     -4.147  0.4902E-03  0.1514E-01  0.5403E-01  0.4582E-01
     -4.101 -0.1327E-04  0.1691E-01  0.5403E-01  0.4660E-01
     -4.055 -0.2076E-03  0.1874E-01  0.5402E-01  0.4745E-01
     -4.009 -0.2160E-03  0.2029E-01  0.5401E-01  0.4838E-01
     -3.964 -0.1542E-03  0.2135E-01  0.5401E-01  0.4935E-01
     -3.918 -0.9210E-04  0.2175E-01  0.5400E-01  0.5035E-01
     -3.872 -0.5776E-04  0.2123E-01  0.5400E-01  0.5132E-01
     -3.827 -0.5767E-04  0.1951E-01  0.5400E-01  0.5221E-01
     -3.781 -0.9182E-04  0.1646E-01  0.5399E-01  0.5296E-01
     -3.735 -0.1538E-03  0.1238E-01  0.5399E-01  0.5353E-01
     -3.690 -0.2157E-03  0.7988E-02  0.5398E-01  0.5389E-01
     -3.644 -0.2079E-03  0.4099E-02  0.5397E-01  0.5408E-01
     -3.598 -0.1453E-04  0.1303E-02  0.5397E-01  0.5414E-01
     -3.553  0.4886E-03 -0.2627E-03  0.5399E-01  0.5413E-01
     -3.507  0.1350E-02 -0.8474E-03  0.5405E-01  0.5409E-01
     -3.461  0.2453E-02 -0.8683E-03  0.5416E-01  0.5405E-01
     -3.416  0.3502E-02 -0.6913E-03  0.5432E-01  0.5402E-01
     -3.370  0.4130E-02 -0.5204E-03  0.5451E-01  0.5399E-01
     -3.324  0.4088E-02 -0.3878E-03  0.5470E-01  0.5398E-01
     -3.279  0.3392E-02 -0.1979E-03  0.5485E-01  0.5397E-01
     -3.233  0.2306E-02  0.2027E-03  0.5496E-01  0.5398E-01
     -3.187  0.1190E-02  0.9306E-03  0.5501E-01  0.5402E-01
     -3.141  0.3121E-03  0.1963E-02  0.5503E-01  0.5411E-01
     -3.096 -0.2374E-03  0.3080E-02  0.5502E-01  0.5425E-01
     -3.050 -0.5044E-03  0.3928E-02  0.5499E-01  0.5443E-01
     -3.004 -0.5555E-03  0.4181E-02  0.5497E-01  0.5462E-01
     -2.959 -0.3839E-03  0.3727E-02  0.5495E-01  0.5479E-01
     -2.913  0.1060E-03  0.2729E-02  0.5495E-01  0.5491E-01
     -2.867  0.1038E-02  0.1528E-02  0.5500E-01  0.5498E-01
     -2.822  0.2465E-02  0.4664E-03  0.5511E-01  0.5500E-01
     -2.776  0.4302E-02 -0.2326E-03  0.5531E-01  0.5499E-01
     -2.730  0.6310E-02 -0.4679E-03  0.5560E-01  0.5497E-01
     -2.685  0.8140E-02 -0.1914E-03  0.5597E-01  0.5496E-01
     -2.639  0.9404E-02  0.6316E-03  0.5640E-01  0.5499E-01
     -2.593  0.9773E-02  0.1983E-02  0.5685E-01  0.5508E-01
     -2.548  0.9090E-02  0.3721E-02  0.5726E-01  0.5525E-01
     -2.502  0.7461E-02  0.5555E-02  0.5760E-01  0.5551E-01
     -2.456  0.5259E-02  0.7132E-02  0.5784E-01  0.5583E-01
     -2.411  0.3003E-02  0.8165E-02  0.5798E-01  0.5621E-01
     -2.365  0.1163E-02  0.8526E-02  0.5803E-01  0.5660E-01
     -2.319  0.2505E-04  0.8236E-02  0.5804E-01  0.5697E-01
     -2.273 -0.3314E-03  0.7396E-02  0.5802E-01  0.5731E-01
     -2.228  0.2648E-04  0.6127E-02  0.5802E-01  0.5759E-01
     -2.182  0.9303E-03  0.4576E-02  0.5806E-01  0.5780E-01
     -2.136  0.2109E-02  0.2943E-02  0.5816E-01  0.5793E-01
     -2.091  0.3200E-02  0.1470E-02  0.5831E-01  0.5800E-01
     -2.045  0.3848E-02  0.3860E-03  0.5848E-01  0.5802E-01
     -1.999  0.3886E-02 -0.1506E-03  0.5866E-01  0.5801E-01
     -1.954  0.3455E-02 -0.7493E-04  0.5882E-01  0.5801E-01
     -1.908  0.2948E-02  0.5720E-03  0.5895E-01  0.5803E-01
     -1.862  0.2765E-02  0.1621E-02  0.5908E-01  0.5811E-01
     -1.817  0.3043E-02  0.2765E-02  0.5922E-01  0.5823E-01
     -1.771  0.3560E-02  0.3633E-02  0.5938E-01  0.5840E-01
     -1.725  0.3889E-02  0.3950E-02  0.5956E-01  0.5858E-01
     -1.680  0.3684E-02  0.3717E-02  0.5973E-01  0.5875E-01
     -1.634  0.2909E-02  0.3229E-02  0.5986E-01  0.5890E-01
     -1.588  0.1846E-02  0.2899E-02  0.5994E-01  0.5903E-01
     -1.543  0.9410E-03  0.2974E-02  0.5999E-01  0.5917E-01
     -1.497  0.5759E-03  0.3363E-02  0.6001E-01  0.5932E-01
     -1.451  0.9084E-03  0.3714E-02  0.6005E-01  0.5949E-01
     -1.405  0.1809E-02  0.3689E-02  0.6014E-01  0.5966E-01
     -1.360  0.2907E-02  0.3236E-02  0.6027E-01  0.5981E-01
     -1.314  0.3730E-02  0.2632E-02  0.6044E-01  0.5993E-01
     -1.268  0.3925E-02  0.2290E-02  0.6062E-01  0.6003E-01
     -1.223  0.3438E-02  0.2452E-02  0.6078E-01  0.6014E-01
     -1.177  0.2559E-02  0.3009E-02  0.6089E-01  0.6028E-01
     -1.131  0.1777E-02  0.3571E-02  0.6097E-01  0.6044E-01
     -1.086  0.1519E-02  0.3746E-02  0.6104E-01  0.6061E-01
     -1.040  0.1913E-02  0.3413E-02  0.6113E-01  0.6077E-01
     -0.994  0.2723E-02  0.2816E-02  0.6126E-01  0.6090E-01
     -0.949  0.3485E-02  0.2384E-02  0.6141E-01  0.6101E-01
     -0.903  0.3781E-02  0.2433E-02  0.6159E-01  0.6112E-01
     -0.857  0.3484E-02  0.2937E-02  0.6175E-01  0.6125E-01
     -0.812  0.2827E-02  0.3535E-02  0.6188E-01  0.6141E-01
     -0.766  0.2245E-02  0.3775E-02  0.6198E-01  0.6159E-01
     -0.720  0.2096E-02  0.3410E-02  0.6207E-01  0.6174E-01
     -0.675  0.2470E-02  0.2559E-02  0.6219E-01  0.6186E-01
     -0.629  0.3230E-02  0.1643E-02  0.6233E-01  0.6194E-01
     -0.583  0.4211E-02  0.1150E-02  0.6253E-01  0.6199E-01
     -0.537  0.5398E-02  0.1396E-02  0.6277E-01  0.6205E-01
     -0.492  0.6889E-02  0.2412E-02  0.6309E-01  0.6216E-01
     -0.446  0.8658E-02  0.3984E-02  0.6348E-01  0.6234E-01
     -0.400  0.1036E-01  0.5805E-02  0.6396E-01  0.6261E-01
     -0.355  0.1139E-01  0.7599E-02  0.6448E-01  0.6296E-01
     -0.309  0.1120E-01  0.9167E-02  0.6499E-01  0.6337E-01
     -0.263  0.9674E-02  0.1033E-01  0.6543E-01  0.6385E-01
     -0.218  0.7190E-02  0.1089E-01  0.6576E-01  0.6434E-01
     -0.172  0.4447E-02  0.1065E-01  0.6596E-01  0.6483E-01
     -0.126  0.2106E-02  0.9514E-02  0.6606E-01  0.6527E-01
     -0.081  0.5303E-03  0.7617E-02  0.6608E-01  0.6561E-01
     -0.035 -0.2689E-03  0.5322E-02  0.6607E-01  0.6586E-01
      0.011 -0.5054E-03  0.3100E-02  0.6605E-01  0.6600E-01
      0.056 -0.4472E-03  0.1341E-02  0.6603E-01  0.6606E-01
      0.102 -0.2982E-03  0.2214E-03  0.6601E-01  0.6607E-01
      0.148 -0.1647E-03 -0.3070E-03  0.6601E-01  0.6606E-01
      0.193 -0.7810E-04 -0.4302E-03  0.6600E-01  0.6604E-01
      0.239 -0.3234E-04 -0.3540E-03  0.6600E-01  0.6602E-01
      0.285 -0.1180E-04 -0.2268E-03  0.6600E-01  0.6601E-01
      0.331 -0.3820E-05 -0.1216E-03  0.6600E-01  0.6600E-01
      0.376 -0.1100E-05 -0.5616E-04  0.6600E-01  0.6600E-01
      0.422 -0.2824E-06 -0.2266E-04  0.6600E-01  0.6600E-01
      0.468 -0.6481E-07 -0.8063E-05  0.6600E-01  0.6600E-01
      0.513 -0.1330E-07 -0.2541E-05  0.6600E-01  0.6600E-01
      0.559 -0.2445E-08 -0.7121E-06  0.6600E-01  0.6600E-01
      0.605 -0.4028E-09 -0.1779E-06  0.6600E-01  0.6600E-01
      0.650 -0.5951E-10 -0.3967E-07  0.6600E-01  0.6600E-01
      0.696 -0.7888E-11 -0.7910E-08  0.6600E-01  0.6600E-01
      0.742 -0.9384E-12 -0.1412E-08  0.6600E-01  0.6600E-01
      0.787 -0.1002E-12 -0.2257E-09  0.6600E-01  0.6600E-01
      0.833 -0.9629E-14 -0.3235E-10  0.6600E-01  0.6600E-01
      0.879 -0.8263E-15 -0.4159E-11  0.6600E-01  0.6600E-01
      0.924 -0.6319E-16 -0.4798E-12  0.6600E-01  0.6600E-01
      0.970 -0.4860E-17 -0.4968E-13  0.6600E-01  0.6600E-01
      1.016  0.0000E+00 -0.4622E-14  0.6600E-01  0.6600E-01
      1.061  0.0000E+00 -0.3840E-15  0.6600E-01  0.6600E-01
      1.107  0.0000E+00 -0.3402E-16  0.6600E-01  0.6600E-01
      1.153  0.0000E+00  0.0000E+00  0.6600E-01  0.6600E-01
      1.199  0.0000E+00  0.0000E+00  0.6600E-01  0.6600E-01
      1.244  0.0000E+00  0.0000E+00  0.6600E-01  0.6600E-01
      1.290  0.0000E+00  0.0000E+00  0.6600E-01  0.6600E-01
      1.336  0.0000E+00  0.0000E+00  0.6600E-01  0.6600E-01
      1.381  0.0000E+00  0.0000E+00  0.6600E-01  0.6600E-01
      1.427  0.0000E+00  0.0000E+00  0.6600E-01  0.6600E-01
      1.473  0.0000E+00  0.0000E+00  0.6600E-01  0.6600E-01
      1.518  0.0000E+00  0.0000E+00  0.6600E-01  0.6600E-01
      1.564  0.0000E+00  0.0000E+00  0.6600E-01  0.6600E-01
      1.610  0.0000E+00  0.0000E+00  0.6600E-01  0.6600E-01
      1.655  0.0000E+00  0.0000E+00  0.6600E-01  0.6600E-01
      1.701  0.0000E+00  0.0000E+00  0.6600E-01  0.6600E-01
      1.747  0.0000E+00  0.0000E+00  0.6600E-01  0.6600E-01
      1.792  0.0000E+00  0.0000E+00  0.6600E-01  0.6600E-01
      1.838  0.0000E+00  0.0000E+00  0.6600E-01  0.6600E-01
      1.884  0.0000E+00  0.0000E+00  0.6600E-01  0.6600E-01
