   10   10 1000    2
  0.1295752E+04  0.2340337E-08  0.2571532E-08  0.2153038E-08  0.5000000E-15
   1.0000000000000000E-004
  CAR 
 unknown system                          
    100      1     66
 
  0.1262379E-14  0.1262379E-14  0.1262379E-14  0.1000000E+01
    1       -9.821427     -9.746173   1.000000   1.000000
    2       -8.528809     -8.247470   1.000000   1.000000
    3       -8.330143     -7.935618   1.000000   1.000000
    4       -8.065224     -7.566550   1.000000   1.000000
    5       -7.819004     -7.304873   1.000000   1.000000
    6       -7.757857     -7.187866   1.000000   1.000000
    7       -7.653081     -7.095423   1.000000   1.000000
    8       -7.600167     -6.894634   1.000000   1.000000
    9       -7.526051     -6.772702   1.000000   1.000000
   10       -7.337034     -6.753164   1.000000   1.000000
   11       -7.284790     -6.661220   1.000000   1.000000
   12       -7.270079     -6.563856   1.000000   1.000000
   13       -7.236900     -6.424008   1.000000   1.000000
   14       -7.139352     -6.421365   1.000000   1.000000
   15       -6.977604     -6.332013   1.000000   1.000000
   16       -6.888434     -6.211737   1.000000   1.000000
   17       -6.769379     -6.130267   1.000000   1.000000
   18       -6.575937     -6.067211   1.000000   1.000000
   19       -6.543213     -5.941770   1.000000   1.000000
   20       -6.505509     -5.813458   1.000000   1.000000
   21       -6.381878     -5.802777   1.000000   1.000000
   22       -6.301266     -5.770892   1.000000   1.000000
   23       -6.200199     -5.751698   1.000000   1.000000
   24       -6.155379     -5.676806   1.000000   1.000000
   25       -6.075139     -5.559795   1.000000   1.000000
   26       -5.991616     -5.459203   1.000000   1.000000
   27       -5.960793     -5.374462   1.000000   1.000000
   28       -5.868698     -5.297422   1.000000   1.000000
   29       -5.831762     -5.218239   1.000000   1.000000
   30       -5.722616     -5.156859   1.000000   1.000000
   31       -5.681117     -5.082159   1.000000   1.000000
   32       -5.575673     -5.032410   1.000000   1.000000
   33       -5.574059     -4.993440   1.000000   1.000000
   34       -5.555096     -4.854727   1.000000   1.000002
   35       -5.425033     -4.793889   1.000000   1.000018
   36       -5.409025     -4.738069   1.000000   1.000093
   37       -5.362768     -4.663717   1.000000   1.000636
   38       -5.338448     -4.646650   1.000000   1.000947
   39       -5.299905     -4.643056   1.000000   1.001028
   40       -5.273272     -4.538322   1.000000   1.007922
   41       -5.225387     -4.489520   1.000000   1.016064
   42       -5.185377     -4.464205   1.000000   1.021583
   43       -5.137983     -4.370985   1.000000   1.034885
   44       -5.091516     -4.334064   1.000000   1.023101
   45       -5.027869     -4.234453   1.000000   0.860878
   46       -5.011772     -4.157674   1.000000   0.583796
   47       -4.994948     -4.072784   1.000000   0.240485
   48       -4.964336     -4.068366   1.000000   0.225040
   49       -4.939218     -4.010325   1.000000   0.063999
   50       -4.926961     -3.959130   1.000000  -0.010194
   51       -4.881271     -3.884994   1.000001  -0.035235
   52       -4.838954     -3.863718   1.000004  -0.032804
   53       -4.788885     -3.805426   1.000021  -0.020246
   54       -4.372114     -3.790621   1.034993  -0.017020
   55       -3.372461     -3.033059  -0.000000  -0.000000
   56       -2.737037     -2.491746  -0.000000  -0.000000
   57       -2.613841     -2.383982  -0.000000  -0.000000
   58       -2.543050     -2.244997  -0.000000  -0.000000
   59       -2.046439     -1.752025  -0.000000  -0.000000
   60       -1.734769     -1.446898  -0.000000  -0.000000
   61       -1.300915     -1.116448  -0.000000  -0.000000
   62       -0.928840     -0.787189  -0.000000  -0.000000
   63       -0.603310     -0.415660  -0.000000  -0.000000
   64       -0.399710     -0.285238  -0.000000  -0.000000
   65       -0.362285     -0.200101  -0.000000  -0.000000
   66       -0.285211     -0.116232  -0.000000  -0.000000
