       N       E                     dE             d eps       ncg     rms          rms(c)
DAV:   1     0.721873870031E+03    0.72187E+03   -0.15145E+04   264   0.676E+02
DAV:   2     0.260878117433E+03   -0.46100E+03   -0.42409E+03   496   0.109E+02
DAV:   3     0.251546504818E+02   -0.23572E+03   -0.21923E+03   384   0.123E+02
DAV:   4    -0.348746679217E+02   -0.60029E+02   -0.51377E+02   400   0.585E+01
DAV:   5    -0.420966607428E+02   -0.72220E+01   -0.67660E+01   312   0.266E+01    0.271E+01
DAV:   6    -0.585420952732E+02   -0.16445E+02   -0.12369E+02   308   0.161E+02    0.563E+01
DAV:   7    -0.402970143625E+02    0.18245E+02   -0.78727E+01   348   0.741E+01    0.277E+01
DAV:   8    -0.375295029786E+02    0.27675E+01   -0.16775E+01   348   0.709E+01    0.390E+01
DAV:   9    -0.381305415861E+02   -0.60104E+00   -0.17181E+01   350   0.562E+01    0.419E+01
DAV:  10    -0.353583652202E+02    0.27722E+01   -0.19489E+01   336   0.483E+01    0.270E+01
DAV:  11    -0.354578226568E+02   -0.99457E-01   -0.12489E+01   366   0.395E+01    0.372E+01
DAV:  12    -0.330171112159E+02    0.24407E+01   -0.67288E+00   376   0.314E+01    0.195E+01
DAV:  13    -0.324467633507E+02    0.57035E+00   -0.23001E+00   382   0.169E+01    0.135E+01
DAV:  14    -0.321713950368E+02    0.27537E+00   -0.10744E+00   356   0.140E+01    0.916E+00
DAV:  15    -0.327965120459E+02   -0.62512E+00   -0.20403E+00   336   0.208E+01    0.199E+01
DAV:  16    -0.322932153407E+02    0.50330E+00   -0.24796E+00   306   0.182E+01    0.631E+00
DAV:  17    -0.326845979780E+02   -0.39138E+00   -0.46238E-01   376   0.807E+00    0.109E+01
DAV:  18    -0.327372380226E+02   -0.52640E-01   -0.19348E-01   370   0.673E+00    0.706E+00
DAV:  19    -0.331497322258E+02   -0.41249E+00   -0.30944E-01   372   0.478E+00    0.259E+00
DAV:  20    -0.335351270798E+02   -0.38539E+00   -0.10682E-01   354   0.352E+00    0.210E+00
DAV:  21    -0.338587537823E+02   -0.32363E+00   -0.74478E-02   318   0.185E+00    0.167E+00
DAV:  22    -0.342308672610E+02   -0.37211E+00   -0.58830E-02   324   0.236E+00    0.154E+00
DAV:  23    -0.345115056460E+02   -0.28064E+00   -0.28793E-02   322   0.145E+00    0.103E+00
DAV:  24    -0.347181836355E+02   -0.20668E+00   -0.21305E-02   332   0.107E+00    0.608E-01
DAV:  25    -0.349612582925E+02   -0.24307E+00   -0.17818E-02   314   0.819E-01    0.545E-01
DAV:  26    -0.351719248444E+02   -0.21067E+00   -0.11029E-02   290   0.510E-01    0.460E-01
DAV:  27    -0.353372168186E+02   -0.16529E+00   -0.72497E-03   314   0.502E-01    0.262E-01
DAV:  28    -0.355284408036E+02   -0.19122E+00   -0.11045E-02   314   0.551E-01    0.451E-01
DAV:  29    -0.356630316899E+02   -0.13459E+00   -0.57236E-03   272   0.401E-01    0.232E-01
DAV:  30    -0.358010850726E+02   -0.13805E+00   -0.63715E-03   298   0.336E-01    0.339E-01
DAV:  31    -0.359029554628E+02   -0.10187E+00   -0.37562E-03   298   0.327E-01    0.185E-01
DAV:  32    -0.360096784548E+02   -0.10672E+00   -0.38709E-03   282   0.237E-01    0.114E-01
DAV:  33    -0.360822169998E+02   -0.72539E-01   -0.18654E-03   290   0.173E-01    0.877E-02
DAV:  34    -0.361381135288E+02   -0.55897E-01   -0.10348E-03   234   0.107E-01    0.107E-01
DAV:  35    -0.361713441119E+02   -0.33231E-01   -0.58590E-04   244   0.117E-01    0.468E-02
DAV:  36    -0.361925087744E+02   -0.21165E-01   -0.33947E-04   212   0.807E-02    0.619E-02
DAV:  37    -0.362075960294E+02   -0.15087E-01   -0.25117E-04   220   0.786E-02    0.381E-02
DAV:  38    -0.362140292776E+02   -0.64332E-02   -0.65166E-05   176   0.422E-02    0.336E-02
DAV:  39    -0.362195068781E+02   -0.54776E-02   -0.72435E-05   180   0.442E-02    0.209E-02
DAV:  40    -0.362263863498E+02   -0.68795E-02   -0.10409E-04   198   0.371E-02    0.191E-02
DAV:  41    -0.362297082416E+02   -0.33219E-02   -0.38668E-05   192   0.257E-02    0.114E-02
DAV:  42    -0.362320915848E+02   -0.23833E-02   -0.31347E-05   176   0.232E-02    0.152E-02
DAV:  43    -0.362338240914E+02   -0.17325E-02   -0.20513E-05   184   0.234E-02    0.225E-02
DAV:  44    -0.362351639400E+02   -0.13398E-02   -0.20638E-05   176   0.237E-02    0.640E-03
DAV:  45    -0.362359388934E+02   -0.77495E-03   -0.13222E-05   176   0.160E-02    0.619E-03
DAV:  46    -0.362364260755E+02   -0.48718E-03   -0.73842E-06   168   0.107E-02    0.878E-03
DAV:  47    -0.362367903674E+02   -0.36429E-03   -0.41125E-06   174   0.110E-02    0.517E-03
DAV:  48    -0.362371107580E+02   -0.32039E-03   -0.36558E-06   168   0.790E-03    0.426E-03
DAV:  49    -0.362373240252E+02   -0.21327E-03   -0.25858E-06   168   0.732E-03    0.326E-03
DAV:  50    -0.362375583027E+02   -0.23428E-03   -0.18895E-06   166   0.672E-03    0.245E-03
DAV:  51    -0.362376498265E+02   -0.91524E-04   -0.88892E-07   176   0.461E-03
   1 F= -.36237650E+02 E0= -.36236213E+02  d E =-.362376E+02  mag=     5.9591
       N       E                     dE             d eps       ncg     rms          rms(c)
DAV:   1    -0.363941586062E+02   -0.15660E+00   -0.81584E+01   264   0.336E+01    0.379E+00
DAV:   2    -0.376815518473E+02   -0.12874E+01   -0.45110E+00   380   0.324E+01    0.236E+01
DAV:   3    -0.364821055043E+02    0.11994E+01   -0.54086E+00   324   0.281E+01    0.632E+00
DAV:   4    -0.365809631400E+02   -0.98858E-01   -0.10332E+00   382   0.142E+01    0.942E+00
DAV:   5    -0.365178473888E+02    0.63116E-01   -0.10660E+00   340   0.964E+00    0.405E+00
DAV:   6    -0.365199502212E+02   -0.21028E-02   -0.15057E-01   372   0.592E+00    0.329E+00
DAV:   7    -0.365102381489E+02    0.97121E-02   -0.11293E-01   356   0.438E+00    0.250E+00
DAV:   8    -0.365235378249E+02   -0.13300E-01   -0.83925E-02   356   0.388E+00    0.228E+00
DAV:   9    -0.365174684514E+02    0.60694E-02   -0.33832E-02   352   0.322E+00    0.154E+00
DAV:  10    -0.365172647281E+02    0.20372E-03   -0.22054E-02   390   0.224E+00    0.110E+00
DAV:  11    -0.365228075048E+02   -0.55428E-02   -0.15077E-02   364   0.208E+00    0.137E+00
DAV:  12    -0.365190470887E+02    0.37604E-02   -0.12367E-02   356   0.197E+00    0.576E-01
DAV:  13    -0.365204062130E+02   -0.13591E-02   -0.27613E-03   382   0.622E-01    0.322E-01
DAV:  14    -0.365207512226E+02   -0.34501E-03   -0.79228E-04   224   0.333E-01    0.265E-01
DAV:  15    -0.365211346489E+02   -0.38343E-03   -0.35052E-04   174   0.210E-01    0.137E-01
DAV:  16    -0.365215672045E+02   -0.43256E-03   -0.15768E-04   184   0.149E-01    0.390E-02
DAV:  17    -0.365218722626E+02   -0.30506E-03   -0.10576E-04   184   0.870E-02    0.439E-02
DAV:  18    -0.365221123788E+02   -0.24012E-03   -0.47465E-05   174   0.552E-02    0.216E-02
DAV:  19    -0.365223202036E+02   -0.20782E-03   -0.25549E-05   174   0.328E-02    0.266E-02
DAV:  20    -0.365225417272E+02   -0.22152E-03   -0.15517E-05   180   0.376E-02    0.972E-03
DAV:  21    -0.365227529684E+02   -0.21124E-03   -0.13080E-05   172   0.199E-02    0.786E-03
DAV:  22    -0.365229292390E+02   -0.17627E-03   -0.88389E-06   180   0.163E-02    0.591E-03
DAV:  23    -0.365230554531E+02   -0.12621E-03   -0.52242E-06   166   0.106E-02    0.428E-03
DAV:  24    -0.365232359512E+02   -0.18050E-03   -0.48884E-06   174   0.881E-03    0.428E-03
DAV:  25    -0.365233679925E+02   -0.13204E-03   -0.32457E-06   176   0.792E-03    0.241E-03
DAV:  26    -0.365235578434E+02   -0.18985E-03   -0.45968E-06   174   0.631E-03    0.238E-03
DAV:  27    -0.365236803870E+02   -0.12254E-03   -0.28165E-06   176   0.635E-03    0.227E-03
DAV:  28    -0.365237674111E+02   -0.87024E-04   -0.20098E-06   176   0.501E-03
   2 F= -.36523767E+02 E0= -.36533620E+02  d E =-.286118E+00  mag=     5.9231
       N       E                     dE             d eps       ncg     rms          rms(c)
DAV:   1    -0.364404304740E+02    0.83250E-01   -0.13102E+02   264   0.432E+01    0.461E+00
DAV:   2    -0.383655678587E+02   -0.19251E+01   -0.87647E+00   372   0.406E+01    0.252E+01
DAV:   3    -0.366580682910E+02    0.17075E+01   -0.68835E+00   324   0.342E+01    0.739E+00
DAV:   4    -0.367725901635E+02   -0.11452E+00   -0.15440E+00   374   0.186E+01    0.118E+01
DAV:   5    -0.366462964527E+02    0.12629E+00   -0.13191E+00   356   0.134E+01    0.387E+00
DAV:   6    -0.366849916764E+02   -0.38695E-01   -0.28233E-01   366   0.767E+00    0.482E+00
DAV:   7    -0.366442443154E+02    0.40747E-01   -0.14857E-01   332   0.627E+00    0.210E+00
DAV:   8    -0.366611154348E+02   -0.16871E-01   -0.50101E-02   372   0.392E+00    0.230E+00
DAV:   9    -0.366548950326E+02    0.62204E-02   -0.34205E-02   334   0.386E+00    0.143E+00
DAV:  10    -0.366615366231E+02   -0.66416E-02   -0.27743E-02   398   0.288E+00    0.192E+00
DAV:  11    -0.366597463766E+02    0.17902E-02   -0.15484E-02   340   0.252E+00    0.161E+00
DAV:  12    -0.366571396990E+02    0.26067E-02   -0.90197E-03   364   0.192E+00    0.532E-01
DAV:  13    -0.366590386519E+02   -0.18990E-02   -0.25927E-03   364   0.587E-01    0.202E-01
DAV:  14    -0.366601457519E+02   -0.11071E-02   -0.73198E-04   264   0.324E-01    0.200E-01
DAV:  15    -0.366604572019E+02   -0.31145E-03   -0.22796E-04   188   0.169E-01    0.127E-01
DAV:  16    -0.366608183236E+02   -0.36112E-03   -0.10820E-04   172   0.151E-01    0.367E-02
DAV:  17    -0.366610821611E+02   -0.26384E-03   -0.79812E-05   176   0.763E-02    0.400E-02
DAV:  18    -0.366612482814E+02   -0.16612E-03   -0.30429E-05   172   0.559E-02    0.151E-02
DAV:  19    -0.366614066349E+02   -0.15835E-03   -0.18576E-05   172   0.310E-02    0.198E-02
DAV:  20    -0.366615386744E+02   -0.13204E-03   -0.94782E-06   172   0.334E-02    0.688E-03
DAV:  21    -0.366616538312E+02   -0.11516E-03   -0.69659E-06   174   0.164E-02    0.592E-03
DAV:  22    -0.366617858963E+02   -0.13207E-03   -0.60134E-06   174   0.157E-02    0.588E-03
DAV:  23    -0.366618698239E+02   -0.83928E-04   -0.41250E-06   176   0.102E-02
   3 F= -.36661870E+02 E0= -.36680399E+02  d E =-.424220E+00  mag=     5.9055
       N       E                     dE             d eps       ncg     rms          rms(c)
DAV:   1    -0.366499378278E+02    0.11848E-01   -0.31661E+01   264   0.207E+01    0.216E+00
DAV:   2    -0.372024034174E+02   -0.55247E+00   -0.29811E+00   388   0.196E+01    0.157E+01
DAV:   3    -0.365777340687E+02    0.62467E+00   -0.21553E+00   332   0.193E+01    0.195E+00
DAV:   4    -0.367054032828E+02   -0.12767E+00   -0.23793E-01   380   0.756E+00    0.289E+00
DAV:   5    -0.366983668787E+02    0.70364E-02   -0.12605E-01   348   0.575E+00    0.171E+00
DAV:   6    -0.366995371655E+02   -0.11703E-02   -0.33973E-02   340   0.320E+00    0.107E+00
DAV:   7    -0.366992511809E+02    0.28598E-03   -0.19126E-02   348   0.250E+00    0.741E-01
DAV:   8    -0.367013633048E+02   -0.21121E-02   -0.10518E-02   382   0.177E+00    0.978E-01
DAV:   9    -0.367005522980E+02    0.81101E-03   -0.92404E-03   326   0.195E+00    0.776E-01
DAV:  10    -0.366999120166E+02    0.64028E-03   -0.50221E-03   390   0.121E+00    0.250E-01
DAV:  11    -0.367019462891E+02   -0.20343E-02   -0.22441E-03   366   0.866E-01    0.436E-01
DAV:  12    -0.367012590335E+02    0.68726E-03   -0.12794E-03   302   0.766E-01    0.142E-01
DAV:  13    -0.367017596851E+02   -0.50065E-03   -0.17354E-04   180   0.196E-01    0.589E-02
DAV:  14    -0.367020526308E+02   -0.29295E-03   -0.10715E-04   190   0.122E-01    0.471E-02
DAV:  15    -0.367022964196E+02   -0.24379E-03   -0.34812E-05   174   0.613E-02    0.230E-02
DAV:  16    -0.367024860289E+02   -0.18961E-03   -0.20994E-05   176   0.395E-02    0.120E-02
DAV:  17    -0.367026397018E+02   -0.15367E-03   -0.13018E-05   174   0.237E-02    0.883E-03
DAV:  18    -0.367028048144E+02   -0.16511E-03   -0.76482E-06   176   0.189E-02    0.557E-03
DAV:  19    -0.367029234593E+02   -0.11864E-03   -0.51381E-06   176   0.148E-02    0.631E-03
DAV:  20    -0.367030200598E+02   -0.96600E-04   -0.36248E-06   176   0.111E-02
   4 F= -.36703020E+02 E0= -.36724047E+02  d E =-.411502E-01  mag=     5.9003
       N       E                     dE             d eps       ncg     rms          rms(c)
DAV:   1    -0.367031365817E+02   -0.21312E-03   -0.20741E-02   286   0.525E-01    0.534E-02
DAV:   2    -0.367034657998E+02   -0.32922E-03   -0.74837E-04   246   0.464E-01    0.406E-01
DAV:   3    -0.367028450997E+02    0.62070E-03   -0.61598E-04   204   0.482E-01    0.565E-02
DAV:   4    -0.367032643061E+02   -0.41921E-03   -0.15245E-04   170   0.213E-01    0.105E-01
DAV:   5    -0.367032578432E+02    0.64628E-05   -0.11561E-04   166   0.173E-01
   5 F= -.36703258E+02 E0= -.36724210E+02  d E =-.413880E-01  mag=     5.8999
       N       E                     dE             d eps       ncg     rms          rms(c)
DAV:   1    -0.367054496996E+02   -0.21854E-02   -0.81490E+00   264   0.103E+01    0.761E-01
DAV:   2    -0.367211527044E+02   -0.15703E-01   -0.15004E-01   396   0.366E+00    0.216E+00
DAV:   3    -0.367211710969E+02   -0.18393E-04   -0.83598E-02   292   0.526E+00    0.200E+00
DAV:   4    -0.367232644284E+02   -0.20933E-02   -0.33767E-02   334   0.319E+00    0.177E+00
DAV:   5    -0.367165082964E+02    0.67561E-02   -0.16889E-02   332   0.255E+00    0.511E-01
DAV:   6    -0.367199116215E+02   -0.34033E-02   -0.54883E-03   364   0.121E+00    0.604E-01
DAV:   7    -0.367195312403E+02    0.38038E-03   -0.42064E-03   366   0.102E+00    0.323E-01
DAV:   8    -0.367206264787E+02   -0.10952E-02   -0.25060E-03   344   0.987E-01    0.517E-01
DAV:   9    -0.367200947441E+02    0.53173E-03   -0.17472E-03   340   0.823E-01    0.196E-01
DAV:  10    -0.367205601956E+02   -0.46545E-03   -0.65927E-04   244   0.455E-01    0.155E-01
DAV:  11    -0.367206905627E+02   -0.13037E-03   -0.34804E-04   192   0.403E-01    0.174E-01
DAV:  12    -0.367206532255E+02    0.37337E-04   -0.20061E-04   162   0.296E-01
   6 F= -.36720653E+02 E0= -.36742026E+02  d E =-.173954E-01  mag=     5.8996
       N       E                     dE             d eps       ncg     rms          rms(c)
DAV:   1    -0.367176669767E+02    0.30236E-02   -0.33545E+00   264   0.662E+00    0.487E-01
DAV:   2    -0.367224371130E+02   -0.47701E-02   -0.60141E-02   396   0.228E+00    0.123E+00
DAV:   3    -0.367238139304E+02   -0.13768E-02   -0.32909E-02   308   0.335E+00    0.126E+00
DAV:   4    -0.367242200562E+02   -0.40613E-03   -0.14762E-02   326   0.201E+00    0.114E+00
DAV:   5    -0.367218449307E+02    0.23751E-02   -0.68576E-03   324   0.157E+00    0.344E-01
DAV:   6    -0.367233001464E+02   -0.14552E-02   -0.22739E-03   338   0.791E-01    0.378E-01
DAV:   7    -0.367232408386E+02    0.59308E-04   -0.16467E-03   308   0.639E-01    0.206E-01
DAV:   8    -0.367237059166E+02   -0.46508E-03   -0.99667E-04   254   0.617E-01    0.320E-01
DAV:   9    -0.367235351341E+02    0.17078E-03   -0.63295E-04   244   0.512E-01    0.120E-01
DAV:  10    -0.367238103049E+02   -0.27517E-03   -0.29634E-04   182   0.363E-01    0.132E-01
DAV:  11    -0.367238348067E+02   -0.24502E-04   -0.23453E-04   174   0.330E-01
   7 F= -.36723835E+02 E0= -.36745511E+02  d E =-.205770E-01  mag=     5.8999
       N       E                     dE             d eps       ncg     rms          rms(c)
DAV:   1    -0.367212109522E+02    0.25994E-02   -0.78361E+00   264   0.963E+00    0.699E-01
DAV:   2    -0.367591064633E+02   -0.37896E-01   -0.19496E-01   396   0.528E+00    0.392E+00
DAV:   3    -0.367229890836E+02    0.36117E-01   -0.10412E-01   318   0.549E+00    0.116E+00
DAV:   4    -0.367378827388E+02   -0.14894E-01   -0.29753E-02   388   0.299E+00    0.138E+00
DAV:   5    -0.367320272526E+02    0.58555E-02   -0.14497E-02   342   0.236E+00    0.331E-01
DAV:   6    -0.367342716119E+02   -0.22444E-02   -0.54148E-03   388   0.113E+00    0.645E-01
DAV:   7    -0.367330304269E+02    0.12412E-02   -0.36433E-03   316   0.968E-01    0.221E-01
DAV:   8    -0.367341592021E+02   -0.11288E-02   -0.20017E-03   336   0.815E-01    0.483E-01
DAV:   9    -0.367334966916E+02    0.66251E-03   -0.16202E-03   326   0.765E-01    0.208E-01
DAV:  10    -0.367337722262E+02   -0.27553E-03   -0.45318E-04   224   0.403E-01    0.994E-02
DAV:  11    -0.367339275911E+02   -0.15536E-03   -0.28118E-04   166   0.309E-01    0.121E-01
DAV:  12    -0.367339416443E+02   -0.14053E-04   -0.14684E-04   172   0.231E-01
   8 F= -.36733942E+02 E0= -.36755674E+02  d E =-.101068E-01  mag=     5.8997
       N       E                     dE             d eps       ncg     rms          rms(c)
DAV:   1    -0.367270678013E+02    0.68598E-02   -0.55728E+00   264   0.811E+00    0.587E-01
DAV:   2    -0.367533549242E+02   -0.26287E-01   -0.13718E-01   396   0.441E+00    0.326E+00
DAV:   3    -0.367280064641E+02    0.25348E-01   -0.68915E-02   326   0.456E+00    0.956E-01
DAV:   4    -0.367386317457E+02   -0.10625E-01   -0.20911E-02   388   0.250E+00    0.113E+00
DAV:   5    -0.367344553371E+02    0.41764E-02   -0.10026E-02   358   0.198E+00    0.243E-01
DAV:   6    -0.367362543285E+02   -0.17990E-02   -0.37624E-03   340   0.891E-01    0.573E-01
DAV:   7    -0.367352039027E+02    0.10504E-02   -0.26602E-03   300   0.814E-01    0.170E-01
DAV:   8    -0.367361168962E+02   -0.91299E-03   -0.11252E-03   308   0.614E-01    0.359E-01
DAV:   9    -0.367357715133E+02    0.34538E-03   -0.98395E-04   262   0.632E-01    0.194E-01
DAV:  10    -0.367358782275E+02   -0.10671E-03   -0.29088E-04   188   0.347E-01    0.572E-02
DAV:  11    -0.367360466476E+02   -0.16842E-03   -0.12282E-04   162   0.165E-01    0.796E-02
DAV:  12    -0.367360567209E+02   -0.10073E-04   -0.86350E-05   160   0.164E-01
   9 F= -.36736057E+02 E0= -.36757722E+02  d E =-.122219E-01  mag=     5.8993
       N       E                     dE             d eps       ncg     rms          rms(c)
DAV:   1    -0.367286443628E+02    0.74023E-02   -0.81117E+00   264   0.101E+01    0.815E-01
DAV:   2    -0.367802632466E+02   -0.51619E-01   -0.21949E-01   396   0.611E+00    0.488E+00
DAV:   3    -0.367244111617E+02    0.55852E-01   -0.16123E-01   324   0.650E+00    0.114E+00
DAV:   4    -0.367464044268E+02   -0.21993E-01   -0.38349E-02   380   0.330E+00    0.138E+00
DAV:   5    -0.367406807355E+02    0.57237E-02   -0.17351E-02   324   0.258E+00    0.477E-01
DAV:   6    -0.367422740942E+02   -0.15934E-02   -0.54708E-03   372   0.117E+00    0.564E-01
DAV:   7    -0.367416630862E+02    0.61101E-03   -0.34998E-03   334   0.945E-01    0.215E-01
DAV:   8    -0.367428180687E+02   -0.11550E-02   -0.17774E-03   368   0.704E-01    0.411E-01
DAV:   9    -0.367423989622E+02    0.41911E-03   -0.14042E-03   328   0.741E-01    0.302E-01
DAV:  10    -0.367426846719E+02   -0.28571E-03   -0.69415E-04   236   0.503E-01    0.162E-01
DAV:  11    -0.367428538408E+02   -0.16917E-03   -0.28349E-04   172   0.347E-01    0.114E-01
DAV:  12    -0.367429203784E+02   -0.66538E-04   -0.99640E-05   178   0.164E-01
  10 F= -.36742920E+02 E0= -.36764749E+02  d E =-.686366E-02  mag=     5.8996
       N       E                     dE             d eps       ncg     rms          rms(c)
DAV:   1    -0.367356989384E+02    0.71549E-02   -0.49992E+00   264   0.794E+00    0.627E-01
DAV:   2    -0.367628309673E+02   -0.27132E-01   -0.11759E-01   398   0.450E+00    0.353E+00
DAV:   3    -0.367336742570E+02    0.29157E-01   -0.76454E-02   324   0.485E+00    0.966E-01
DAV:   4    -0.367469515029E+02   -0.13277E-01   -0.24220E-02   380   0.264E+00    0.119E+00
DAV:   5    -0.367426245254E+02    0.43270E-02   -0.12174E-02   324   0.208E+00    0.393E-01
DAV:   6    -0.367438344891E+02   -0.12100E-02   -0.32837E-03   332   0.942E-01    0.401E-01
DAV:   7    -0.367436592293E+02    0.17526E-03   -0.19704E-03   320   0.740E-01    0.175E-01
DAV:   8    -0.367443692087E+02   -0.70998E-03   -0.12640E-03   312   0.643E-01    0.341E-01
DAV:   9    -0.367440076599E+02    0.36155E-03   -0.92486E-04   278   0.614E-01    0.216E-01
DAV:  10    -0.367443096762E+02   -0.30202E-03   -0.40861E-04   188   0.400E-01    0.159E-01
DAV:  11    -0.367443511160E+02   -0.41440E-04   -0.22852E-04   174   0.316E-01
  11 F= -.36744351E+02 E0= -.36766280E+02  d E =-.829440E-02  mag=     5.9002
       N       E                     dE             d eps       ncg     rms          rms(c)
DAV:   1    -0.367379170220E+02    0.63927E-02   -0.61318E+00   264   0.880E+00    0.647E-01
DAV:   2    -0.367479272556E+02   -0.10010E-01   -0.98714E-02   398   0.265E+00    0.153E+00
DAV:   3    -0.367520166439E+02   -0.40894E-02   -0.59622E-02   300   0.416E+00    0.207E+00
DAV:   4    -0.367491572340E+02    0.28594E-02   -0.36077E-02   332   0.307E+00    0.140E+00
DAV:   5    -0.367461208110E+02    0.30364E-02   -0.11817E-02   316   0.213E+00    0.272E-01
DAV:   6    -0.367482982900E+02   -0.21775E-02   -0.25803E-03   372   0.759E-01    0.349E-01
DAV:   7    -0.367483252753E+02   -0.26985E-04   -0.24615E-03   326   0.842E-01    0.348E-01
DAV:   8    -0.367485796376E+02   -0.25436E-03   -0.18835E-03   340   0.753E-01    0.341E-01
DAV:   9    -0.367484669954E+02    0.11264E-03   -0.11255E-03   302   0.688E-01    0.193E-01
DAV:  10    -0.367487362151E+02   -0.26922E-03   -0.58479E-04   230   0.435E-01    0.186E-01
DAV:  11    -0.367486642070E+02    0.72008E-04   -0.25807E-04   176   0.337E-01
  12 F= -.36748664E+02 E0= -.36770352E+02  d E =-.431309E-02  mag=     5.9011
       N       E                     dE             d eps       ncg     rms          rms(c)
DAV:   1    -0.367458447208E+02    0.28915E-02   -0.19610E+00   264   0.498E+00    0.371E-01
DAV:   2    -0.367488796406E+02   -0.30349E-02   -0.32128E-02   398   0.166E+00    0.924E-01
DAV:   3    -0.367488103110E+02    0.69330E-04   -0.18371E-02   308   0.247E+00    0.878E-01
DAV:   4    -0.367498627253E+02   -0.10524E-02   -0.90440E-03   356   0.167E+00    0.947E-01
DAV:   5    -0.367482147929E+02    0.16479E-02   -0.37231E-03   324   0.118E+00    0.174E-01
DAV:   6    -0.367491265484E+02   -0.91176E-03   -0.10743E-03   282   0.507E-01    0.256E-01
DAV:   7    -0.367490922154E+02    0.34333E-04   -0.77746E-04   252   0.478E-01
  13 F= -.36749092E+02 E0= -.36770468E+02  d E =-.474110E-02  mag=     5.9016
       N       E                     dE             d eps       ncg     rms          rms(c)
DAV:   1    -0.367486036345E+02    0.52291E-03   -0.24486E+00   264   0.546E+00    0.451E-01
DAV:   2    -0.367581355844E+02   -0.95319E-02   -0.49539E-02   396   0.291E+00    0.178E+00
DAV:   3    -0.367503111834E+02    0.78244E-02   -0.31094E-02   308   0.354E+00    0.923E-01
DAV:   4    -0.367550182164E+02   -0.47070E-02   -0.15888E-02   388   0.205E+00    0.129E+00
DAV:   5    -0.367509578036E+02    0.40604E-02   -0.72121E-03   332   0.158E+00    0.273E-01
DAV:   6    -0.367522474239E+02   -0.12896E-02   -0.13962E-03   332   0.636E-01    0.183E-01
DAV:   7    -0.367526577889E+02   -0.41037E-03   -0.10196E-03   270   0.514E-01    0.276E-01
DAV:   8    -0.367525456004E+02    0.11219E-03   -0.77527E-04   246   0.492E-01    0.188E-01
DAV:   9    -0.367526748509E+02   -0.12925E-03   -0.31165E-04   190   0.353E-01    0.115E-01
DAV:  10    -0.367528115221E+02   -0.13667E-03   -0.28109E-04   176   0.347E-01    0.150E-01
DAV:  11    -0.367527912126E+02    0.20309E-04   -0.18637E-04   160   0.259E-01
  14 F= -.36752791E+02 E0= -.36774126E+02  d E =-.369900E-02  mag=     5.9020
       N       E                     dE             d eps       ncg     rms          rms(c)
DAV:   1    -0.367210977548E+02    0.31714E-01   -0.22116E+01   264   0.164E+01    0.119E+00
DAV:   2    -0.367593298019E+02   -0.38232E-01   -0.36128E-01   396   0.447E+00    0.226E+00
DAV:   3    -0.367832024597E+02   -0.23873E-01   -0.16737E-01   292   0.805E+00    0.352E+00
DAV:   4    -0.367628173318E+02    0.20385E-01   -0.95701E-02   300   0.527E+00    0.243E+00
DAV:   5    -0.367540142605E+02    0.88031E-02   -0.26301E-02   308   0.274E+00    0.336E-01
DAV:   6    -0.367605673323E+02   -0.65531E-02   -0.90701E-03   374   0.144E+00    0.950E-01
DAV:   7    -0.367581708367E+02    0.23965E-02   -0.60295E-03   358   0.132E+00    0.381E-01
DAV:   8    -0.367609235431E+02   -0.27527E-02   -0.50443E-03   382   0.125E+00    0.749E-01
DAV:   9    -0.367593677894E+02    0.15558E-02   -0.46368E-03   350   0.129E+00    0.260E-01
DAV:  10    -0.367604278004E+02   -0.10600E-02   -0.13879E-03   334   0.607E-01    0.293E-01
DAV:  11    -0.367602587509E+02    0.16905E-03   -0.95855E-04   294   0.576E-01    0.174E-01
DAV:  12    -0.367603939361E+02   -0.13519E-03   -0.28588E-04   180   0.322E-01    0.636E-02
DAV:  13    -0.367605738270E+02   -0.17989E-03   -0.68261E-05   176   0.118E-01    0.516E-02
DAV:  14    -0.367606580545E+02   -0.84227E-04   -0.36623E-05   174   0.800E-02
  15 F= -.36760658E+02 E0= -.36782298E+02  d E =-.115658E-01  mag=     5.9022
       N       E                     dE             d eps       ncg     rms          rms(c)
DAV:   1    -0.365874339012E+02    0.17314E+00   -0.89836E+01   264   0.337E+01    0.241E+00
DAV:   2    -0.367937909135E+02   -0.20636E+00   -0.17780E+00   396   0.105E+01    0.544E+00
DAV:   3    -0.368629045204E+02   -0.69114E-01   -0.93701E-01   302   0.159E+01    0.791E+00
DAV:   4    -0.368290923041E+02    0.33812E-01   -0.63448E-01   348   0.100E+01    0.647E+00
DAV:   5    -0.367457653614E+02    0.83327E-01   -0.26046E-01   308   0.823E+00    0.183E+00
DAV:   6    -0.367649525299E+02   -0.19187E-01   -0.61802E-02   396   0.356E+00    0.202E+00
DAV:   7    -0.367589244248E+02    0.60281E-02   -0.25456E-02   374   0.260E+00    0.953E-01
DAV:   8    -0.367666264589E+02   -0.77020E-02   -0.21515E-02   390   0.263E+00    0.143E+00
DAV:   9    -0.367611946087E+02    0.54319E-02   -0.14541E-02   350   0.251E+00    0.510E-01
DAV:  10    -0.367644516100E+02   -0.32570E-02   -0.53891E-03   390   0.117E+00    0.457E-01
DAV:  11    -0.367644711786E+02   -0.19569E-04   -0.44411E-03   350   0.117E+00    0.424E-01
DAV:  12    -0.367642437732E+02    0.22741E-03   -0.19282E-03   324   0.851E-01    0.154E-01
DAV:  13    -0.367647900211E+02   -0.54625E-03   -0.28545E-04   198   0.306E-01    0.114E-01
DAV:  14    -0.367650547467E+02   -0.26473E-03   -0.18427E-04   190   0.209E-01    0.793E-02
DAV:  15    -0.367653029257E+02   -0.24818E-03   -0.87522E-05   192   0.107E-01    0.440E-02
DAV:  16    -0.367654694430E+02   -0.16652E-03   -0.41293E-05   176   0.619E-02    0.284E-02
DAV:  17    -0.367656594587E+02   -0.19002E-03   -0.23630E-05   174   0.330E-02    0.146E-02
DAV:  18    -0.367658002670E+02   -0.14081E-03   -0.12658E-05   176   0.244E-02    0.133E-02
DAV:  19    -0.367659303149E+02   -0.13005E-03   -0.79811E-06   176   0.260E-02    0.901E-03
DAV:  20    -0.367660232721E+02   -0.92957E-04   -0.56561E-06   176   0.155E-02
  16 F= -.36766023E+02 E0= -.36787944E+02  d E =-.169311E-01  mag=     5.9029
       N       E                     dE             d eps       ncg     rms          rms(c)
DAV:   1    -0.367621529998E+02    0.37773E-02   -0.49855E+00   264   0.771E+00    0.547E-01
DAV:   2    -0.367678734252E+02   -0.57204E-02   -0.73340E-02   388   0.179E+00    0.759E-01
DAV:   3    -0.367773064348E+02   -0.94330E-02   -0.28267E-02   310   0.349E+00    0.190E+00
DAV:   4    -0.367682995462E+02    0.90069E-02   -0.14457E-02   324   0.244E+00    0.769E-01
DAV:   5    -0.367692416845E+02   -0.94214E-03   -0.33287E-03   314   0.118E+00    0.285E-01
DAV:   6    -0.367705820849E+02   -0.13404E-02   -0.19021E-03   348   0.743E-01    0.354E-01
DAV:   7    -0.367704872815E+02    0.94803E-04   -0.18390E-03   326   0.742E-01    0.218E-01
DAV:   8    -0.367708492797E+02   -0.36200E-03   -0.11120E-03   268   0.547E-01    0.281E-01
DAV:   9    -0.367706016001E+02    0.24768E-03   -0.68279E-04   198   0.450E-01    0.989E-02
DAV:  10    -0.367708405823E+02   -0.23898E-03   -0.16261E-04   172   0.240E-01    0.127E-01
DAV:  11    -0.367708110775E+02    0.29505E-04   -0.12615E-04   166   0.202E-01
  17 F= -.36770811E+02 E0= -.36792788E+02  d E =-.478781E-02  mag=     5.9032
       N       E                     dE             d eps       ncg     rms          rms(c)
DAV:   1    -0.366944219359E+02    0.76419E-01   -0.45251E+01   264   0.235E+01    0.171E+00
DAV:   2    -0.367948518056E+02   -0.10043E+00   -0.84474E-01   396   0.757E+00    0.419E+00
DAV:   3    -0.368276187282E+02   -0.32767E-01   -0.31803E-01   326   0.113E+01    0.661E+00
DAV:   4    -0.367835233942E+02    0.44095E-01   -0.31225E-01   340   0.706E+00    0.308E+00
DAV:   5    -0.367681529613E+02    0.15370E-01   -0.61439E-02   316   0.454E+00    0.761E-01
DAV:   6    -0.367788821163E+02   -0.10729E-01   -0.16644E-02   356   0.217E+00    0.984E-01
DAV:   7    -0.367770672375E+02    0.18149E-02   -0.15053E-02   352   0.208E+00    0.549E-01
DAV:   8    -0.367809092563E+02   -0.38420E-02   -0.11126E-02   388   0.176E+00    0.112E+00
DAV:   9    -0.367773658408E+02    0.35434E-02   -0.10434E-02   334   0.173E+00    0.367E-01
DAV:  10    -0.367795299098E+02   -0.21641E-02   -0.36436E-03   388   0.976E-01    0.470E-01
DAV:  11    -0.367788308425E+02    0.69907E-03   -0.19476E-03   294   0.861E-01    0.140E-01
DAV:  12    -0.367794031844E+02   -0.57234E-03   -0.42426E-04   228   0.346E-01    0.111E-01
DAV:  13    -0.367795588001E+02   -0.15562E-03   -0.19177E-04   184   0.222E-01    0.774E-02
DAV:  14    -0.367797025513E+02   -0.14375E-03   -0.83721E-05   184   0.139E-01    0.406E-02
DAV:  15    -0.367798181689E+02   -0.11562E-03   -0.44064E-05   176   0.747E-02    0.315E-02
DAV:  16    -0.367799155551E+02   -0.97386E-04   -0.20545E-05   176   0.445E-02
  18 F= -.36779916E+02 E0= -.36801970E+02  d E =-.138923E-01  mag=     5.9054
       N       E                     dE             d eps       ncg     rms          rms(c)
DAV:   1    -0.363781493199E+02    0.40167E+00   -0.18723E+02   264   0.495E+01    0.355E+00
DAV:   2    -0.370254642687E+02   -0.64731E+00   -0.47042E+00   398   0.204E+01    0.109E+01
DAV:   3    -0.368641404031E+02    0.16132E+00   -0.25025E+00   318   0.248E+01    0.105E+01
DAV:   4    -0.368121462279E+02    0.51994E-01   -0.11990E+00   356   0.133E+01    0.580E+00
DAV:   5    -0.367367655164E+02    0.75381E-01   -0.28674E-01   332   0.905E+00    0.151E+00
DAV:   6    -0.367726687001E+02   -0.35903E-01   -0.82086E-02   364   0.474E+00    0.231E+00
DAV:   7    -0.367615047907E+02    0.11164E-01   -0.64525E-02   310   0.429E+00    0.107E+00
DAV:   8    -0.367726928404E+02   -0.11188E-01   -0.34209E-02   398   0.333E+00    0.174E+00
DAV:   9    -0.367664239970E+02    0.62688E-02   -0.33371E-02   366   0.367E+00    0.999E-01
DAV:  10    -0.367685645987E+02   -0.21406E-02   -0.20810E-02   382   0.249E+00    0.846E-01
DAV:  11    -0.367688788216E+02   -0.31422E-03   -0.16889E-02   360   0.225E+00    0.685E-01
DAV:  12    -0.367686317291E+02    0.24709E-03   -0.46727E-03   350   0.127E+00    0.327E-01
DAV:  13    -0.367694206096E+02   -0.78888E-03   -0.21598E-03   374   0.645E-01    0.191E-01
DAV:  14    -0.367700057350E+02   -0.58513E-03   -0.52791E-04   224   0.302E-01    0.940E-02
DAV:  15    -0.367703271324E+02   -0.32140E-03   -0.15348E-04   192   0.180E-01    0.808E-02
DAV:  16    -0.367705568084E+02   -0.22968E-03   -0.10069E-04   192   0.134E-01    0.176E-02
DAV:  17    -0.367708515573E+02   -0.29475E-03   -0.54327E-05   182   0.462E-02    0.170E-02
DAV:  18    -0.367710079867E+02   -0.15643E-03   -0.21524E-05   176   0.368E-02    0.128E-02
DAV:  19    -0.367711133349E+02   -0.10535E-03   -0.91692E-06   168   0.192E-02    0.105E-02
DAV:  20    -0.367712307987E+02   -0.11746E-03   -0.56002E-06   176   0.163E-02    0.701E-03
DAV:  21    -0.367713512546E+02   -0.12046E-03   -0.49336E-06   176   0.138E-02    0.369E-03
DAV:  22    -0.367714496840E+02   -0.98429E-04   -0.39541E-06   176   0.895E-03
  19 F= -.36771450E+02 E0= -.36792985E+02  d E =-.542641E-02  mag=     5.9118
       N       E                     dE             d eps       ncg     rms          rms(c)
DAV:   1    -0.365825311595E+02    0.18882E+00   -0.10004E+02   264   0.354E+01    0.297E+00
DAV:   2    -0.372808280361E+02   -0.69830E+00   -0.35819E+00   382   0.242E+01    0.125E+01
DAV:   3    -0.367502224681E+02    0.53061E+00   -0.17916E+00   348   0.241E+01    0.573E+00
DAV:   4    -0.368255372397E+02   -0.75315E-01   -0.79811E-01   380   0.126E+01    0.549E+00
DAV:   5    -0.367618867258E+02    0.63651E-01   -0.17276E-01   340   0.823E+00    0.143E+00
DAV:   6    -0.367766909771E+02   -0.14804E-01   -0.47300E-02   374   0.404E+00    0.146E+00
DAV:   7    -0.367760566630E+02    0.63431E-03   -0.23846E-02   348   0.253E+00    0.764E-01
DAV:   8    -0.367799043252E+02   -0.38477E-02   -0.17883E-02   372   0.240E+00    0.936E-01
DAV:   9    -0.367802117648E+02   -0.30744E-03   -0.22327E-02   358   0.262E+00    0.769E-01
DAV:  10    -0.367803007786E+02   -0.89014E-04   -0.89723E-03   350   0.169E+00    0.598E-01
DAV:  11    -0.367801451197E+02    0.15566E-03   -0.55114E-03   336   0.134E+00    0.467E-01
DAV:  12    -0.367801609084E+02   -0.15789E-04   -0.29257E-03   348   0.936E-01    0.238E-01
DAV:  13    -0.367807647212E+02   -0.60381E-03   -0.61469E-04   236   0.375E-01    0.630E-02
DAV:  14    -0.367810794475E+02   -0.31473E-03   -0.16645E-04   190   0.172E-01    0.827E-02
DAV:  15    -0.367812250881E+02   -0.14564E-03   -0.89735E-05   174   0.154E-01    0.276E-02
DAV:  16    -0.367813966045E+02   -0.17152E-03   -0.38993E-05   174   0.517E-02    0.344E-02
DAV:  17    -0.367815061050E+02   -0.10950E-03   -0.28140E-05   170   0.576E-02    0.165E-02
DAV:  18    -0.367815931177E+02   -0.87013E-04   -0.15624E-05   176   0.354E-02
  20 F= -.36781593E+02 E0= -.36803559E+02  d E =-.155698E-01  mag=     5.9092
       N       E                     dE             d eps       ncg     rms          rms(c)
DAV:   1    -0.367599282931E+02    0.21578E-01   -0.18219E+01   264   0.147E+01    0.109E+00
DAV:   2    -0.368082390764E+02   -0.48311E-01   -0.35840E-01   396   0.579E+00    0.349E+00
DAV:   3    -0.367895225672E+02    0.18717E-01   -0.16659E-01   324   0.740E+00    0.257E+00
DAV:   4    -0.367994052292E+02   -0.98827E-02   -0.73326E-02   364   0.426E+00    0.234E+00
DAV:   5    -0.367849958607E+02    0.14409E-01   -0.29789E-02   340   0.325E+00    0.572E-01
DAV:   6    -0.367914988196E+02   -0.65030E-02   -0.74683E-03   372   0.157E+00    0.709E-01
DAV:   7    -0.367912107728E+02    0.28805E-03   -0.59373E-03   374   0.129E+00    0.422E-01
DAV:   8    -0.367924790643E+02   -0.12683E-02   -0.50194E-03   376   0.126E+00    0.572E-01
DAV:   9    -0.367917343892E+02    0.74468E-03   -0.36171E-03   376   0.105E+00    0.190E-01
DAV:  10    -0.367924077848E+02   -0.67340E-03   -0.10094E-03   268   0.577E-01    0.282E-01
DAV:  11    -0.367921356933E+02    0.27209E-03   -0.67305E-04   220   0.479E-01    0.935E-02
DAV:  12    -0.367923551831E+02   -0.21949E-03   -0.15930E-04   180   0.212E-01    0.418E-02
DAV:  13    -0.367924493415E+02   -0.94158E-04   -0.53591E-05   176   0.976E-02
  21 F= -.36792449E+02 E0= -.36814083E+02  d E =-.108562E-01  mag=     5.9093
       N       E                     dE             d eps       ncg     rms          rms(c)
DAV:   1    -0.366045105872E+02    0.18784E+00   -0.10026E+02   264   0.353E+01    0.267E+00
DAV:   2    -0.370066663317E+02   -0.40216E+00   -0.26159E+00   396   0.173E+01    0.925E+00
DAV:   3    -0.367865933262E+02    0.22007E+00   -0.11203E+00   324   0.193E+01    0.528E+00
DAV:   4    -0.368380729552E+02   -0.51480E-01   -0.36838E-01   388   0.917E+00    0.488E+00
DAV:   5    -0.367786456600E+02    0.59427E-01   -0.13615E-01   332   0.692E+00    0.132E+00
DAV:   6    -0.368017348035E+02   -0.23089E-01   -0.42362E-02   372   0.362E+00    0.166E+00
DAV:   7    -0.367966598230E+02    0.50750E-02   -0.35842E-02   342   0.311E+00    0.866E-01
DAV:   8    -0.368024857482E+02   -0.58259E-02   -0.25094E-02   372   0.282E+00    0.130E+00
DAV:   9    -0.367989672875E+02    0.35185E-02   -0.24654E-02   366   0.263E+00    0.554E-01
DAV:  10    -0.368008706376E+02   -0.19034E-02   -0.62391E-03   386   0.123E+00    0.611E-01
DAV:  11    -0.368001184368E+02    0.75220E-03   -0.42332E-03   326   0.122E+00    0.271E-01
DAV:  12    -0.368008969033E+02   -0.77847E-03   -0.13944E-03   350   0.608E-01    0.194E-01
DAV:  13    -0.368009745654E+02   -0.77662E-04   -0.56285E-04   240   0.398E-01
  22 F= -.36800975E+02 E0= -.36821300E+02  d E =-.193814E-01  mag=     5.9118
       N       E                     dE             d eps       ncg     rms          rms(c)
DAV:   1    -0.367411179110E+02    0.59779E-01   -0.38736E+01   264   0.216E+01    0.157E+00
DAV:   2    -0.368698882188E+02   -0.12877E+00   -0.85514E-01   396   0.952E+00    0.574E+00
DAV:   3    -0.368002208872E+02    0.69667E-01   -0.35153E-01   316   0.112E+01    0.324E+00
DAV:   4    -0.368341200626E+02   -0.33899E-01   -0.14868E-01   380   0.638E+00    0.355E+00
DAV:   5    -0.367980126268E+02    0.36107E-01   -0.62937E-02   340   0.486E+00    0.707E-01
DAV:   6    -0.368106537407E+02   -0.12641E-01   -0.14598E-02   366   0.211E+00    0.937E-01
DAV:   7    -0.368099670520E+02    0.68669E-03   -0.11609E-02   366   0.177E+00    0.518E-01
DAV:   8    -0.368123083667E+02   -0.23413E-02   -0.94973E-03   358   0.173E+00    0.755E-01
DAV:   9    -0.368114527087E+02    0.85566E-03   -0.86170E-03   366   0.157E+00    0.425E-01
DAV:  10    -0.368115470192E+02   -0.94311E-04   -0.18877E-03   364   0.736E-01    0.271E-01
DAV:  11    -0.368118552465E+02   -0.30823E-03   -0.14171E-03   294   0.689E-01    0.286E-01
DAV:  12    -0.368119246275E+02   -0.69381E-04   -0.80971E-04   228   0.533E-01
  23 F= -.36811925E+02 E0= -.36831765E+02  d E =-.109501E-01  mag=     5.9135
       N       E                     dE             d eps       ncg     rms          rms(c)
DAV:   1    -0.367699712379E+02    0.41884E-01   -0.24852E+01   264   0.172E+01    0.119E+00
DAV:   2    -0.368185731966E+02   -0.48602E-01   -0.44804E-01   396   0.528E+00    0.291E+00
DAV:   3    -0.368303259752E+02   -0.11753E-01   -0.15284E-01   318   0.788E+00    0.386E+00
DAV:   4    -0.368159190276E+02    0.14407E-01   -0.97647E-02   332   0.490E+00    0.200E+00
DAV:   5    -0.368076884964E+02    0.82305E-02   -0.25642E-02   324   0.297E+00    0.478E-01
DAV:   6    -0.368142746522E+02   -0.65862E-02   -0.74642E-03   364   0.143E+00    0.709E-01
DAV:   7    -0.368134790348E+02    0.79562E-03   -0.65318E-03   372   0.142E+00    0.391E-01
DAV:   8    -0.368152152923E+02   -0.17363E-02   -0.53093E-03   382   0.127E+00    0.555E-01
DAV:   9    -0.368147196959E+02    0.49560E-03   -0.50719E-03   366   0.125E+00    0.310E-01
DAV:  10    -0.368149591909E+02   -0.23949E-03   -0.14515E-03   342   0.705E-01    0.239E-01
DAV:  11    -0.368150268280E+02   -0.67637E-04   -0.10305E-03   262   0.570E-01    0.217E-01
DAV:  12    -0.368151140432E+02   -0.87215E-04   -0.34767E-04   196   0.383E-01
  24 F= -.36815114E+02 E0= -.36834447E+02  d E =-.141395E-01  mag=     5.9162
       N       E                     dE             d eps       ncg     rms          rms(c)
DAV:   1    -0.368113873897E+02    0.36394E-02   -0.49990E+00   264   0.786E+00    0.519E-01
DAV:   2    -0.368205882958E+02   -0.92009E-02   -0.94951E-02   388   0.257E+00    0.129E+00
DAV:   3    -0.368210461056E+02   -0.45781E-03   -0.49673E-02   294   0.360E+00    0.129E+00
DAV:   4    -0.368215490079E+02   -0.50290E-03   -0.17182E-02   332   0.226E+00    0.116E+00
DAV:   5    -0.368187339854E+02    0.28150E-02   -0.60008E-03   324   0.164E+00    0.248E-01
DAV:   6    -0.368200722301E+02   -0.13382E-02   -0.12574E-03   322   0.568E-01    0.198E-01
DAV:   7    -0.368203970890E+02   -0.32486E-03   -0.12753E-03   310   0.677E-01    0.288E-01
DAV:   8    -0.368205548131E+02   -0.15772E-03   -0.11562E-03   260   0.636E-01    0.268E-01
DAV:   9    -0.368205355569E+02    0.19256E-04   -0.99065E-04   262   0.632E-01
  25 F= -.36820536E+02 E0= -.36839815E+02  d E =-.542151E-02  mag=     5.9187
       N       E                     dE             d eps       ncg     rms          rms(c)
DAV:   1    -0.368206166685E+02   -0.61855E-04   -0.27303E-01   266   0.187E+00    0.180E-01
DAV:   2    -0.368231758077E+02   -0.25591E-02   -0.12290E-02   396   0.165E+00    0.944E-01
DAV:   3    -0.368198069732E+02    0.33688E-02   -0.76655E-03   316   0.164E+00    0.143E-01
DAV:   4    -0.368213390075E+02   -0.15320E-02   -0.12984E-03   338   0.513E-01    0.331E-01
DAV:   5    -0.368210064956E+02    0.33251E-03   -0.64523E-04   234   0.462E-01    0.990E-02
DAV:   6    -0.368212423706E+02   -0.23588E-03   -0.19451E-04   156   0.230E-01    0.999E-02
DAV:   7    -0.368212652964E+02   -0.22926E-04   -0.13136E-04   158   0.202E-01
  26 F= -.36821265E+02 E0= -.36840585E+02  d E =-.615125E-02  mag=     5.9201
       N       E                     dE             d eps       ncg     rms          rms(c)
DAV:   1    -0.368176926852E+02    0.35497E-02   -0.44652E+00   264   0.729E+00    0.546E-01
DAV:   2    -0.368431982421E+02   -0.25506E-01   -0.13668E-01   396   0.449E+00    0.302E+00
DAV:   3    -0.368166538905E+02    0.26544E-01   -0.69050E-02   324   0.462E+00    0.699E-01
DAV:   4    -0.368279883253E+02   -0.11334E-01   -0.22002E-02   364   0.235E+00    0.137E+00
DAV:   5    -0.368229739871E+02    0.50143E-02   -0.98257E-03   332   0.181E+00    0.268E-01
DAV:   6    -0.368246655484E+02   -0.16916E-02   -0.16482E-03   332   0.714E-01    0.214E-01
DAV:   7    -0.368248949817E+02   -0.22943E-03   -0.92618E-04   286   0.559E-01    0.176E-01
DAV:   8    -0.368251970349E+02   -0.30205E-03   -0.77574E-04   278   0.518E-01    0.289E-01
DAV:   9    -0.368250072986E+02    0.18974E-03   -0.10339E-03   270   0.599E-01    0.198E-01
DAV:  10    -0.368251127646E+02   -0.10547E-03   -0.40668E-04   180   0.356E-01    0.100E-01
DAV:  11    -0.368252619857E+02   -0.14922E-03   -0.19990E-04   176   0.239E-01    0.119E-01
DAV:  12    -0.368252454370E+02    0.16549E-04   -0.11829E-04   156   0.197E-01
  27 F= -.36825245E+02 E0= -.36844090E+02  d E =-.398014E-02  mag=     5.9242
       N       E                     dE             d eps       ncg     rms          rms(c)
DAV:   1    -0.368218028458E+02    0.34591E-02   -0.23931E+00   264   0.533E+00    0.385E-01
DAV:   2    -0.368331411906E+02   -0.11338E-01   -0.68926E-02   396   0.300E+00    0.203E+00
DAV:   3    -0.368212966105E+02    0.11845E-01   -0.35505E-02   324   0.315E+00    0.533E-01
DAV:   4    -0.368273305076E+02   -0.60339E-02   -0.10730E-02   364   0.169E+00    0.995E-01
DAV:   5    -0.368244658459E+02    0.28647E-02   -0.49540E-03   324   0.133E+00    0.169E-01
DAV:   6    -0.368255374927E+02   -0.10716E-02   -0.92721E-04   274   0.491E-01    0.166E-01
DAV:   7    -0.368256481305E+02   -0.11064E-03   -0.54193E-04   228   0.437E-01    0.142E-01
DAV:   8    -0.368258149708E+02   -0.16684E-03   -0.53376E-04   216   0.402E-01    0.222E-01
DAV:   9    -0.368256451547E+02    0.16982E-03   -0.46798E-04   198   0.447E-01    0.142E-01
DAV:  10    -0.368258049536E+02   -0.15980E-03   -0.20460E-04   176   0.268E-01    0.947E-02
DAV:  11    -0.368258458332E+02   -0.40880E-04   -0.15477E-04   158   0.213E-01
  28 F= -.36825846E+02 E0= -.36844267E+02  d E =-.458054E-02  mag=     5.9282
       N       E                     dE             d eps       ncg     rms          rms(c)
DAV:   1    -0.368225648959E+02    0.32401E-02   -0.36486E+00   264   0.664E+00    0.499E-01
DAV:   2    -0.368400318025E+02   -0.17467E-01   -0.91906E-02   396   0.389E+00    0.260E+00
DAV:   3    -0.368214975176E+02    0.18534E-01   -0.51855E-02   324   0.403E+00    0.639E-01
DAV:   4    -0.368318840428E+02   -0.10387E-01   -0.18466E-02   388   0.209E+00    0.143E+00
DAV:   5    -0.368264880086E+02    0.53960E-02   -0.11289E-02   332   0.173E+00    0.205E-01
DAV:   6    -0.368281801640E+02   -0.16922E-02   -0.15843E-03   342   0.618E-01    0.290E-01
DAV:   7    -0.368281793840E+02    0.77998E-06   -0.11552E-03   286   0.603E-01    0.235E-01
DAV:   8    -0.368283624730E+02   -0.18309E-03   -0.71723E-04   248   0.480E-01    0.241E-01
DAV:   9    -0.368282734303E+02    0.89043E-04   -0.62262E-04   222   0.451E-01
  29 F= -.36828273E+02 E0= -.36846296E+02  d E =-.242760E-02  mag=     5.9326
       N       E                     dE             d eps       ncg     rms          rms(c)
DAV:   1    -0.367949627478E+02    0.33400E-01   -0.21829E+01   264   0.163E+01    0.124E+00
DAV:   2    -0.369145491068E+02   -0.11959E+00   -0.58499E-01   398   0.985E+00    0.674E+00
DAV:   3    -0.368031175945E+02    0.11143E+00   -0.35964E-01   308   0.994E+00    0.175E+00
DAV:   4    -0.368546408308E+02   -0.51523E-01   -0.15097E-01   388   0.541E+00    0.378E+00
DAV:   5    -0.368235999350E+02    0.31041E-01   -0.95613E-02   324   0.432E+00    0.730E-01
DAV:   6    -0.368295143378E+02   -0.59144E-02   -0.11396E-02   388   0.170E+00    0.647E-01
DAV:   7    -0.368298172552E+02   -0.30292E-03   -0.59390E-03   382   0.134E+00    0.466E-01
DAV:   8    -0.368305043457E+02   -0.68709E-03   -0.39259E-03   382   0.106E+00    0.604E-01
DAV:   9    -0.368298246814E+02    0.67966E-03   -0.40398E-03   318   0.117E+00    0.400E-01
DAV:  10    -0.368302660921E+02   -0.44141E-03   -0.25747E-03   358   0.879E-01    0.350E-01
DAV:  11    -0.368302338020E+02    0.32290E-04   -0.14695E-03   318   0.667E-01    0.266E-01
DAV:  12    -0.368302579371E+02   -0.24135E-04   -0.50533E-04   204   0.438E-01
  30 F= -.36830258E+02 E0= -.36846589E+02  d E =-.441210E-02  mag=     5.9455
       N       E                     dE             d eps       ncg     rms          rms(c)
DAV:   1    -0.368276940863E+02    0.25397E-02   -0.42932E+00   264   0.734E+00    0.578E-01
DAV:   2    -0.368478937507E+02   -0.20200E-01   -0.10359E-01   396   0.409E+00    0.295E+00
DAV:   3    -0.368266039498E+02    0.21290E-01   -0.68198E-02   308   0.444E+00    0.872E-01
DAV:   4    -0.368388289436E+02   -0.12225E-01   -0.21878E-02   388   0.244E+00    0.150E+00
DAV:   5    -0.368329985626E+02    0.58304E-02   -0.12245E-02   324   0.192E+00    0.285E-01
DAV:   6    -0.368344199922E+02   -0.14214E-02   -0.25510E-03   346   0.781E-01    0.292E-01
DAV:   7    -0.368348050389E+02   -0.38505E-03   -0.17485E-03   334   0.673E-01    0.301E-01
DAV:   8    -0.368349630713E+02   -0.15803E-03   -0.11179E-03   264   0.613E-01    0.354E-01
DAV:   9    -0.368348390156E+02    0.12406E-03   -0.75642E-04   234   0.508E-01    0.119E-01
DAV:  10    -0.368351784951E+02   -0.33948E-03   -0.28634E-04   188   0.330E-01    0.153E-01
DAV:  11    -0.368352020549E+02   -0.23560E-04   -0.19551E-04   176   0.266E-01
  31 F= -.36835202E+02 E0= -.36850814E+02  d E =-.494412E-02  mag=     5.9550
       N       E                     dE             d eps       ncg     rms          rms(c)
DAV:   1    -0.367770173530E+02    0.58161E-01   -0.38877E+01   264   0.223E+01    0.183E+00
DAV:   2    -0.370513428278E+02   -0.27433E+00   -0.12356E+00   398   0.143E+01    0.113E+01
DAV:   3    -0.367883075298E+02    0.26304E+00   -0.10664E+00   300   0.140E+01    0.259E+00
DAV:   4    -0.368932280017E+02   -0.10492E+00   -0.33878E-01   404   0.793E+00    0.562E+00
DAV:   5    -0.368338998407E+02    0.59328E-01   -0.26639E-01   316   0.617E+00    0.158E+00
DAV:   6    -0.368396952606E+02   -0.57954E-02   -0.32720E-02   388   0.297E+00    0.105E+00
DAV:   7    -0.368418479486E+02   -0.21527E-02   -0.18199E-02   380   0.210E+00    0.677E-01
DAV:   8    -0.368436022633E+02   -0.17543E-02   -0.99865E-03   352   0.178E+00    0.908E-01
DAV:   9    -0.368420071614E+02    0.15951E-02   -0.63559E-03   340   0.148E+00    0.492E-01
DAV:  10    -0.368429403864E+02   -0.93323E-03   -0.39763E-03   390   0.108E+00    0.315E-01
DAV:  11    -0.368438618682E+02   -0.92148E-03   -0.31238E-03   366   0.955E-01    0.399E-01
DAV:  12    -0.368435787618E+02    0.28311E-03   -0.22175E-03   332   0.879E-01    0.138E-01
DAV:  13    -0.368440384070E+02   -0.45965E-03   -0.35297E-04   190   0.294E-01    0.151E-01
DAV:  14    -0.368442000783E+02   -0.16167E-03   -0.15810E-04   182   0.192E-01    0.506E-02
DAV:  15    -0.368444908967E+02   -0.29082E-03   -0.51005E-05   182   0.754E-02    0.250E-02
DAV:  16    -0.368447268985E+02   -0.23600E-03   -0.36581E-05   174   0.537E-02    0.144E-02
DAV:  17    -0.368449046697E+02   -0.17777E-03   -0.16419E-05   174   0.317E-02    0.173E-02
DAV:  18    -0.368451651386E+02   -0.26047E-03   -0.12571E-05   180   0.333E-02    0.899E-03
DAV:  19    -0.368453720895E+02   -0.20695E-03   -0.98026E-06   174   0.173E-02    0.610E-03
DAV:  20    -0.368455261124E+02   -0.15402E-03   -0.56381E-06   166   0.111E-02    0.438E-03
DAV:  21    -0.368456444048E+02   -0.11829E-03   -0.27565E-06   176   0.921E-03    0.420E-03
DAV:  22    -0.368457605526E+02   -0.11615E-03   -0.20821E-06   166   0.784E-03    0.282E-03
DAV:  23    -0.368459331406E+02   -0.17259E-03   -0.28696E-06   172   0.595E-03    0.270E-03
DAV:  24    -0.368460765168E+02   -0.14338E-03   -0.22614E-06   174   0.599E-03    0.202E-03
DAV:  25    -0.368461933714E+02   -0.11685E-03   -0.20229E-06   166   0.486E-03    0.194E-03
DAV:  26    -0.368462938080E+02   -0.10044E-03   -0.15697E-06   176   0.472E-03    0.164E-03
DAV:  27    -0.368464087804E+02   -0.11497E-03   -0.19072E-06   174   0.416E-03    0.140E-03
DAV:  28    -0.368464915110E+02   -0.82731E-04   -0.14749E-06   176   0.421E-03
  32 F= -.36846492E+02 E0= -.36859940E+02  d E =-.162336E-01  mag=     5.9914
       N       E                     dE             d eps       ncg     rms          rms(c)
DAV:   1    -0.365530752140E+02    0.29333E+00   -0.15868E+02   264   0.462E+01    0.371E+00
DAV:   2    -0.377842808717E+02   -0.12312E+01   -0.54107E+00   396   0.289E+01    0.247E+01
DAV:   3    -0.367958126609E+02    0.98847E+00   -0.59538E+00   324   0.235E+01    0.710E+00
DAV:   4    -0.370347901841E+02   -0.23898E+00   -0.14541E+00   358   0.172E+01    0.127E+01
DAV:   5    -0.368773950954E+02    0.15740E+00   -0.11577E+00   324   0.122E+01    0.621E+00
DAV:   6    -0.368247449438E+02    0.52650E-01   -0.31344E-01   332   0.917E+00    0.248E+00
DAV:   7    -0.368502391844E+02   -0.25494E-01   -0.11354E-01   396   0.529E+00    0.234E+00
DAV:   8    -0.368427857102E+02    0.74535E-02   -0.54076E-02   350   0.458E+00    0.140E+00
DAV:   9    -0.368461245877E+02   -0.33389E-02   -0.22364E-02   358   0.256E+00    0.112E+00
DAV:  10    -0.368482309148E+02   -0.21063E-02   -0.31567E-02   360   0.297E+00    0.122E+00
DAV:  11    -0.368454704500E+02    0.27605E-02   -0.16613E-02   342   0.240E+00    0.662E-01
DAV:  12    -0.368475895153E+02   -0.21191E-02   -0.80437E-03   390   0.130E+00    0.361E-01
DAV:  13    -0.368487336674E+02   -0.11442E-02   -0.38299E-03   382   0.777E-01    0.425E-01
DAV:  14    -0.368493650520E+02   -0.63138E-03   -0.11087E-03   270   0.548E-01    0.221E-01
DAV:  15    -0.368500867698E+02   -0.72172E-03   -0.41099E-04   200   0.275E-01    0.748E-02
DAV:  16    -0.368505836156E+02   -0.49685E-03   -0.16336E-04   182   0.154E-01    0.449E-02
DAV:  17    -0.368510669878E+02   -0.48337E-03   -0.81892E-05   184   0.849E-02    0.334E-02
DAV:  18    -0.368516485673E+02   -0.58158E-03   -0.48208E-05   182   0.476E-02    0.255E-02
DAV:  19    -0.368521309284E+02   -0.48236E-03   -0.25521E-05   182   0.465E-02    0.223E-02
DAV:  20    -0.368525254979E+02   -0.39457E-03   -0.18110E-05   182   0.351E-02    0.130E-02
DAV:  21    -0.368529012310E+02   -0.37573E-03   -0.14590E-05   166   0.235E-02    0.861E-03
DAV:  22    -0.368531982784E+02   -0.29705E-03   -0.93064E-06   180   0.177E-02    0.587E-03
DAV:  23    -0.368535118545E+02   -0.31358E-03   -0.68424E-06   164   0.121E-02    0.577E-03
DAV:  24    -0.368539081905E+02   -0.39634E-03   -0.76312E-06   180   0.113E-02    0.451E-03
DAV:  25    -0.368542758599E+02   -0.36767E-03   -0.68751E-06   182   0.101E-02    0.360E-03
DAV:  26    -0.368546188025E+02   -0.34294E-03   -0.66691E-06   180   0.951E-03    0.402E-03
DAV:  27    -0.368549460364E+02   -0.32723E-03   -0.67508E-06   182   0.943E-03    0.300E-03
DAV:  28    -0.368551794135E+02   -0.23338E-03   -0.52434E-06   174   0.752E-03    0.261E-03
DAV:  29    -0.368554089175E+02   -0.22950E-03   -0.55796E-06   182   0.749E-03    0.231E-03
DAV:  30    -0.368555491275E+02   -0.14021E-03   -0.36306E-06   176   0.623E-03    0.181E-03
DAV:  31    -0.368556423391E+02   -0.93212E-04   -0.26587E-06   176   0.550E-03
  33 F= -.36855642E+02 E0= -.36864545E+02  d E =-.253844E-01  mag=     6.0687
       N       E                     dE             d eps       ncg     rms          rms(c)
DAV:   1    -0.368563715843E+02   -0.82246E-03   -0.54571E-01   264   0.261E+00    0.204E-01
DAV:   2    -0.368583606800E+02   -0.19891E-02   -0.12717E-02   398   0.143E+00    0.992E-01
DAV:   3    -0.368557669093E+02    0.25938E-02   -0.80353E-03   316   0.156E+00    0.330E-01
DAV:   4    -0.368576911151E+02   -0.19242E-02   -0.31904E-03   348   0.893E-01    0.576E-01
DAV:   5    -0.368567319018E+02    0.95921E-03   -0.17501E-03   276   0.723E-01    0.987E-02
DAV:   6    -0.368570878467E+02   -0.35594E-03   -0.27408E-04   172   0.272E-01    0.108E-01
DAV:   7    -0.368571773613E+02   -0.89515E-04   -0.23961E-04   174   0.238E-01
  34 F= -.36857177E+02 E0= -.36865808E+02  d E =-.153502E-02  mag=     6.0709
       N       E                     dE             d eps       ncg     rms          rms(c)
DAV:   1    -0.368536252582E+02    0.34626E-02   -0.49173E+00   264   0.785E+00    0.589E-01
DAV:   2    -0.368679002518E+02   -0.14275E-01   -0.10521E-01   398   0.345E+00    0.236E+00
DAV:   3    -0.368573333368E+02    0.10567E-01   -0.74390E-02   300   0.415E+00    0.117E+00
DAV:   4    -0.368655839430E+02   -0.82506E-02   -0.37730E-02   356   0.254E+00    0.165E+00
DAV:   5    -0.368593973240E+02    0.61866E-02   -0.20649E-02   332   0.197E+00    0.325E-01
DAV:   6    -0.368607666002E+02   -0.13693E-02   -0.30793E-03   332   0.879E-01    0.291E-01
DAV:   7    -0.368610355204E+02   -0.26892E-03   -0.19942E-03   380   0.624E-01    0.262E-01
DAV:   8    -0.368613025793E+02   -0.26706E-03   -0.18060E-03   296   0.706E-01    0.392E-01
DAV:   9    -0.368608148628E+02    0.48772E-03   -0.11417E-03   270   0.583E-01    0.112E-01
DAV:  10    -0.368610801277E+02   -0.26526E-03   -0.33183E-04   190   0.367E-01    0.173E-01
DAV:  11    -0.368609949634E+02    0.85164E-04   -0.18447E-04   176   0.282E-01
  35 F= -.36860995E+02 E0= -.36868815E+02  d E =-.535262E-02  mag=     6.0800
       N       E                     dE             d eps       ncg     rms          rms(c)
DAV:   1    -0.368366919609E+02    0.24388E-01   -0.19706E+01   264   0.157E+01    0.125E+00
DAV:   2    -0.369358156761E+02   -0.99124E-01   -0.50734E-01   396   0.884E+00    0.639E+00
DAV:   3    -0.368468192207E+02    0.88996E-01   -0.37015E-01   308   0.938E+00    0.191E+00
DAV:   4    -0.368951882472E+02   -0.48369E-01   -0.17818E-01   396   0.530E+00    0.398E+00
DAV:   5    -0.368603996228E+02    0.34789E-01   -0.76062E-02   308   0.431E+00    0.856E-01
DAV:   6    -0.368673338140E+02   -0.69342E-02   -0.16814E-02   378   0.199E+00    0.747E-01
DAV:   7    -0.368678374463E+02   -0.50363E-03   -0.97132E-03   372   0.146E+00    0.463E-01
DAV:   8    -0.368690080860E+02   -0.11706E-02   -0.57133E-03   352   0.135E+00    0.736E-01
DAV:   9    -0.368677870532E+02    0.12210E-02   -0.41677E-03   350   0.119E+00    0.357E-01
DAV:  10    -0.368677846548E+02    0.23984E-05   -0.19124E-03   364   0.763E-01    0.199E-01
DAV:  11    -0.368680271294E+02   -0.24247E-03   -0.59029E-04   214   0.405E-01    0.176E-01
DAV:  12    -0.368680463660E+02   -0.19237E-04   -0.49847E-04   206   0.416E-01
  36 F= -.36868046E+02 E0= -.36874223E+02  d E =-.124040E-01  mag=     6.1017
       N       E                     dE             d eps       ncg     rms          rms(c)
DAV:   1    -0.367387507428E+02    0.12928E+00   -0.79671E+01   264   0.321E+01    0.255E+00
DAV:   2    -0.371719092157E+02   -0.43316E+00   -0.22321E+00   396   0.178E+01    0.134E+01
DAV:   3    -0.368389973360E+02    0.33291E+00   -0.17526E+00   308   0.178E+01    0.437E+00
DAV:   4    -0.370126830744E+02   -0.17369E+00   -0.68842E-01   364   0.112E+01    0.992E+00
DAV:   5    -0.368484646543E+02    0.16422E+00   -0.41017E-01   324   0.863E+00    0.223E+00
DAV:   6    -0.368765515405E+02   -0.28087E-01   -0.96312E-02   364   0.506E+00    0.197E+00
DAV:   7    -0.368755468654E+02    0.10047E-02   -0.49669E-02   364   0.333E+00    0.103E+00
DAV:   8    -0.368785880243E+02   -0.30412E-02   -0.16604E-02   342   0.275E+00    0.120E+00
DAV:   9    -0.368766947397E+02    0.18933E-02   -0.11183E-02   350   0.221E+00    0.609E-01
DAV:  10    -0.368769843774E+02   -0.28964E-03   -0.11337E-02   404   0.173E+00    0.731E-01
DAV:  11    -0.368763697961E+02    0.61458E-03   -0.10969E-02   350   0.183E+00    0.628E-01
DAV:  12    -0.368759194695E+02    0.45033E-03   -0.53474E-03   390   0.114E+00    0.245E-01
DAV:  13    -0.368767146946E+02   -0.79523E-03   -0.16107E-03   332   0.516E-01    0.241E-01
DAV:  14    -0.368772959425E+02   -0.58125E-03   -0.44350E-04   200   0.326E-01    0.735E-02
DAV:  15    -0.368782671785E+02   -0.97124E-03   -0.14385E-04   166   0.128E-01    0.576E-02
DAV:  16    -0.368790808693E+02   -0.81369E-03   -0.10389E-04   180   0.117E-01    0.275E-02
DAV:  17    -0.368800091864E+02   -0.92832E-03   -0.62956E-05   166   0.527E-02    0.242E-02
DAV:  18    -0.368810459682E+02   -0.10368E-02   -0.43688E-05   170   0.453E-02    0.220E-02
DAV:  19    -0.368816940917E+02   -0.64812E-03   -0.26092E-05   184   0.358E-02    0.144E-02
DAV:  20    -0.368825344764E+02   -0.84038E-03   -0.24349E-05   170   0.208E-02    0.115E-02
DAV:  21    -0.368835089067E+02   -0.97443E-03   -0.20208E-05   180   0.185E-02    0.992E-03
DAV:  22    -0.368843709353E+02   -0.86203E-03   -0.17379E-05   170   0.164E-02    0.820E-03
DAV:  23    -0.368852460286E+02   -0.87509E-03   -0.17225E-05   180   0.145E-02    0.765E-03
DAV:  24    -0.368863171813E+02   -0.10712E-02   -0.25099E-05   188   0.164E-02    0.676E-03
DAV:  25    -0.368873258378E+02   -0.10087E-02   -0.29953E-05   180   0.167E-02    0.759E-03
DAV:  26    -0.368878631786E+02   -0.53734E-03   -0.15120E-05   182   0.166E-02    0.451E-03
DAV:  27    -0.368883856644E+02   -0.52249E-03   -0.17689E-05   180   0.119E-02    0.354E-03
DAV:  28    -0.368887284444E+02   -0.34278E-03   -0.10066E-05   182   0.108E-02    0.276E-03
DAV:  29    -0.368889523713E+02   -0.22393E-03   -0.69197E-06   184   0.826E-03    0.231E-03
DAV:  30    -0.368890847182E+02   -0.13235E-03   -0.36349E-06   176   0.749E-03    0.144E-03
DAV:  31    -0.368891614158E+02   -0.76698E-04   -0.19800E-06   176   0.533E-03
  37 F= -.36889161E+02 E0= -.36891789E+02  d E =-.335191E-01  mag=     6.2424
       N       E                     dE             d eps       ncg     rms          rms(c)
DAV:   1    -0.362014530211E+02    0.68763E+00   -0.33284E+02   264   0.692E+01    0.564E+00
DAV:   2    -0.392434434150E+02   -0.30420E+01   -0.12176E+01   396   0.455E+01    0.371E+01
DAV:   3    -0.371181467472E+02    0.21253E+01   -0.10655E+01   348   0.307E+01    0.146E+01
DAV:   4    -0.370741778429E+02    0.43969E-01   -0.37113E+00   332   0.266E+01    0.156E+01
DAV:   5    -0.369275025807E+02    0.14668E+00   -0.20404E+00   348   0.167E+01    0.916E+00
DAV:   6    -0.368263575868E+02    0.10114E+00   -0.73287E-01   308   0.136E+01    0.494E+00
DAV:   7    -0.368506739644E+02   -0.24316E-01   -0.27230E-01   348   0.869E+00    0.404E+00
DAV:   8    -0.368226970340E+02    0.27977E-01   -0.18049E-01   342   0.708E+00    0.171E+00
DAV:   9    -0.368343106903E+02   -0.11614E-01   -0.48871E-02   364   0.358E+00    0.152E+00
DAV:  10    -0.368343018084E+02    0.88819E-05   -0.53526E-02   350   0.397E+00    0.203E+00
DAV:  11    -0.368266480761E+02    0.76537E-02   -0.69410E-02   350   0.399E+00    0.130E+00
DAV:  12    -0.368268929353E+02   -0.24486E-03   -0.25823E-02   398   0.247E+00    0.717E-01
DAV:  13    -0.368267808415E+02    0.11209E-03   -0.57512E-03   380   0.101E+00    0.455E-01
DAV:  14    -0.368275953311E+02   -0.81449E-03   -0.30033E-03   368   0.720E-01    0.233E-01
DAV:  15    -0.368290329090E+02   -0.14376E-02   -0.80910E-04   260   0.383E-01    0.139E-01
DAV:  16    -0.368303549005E+02   -0.13220E-02   -0.24938E-04   188   0.234E-01    0.984E-02
DAV:  17    -0.368325339343E+02   -0.21790E-02   -0.17106E-04   166   0.140E-01    0.912E-02
DAV:  18    -0.368352255604E+02   -0.26916E-02   -0.17735E-04   178   0.861E-02    0.661E-02
DAV:  19    -0.368376977130E+02   -0.24722E-02   -0.88263E-05   166   0.657E-02    0.448E-02
DAV:  20    -0.368398010882E+02   -0.21034E-02   -0.68238E-05   170   0.515E-02    0.280E-02
DAV:  21    -0.368428137193E+02   -0.30126E-02   -0.76051E-05   170   0.401E-02    0.286E-02
DAV:  22    -0.368457810827E+02   -0.29674E-02   -0.72084E-05   180   0.460E-02    0.249E-02
DAV:  23    -0.368483478654E+02   -0.25668E-02   -0.69537E-05   186   0.411E-02    0.206E-02
DAV:  24    -0.368520047298E+02   -0.36569E-02   -0.12778E-04   186   0.386E-02    0.173E-02
DAV:  25    -0.368562946896E+02   -0.42900E-02   -0.20013E-04   202   0.472E-02    0.151E-02
DAV:  26    -0.368579664987E+02   -0.16718E-02   -0.54285E-05   190   0.326E-02    0.107E-02
DAV:  27    -0.368591931503E+02   -0.12267E-02   -0.40633E-05   178   0.262E-02    0.879E-03
DAV:  28    -0.368603560018E+02   -0.11629E-02   -0.37276E-05   178   0.217E-02    0.733E-03
DAV:  29    -0.368611132694E+02   -0.75727E-03   -0.23027E-05   190   0.204E-02    0.521E-03
DAV:  30    -0.368617472554E+02   -0.63399E-03   -0.19568E-05   178   0.148E-02    0.450E-03
DAV:  31    -0.368621524438E+02   -0.40519E-03   -0.94987E-06   184   0.136E-02    0.387E-03
DAV:  32    -0.368624721890E+02   -0.31975E-03   -0.54014E-06   164   0.907E-03    0.223E-03
DAV:  33    -0.368626755782E+02   -0.20339E-03   -0.34949E-06   176   0.696E-03    0.189E-03
DAV:  34    -0.368628461800E+02   -0.17060E-03   -0.18541E-06   164   0.509E-03    0.138E-03
DAV:  35    -0.368629874931E+02   -0.14131E-03   -0.12792E-06   176   0.396E-03    0.129E-03
DAV:  36    -0.368630947815E+02   -0.10729E-03   -0.77853E-07   168   0.358E-03    0.893E-04
DAV:  37    -0.368631735395E+02   -0.78758E-04   -0.56342E-07   176   0.260E-03
  38 F= -.36863174E+02 E0= -.36858526E+02  d E =-.753120E-02  mag=     6.5680
       N       E                     dE             d eps       ncg     rms          rms(c)
DAV:   1    -0.364500445153E+02    0.41305E+00   -0.21289E+02   264   0.541E+01    0.442E+00
DAV:   2    -0.378614589273E+02   -0.14114E+01   -0.72798E+00   398   0.346E+01    0.224E+01
DAV:   3    -0.369574968478E+02    0.90396E+00   -0.49804E+00   302   0.301E+01    0.115E+01
DAV:   4    -0.369945240169E+02   -0.37027E-01   -0.24293E+00   348   0.200E+01    0.841E+00
DAV:   5    -0.369054540610E+02    0.89070E-01   -0.96894E-01   316   0.150E+01    0.609E+00
DAV:   6    -0.368393506097E+02    0.66103E-01   -0.48570E-01   356   0.940E+00    0.276E+00
DAV:   7    -0.368663319151E+02   -0.26981E-01   -0.13672E-01   364   0.558E+00    0.235E+00
DAV:   8    -0.368596139466E+02    0.67180E-02   -0.94955E-02   350   0.501E+00    0.177E+00
DAV:   9    -0.368573868989E+02    0.22270E-02   -0.40066E-02   340   0.339E+00    0.116E+00
DAV:  10    -0.368637993086E+02   -0.64124E-02   -0.33450E-02   342   0.380E+00    0.183E+00
DAV:  11    -0.368564612432E+02    0.73381E-02   -0.27867E-02   326   0.353E+00    0.810E-01
DAV:  12    -0.368579811984E+02   -0.15200E-02   -0.10892E-02   380   0.145E+00    0.502E-01
DAV:  13    -0.368587772293E+02   -0.79603E-03   -0.30433E-03   384   0.678E-01    0.376E-01
DAV:  14    -0.368611184110E+02   -0.23412E-02   -0.21271E-03   356   0.654E-01    0.236E-01
DAV:  15    -0.368638143028E+02   -0.26959E-02   -0.49404E-04   240   0.364E-01    0.969E-02
DAV:  16    -0.368663078133E+02   -0.24935E-02   -0.17764E-04   176   0.167E-01    0.610E-02
DAV:  17    -0.368689544899E+02   -0.26467E-02   -0.15506E-04   172   0.105E-01    0.331E-02
DAV:  18    -0.368715554975E+02   -0.26010E-02   -0.95268E-05   174   0.629E-02    0.352E-02
DAV:  19    -0.368737131088E+02   -0.21576E-02   -0.70515E-05   164   0.478E-02    0.229E-02
DAV:  20    -0.368765537841E+02   -0.28407E-02   -0.85113E-05   188   0.330E-02    0.210E-02
DAV:  21    -0.368791785891E+02   -0.26248E-02   -0.61777E-05   186   0.290E-02    0.178E-02
DAV:  22    -0.368820282352E+02   -0.28496E-02   -0.64940E-05   188   0.287E-02    0.154E-02
DAV:  23    -0.368849829807E+02   -0.29547E-02   -0.86295E-05   194   0.331E-02    0.137E-02
DAV:  24    -0.368875965383E+02   -0.26136E-02   -0.75157E-05   188   0.303E-02    0.128E-02
DAV:  25    -0.368893137499E+02   -0.17172E-02   -0.57589E-05   190   0.275E-02    0.880E-03
DAV:  26    -0.368906504445E+02   -0.13367E-02   -0.60928E-05   186   0.236E-02    0.874E-03
DAV:  27    -0.368915268271E+02   -0.87638E-03   -0.31122E-05   190   0.213E-02    0.494E-03
DAV:  28    -0.368920653378E+02   -0.53851E-03   -0.22055E-05   176   0.162E-02    0.475E-03
DAV:  29    -0.368924616878E+02   -0.39635E-03   -0.12911E-05   180   0.147E-02    0.310E-03
DAV:  30    -0.368927626436E+02   -0.30096E-03   -0.88393E-06   176   0.997E-03    0.177E-03
DAV:  31    -0.368929977084E+02   -0.23506E-03   -0.49783E-06   172   0.821E-03    0.216E-03
DAV:  32    -0.368931496855E+02   -0.15198E-03   -0.28656E-06   168   0.631E-03    0.136E-03
DAV:  33    -0.368932742282E+02   -0.12454E-03   -0.19886E-06   176   0.466E-03    0.105E-03
DAV:  34    -0.368933349458E+02   -0.60718E-04   -0.97611E-07   168   0.372E-03
  39 F= -.36893335E+02 E0= -.36894643E+02  d E =-.376926E-01  mag=     6.2973
       N       E                     dE             d eps       ncg     rms          rms(c)
DAV:   1    -0.369004519294E+02   -0.71777E-02   -0.40451E+00   264   0.717E+00    0.569E-01
DAV:   2    -0.369146262697E+02   -0.14174E-01   -0.89126E-02   396   0.360E+00    0.229E+00
DAV:   3    -0.369029712935E+02    0.11655E-01   -0.59936E-02   316   0.417E+00    0.988E-01
DAV:   4    -0.369101490600E+02   -0.71778E-02   -0.22920E-02   380   0.236E+00    0.147E+00
DAV:   5    -0.369044158518E+02    0.57332E-02   -0.13235E-02   340   0.196E+00    0.385E-01
DAV:   6    -0.369062242583E+02   -0.18084E-02   -0.28425E-03   364   0.876E-01    0.390E-01
DAV:   7    -0.369059071705E+02    0.31709E-03   -0.15911E-03   316   0.643E-01    0.170E-01
DAV:   8    -0.369060866394E+02   -0.17947E-03   -0.75403E-04   270   0.482E-01    0.235E-01
DAV:   9    -0.369058562051E+02    0.23043E-03   -0.75447E-04   270   0.514E-01    0.175E-01
DAV:  10    -0.369057997882E+02    0.56417E-04   -0.42804E-04   184   0.338E-01
  40 F= -.36905800E+02 E0= -.36906343E+02  d E =-.124648E-01  mag=     6.3067
       N       E                     dE             d eps       ncg     rms          rms(c)
DAV:   1    -0.368695453147E+02    0.36311E-01   -0.36598E+01   264   0.218E+01    0.178E+00
DAV:   2    -0.370447636265E+02   -0.17522E+00   -0.10652E+00   388   0.117E+01    0.802E+00
DAV:   3    -0.369090577030E+02    0.13571E+00   -0.82860E-01   308   0.131E+01    0.277E+00
DAV:   4    -0.369533271842E+02   -0.44269E-01   -0.18150E-01   380   0.645E+00    0.359E+00
DAV:   5    -0.369227123052E+02    0.30615E-01   -0.11299E-01   324   0.525E+00    0.145E+00
DAV:   6    -0.369283168124E+02   -0.56045E-02   -0.22322E-02   380   0.269E+00    0.142E+00
DAV:   7    -0.369255920492E+02    0.27248E-02   -0.16974E-02   356   0.228E+00    0.718E-01
DAV:   8    -0.369281260306E+02   -0.25340E-02   -0.17197E-02   364   0.205E+00    0.110E+00
DAV:   9    -0.369262057972E+02    0.19202E-02   -0.14673E-02   358   0.179E+00    0.670E-01
DAV:  10    -0.369250063518E+02    0.11994E-02   -0.61546E-03   374   0.141E+00    0.554E-01
DAV:  11    -0.369244557876E+02    0.55056E-03   -0.54598E-03   358   0.132E+00    0.441E-01
DAV:  12    -0.369241866256E+02    0.26916E-03   -0.14235E-03   320   0.629E-01    0.190E-01
DAV:  13    -0.369243389314E+02   -0.15231E-03   -0.36413E-04   184   0.285E-01    0.729E-02
DAV:  14    -0.369247327356E+02   -0.39380E-03   -0.15800E-04   164   0.151E-01    0.490E-02
DAV:  15    -0.369253128671E+02   -0.58013E-03   -0.80645E-05   176   0.777E-02    0.352E-02
DAV:  16    -0.369259102063E+02   -0.59734E-03   -0.44608E-05   164   0.591E-02    0.231E-02
DAV:  17    -0.369265866777E+02   -0.67647E-03   -0.33243E-05   176   0.444E-02    0.238E-02
DAV:  18    -0.369274515120E+02   -0.86483E-03   -0.31919E-05   162   0.370E-02    0.154E-02
DAV:  19    -0.369283411262E+02   -0.88961E-03   -0.32208E-05   176   0.319E-02    0.178E-02
DAV:  20    -0.369292040030E+02   -0.86288E-03   -0.26762E-05   170   0.317E-02    0.117E-02
DAV:  21    -0.369301157382E+02   -0.91174E-03   -0.28349E-05   170   0.221E-02    0.985E-03
DAV:  22    -0.369314759060E+02   -0.13602E-02   -0.43699E-05   178   0.216E-02    0.977E-03
DAV:  23    -0.369325961574E+02   -0.11203E-02   -0.39463E-05   188   0.217E-02    0.905E-03
DAV:  24    -0.369335192077E+02   -0.92305E-03   -0.33402E-05   178   0.247E-02    0.693E-03
DAV:  25    -0.369341580162E+02   -0.63881E-03   -0.27110E-05   180   0.183E-02    0.582E-03
DAV:  26    -0.369346194491E+02   -0.46143E-03   -0.16825E-05   178   0.148E-02    0.467E-03
DAV:  27    -0.369348925632E+02   -0.27311E-03   -0.85929E-06   172   0.111E-02    0.346E-03
DAV:  28    -0.369351855396E+02   -0.29298E-03   -0.67094E-06   170   0.962E-03    0.257E-03
DAV:  29    -0.369353873982E+02   -0.20186E-03   -0.39416E-06   176   0.719E-03    0.135E-03
DAV:  30    -0.369355456842E+02   -0.15829E-03   -0.24887E-06   172   0.566E-03    0.142E-03
DAV:  31    -0.369356608934E+02   -0.11521E-03   -0.13700E-06   176   0.445E-03    0.855E-04
DAV:  32    -0.369357322197E+02   -0.71326E-04   -0.74044E-07   164   0.348E-03
  41 F= -.36935732E+02 E0= -.36931931E+02  d E =-.423973E-01  mag=     6.4511
       N       E                     dE             d eps       ncg     rms          rms(c)
DAV:   1    -0.366267973746E+02    0.30886E+00   -0.14938E+02   264   0.451E+01    0.378E+00
DAV:   2    -0.375981087423E+02   -0.97131E+00   -0.51034E+00   396   0.266E+01    0.194E+01
DAV:   3    -0.368695775871E+02    0.72853E+00   -0.34543E+00   300   0.260E+01    0.607E+00
DAV:   4    -0.371121844104E+02   -0.24261E+00   -0.11156E+00   390   0.164E+01    0.118E+01
DAV:   5    -0.368805209378E+02    0.23166E+00   -0.13296E+00   340   0.123E+01    0.374E+00
DAV:   6    -0.369090096075E+02   -0.28489E-01   -0.27422E-01   356   0.720E+00    0.396E+00
DAV:   7    -0.368874957223E+02    0.21514E-01   -0.17206E-01   364   0.508E+00    0.147E+00
DAV:   8    -0.368964114982E+02   -0.89158E-02   -0.47945E-02   374   0.368E+00    0.178E+00
DAV:   9    -0.368945349595E+02    0.18765E-02   -0.40881E-02   350   0.368E+00    0.143E+00
DAV:  10    -0.368874472937E+02    0.70877E-02   -0.24297E-02   388   0.250E+00    0.943E-01
DAV:  11    -0.368849909076E+02    0.24564E-02   -0.11788E-02   384   0.135E+00    0.110E+00
DAV:  12    -0.368826978559E+02    0.22931E-02   -0.82936E-03   376   0.157E+00    0.792E-01
DAV:  13    -0.368808287922E+02    0.18691E-02   -0.52128E-03   390   0.125E+00    0.243E-01
DAV:  14    -0.368814637106E+02   -0.63492E-03   -0.84662E-04   264   0.399E-01    0.169E-01
DAV:  15    -0.368830219384E+02   -0.15582E-02   -0.43713E-04   176   0.260E-01    0.885E-02
DAV:  16    -0.368846334135E+02   -0.16115E-02   -0.19320E-04   172   0.156E-01    0.675E-02
DAV:  17    -0.368866724945E+02   -0.20391E-02   -0.14836E-04   168   0.864E-02    0.406E-02
DAV:  18    -0.368891087575E+02   -0.24363E-02   -0.11438E-04   164   0.523E-02    0.381E-02
DAV:  19    -0.368915553734E+02   -0.24466E-02   -0.78796E-05   176   0.522E-02    0.419E-02
DAV:  20    -0.368945565404E+02   -0.30012E-02   -0.98535E-05   170   0.622E-02    0.309E-02
DAV:  21    -0.368985751336E+02   -0.40186E-02   -0.17146E-04   186   0.468E-02    0.209E-02
DAV:  22    -0.369030057533E+02   -0.44306E-02   -0.19465E-04   194   0.491E-02    0.283E-02
DAV:  23    -0.369062935637E+02   -0.32878E-02   -0.12110E-04   182   0.540E-02    0.205E-02
DAV:  24    -0.369082793057E+02   -0.19857E-02   -0.82989E-05   186   0.385E-02    0.120E-02
DAV:  25    -0.369110449629E+02   -0.27657E-02   -0.12506E-04   186   0.342E-02    0.131E-02
DAV:  26    -0.369124229200E+02   -0.13780E-02   -0.48830E-05   188   0.332E-02    0.988E-03
DAV:  27    -0.369132788817E+02   -0.85596E-03   -0.25674E-05   170   0.242E-02    0.733E-03
DAV:  28    -0.369140570133E+02   -0.77813E-03   -0.19667E-05   188   0.161E-02    0.552E-03
DAV:  29    -0.369147314001E+02   -0.67439E-03   -0.11996E-05   170   0.141E-02    0.477E-03
DAV:  30    -0.369152837625E+02   -0.55236E-03   -0.78439E-06   182   0.983E-03    0.418E-03
DAV:  31    -0.369157720461E+02   -0.48828E-03   -0.64056E-06   180   0.838E-03    0.255E-03
DAV:  32    -0.369160377518E+02   -0.26571E-03   -0.26811E-06   176   0.662E-03    0.210E-03
DAV:  33    -0.369162646016E+02   -0.22685E-03   -0.19983E-06   176   0.518E-03    0.180E-03
DAV:  34    -0.369164202670E+02   -0.15567E-03   -0.12017E-06   176   0.428E-03    0.118E-03
DAV:  35    -0.369165389599E+02   -0.11869E-03   -0.89553E-07   176   0.318E-03    0.833E-04
DAV:  36    -0.369165963720E+02   -0.57412E-04   -0.49572E-07   176   0.271E-03
  42 F= -.36916596E+02 E0= -.36904692E+02  d E =-.232614E-01  mag=     6.7782
       N       E                     dE             d eps       ncg     rms          rms(c)
DAV:   1    -0.367991823145E+02    0.11736E+00   -0.73671E+01   264   0.311E+01    0.283E+00
DAV:   2    -0.373209908897E+02   -0.52181E+00   -0.30156E+00   380   0.228E+01    0.117E+01
DAV:   3    -0.369200482380E+02    0.40094E+00   -0.10846E+00   332   0.226E+01    0.518E+00
DAV:   4    -0.369736233009E+02   -0.53575E-01   -0.60724E-01   406   0.120E+01    0.588E+00
DAV:   5    -0.369151725579E+02    0.58451E-01   -0.41863E-01   356   0.839E+00    0.271E+00
DAV:   6    -0.369237571052E+02   -0.85845E-02   -0.12279E-01   372   0.502E+00    0.228E+00
DAV:   7    -0.369184937488E+02    0.52634E-02   -0.38329E-02   356   0.318E+00    0.906E-01
DAV:   8    -0.369175780999E+02    0.91565E-03   -0.17713E-02   358   0.258E+00    0.109E+00
DAV:   9    -0.369149196457E+02    0.26585E-02   -0.17567E-02   334   0.261E+00    0.798E-01
DAV:  10    -0.369164616718E+02   -0.15420E-02   -0.16148E-02   348   0.181E+00    0.847E-01
DAV:  11    -0.369159998226E+02    0.46185E-03   -0.97787E-03   342   0.167E+00    0.678E-01
DAV:  12    -0.369154526170E+02    0.54721E-03   -0.30601E-03   358   0.867E-01    0.151E-01
DAV:  13    -0.369170074025E+02   -0.15548E-02   -0.10454E-03   272   0.349E-01    0.140E-01
DAV:  14    -0.369183860702E+02   -0.13787E-02   -0.41574E-04   184   0.252E-01    0.547E-02
DAV:  15    -0.369202773345E+02   -0.18913E-02   -0.10460E-04   168   0.107E-01    0.668E-02
DAV:  16    -0.369224672501E+02   -0.21899E-02   -0.11219E-04   184   0.131E-01    0.426E-02
DAV:  17    -0.369245179533E+02   -0.20507E-02   -0.85641E-05   168   0.634E-02    0.244E-02
DAV:  18    -0.369263984096E+02   -0.18805E-02   -0.69291E-05   182   0.431E-02    0.287E-02
DAV:  19    -0.369283670858E+02   -0.19687E-02   -0.52817E-05   174   0.468E-02    0.180E-02
DAV:  20    -0.369307717192E+02   -0.24046E-02   -0.79662E-05   188   0.277E-02    0.153E-02
DAV:  21    -0.369332715718E+02   -0.24999E-02   -0.79148E-05   196   0.264E-02    0.138E-02
DAV:  22    -0.369355117773E+02   -0.22402E-02   -0.59760E-05   188   0.291E-02    0.126E-02
DAV:  23    -0.369374276528E+02   -0.19159E-02   -0.65889E-05   196   0.300E-02    0.105E-02
DAV:  24    -0.369386510136E+02   -0.12234E-02   -0.43759E-05   180   0.238E-02    0.697E-03
DAV:  25    -0.369397493978E+02   -0.10984E-02   -0.44920E-05   196   0.196E-02    0.653E-03
DAV:  26    -0.369404647910E+02   -0.71539E-03   -0.22718E-05   190   0.175E-02    0.462E-03
DAV:  27    -0.369409144886E+02   -0.44970E-03   -0.16183E-05   180   0.140E-02    0.313E-03
DAV:  28    -0.369412753239E+02   -0.36084E-03   -0.98221E-06   176   0.107E-02    0.303E-03
DAV:  29    -0.369415503674E+02   -0.27504E-03   -0.59870E-06   172   0.862E-03    0.186E-03
DAV:  30    -0.369417120815E+02   -0.16171E-03   -0.30273E-06   168   0.654E-03    0.147E-03
DAV:  31    -0.369418747600E+02   -0.16268E-03   -0.21718E-06   164   0.486E-03    0.101E-03
DAV:  32    -0.369419851350E+02   -0.11038E-03   -0.13303E-06   168   0.385E-03    0.756E-04
DAV:  33    -0.369420801220E+02   -0.94987E-04   -0.11073E-06   168   0.311E-03
  43 F= -.36942080E+02 E0= -.36935835E+02  d E =-.487452E-01  mag=     6.5404
       N       E                     dE             d eps       ncg     rms          rms(c)
DAV:   1    -0.369547935044E+02   -0.12808E-01   -0.34763E+00   264   0.674E+00    0.621E-01
DAV:   2    -0.369866206582E+02   -0.31827E-01   -0.17858E-01   388   0.493E+00    0.403E+00
DAV:   3    -0.369486524713E+02    0.37968E-01   -0.16600E-01   332   0.511E+00    0.101E+00
DAV:   4    -0.369627211616E+02   -0.14069E-01   -0.37083E-02   396   0.282E+00    0.137E+00
DAV:   5    -0.369575145162E+02    0.52066E-02   -0.17527E-02   364   0.206E+00    0.324E-01
DAV:   6    -0.369591394830E+02   -0.16250E-02   -0.31184E-03   350   0.815E-01    0.437E-01
DAV:   7    -0.369587787186E+02    0.36076E-03   -0.22126E-03   332   0.680E-01    0.158E-01
DAV:   8    -0.369590525179E+02   -0.27380E-03   -0.59805E-04   262   0.404E-01    0.219E-01
DAV:   9    -0.369587314003E+02    0.32112E-03   -0.44423E-04   222   0.370E-01    0.181E-01
DAV:  10    -0.369587358495E+02   -0.44492E-05   -0.46131E-04   184   0.358E-01
  44 F= -.36958736E+02 E0= -.36951534E+02  d E =-.166557E-01  mag=     6.5508
       N       E                     dE             d eps       ncg     rms          rms(c)
DAV:   1    -0.369506765324E+02    0.80549E-02   -0.31415E+01   264   0.204E+01    0.188E+00
DAV:   2    -0.372681921059E+02   -0.31752E+00   -0.18666E+00   396   0.145E+01    0.127E+01
DAV:   3    -0.369311793004E+02    0.33701E+00   -0.18171E+00   340   0.151E+01    0.244E+00
DAV:   4    -0.370196444752E+02   -0.88465E-01   -0.22905E-01   388   0.674E+00    0.323E+00
DAV:   5    -0.369919256484E+02    0.27719E-01   -0.11956E-01   340   0.572E+00    0.127E+00
DAV:   6    -0.369956245842E+02   -0.36989E-02   -0.26947E-02   364   0.257E+00    0.126E+00
DAV:   7    -0.369939243364E+02    0.17002E-02   -0.25844E-02   356   0.233E+00    0.778E-01
DAV:   8    -0.369949198060E+02   -0.99547E-03   -0.76900E-03   348   0.150E+00    0.713E-01
DAV:   9    -0.369943314707E+02    0.58834E-03   -0.48869E-03   350   0.144E+00    0.709E-01
DAV:  10    -0.369926470001E+02    0.16845E-02   -0.56631E-03   358   0.133E+00    0.294E-01
DAV:  11    -0.369935725133E+02   -0.92551E-03   -0.41994E-03   364   0.955E-01    0.652E-01
DAV:  12    -0.369924166587E+02    0.11559E-02   -0.28219E-03   320   0.893E-01    0.262E-01
DAV:  13    -0.369922113351E+02    0.20532E-03   -0.70079E-04   194   0.366E-01    0.131E-01
DAV:  14    -0.369923536656E+02   -0.14233E-03   -0.29863E-04   168   0.235E-01    0.639E-02
DAV:  15    -0.369927275179E+02   -0.37385E-03   -0.86571E-05   168   0.829E-02    0.453E-02
DAV:  16    -0.369932186291E+02   -0.49111E-03   -0.45743E-05   168   0.533E-02    0.265E-02
DAV:  17    -0.369938329528E+02   -0.61432E-03   -0.29700E-05   176   0.348E-02    0.218E-02
DAV:  18    -0.369946746824E+02   -0.84173E-03   -0.30361E-05   170   0.388E-02    0.228E-02
DAV:  19    -0.369954914174E+02   -0.81674E-03   -0.28386E-05   176   0.347E-02    0.159E-02
DAV:  20    -0.369962511549E+02   -0.75974E-03   -0.26054E-05   170   0.215E-02    0.141E-02
DAV:  21    -0.369973293155E+02   -0.10782E-02   -0.31481E-05   174   0.205E-02    0.105E-02
DAV:  22    -0.369984939928E+02   -0.11647E-02   -0.37725E-05   178   0.160E-02    0.997E-03
DAV:  23    -0.369995326933E+02   -0.10387E-02   -0.27876E-05   178   0.181E-02    0.867E-03
DAV:  24    -0.370006169637E+02   -0.10843E-02   -0.38447E-05   178   0.211E-02    0.842E-03
DAV:  25    -0.370013943822E+02   -0.77742E-03   -0.33328E-05   186   0.206E-02    0.553E-03
[...]
DAV:  10    -0.378385055702E+02   -0.60219E-03   -0.28850E-03   356   0.761E-01    0.257E-01
DAV:  11    -0.378391011494E+02   -0.59558E-03   -0.10973E-03   260   0.526E-01    0.275E-01
DAV:  12    -0.378389388271E+02    0.16232E-03   -0.65565E-04   228   0.480E-01    0.103E-01
DAV:  13    -0.378391625329E+02   -0.22371E-03   -0.12237E-04   188   0.163E-01    0.551E-02
DAV:  14    -0.378393031100E+02   -0.14058E-03   -0.51352E-05   190   0.100E-01    0.157E-02
DAV:  15    -0.378394155304E+02   -0.11242E-03   -0.22465E-05   182   0.276E-02    0.110E-02
DAV:  16    -0.378395129885E+02   -0.97458E-04   -0.79651E-06   172   0.192E-02
  79 F= -.37839513E+02 E0= -.37849039E+02  d E =-.444543E-01  mag=     8.0513
       N       E                     dE             d eps       ncg     rms          rms(c)
DAV:   1    -0.378351865991E+02    0.42289E-02   -0.11675E+01   264   0.126E+01    0.111E+00
DAV:   2    -0.378766786652E+02   -0.41492E-01   -0.26288E-01   396   0.612E+00    0.400E+00
DAV:   3    -0.378498361903E+02    0.26842E-01   -0.24381E-01   324   0.744E+00    0.240E+00
DAV:   4    -0.378607636330E+02   -0.10927E-01   -0.91995E-02   364   0.453E+00    0.193E+00
DAV:   5    -0.378541316423E+02    0.66320E-02   -0.36996E-02   348   0.339E+00    0.744E-01
DAV:   6    -0.378554063758E+02   -0.12747E-02   -0.70501E-03   346   0.155E+00    0.362E-01
DAV:   7    -0.378575603011E+02   -0.21539E-02   -0.10502E-02   374   0.141E+00    0.940E-01
DAV:   8    -0.378558143127E+02    0.17460E-02   -0.60551E-03   348   0.126E+00    0.407E-01
DAV:   9    -0.378565642713E+02   -0.74996E-03   -0.27423E-03   338   0.988E-01    0.335E-01
DAV:  10    -0.378567255987E+02   -0.16133E-03   -0.16349E-03   324   0.684E-01    0.222E-01
DAV:  11    -0.378569335619E+02   -0.20796E-03   -0.11165E-03   266   0.594E-01    0.187E-01
DAV:  12    -0.378569268174E+02    0.67445E-05   -0.28612E-04   188   0.291E-01
  80 F= -.37856927E+02 E0= -.37865928E+02  d E =-.174138E-01  mag=     8.0570
       N       E                     dE             d eps       ncg     rms          rms(c)
DAV:   1    -0.378120915896E+02    0.44842E-01   -0.23760E+01   264   0.180E+01    0.159E+00
DAV:   2    -0.379044673476E+02   -0.92376E-01   -0.56179E-01   388   0.885E+00    0.588E+00
DAV:   3    -0.378468514464E+02    0.57616E-01   -0.53635E-01   332   0.107E+01    0.349E+00
DAV:   4    -0.378664740034E+02   -0.19623E-01   -0.18645E-01   364   0.647E+00    0.281E+00
DAV:   5    -0.378534483490E+02    0.13026E-01   -0.80906E-02   340   0.488E+00    0.122E+00
DAV:   6    -0.378552409381E+02   -0.17926E-02   -0.18904E-02   372   0.237E+00    0.828E-01
DAV:   7    -0.378568327893E+02   -0.15919E-02   -0.21005E-02   372   0.202E+00    0.108E+00
DAV:   8    -0.378561058987E+02    0.72689E-03   -0.84352E-03   372   0.155E+00    0.578E-01
DAV:   9    -0.378565442268E+02   -0.43833E-03   -0.66532E-03   354   0.143E+00    0.419E-01
DAV:  10    -0.378571889950E+02   -0.64477E-03   -0.32220E-03   386   0.938E-01    0.391E-01
DAV:  11    -0.378572942088E+02   -0.10521E-03   -0.25922E-03   316   0.912E-01    0.290E-01
DAV:  12    -0.378573314882E+02   -0.37279E-04   -0.60614E-04   196   0.396E-01
  81 F= -.37857331E+02 E0= -.37865257E+02  d E =-.178185E-01  mag=     8.0620
       N       E                     dE             d eps       ncg     rms          rms(c)
DAV:   1    -0.378434616006E+02    0.13833E-01   -0.15833E+01   264   0.147E+01    0.144E+00
DAV:   2    -0.379591383363E+02   -0.11568E+00   -0.42887E-01   396   0.968E+00    0.757E+00
DAV:   3    -0.378385526425E+02    0.12059E+00   -0.50059E-01   332   0.108E+01    0.249E+00
DAV:   4    -0.378872750828E+02   -0.48722E-01   -0.14667E-01   364   0.602E+00    0.281E+00
DAV:   5    -0.378669138753E+02    0.20361E-01   -0.63357E-02   332   0.469E+00    0.781E-01
DAV:   6    -0.378717642197E+02   -0.48503E-02   -0.19845E-02   338   0.203E+00    0.811E-01
DAV:   7    -0.378726326424E+02   -0.86842E-03   -0.16170E-02   342   0.170E+00    0.788E-01
DAV:   8    -0.378733062281E+02   -0.67359E-03   -0.11573E-02   350   0.158E+00    0.733E-01
DAV:   9    -0.378731913877E+02    0.11484E-03   -0.57085E-03   332   0.135E+00    0.490E-01
DAV:  10    -0.378741656696E+02   -0.97428E-03   -0.40837E-03   360   0.114E+00    0.587E-01
DAV:  11    -0.378736765934E+02    0.48908E-03   -0.30244E-03   308   0.107E+00    0.229E-01
DAV:  12    -0.378743661838E+02   -0.68959E-03   -0.41473E-04   206   0.352E-01    0.145E-01
DAV:  13    -0.378744772377E+02   -0.11105E-03   -0.18023E-04   192   0.217E-01    0.496E-02
DAV:  14    -0.378746181337E+02   -0.14090E-03   -0.72969E-05   172   0.981E-02    0.207E-02
DAV:  15    -0.378746848412E+02   -0.66708E-04   -0.25297E-05   176   0.404E-02
  82 F= -.37874685E+02 E0= -.37881702E+02  d E =-.173534E-01  mag=     8.0657
       N       E                     dE             d eps       ncg     rms          rms(c)
DAV:   1    -0.378747344844E+02   -0.11635E-03   -0.17159E-01   264   0.153E+00    0.145E-01
DAV:   2    -0.378752968881E+02   -0.56240E-03   -0.44119E-03   404   0.918E-01    0.653E-01
DAV:   3    -0.378741836522E+02    0.11132E-02   -0.35050E-03   322   0.106E+00    0.283E-01
DAV:   4    -0.378750570558E+02   -0.87340E-03   -0.13000E-03   266   0.612E-01    0.271E-01
DAV:   5    -0.378748964694E+02    0.16059E-03   -0.61968E-04   244   0.473E-01    0.860E-02
DAV:   6    -0.378750404138E+02   -0.14394E-03   -0.19110E-04   172   0.213E-01    0.860E-02
DAV:   7    -0.378750703769E+02   -0.29963E-04   -0.17414E-04   148   0.185E-01
  83 F= -.37875070E+02 E0= -.37882084E+02  d E =-.177389E-01  mag=     8.0664
       N       E                     dE             d eps       ncg     rms          rms(c)
DAV:   1    -0.378728386002E+02    0.22018E-02   -0.54681E+00   264   0.855E+00    0.822E-01
DAV:   2    -0.379115787542E+02   -0.38740E-01   -0.14905E-01   396   0.590E+00    0.427E+00
DAV:   3    -0.378693393618E+02    0.42239E-01   -0.12842E-01   340   0.620E+00    0.143E+00
DAV:   4    -0.378872611716E+02   -0.17922E-01   -0.54937E-02   396   0.359E+00    0.176E+00
DAV:   5    -0.378792790227E+02    0.79821E-02   -0.23559E-02   356   0.287E+00    0.349E-01
DAV:   6    -0.378819615874E+02   -0.26826E-02   -0.50974E-03   362   0.102E+00    0.378E-01
DAV:   7    -0.378818388001E+02    0.12279E-03   -0.33212E-03   350   0.982E-01    0.256E-01
DAV:   8    -0.378822447055E+02   -0.40591E-03   -0.20336E-03   324   0.688E-01    0.354E-01
DAV:   9    -0.378820408664E+02    0.20384E-03   -0.20302E-03   266   0.635E-01    0.330E-01
DAV:  10    -0.378820718137E+02   -0.30947E-04   -0.95136E-04   234   0.479E-01
  84 F= -.37882072E+02 E0= -.37888733E+02  d E =-.700144E-02  mag=     8.0674
       N       E                     dE             d eps       ncg     rms          rms(c)
DAV:   1    -0.378729125490E+02    0.91283E-02   -0.67219E+00   264   0.948E+00    0.918E-01
DAV:   2    -0.379190293485E+02   -0.46117E-01   -0.17931E-01   396   0.649E+00    0.453E+00
DAV:   3    -0.378704685297E+02    0.48561E-01   -0.13497E-01   332   0.693E+00    0.168E+00
DAV:   4    -0.378905606156E+02   -0.20092E-01   -0.73038E-02   388   0.403E+00    0.201E+00
DAV:   5    -0.378807663106E+02    0.97943E-02   -0.31892E-02   348   0.318E+00    0.422E-01
DAV:   6    -0.378843130993E+02   -0.35468E-02   -0.93264E-03   370   0.137E+00    0.579E-01
DAV:   7    -0.378840391080E+02    0.27399E-03   -0.62994E-03   348   0.117E+00    0.517E-01
DAV:   8    -0.378840322435E+02    0.68645E-05   -0.39758E-03   330   0.932E-01    0.371E-01
DAV:   9    -0.378843025110E+02   -0.27027E-03   -0.15788E-03   298   0.644E-01    0.254E-01
DAV:  10    -0.378845046418E+02   -0.20213E-03   -0.87196E-04   260   0.544E-01    0.265E-01
DAV:  11    -0.378844892904E+02    0.15351E-04   -0.58489E-04   220   0.462E-01
  85 F= -.37884489E+02 E0= -.37890888E+02  d E =-.941891E-02  mag=     8.0685
       N       E                     dE             d eps       ncg     rms          rms(c)
DAV:   1    -0.378859102628E+02   -0.14056E-02   -0.19160E+00   264   0.519E+00    0.555E-01
DAV:   2    -0.379083686852E+02   -0.22458E-01   -0.68113E-02   380   0.424E+00    0.350E+00
DAV:   3    -0.378779462487E+02    0.30422E-01   -0.58775E-02   332   0.440E+00    0.727E-01
DAV:   4    -0.378917196041E+02   -0.13773E-01   -0.22209E-02   386   0.242E+00    0.122E+00
DAV:   5    -0.378875230387E+02    0.41966E-02   -0.11281E-02   338   0.189E+00    0.219E-01
DAV:   6    -0.378892353858E+02   -0.17123E-02   -0.23526E-03   346   0.690E-01    0.343E-01
DAV:   7    -0.378893571184E+02   -0.12173E-03   -0.19477E-03   286   0.650E-01    0.356E-01
DAV:   8    -0.378893080626E+02    0.49056E-04   -0.10829E-03   242   0.549E-01    0.262E-01
DAV:   9    -0.378894258833E+02   -0.11782E-03   -0.44318E-04   220   0.393E-01    0.191E-01
DAV:  10    -0.378895165372E+02   -0.90654E-04   -0.30616E-04   178   0.322E-01
  86 F= -.37889517E+02 E0= -.37895918E+02  d E =-.502725E-02  mag=     8.0690
       N       E                     dE             d eps       ncg     rms          rms(c)
DAV:   1    -0.378650932685E+02    0.24333E-01   -0.17327E+01   264   0.157E+01    0.162E+00
DAV:   2    -0.380348558350E+02   -0.16976E+00   -0.56625E-01   388   0.114E+01    0.909E+00
DAV:   3    -0.378526040299E+02    0.18225E+00   -0.42096E-01   332   0.120E+01    0.255E+00
DAV:   4    -0.379205450610E+02   -0.67941E-01   -0.21802E-01   380   0.728E+00    0.364E+00
DAV:   5    -0.378877632467E+02    0.32782E-01   -0.10599E-01   332   0.568E+00    0.821E-01
DAV:   6    -0.378954034667E+02   -0.76402E-02   -0.20668E-02   372   0.217E+00    0.878E-01
DAV:   7    -0.378969429940E+02   -0.15395E-02   -0.18910E-02   348   0.185E+00    0.104E+00
DAV:   8    -0.378960979227E+02    0.84507E-03   -0.12719E-02   324   0.174E+00    0.764E-01
DAV:   9    -0.378962152443E+02   -0.11732E-03   -0.45300E-03   346   0.116E+00    0.483E-01
DAV:  10    -0.378969861843E+02   -0.77094E-03   -0.41094E-03   364   0.106E+00    0.517E-01
DAV:  11    -0.378969295247E+02    0.56660E-04   -0.20696E-03   324   0.849E-01    0.309E-01
DAV:  12    -0.378973344812E+02   -0.40496E-03   -0.45175E-04   222   0.397E-01    0.995E-02
DAV:  13    -0.378976596104E+02   -0.32513E-03   -0.22643E-04   190   0.173E-01    0.986E-02
DAV:  14    -0.378977951441E+02   -0.13553E-03   -0.11186E-04   184   0.164E-01    0.278E-02
DAV:  15    -0.378979367857E+02   -0.14164E-03   -0.31816E-05   182   0.439E-02    0.163E-02
DAV:  16    -0.378980403772E+02   -0.10359E-03   -0.15580E-05   184   0.363E-02    0.168E-02
DAV:  17    -0.378981244181E+02   -0.84041E-04   -0.81841E-06   174   0.276E-02
  87 F= -.37898124E+02 E0= -.37904818E+02  d E =-.136351E-01  mag=     8.0690
       N       E                     dE             d eps       ncg     rms          rms(c)
DAV:   1    -0.378994273803E+02   -0.13870E-02   -0.56370E-01   264   0.273E+00    0.286E-01
DAV:   2    -0.379055922754E+02   -0.61649E-02   -0.23900E-02   388   0.244E+00    0.185E+00
DAV:   3    -0.378958689168E+02    0.97234E-02   -0.20218E-02   332   0.243E+00    0.429E-01
DAV:   4    -0.379006612390E+02   -0.47923E-02   -0.67469E-03   378   0.117E+00    0.608E-01
DAV:   5    -0.378997340866E+02    0.92715E-03   -0.31082E-03   322   0.885E-01    0.132E-01
DAV:   6    -0.379002965473E+02   -0.56246E-03   -0.49186E-04   234   0.415E-01    0.143E-01
DAV:   7    -0.379003484983E+02   -0.51951E-04   -0.29748E-04   184   0.332E-01
  88 F= -.37900348E+02 E0= -.37907302E+02  d E =-.222408E-02  mag=     8.0690
       N       E                     dE             d eps       ncg     rms          rms(c)
DAV:   1    -0.378988800650E+02    0.14165E-02   -0.17167E+00   264   0.477E+00    0.481E-01
DAV:   2    -0.379132636350E+02   -0.14384E-01   -0.62888E-02   396   0.374E+00    0.271E+00
DAV:   3    -0.378944961433E+02    0.18767E-01   -0.52920E-02   332   0.376E+00    0.779E-01
DAV:   4    -0.379031150450E+02   -0.86189E-02   -0.20011E-02   388   0.204E+00    0.105E+00
DAV:   5    -0.379005378858E+02    0.25772E-02   -0.10451E-02   332   0.154E+00    0.346E-01
DAV:   6    -0.379014786353E+02   -0.94075E-03   -0.24204E-03   330   0.855E-01    0.280E-01
DAV:   7    -0.379018271333E+02   -0.34850E-03   -0.23140E-03   274   0.640E-01    0.369E-01
DAV:   8    -0.379016118356E+02    0.21530E-03   -0.13760E-03   250   0.580E-01    0.158E-01
DAV:   9    -0.379020525836E+02   -0.44075E-03   -0.38968E-04   192   0.382E-01    0.202E-01
DAV:  10    -0.379019686218E+02    0.83962E-04   -0.48087E-04   180   0.391E-01
  89 F= -.37901969E+02 E0= -.37909140E+02  d E =-.384420E-02  mag=     8.0690
       N       E                     dE             d eps       ncg     rms          rms(c)
DAV:   1    -0.379023870694E+02   -0.33449E-03   -0.76989E-01   264   0.327E+00    0.346E-01
DAV:   2    -0.379103593009E+02   -0.79722E-02   -0.31191E-02   388   0.285E+00    0.202E+00
DAV:   3    -0.378988564206E+02    0.11503E-01   -0.26338E-02   316   0.286E+00    0.521E-01
DAV:   4    -0.379043012311E+02   -0.54448E-02   -0.11395E-02   402   0.146E+00    0.802E-01
DAV:   5    -0.379028200940E+02    0.14811E-02   -0.51504E-03   322   0.106E+00    0.205E-01
DAV:   6    -0.379035566587E+02   -0.73656E-03   -0.94224E-04   250   0.522E-01    0.193E-01
DAV:   7    -0.379036815688E+02   -0.12491E-03   -0.67078E-04   182   0.376E-01    0.168E-01
DAV:   8    -0.379037802070E+02   -0.98638E-04   -0.42958E-04   188   0.354E-01
  90 F= -.37903780E+02 E0= -.37911104E+02  d E =-.181159E-02  mag=     8.0690
       N       E                     dE             d eps       ncg     rms          rms(c)
DAV:   1    -0.379011914717E+02    0.24901E-02   -0.21001E+00   264   0.538E+00    0.509E-01
DAV:   2    -0.379100717520E+02   -0.88803E-02   -0.48159E-02   396   0.315E+00    0.212E+00
DAV:   3    -0.379000686753E+02    0.10003E-01   -0.42164E-02   308   0.365E+00    0.943E-01
DAV:   4    -0.379073511020E+02   -0.72824E-02   -0.23710E-02   372   0.223E+00    0.140E+00
DAV:   5    -0.379024841315E+02    0.48670E-02   -0.14822E-02   316   0.175E+00    0.225E-01
DAV:   6    -0.379045217416E+02   -0.20376E-02   -0.18115E-03   314   0.735E-01    0.252E-01
DAV:   7    -0.379047917501E+02   -0.27001E-03   -0.14653E-03   300   0.624E-01    0.267E-01
DAV:   8    -0.379050862994E+02   -0.29455E-03   -0.15426E-03   276   0.601E-01    0.332E-01
DAV:   9    -0.379049344807E+02    0.15182E-03   -0.11065E-03   234   0.513E-01    0.220E-01
DAV:  10    -0.379049643899E+02   -0.29909E-04   -0.47851E-04   178   0.352E-01
  91 F= -.37904964E+02 E0= -.37912214E+02  d E =-.299577E-02  mag=     8.0693
       N       E                     dE             d eps       ncg     rms          rms(c)
DAV:   1    -0.379051130461E+02   -0.17857E-03   -0.54293E-01   264   0.277E+00    0.302E-01
DAV:   2    -0.379107344153E+02   -0.56214E-02   -0.25034E-02   388   0.241E+00    0.165E+00
DAV:   3    -0.379029385373E+02    0.77959E-02   -0.19650E-02   316   0.246E+00    0.387E-01
DAV:   4    -0.379068204813E+02   -0.38819E-02   -0.61722E-03   386   0.123E+00    0.765E-01
DAV:   5    -0.379050621450E+02    0.17583E-02   -0.29582E-03   306   0.986E-01    0.168E-01
DAV:   6    -0.379059446734E+02   -0.88253E-03   -0.69005E-04   194   0.350E-01    0.191E-01
DAV:   7    -0.379060293163E+02   -0.84643E-04   -0.39391E-04   180   0.308E-01
  92 F= -.37906029E+02 E0= -.37913123E+02  d E =-.106493E-02  mag=     8.0694
       N       E                     dE             d eps       ncg     rms          rms(c)
DAV:   1    -0.379039978707E+02    0.19468E-02   -0.15071E+00   264   0.459E+00    0.414E-01
DAV:   2    -0.379064837938E+02   -0.24859E-02   -0.24755E-02   396   0.179E+00    0.112E+00
DAV:   3    -0.379064448509E+02    0.38943E-04   -0.26398E-02   292   0.266E+00    0.108E+00
DAV:   4    -0.379069823867E+02   -0.53754E-03   -0.13239E-02   340   0.179E+00    0.915E-01
DAV:   5    -0.379053201112E+02    0.16623E-02   -0.45345E-03   306   0.131E+00    0.250E-01
DAV:   6    -0.379063876479E+02   -0.10675E-02   -0.14478E-03   290   0.625E-01    0.248E-01
DAV:   7    -0.379067469435E+02   -0.35930E-03   -0.17771E-03   260   0.563E-01    0.357E-01
DAV:   8    -0.379064780950E+02    0.26885E-03   -0.13098E-03   252   0.540E-01    0.163E-01
DAV:   9    -0.379068076422E+02   -0.32955E-03   -0.31239E-04   178   0.320E-01    0.121E-01
DAV:  10    -0.379068585265E+02   -0.50884E-04   -0.24451E-04   176   0.273E-01
  93 F= -.37906859E+02 E0= -.37913513E+02  d E =-.189414E-02  mag=     8.0697
       N       E                     dE             d eps       ncg     rms          rms(c)
DAV:   1    -0.379064258269E+02    0.38182E-03   -0.71208E-01   264   0.310E+00    0.334E-01
DAV:   2    -0.379145192413E+02   -0.80934E-02   -0.31550E-02   380   0.286E+00    0.193E+00
DAV:   3    -0.379038710628E+02    0.10648E-01   -0.25942E-02   322   0.279E+00    0.396E-01
DAV:   4    -0.379082783410E+02   -0.44073E-02   -0.99255E-03   394   0.133E+00    0.753E-01
DAV:   5    -0.379068553338E+02    0.14230E-02   -0.56491E-03   314   0.104E+00    0.243E-01
DAV:   6    -0.379073853415E+02   -0.53001E-03   -0.90143E-04   250   0.483E-01    0.160E-01
DAV:   7    -0.379075388009E+02   -0.15346E-03   -0.43743E-04   188   0.344E-01    0.189E-01
DAV:   8    -0.379075444970E+02   -0.56961E-05   -0.37134E-04   180   0.345E-01
  94 F= -.37907544E+02 E0= -.37914280E+02  d E =-.685970E-03  mag=     8.0698
       N       E                     dE             d eps       ncg     rms          rms(c)
DAV:   1    -0.379060955159E+02    0.14433E-02   -0.10812E+00   264   0.382E+00    0.346E-01
DAV:   2    -0.379094702911E+02   -0.33748E-02   -0.22982E-02   396   0.196E+00    0.119E+00
DAV:   3    -0.379063508904E+02    0.31194E-02   -0.19588E-02   290   0.244E+00    0.514E-01
DAV:   4    -0.379079863387E+02   -0.16354E-02   -0.45350E-03   322   0.953E-01    0.434E-01
DAV:   5    -0.379074901667E+02    0.49617E-03   -0.19674E-03   298   0.682E-01    0.200E-01
DAV:   6    -0.379078425932E+02   -0.35243E-03   -0.80633E-04   226   0.458E-01    0.182E-01
DAV:   7    -0.379079929094E+02   -0.15032E-03   -0.79798E-04   228   0.436E-01    0.230E-01
DAV:   8    -0.379079937107E+02   -0.80128E-06   -0.63316E-04   180   0.401E-01
  95 F= -.37907994E+02 E0= -.37914967E+02  d E =-.113518E-02  mag=     8.0698
       N       E                     dE             d eps       ncg     rms          rms(c)
DAV:   1    -0.379078537005E+02    0.13921E-03   -0.22927E-01   264   0.181E+00    0.180E-01
DAV:   2    -0.379089041311E+02   -0.10504E-02   -0.60964E-03   404   0.108E+00    0.765E-01
DAV:   3    -0.379072633130E+02    0.16408E-02   -0.60137E-03   314   0.133E+00    0.346E-01
DAV:   4    -0.379085798878E+02   -0.13166E-02   -0.27443E-03   346   0.761E-01    0.483E-01
DAV:   5    -0.379078824953E+02    0.69739E-03   -0.13915E-03   266   0.602E-01    0.812E-02
DAV:   6    -0.379083304508E+02   -0.44796E-03   -0.31918E-04   162   0.267E-01    0.169E-01
DAV:   7    -0.379083275433E+02    0.29076E-05   -0.26762E-04   172   0.236E-01
  96 F= -.37908328E+02 E0= -.37915105E+02  d E =-.333833E-03  mag=     8.0699
       N       E                     dE             d eps       ncg     rms          rms(c)
DAV:   1    -0.379083536677E+02   -0.23217E-04   -0.78689E-02   264   0.105E+00    0.119E-01
DAV:   2    -0.379092851265E+02   -0.93146E-03   -0.44315E-03   396   0.102E+00    0.666E-01
DAV:   3    -0.379076290113E+02    0.16561E-02   -0.31635E-03   298   0.978E-01    0.804E-02
DAV:   4    -0.379085709624E+02   -0.94195E-03   -0.81964E-04   250   0.396E-01    0.305E-01
DAV:   5    -0.379082452898E+02    0.32567E-03   -0.53478E-04   178   0.353E-01    0.548E-02
DAV:   6    -0.379085047512E+02   -0.25946E-03   -0.90162E-05   170   0.161E-01    0.854E-02
DAV:   7    -0.379085343052E+02   -0.29554E-04   -0.12263E-04   172   0.165E-01
  97 F= -.37908534E+02 E0= -.37915325E+02  d E =-.540594E-03  mag=     8.0698
