<?xml version="1.0" encoding="ISO-8859-1"?>
<modeling>
 <generator>
  <i name="program" type="string">vasp </i>
  <i name="version" type="string">6.1.2  </i>
  <i name="subversion" type="string">22Jul20 (build Aug  2 2021 21:04:21) gamma-only                       parallel </i>
  <i name="platform" type="string">LinuxPGI </i>
  <i name="date" type="string">2021 12 23 </i>
  <i name="time" type="string">02:28:12 </i>
 </generator>
 <incar>
  <i type="int" name="ISPIN">     2</i>
  <i type="int" name="IBRION">     2</i>
  <i type="int" name="NSW">  1000</i>
  <i type="int" name="ISIF">     0</i>
  <i type="int" name="ISYM">     0</i>
  <i name="ENCUT">    400.00000000</i>
  <i type="logical" name="LREAL"> F  </i>
  <i type="int" name="ISMEAR">     1</i>
  <i name="SIGMA">      0.20000000</i>
  <i type="logical" name="LWAVE"> F  </i>
  <i type="logical" name="LCHARG"> F  </i>
  <i type="int" name="KPAR">     1</i>
  <i type="int" name="NCORE">     8</i>
  <i type="string" name="GGA"> PE</i>
  <i type="int" name="ISPIN">     2</i>
 </incar>
 <structure name="primitive_cell" >
  <crystal>
   <varray name="basis" >
    <v>      23.40337035       0.00000000       0.00000000 </v>
    <v>       0.00000000      25.71531747       0.00000000 </v>
    <v>       0.00000000       0.00000000      21.53038177 </v>
   </varray>
   <i name="volume">  12957.52413134 </i>
   <varray name="rec_basis" >
    <v>       0.04272889       0.00000000       0.00000000 </v>
    <v>       0.00000000       0.03888733       0.00000000 </v>
    <v>       0.00000000       0.00000000       0.04644599 </v>
   </varray>
  </crystal>
  <varray name="positions" >
   <v>       0.48751647       0.48227098       0.48175843 </v>
   <v>       0.47642466       0.56697358       0.53172108 </v>
   <v>       0.55661221       0.42771571       0.53309849 </v>
   <v>       0.47715671       0.39082526       0.47243756 </v>
   <v>       0.42125042       0.54291769       0.43476360 </v>
   <v>       0.52623703       0.55878484       0.43005916 </v>
   <v>       0.49781982       0.48760454       0.59658980 </v>
   <v>       0.41861705       0.44809156       0.40888560 </v>
   <v>       0.57495479       0.52432250       0.52617703 </v>
   <v>       0.46035726       0.63037290       0.44886704 </v>
  </varray>
 </structure>
 <varray name="primitive_index" >
  <v type="int" >        1 </v>
  <v type="int" >        2 </v>
  <v type="int" >        3 </v>
  <v type="int" >        4 </v>
  <v type="int" >        5 </v>
  <v type="int" >        6 </v>
  <v type="int" >        7 </v>
  <v type="int" >        8 </v>
  <v type="int" >        9 </v>
  <v type="int" >       10 </v>
 </varray>
 <kpoints>
  <generation param="Gamma">
   <v type="int" name="divisions">       1        1        1 </v>
   <v name="usershift">      0.00000000       0.00000000       0.00000000 </v>
   <v name="genvec1">      1.00000000       0.00000000       0.00000000 </v>
   <v name="genvec2">      0.00000000       1.00000000       0.00000000 </v>
   <v name="genvec3">      0.00000000       0.00000000       1.00000000 </v>
   <v name="shift">      0.00000000       0.00000000       0.00000000 </v>
  </generation>
  <varray name="kpointlist" >
   <v>       0.00000000       0.00000000       0.00000000 </v>
  </varray>
  <varray name="weights" >
   <v>       1.00000000 </v>
  </varray>
 </kpoints>
 <parameters>
  <separator name="general" >
   <i type="string" name="SYSTEM">unknown system</i>
   <i type="logical" name="LCOMPAT"> F  </i>
  </separator>
  <separator name="electronic" >
   <i type="string" name="PREC">normal</i>
   <i name="ENMAX">    400.00000000</i>
   <i name="ENAUG">    544.56500000</i>
   <i name="EDIFF">      0.00010000</i>
   <i type="int" name="IALGO">    38</i>
   <i type="int" name="IWAVPR">    11</i>
   <i type="int" name="NBANDS">    66</i>
   <i type="int" name="NBANDSLOW">    -1</i>
   <i type="int" name="NBANDSHIGH">    -1</i>
   <i name="NELECT">    100.00000000</i>
   <i type="int" name="TURBO">     0</i>
   <i type="int" name="IRESTART">     0</i>
   <i type="int" name="NREBOOT">     0</i>
   <i type="int" name="NMIN">     0</i>
   <i name="EREF">      0.00000000</i>
   <separator name="electronic smearing" >
    <i type="int" name="ISMEAR">     1</i>
    <i name="SIGMA">      0.20000000</i>
    <i name="KSPACING">      0.50000000</i>
    <i type="logical" name="KGAMMA"> T  </i>
    <i type="logical" name="KBLOWUP"> T  </i>
   </separator>
   <separator name="electronic projectors" >
    <i type="logical" name="LREAL"> F  </i>
    <v name="ROPT">      0.00000000      0.00000000</v>
    <i type="int" name="LMAXPAW">  -100</i>
    <i type="int" name="LMAXMIX">     2</i>
    <i type="logical" name="NLSPLINE"> F  </i>
   </separator>
   <separator name="electronic startup" >
    <i type="int" name="ISTART">     0</i>
    <i type="int" name="ICHARG">     2</i>
    <i type="int" name="INIWAV">     1</i>
   </separator>
   <separator name="electronic spin" >
    <i type="int" name="ISPIN">     2</i>
    <i type="logical" name="LNONCOLLINEAR"> F  </i>
    <v name="MAGMOM">      1.00000000      1.00000000      1.00000000      1.00000000      1.00000000      1.00000000      1.00000000      1.00000000      1.00000000      1.00000000</v>
    <i name="NUPDOWN">     -1.00000000</i>
    <i type="logical" name="LSORBIT"> F  </i>
    <v name="SAXIS">      0.00000000      0.00000000      1.00000000</v>
    <i type="logical" name="LSPIRAL"> F  </i>
    <v name="QSPIRAL">      0.00000000      0.00000000      0.00000000</v>
    <i type="logical" name="LZEROZ"> F  </i>
   </separator>
   <separator name="electronic exchange-correlation" >
    <i type="logical" name="LASPH"> F  </i>
    <i type="logical" name="LMETAGGA"> F  </i>
   </separator>
   <separator name="electronic convergence" >
    <i type="int" name="NELM">    60</i>
    <i type="int" name="NELMDL">     0</i>
    <i type="int" name="NELMIN">     2</i>
    <i name="ENINI">    400.00000000</i>
    <separator name="electronic convergence detail" >
     <i type="logical" name="LDIAG"> T  </i>
     <i type="logical" name="LSUBROT"> F  </i>
     <i name="WEIMIN">      0.00100000</i>
     <i name="EBREAK">      0.00000038</i>
     <i name="DEPER">      0.30000000</i>
     <i type="int" name="NRMM">     4</i>
     <i name="TIME">      0.40000000</i>
    </separator>
   </separator>
   <separator name="electronic mixer" >
    <i name="AMIX">      0.40000000</i>
    <i name="BMIX">      1.00000000</i>
    <i name="AMIN">      0.10000000</i>
    <i name="AMIX_MAG">      1.60000000</i>
    <i name="BMIX_MAG">      1.00000000</i>
    <separator name="electronic mixer details" >
     <i type="int" name="IMIX">     4</i>
     <i type="logical" name="MIXFIRST"> F  </i>
     <i type="int" name="MAXMIX">   -45</i>
     <i name="WC">    100.00000000</i>
     <i type="int" name="INIMIX">     1</i>
     <i type="int" name="MIXPRE">     1</i>
     <i type="int" name="MREMOVE">     5</i>
    </separator>
   </separator>
   <separator name="electronic dipolcorrection" >
    <i type="logical" name="LDIPOL"> F  </i>
    <i type="logical" name="LMONO"> F  </i>
    <i type="int" name="IDIPOL">     0</i>
    <i name="EPSILON">      1.00000000</i>
    <v name="DIPOL">   -100.00000000   -100.00000000   -100.00000000</v>
    <i name="EFIELD">      0.00000000</i>
   </separator>
  </separator>
  <separator name="grids" >
   <i type="int" name="NGX">   120</i>
   <i type="int" name="NGY">   126</i>
   <i type="int" name="NGZ">   108</i>
   <i type="int" name="NGXF">   240</i>
   <i type="int" name="NGYF">   252</i>
   <i type="int" name="NGZF">   216</i>
   <i type="logical" name="ADDGRID"> F  </i>
  </separator>
  <separator name="ionic" >
   <i type="int" name="NSW">  1000</i>
   <i type="int" name="IBRION">     2</i>
   <i type="int" name="MDALGO">     0</i>
   <i type="int" name="ISIF">     0</i>
   <i name="PSTRESS">      0.00000000</i>
   <i name="EDIFFG">      0.00100000</i>
   <i type="int" name="NFREE">     1</i>
   <i name="POTIM">      0.50000000</i>
   <i name="SMASS">     -3.00000000</i>
   <i name="SCALEE">      1.00000000</i>
  </separator>
  <separator name="ionic md" >
   <i name="TEBEG">      0.00010000</i>
   <i name="TEEND">      0.00010000</i>
   <i type="int" name="NBLOCK">     1</i>
   <i type="int" name="KBLOCK">  1000</i>
   <i type="int" name="NPACO">   256</i>
   <i name="APACO">     16.00000000</i>
  </separator>
  <separator name="symmetry" >
   <i type="int" name="ISYM">     0</i>
   <i name="SYMPREC">      0.00001000</i>
  </separator>
  <separator name="dos" >
   <i type="int" name="LORBIT">     0</i>
   <v name="RWIGS">     -1.00000000     -1.00000000</v>
   <i type="int" name="NEDOS">   301</i>
   <i name="EMIN">     10.00000000</i>
   <i name="EMAX">    -10.00000000</i>
   <i name="EFERMI">      0.00000000</i>
  </separator>
  <separator name="writing" >
   <i type="int" name="NWRITE">     2</i>
   <i type="logical" name="LWAVE"> F  </i>
   <i type="logical" name="LDOWNSAMPLE"> F  </i>
   <i type="logical" name="LCHARG"> F  </i>
   <i type="logical" name="LPARD"> F  </i>
   <i type="logical" name="LVTOT"> F  </i>
   <i type="logical" name="LVHAR"> F  </i>
   <i type="logical" name="LELF"> F  </i>
   <i type="logical" name="LOPTICS"> F  </i>
   <v name="STM">      0.00000000      0.00000000      0.00000000      0.00000000      0.00000000      0.00000000      0.00000000</v>
  </separator>
  <separator name="performance" >
   <i type="int" name="NPAR">     2</i>
   <i type="int" name="NSIM">     4</i>
   <i type="int" name="NBLK">    -1</i>
   <i type="logical" name="LPLANE"> T  </i>
   <i type="logical" name="LSCALAPACK"> T  </i>
   <i type="logical" name="LSCAAWARE"> F  </i>
   <i type="logical" name="LSCALU"> F  </i>
   <i type="logical" name="LASYNC"> F  </i>
   <i type="logical" name="LORBITALREAL"> F  </i>
  </separator>
  <separator name="miscellaneous" >
   <i type="int" name="IDIOT">     3</i>
   <i type="int" name="PHON_NSTRUCT">    -1</i>
   <i type="logical" name="LMUSIC"> F  </i>
   <v name="POMASS">     58.69000000    106.42000000</v>
   <v name="DARWINR">      0.00000000      0.00000000</v>
   <v name="DARWINV">      1.00000000      1.00000000</v>
   <i type="logical" name="LCORR"> T  </i>
  </separator>
  <i type="logical" name="GGA_COMPAT"> T  </i>
  <i type="logical" name="LBERRY"> F  </i>
  <i type="int" name="ICORELEVEL">     0</i>
  <i type="logical" name="LDAU"> F  </i>
  <i type="int" name="I_CONSTRAINED_M">     0</i>
  <separator name="electronic exchange-correlation" >
   <i type="string" name="GGA">PE</i>
   <i type="int" name="VOSKOWN">     0</i>
   <i type="logical" name="LHFCALC"> F  </i>
   <i type="string" name="PRECFOCK"></i>
   <i type="logical" name="LSYMGRAD"> F  </i>
   <i type="logical" name="LHFONE"> F  </i>
   <i type="logical" name="LRHFCALC"> F  </i>
   <i type="logical" name="LTHOMAS"> F  </i>
   <i type="logical" name="LMODELHF"> F  </i>
   <i type="logical" name="LFOCKACE"> F  </i>
   <i name="ENCUT4O">     -1.00000000</i>
   <i type="int" name="EXXOEP">     0</i>
   <i type="int" name="FOURORBIT">     0</i>
   <i name="AEXX">      0.00000000</i>
   <i name="HFALPHA">      0.00000000</i>
   <i name="MCALPHA">      0.00000000</i>
   <i name="ALDAX">      1.00000000</i>
   <i name="AGGAX">      1.00000000</i>
   <i name="ALDAC">      1.00000000</i>
   <i name="AGGAC">      1.00000000</i>
   <i type="int" name="NKREDX">     1</i>
   <i type="int" name="NKREDY">     1</i>
   <i type="int" name="NKREDZ">     1</i>
   <i type="logical" name="SHIFTRED"> F  </i>
   <i type="logical" name="ODDONLY"> F  </i>
   <i type="logical" name="EVENONLY"> F  </i>
   <i type="int" name="LMAXFOCK">     0</i>
   <i type="int" name="NMAXFOCKAE">     0</i>
   <i type="logical" name="LFOCKAEDFT"> F  </i>
   <i name="HFSCREEN">      0.00000000</i>
   <i name="HFSCREENC">      0.00000000</i>
   <i type="int" name="NBANDSGWLOW">     0</i>
  </separator>
  <separator name="vdW DFT" >
   <i type="logical" name="LUSE_VDW"> F  </i>
   <i name="Zab_VDW">     -0.84910000</i>
   <i name="PARAM1">      0.12340000</i>
   <i name="PARAM2">      1.00000000</i>
   <i name="PARAM3">      0.00000000</i>
  </separator>
  <separator name="model GW" >
   <i type="int" name="MODEL_GW">     0</i>
   <i name="MODEL_EPS0">    777.45144788</i>
   <i name="MODEL_ALPHA">      1.00000000</i>
  </separator>
  <separator name="linear response parameters" >
   <i type="logical" name="LEPSILON"> F  </i>
   <i type="logical" name="LRPA"> F  </i>
   <i type="logical" name="LNABLA"> F  </i>
   <i type="logical" name="LVEL"> F  </i>
   <i type="int" name="KINTER">     0</i>
   <i name="CSHIFT">      0.10000000</i>
   <i name="OMEGAMAX">     -1.00000000</i>
   <i name="DEG_THRESHOLD">      0.00200000</i>
   <i name="RTIME">     -0.10000000</i>
   <i name="WPLASMAI">      0.00000000</i>
   <v name="DFIELD">      0.00000000      0.00000000      0.00000000</v>
   <v name="WPLASMA">      0.00000000      0.00000000      0.00000000      0.00000000      0.00000000      0.00000000      0.00000000      0.00000000      0.00000000</v>
  </separator>
  <separator name="orbital magnetization" >
   <i type="logical" name="NUCIND"> F  </i>
   <v name="MAGPOS">      0.00000000      0.00000000      0.00000000</v>
   <i type="logical" name="LNICSALL"> T  </i>
   <i type="logical" name="ORBITALMAG"> F  </i>
   <i type="logical" name="LMAGBLOCH"> F  </i>
   <i type="logical" name="LCHIMAG"> F  </i>
   <i type="logical" name="LGAUGE"> T  </i>
   <i type="int" name="MAGATOM">     0</i>
   <v name="MAGDIPOL">      0.00000000      0.00000000      0.00000000</v>
   <v name="AVECCONST">      0.00000000      0.00000000      0.00000000</v>
  </separator>
  <separator name="response functions" >
   <i type="logical" name="LFINITE_TEMPERATURE"> F  </i>
   <i type="logical" name="LADDER"> F  </i>
   <i type="logical" name="LRPAFORCE"> F  </i>
   <i type="logical" name="LFXC"> F  </i>
   <i type="logical" name="LHARTREE"> T  </i>
   <i type="int" name="IBSE">     0</i>
   <v type="int" name="KPOINT">    -1     0     0     0</v>
   <i type="logical" name="LTCTC"> F  </i>
   <i type="logical" name="LTCTE"> F  </i>
   <i type="logical" name="LTETE"> F  </i>
   <i type="logical" name="LTRIPLET"> F  </i>
   <i type="logical" name="LFXCEPS"> F  </i>
   <i type="logical" name="LFXHEG"> F  </i>
   <i type="int" name="NATURALO">     2</i>
   <i type="logical" name="LHOLEGF"> F  </i>
   <i type="logical" name="L2ORDER"> F  </i>
   <i type="logical" name="LDMP1"> F  </i>
   <i type="logical" name="LMP2LT"> F  </i>
   <i type="logical" name="LSMP2LT"> F  </i>
   <i type="logical" name="LGWLF"> F  </i>
   <i name="ENCUTGW">     -2.00000000</i>
   <i name="ENCUTGWSOFT">     -2.00000000</i>
   <i name="ENCUTLF">     -1.00000000</i>
   <i type="logical" name="LESF_SPLINES"> F  </i>
   <i type="int" name="LMAXMP2">    -1</i>
   <i name="SCISSOR">      0.00000000</i>
   <i type="int" name="NOMEGA">     0</i>
   <i type="int" name="NOMEGAR">     0</i>
   <i type="int" name="NBANDSGW">    -1</i>
   <i type="int" name="NBANDSO">    -1</i>
   <i type="int" name="NBANDSV">    -1</i>
   <i type="int" name="NELM">     1</i>
   <i type="int" name="NELMHF">     1</i>
   <i type="int" name="DIM">     3</i>
   <i type="int" name="IESPILON">     4</i>
   <i type="int" name="ANTIRES">     0</i>
   <i name="OMEGAMAX">    -30.00000000</i>
   <i name="OMEGAMIN">    -30.00000000</i>
   <i name="OMEGATL">   -200.00000000</i>
   <i type="int" name="OMEGAGRID">     0</i>
   <i name="CSHIFT">     -0.10000000</i>
   <i type="logical" name="LSELFENERGY"> F  </i>
   <i type="logical" name="LSPECTRAL"> F  </i>
   <i type="logical" name="LSPECTRALGW"> F  </i>
   <i type="logical" name="LSINGLES"> F  </i>
   <i type="logical" name="LFERMIGW"> F  </i>
   <i type="logical" name="ODDONLYGW"> F  </i>
   <i type="logical" name="EVENONLYGW"> F  </i>
   <i type="int" name="NKREDLFX">     1</i>
   <i type="int" name="NKREDLFY">     1</i>
   <i type="int" name="NKREDLFZ">     1</i>
   <i type="int" name="MAXMEM">  2800</i>
   <i type="int" name="TELESCOPE">     0</i>
   <i type="int" name="NTAUPAR">    -1</i>
   <i type="int" name="NOMEGAPAR">    -1</i>
   <i name="LAMBDA">      1.00000000</i>
  </separator>
  <separator name="External order field" >
   <i name="OFIELD_KAPPA">      0.00000000</i>
   <v name="OFIELD_K">      0.00000000      0.00000000      0.00000000</v>
   <i name="OFIELD_Q6_NEAR">      0.00000000</i>
   <i name="OFIELD_Q6_FAR">      0.00000000</i>
   <i name="OFIELD_A">      0.00000000</i>
  </separator>
 </parameters>
 <atominfo>
  <atoms>      10 </atoms>
  <types>       2 </types>
  <array name="atoms" >
   <dimension dim="1">ion</dimension>
   <field type="string">element</field>
   <field type="int">atomtype</field>
   <set>
    <rc><c>Ni</c><c>   1</c></rc>
    <rc><c>Ni</c><c>   1</c></rc>
    <rc><c>Ni</c><c>   1</c></rc>
    <rc><c>Ni</c><c>   1</c></rc>
    <rc><c>Ni</c><c>   1</c></rc>
    <rc><c>Ni</c><c>   1</c></rc>
    <rc><c>Pd</c><c>   2</c></rc>
    <rc><c>Pd</c><c>   2</c></rc>
    <rc><c>Pd</c><c>   2</c></rc>
    <rc><c>Pd</c><c>   2</c></rc>
   </set>
  </array>
  <array name="atomtypes" >
   <dimension dim="1">type</dimension>
   <field type="int">atomspertype</field>
   <field type="string">element</field>
   <field>mass</field>
   <field>valence</field>
   <field type="string">pseudopotential</field>
   <set>
    <rc><c>   6</c><c>Ni</c><c>     58.69000000</c><c>     10.00000000</c><c>  PAW_PBE Ni 02Aug2007                  </c></rc>
    <rc><c>   4</c><c>Pd</c><c>    106.42000000</c><c>     10.00000000</c><c>  PAW_PBE Pd 04Jan2005                  </c></rc>
   </set>
  </array>
 </atominfo>
 <structure name="initialpos" >
  <crystal>
   <varray name="basis" >
    <v>      23.40337035       0.00000000       0.00000000 </v>
    <v>       0.00000000      25.71531747       0.00000000 </v>
    <v>       0.00000000       0.00000000      21.53038177 </v>
   </varray>
   <i name="volume">  12957.52413134 </i>
   <varray name="rec_basis" >
    <v>       0.04272889       0.00000000       0.00000000 </v>
    <v>       0.00000000       0.03888733       0.00000000 </v>
    <v>       0.00000000       0.00000000       0.04644599 </v>
   </varray>
  </crystal>
  <varray name="positions" >
   <v>       0.48751647       0.48227098       0.48175843 </v>
   <v>       0.47642466       0.56697358       0.53172108 </v>
   <v>       0.55661221       0.42771571       0.53309849 </v>
   <v>       0.47715671       0.39082526       0.47243756 </v>
   <v>       0.42125042       0.54291769       0.43476360 </v>
   <v>       0.52623703       0.55878484       0.43005916 </v>
   <v>       0.49781982       0.48760454       0.59658980 </v>
   <v>       0.41861705       0.44809156       0.40888560 </v>
   <v>       0.57495479       0.52432250       0.52617703 </v>
   <v>       0.46035726       0.63037290       0.44886704 </v>
  </varray>
 </structure>
 <calculation>
  <scstep>
   <time name="dav">   11.43   11.46</time>
   <time name="total">   17.04   17.08</time>
   <energy>
    <i name="alphaZ">      4.37349991 </i>
    <i name="ewald">  12079.46748989 </i>
    <i name="hartreedc"> -21065.56616956 </i>
    <i name="XCdc">     61.87223431 </i>
    <i name="pawpsdc">   9003.59075477 </i>
    <i name="pawaedc">  -9155.75339974 </i>
    <i name="eentropy">      0.00215522 </i>
    <i name="bandstr">     88.92871215 </i>
    <i name="atom">   9704.95859309 </i>
    <i name="e_fr_energy">    721.87387003 </i>
    <i name="e_wo_entrp">    721.87171481 </i>
    <i name="e_0_energy">    721.87315163 </i>
   </energy>
  </scstep>
  <scstep>
   <time name="dav">   25.79   25.87</time>
   <time name="total">   26.12   26.19</time>
   <energy>
    <i name="e_fr_energy">    260.87811743 </i>
    <i name="e_wo_entrp">    260.85476951 </i>
    <i name="e_0_energy">    260.87033479 </i>
   </energy>
  </scstep>
  <scstep>
   <time name="dav">   14.44   14.47</time>
   <time name="total">   14.44   14.47</time>
   <energy>
    <i name="e_fr_energy">     25.15465048 </i>
    <i name="e_wo_entrp">     25.19426885 </i>
    <i name="e_0_energy">     25.16785660 </i>
   </energy>
  </scstep>
  <scstep>
   <time name="dav">   13.85   14.52</time>
   <time name="total">   13.86   14.53</time>
   <energy>
    <i name="e_fr_energy">    -34.87466792 </i>
    <i name="e_wo_entrp">    -34.81264981 </i>
    <i name="e_0_energy">    -34.85399522 </i>
   </energy>
  </scstep>
  <scstep>
   <time name="dav">   12.42   13.85</time>
   <time name="total">   13.80   15.24</time>
   <energy>
    <i name="e_fr_energy">    -42.09666074 </i>
    <i name="e_wo_entrp">    -42.07225911 </i>
    <i name="e_0_energy">    -42.08852686 </i>
   </energy>
  </scstep>
  <scstep>
   <time name="dav">    8.14    8.17</time>
   <time name="total">   14.65   14.69</time>
   <energy>
    <i name="e_fr_energy">    -58.54209527 </i>
    <i name="e_wo_entrp">    -58.55001039 </i>
    <i name="e_0_energy">    -58.54473364 </i>
   </energy>
  </scstep>
  <scstep>
   <time name="dav">   10.48   10.50</time>
   <time name="total">   18.75   18.77</time>
   <energy>
    <i name="e_fr_energy">    -40.29701436 </i>
    <i name="e_wo_entrp">    -40.31782489 </i>
    <i name="e_0_energy">    -40.30395121 </i>
   </energy>
  </scstep>
  <scstep>
   <time name="dav">   10.37   11.44</time>
   <time name="total">   17.91   18.99</time>
   <energy>
    <i name="e_fr_energy">    -37.52950298 </i>
    <i name="e_wo_entrp">    -37.55521328 </i>
    <i name="e_0_energy">    -37.53807308 </i>
   </energy>
  </scstep>
  <scstep>
   <time name="dav">   13.40   13.65</time>
   <time name="total">   18.15   19.23</time>
   <energy>
    <i name="e_fr_energy">    -38.13054159 </i>
    <i name="e_wo_entrp">    -38.12674934 </i>
    <i name="e_0_energy">    -38.12927750 </i>
   </energy>
  </scstep>
  <scstep>
   <time name="dav">   13.34   13.36</time>
   <time name="total">   17.37   17.39</time>
   <energy>
    <i name="e_fr_energy">    -35.35836522 </i>
    <i name="e_wo_entrp">    -35.36192049 </i>
    <i name="e_0_energy">    -35.35955031 </i>
   </energy>
  </scstep>
  <scstep>
   <time name="dav">   13.93   16.04</time>
   <time name="total">   17.90   20.09</time>
   <energy>
    <i name="e_fr_energy">    -35.45782266 </i>
    <i name="e_wo_entrp">    -35.53016171 </i>
    <i name="e_0_energy">    -35.48193567 </i>
   </energy>
  </scstep>
  <scstep>
   <time name="dav">   15.03   15.04</time>
   <time name="total">   20.38   20.40</time>
   <energy>
    <i name="e_fr_energy">    -33.01711122 </i>
    <i name="e_wo_entrp">    -33.04179886 </i>
    <i name="e_0_energy">    -33.02534043 </i>
   </energy>
  </scstep>
  <scstep>
   <time name="dav">   14.36   15.31</time>
   <time name="total">   17.80   18.80</time>
   <energy>
    <i name="e_fr_energy">    -32.44676335 </i>
    <i name="e_wo_entrp">    -32.44248200 </i>
    <i name="e_0_energy">    -32.44533623 </i>
   </energy>
  </scstep>
  <scstep>
   <time name="dav">   13.98   14.00</time>
   <time name="total">   19.27   19.29</time>
   <energy>
    <i name="e_fr_energy">    -32.17139504 </i>
    <i name="e_wo_entrp">    -32.08617793 </i>
    <i name="e_0_energy">    -32.14298934 </i>
   </energy>
  </scstep>
  <scstep>
   <time name="dav">    8.45    8.75</time>
   <time name="total">   15.59   15.89</time>
   <energy>
    <i name="e_fr_energy">    -32.79651205 </i>
    <i name="e_wo_entrp">    -32.76095388 </i>
    <i name="e_0_energy">    -32.78465933 </i>
   </energy>
  </scstep>
  <scstep>
   <time name="dav">   13.34   13.36</time>
   <time name="total">   18.12   18.16</time>
   <energy>
    <i name="e_fr_energy">    -32.29321534 </i>
    <i name="e_wo_entrp">    -32.24992664 </i>
    <i name="e_0_energy">    -32.27878577 </i>
   </energy>
  </scstep>
  <scstep>
   <time name="dav">   13.27   13.34</time>
   <time name="total">   18.94   19.02</time>
   <energy>
    <i name="e_fr_energy">    -32.68459798 </i>
    <i name="e_wo_entrp">    -32.66294105 </i>
    <i name="e_0_energy">    -32.67737900 </i>
   </energy>
  </scstep>
  <scstep>
   <time name="dav">   13.18   13.24</time>
   <time name="total">   17.95   18.03</time>
   <energy>
    <i name="e_fr_energy">    -32.73723802 </i>
    <i name="e_wo_entrp">    -32.70954663 </i>
    <i name="e_0_energy">    -32.72800756 </i>
   </energy>
  </scstep>
  <scstep>
   <time name="dav">   15.81   15.85</time>
   <time name="total">   20.74   20.78</time>
   <energy>
    <i name="e_fr_energy">    -33.14973223 </i>
    <i name="e_wo_entrp">    -33.10202889 </i>
    <i name="e_0_energy">    -33.13383111 </i>
   </energy>
  </scstep>
  <scstep>
   <time name="dav">   15.48   15.51</time>
   <time name="total">   19.84   19.89</time>
   <energy>
    <i name="e_fr_energy">    -33.53512708 </i>
    <i name="e_wo_entrp">    -33.50057169 </i>
    <i name="e_0_energy">    -33.52360862 </i>
   </energy>
  </scstep>
  <scstep>
   <time name="dav">   16.08   16.10</time>
   <time name="total">   23.18   23.21</time>
   <energy>
    <i name="e_fr_energy">    -33.85875378 </i>
    <i name="e_wo_entrp">    -33.82742550 </i>
    <i name="e_0_energy">    -33.84831102 </i>
   </energy>
  </scstep>
  <scstep>
   <time name="dav">    9.94    9.99</time>
   <time name="total">   15.49   15.56</time>
   <energy>
    <i name="e_fr_energy">    -34.23086726 </i>
    <i name="e_wo_entrp">    -34.20374656 </i>
    <i name="e_0_energy">    -34.22182703 </i>
   </energy>
  </scstep>
  <scstep>
   <time name="dav">   16.15   16.17</time>
   <time name="total">   19.79   19.82</time>
   <energy>
    <i name="e_fr_energy">    -34.51150565 </i>
    <i name="e_wo_entrp">    -34.48671659 </i>
    <i name="e_0_energy">    -34.50324263 </i>
   </energy>
  </scstep>
  <scstep>
   <time name="dav">   17.81   17.84</time>
   <time name="total">   22.60   22.67</time>
   <energy>
    <i name="e_fr_energy">    -34.71818364 </i>
    <i name="e_wo_entrp">    -34.69490081 </i>
    <i name="e_0_energy">    -34.71042269 </i>
   </energy>
  </scstep>
  <scstep>
   <time name="dav">   10.19   10.23</time>
   <time name="total">   15.69   15.76</time>
   <energy>
    <i name="e_fr_energy">    -34.96125829 </i>
    <i name="e_wo_entrp">    -34.94120152 </i>
    <i name="e_0_energy">    -34.95457270 </i>
   </energy>
  </scstep>
  <scstep>
   <time name="dav">    8.82    8.85</time>
   <time name="total">   12.30   12.38</time>
   <energy>
    <i name="e_fr_energy">    -35.17192484 </i>
    <i name="e_wo_entrp">    -35.15372762 </i>
    <i name="e_0_energy">    -35.16585910 </i>
   </energy>
  </scstep>
  <scstep>
   <time name="dav">    9.95   10.02</time>
   <time name="total">   15.13   15.24</time>
   <energy>
    <i name="e_fr_energy">    -35.33721682 </i>
    <i name="e_wo_entrp">    -35.32222810 </i>
    <i name="e_0_energy">    -35.33222058 </i>
   </energy>
  </scstep>
  <scstep>
   <time name="dav">   12.99   13.00</time>
   <time name="total">   19.97   20.01</time>
   <energy>
    <i name="e_fr_energy">    -35.52844080 </i>
    <i name="e_wo_entrp">    -35.51645304 </i>
    <i name="e_0_energy">    -35.52444488 </i>
   </energy>
  </scstep>
  <scstep>
   <time name="dav">   13.89   13.91</time>
   <time name="total">   20.10   20.12</time>
   <energy>
    <i name="e_fr_energy">    -35.66303169 </i>
    <i name="e_wo_entrp">    -35.65314032 </i>
    <i name="e_0_energy">    -35.65973457 </i>
   </energy>
  </scstep>
  <scstep>
   <time name="dav">    8.40    8.42</time>
   <time name="total">   15.24   15.31</time>
   <energy>
    <i name="e_fr_energy">    -35.80108507 </i>
    <i name="e_wo_entrp">    -35.79302938 </i>
    <i name="e_0_energy">    -35.79839984 </i>
   </energy>
  </scstep>
  <scstep>
   <time name="dav">   12.82   12.83</time>
   <time name="total">   18.22   18.25</time>
   <energy>
    <i name="e_fr_energy">    -35.90295546 </i>
    <i name="e_wo_entrp">    -35.89580009 </i>
    <i name="e_0_energy">    -35.90057034 </i>
   </energy>
  </scstep>
  <scstep>
   <time name="dav">   13.52   13.57</time>
   <time name="total">   17.63   17.69</time>
   <energy>
    <i name="e_fr_energy">    -36.00967845 </i>
    <i name="e_wo_entrp">    -36.00368551 </i>
    <i name="e_0_energy">    -36.00768081 </i>
   </energy>
  </scstep>
  <scstep>
   <time name="dav">    8.37    8.41</time>
   <time name="total">   11.95   12.03</time>
   <energy>
    <i name="e_fr_energy">    -36.08221700 </i>
    <i name="e_wo_entrp">    -36.07690285 </i>
    <i name="e_0_energy">    -36.08044562 </i>
   </energy>
  </scstep>
  <scstep>
   <time name="dav">   14.44   14.48</time>
   <time name="total">   19.36   19.43</time>
   <energy>
    <i name="e_fr_energy">    -36.13811353 </i>
    <i name="e_wo_entrp">    -36.13298915 </i>
    <i name="e_0_energy">    -36.13640540 </i>
   </energy>
  </scstep>
  <scstep>
   <time name="dav">   12.01   12.04</time>
   <time name="total">   17.07   17.11</time>
   <energy>
    <i name="e_fr_energy">    -36.17134411 </i>
    <i name="e_wo_entrp">    -36.16659229 </i>
    <i name="e_0_energy">    -36.16976017 </i>
   </energy>
  </scstep>
  <scstep>
   <time name="dav">   13.81   13.83</time>
   <time name="total">   19.86   19.89</time>
   <energy>
    <i name="e_fr_energy">    -36.19250877 </i>
    <i name="e_wo_entrp">    -36.18789030 </i>
    <i name="e_0_energy">    -36.19096928 </i>
   </energy>
  </scstep>
  <scstep>
   <time name="dav">   15.40   15.41</time>
   <time name="total">   23.02   23.04</time>
   <energy>
    <i name="e_fr_energy">    -36.20759603 </i>
    <i name="e_wo_entrp">    -36.20316507 </i>
    <i name="e_0_energy">    -36.20611904 </i>
   </energy>
  </scstep>
  <scstep>
   <time name="dav">    7.73    7.75</time>
   <time name="total">   12.11   12.14</time>
   <energy>
    <i name="e_fr_energy">    -36.21402928 </i>
    <i name="e_wo_entrp">    -36.20966108 </i>
    <i name="e_0_energy">    -36.21257321 </i>
   </energy>
  </scstep>
  <scstep>
   <time name="dav">    8.95    8.99</time>
   <time name="total">   13.33   13.44</time>
   <energy>
    <i name="e_fr_energy">    -36.21950688 </i>
    <i name="e_wo_entrp">    -36.21517552 </i>
    <i name="e_0_energy">    -36.21806309 </i>
   </energy>
  </scstep>
  <scstep>
   <time name="dav">   10.15   11.58</time>
   <time name="total">   14.80   16.33</time>
   <energy>
    <i name="e_fr_energy">    -36.22638635 </i>
    <i name="e_wo_entrp">    -36.22198871 </i>
    <i name="e_0_energy">    -36.22492047 </i>
   </energy>
  </scstep>
  <scstep>
   <time name="dav">    8.79   10.36</time>
   <time name="total">   13.97   16.91</time>
   <energy>
    <i name="e_fr_energy">    -36.22970824 </i>
    <i name="e_wo_entrp">    -36.22528858 </i>
    <i name="e_0_energy">    -36.22823502 </i>
   </energy>
  </scstep>
  <scstep>
   <time name="dav">    8.20    8.37</time>
   <time name="total">   14.24   15.42</time>
   <energy>
    <i name="e_fr_energy">    -36.23209158 </i>
    <i name="e_wo_entrp">    -36.22768374 </i>
    <i name="e_0_energy">    -36.23062230 </i>
   </energy>
  </scstep>
  <scstep>
   <time name="dav">    6.87    6.90</time>
   <time name="total">   11.51   11.56</time>
   <energy>
    <i name="e_fr_energy">    -36.23382409 </i>
    <i name="e_wo_entrp">    -36.22943117 </i>
    <i name="e_0_energy">    -36.23235978 </i>
   </energy>
  </scstep>
  <scstep>
   <time name="dav">   10.52   10.53</time>
   <time name="total">   17.05   17.08</time>
   <energy>
    <i name="e_fr_energy">    -36.23516394 </i>
    <i name="e_wo_entrp">    -36.23081963 </i>
    <i name="e_0_energy">    -36.23371584 </i>
   </energy>
  </scstep>
  <scstep>
   <time name="dav">   15.12   15.13</time>
   <time name="total">   21.27   21.29</time>
   <energy>
    <i name="e_fr_energy">    -36.23593889 </i>
    <i name="e_wo_entrp">    -36.23160849 </i>
    <i name="e_0_energy">    -36.23449542 </i>
   </energy>
  </scstep>
  <scstep>
   <time name="dav">    8.06    8.08</time>
   <time name="total">   19.12   19.15</time>
   <energy>
    <i name="e_fr_energy">    -36.23642608 </i>
    <i name="e_wo_entrp">    -36.23210771 </i>
    <i name="e_0_energy">    -36.23498662 </i>
   </energy>
  </scstep>
  <scstep>
   <time name="dav">    7.83    7.84</time>
   <time name="total">   13.50   13.52</time>
   <energy>
    <i name="e_fr_energy">    -36.23679037 </i>
    <i name="e_wo_entrp">    -36.23245750 </i>
    <i name="e_0_energy">    -36.23534608 </i>
   </energy>
  </scstep>
  <scstep>
   <time name="dav">   12.43   12.46</time>
   <time name="total">   20.83   20.87</time>
   <energy>
    <i name="e_fr_energy">    -36.23711076 </i>
    <i name="e_wo_entrp">    -36.23278072 </i>
    <i name="e_0_energy">    -36.23566741 </i>
   </energy>
  </scstep>
  <scstep>
   <time name="dav">   11.44   11.46</time>
   <time name="total">   21.51   21.87</time>
   <energy>
    <i name="e_fr_energy">    -36.23732403 </i>
    <i name="e_wo_entrp">    -36.23299857 </i>
    <i name="e_0_energy">    -36.23588221 </i>
   </energy>
  </scstep>
  <scstep>
   <time name="dav">    6.72    6.76</time>
   <time name="total">   13.82   13.88</time>
   <energy>
    <i name="e_fr_energy">    -36.23755830 </i>
    <i name="e_wo_entrp">    -36.23324196 </i>
    <i name="e_0_energy">    -36.23611952 </i>
   </energy>
  </scstep>
  <scstep>
   <time name="dav">    6.59    6.62</time>
   <time name="total">   10.92   10.95</time>
   <energy>
    <i name="alphaZ">      4.37349991 </i>
    <i name="ewald">  12079.46748989 </i>
    <i name="hartreedc"> -21158.21118308 </i>
    <i name="XCdc">     59.72113366 </i>
    <i name="pawpsdc">  10019.50651418 </i>
    <i name="pawaedc"> -10181.48809601 </i>
    <i name="eentropy">     -0.00431051 </i>
    <i name="bandstr">   -564.56129097 </i>
    <i name="atom">   9704.95859309 </i>
    <i name="e_fr_energy">    -36.23764983 </i>
    <i name="e_wo_entrp">    -36.23333932 </i>
    <i name="e_0_energy">    -36.23621299 </i>
   </energy>
  </scstep>
  <structure>
   <crystal>
    <varray name="basis" >
     <v>      23.40337035       0.00000000       0.00000000 </v>
     <v>       0.00000000      25.71531747       0.00000000 </v>
     <v>       0.00000000       0.00000000      21.53038177 </v>
    </varray>
    <i name="volume">  12957.52413134 </i>
    <varray name="rec_basis" >
     <v>       0.04272889       0.00000000       0.00000000 </v>
     <v>       0.00000000       0.03888733       0.00000000 </v>
     <v>       0.00000000       0.00000000       0.04644599 </v>
    </varray>
   </crystal>
   <varray name="positions" >
    <v>       0.48751647       0.48227098       0.48175843 </v>
    <v>       0.47642466       0.56697358       0.53172108 </v>
    <v>       0.55661221       0.42771571       0.53309849 </v>
    <v>       0.47715671       0.39082526       0.47243756 </v>
    <v>       0.42125042       0.54291769       0.43476360 </v>
    <v>       0.52623703       0.55878484       0.43005916 </v>
    <v>       0.49781982       0.48760454       0.59658980 </v>
    <v>       0.41861705       0.44809156       0.40888560 </v>
    <v>       0.57495479       0.52432250       0.52617703 </v>
    <v>       0.46035726       0.63037290       0.44886704 </v>
   </varray>
  </structure>
  <varray name="forces" >
   <v>      -0.05346103      -0.20371400      -0.15249106 </v>
   <v>       0.16785825      -0.47692258      -0.79461952 </v>
   <v>      -0.79803692       0.12629625      -0.50267527 </v>
   <v>       0.47774448       0.88155065       0.52986168 </v>
   <v>       0.89304204      -0.21924369       0.39527171 </v>
   <v>      -0.80419369      -0.30235180       0.74033679 </v>
   <v>      -0.46163823      -0.25152871       0.51012777 </v>
   <v>      -0.20071048       0.05152829      -0.33746229 </v>
   <v>       0.88609022       0.39175748      -0.34679717 </v>
   <v>      -0.10669465       0.00262812      -0.04155264 </v>
  </varray>
  <energy>
   <i name="e_fr_energy">    -36.23764983 </i>
   <i name="e_wo_entrp">    -36.23333932 </i>
   <i name="e_0_energy">    -36.23621299 </i>
  </energy>
  <time name="totalsc">  893.56  909.29</time>
 </calculation>
 <calculation>
  <scstep>
   <time name="dav">    8.34    8.37</time>
   <time name="total">   13.90   13.94</time>
   <energy>
    <i name="alphaZ">      4.37349991 </i>
    <i name="ewald">  12204.14888250 </i>
    <i name="hartreedc"> -21282.09854092 </i>
    <i name="XCdc">     59.98339926 </i>
    <i name="pawpsdc">  10019.51240955 </i>
    <i name="pawaedc"> -10181.49389006 </i>
    <i name="eentropy">      0.02244957 </i>
    <i name="bandstr">   -565.80096152 </i>
    <i name="atom">   9704.95859309 </i>
    <i name="e_fr_energy">    -36.39415861 </i>
    <i name="e_wo_entrp">    -36.41660818 </i>
    <i name="e_0_energy">    -36.40164180 </i>
   </energy>
  </scstep>
  <scstep>
   <time name="dav">   12.96   13.02</time>
   <time name="total">   17.52   17.59</time>
   <energy>
    <i name="e_fr_energy">    -37.68155185 </i>
    <i name="e_wo_entrp">    -37.66827050 </i>
    <i name="e_0_energy">    -37.67712473 </i>
   </energy>
  </scstep>
  <scstep>
   <time name="dav">   18.08   18.10</time>
   <time name="total">   22.48   22.50</time>
   <energy>
    <i name="e_fr_energy">    -36.48210550 </i>
    <i name="e_wo_entrp">    -36.50086730 </i>
    <i name="e_0_energy">    -36.48835944 </i>
   </energy>
  </scstep>
  <scstep>
   <time name="dav">   14.25   14.26</time>
   <time name="total">   19.94   19.96</time>
   <energy>
    <i name="e_fr_energy">    -36.58096314 </i>
    <i name="e_wo_entrp">    -36.58284443 </i>
    <i name="e_0_energy">    -36.58159024 </i>
   </energy>
  </scstep>
  <scstep>
   <time name="dav">   16.27   16.29</time>
   <time name="total">   22.96   22.99</time>
   <energy>
    <i name="e_fr_energy">    -36.51784739 </i>
    <i name="e_wo_entrp">    -36.54228275 </i>
    <i name="e_0_energy">    -36.52599251 </i>
   </energy>
  </scstep>
  <scstep>
   <time name="dav">   10.55   10.62</time>
   <time name="total">   15.09   15.19</time>
   <energy>
    <i name="e_fr_energy">    -36.51995022 </i>
    <i name="e_wo_entrp">    -36.54559460 </i>
    <i name="e_0_energy">    -36.52849835 </i>
   </energy>
  </scstep>
  <scstep>
   <time name="dav">   13.23   13.25</time>
   <time name="total">   18.60   18.62</time>
   <energy>
    <i name="e_fr_energy">    -36.51023815 </i>
    <i name="e_wo_entrp">    -36.53110628 </i>
    <i name="e_0_energy">    -36.51719419 </i>
   </energy>
  </scstep>
  <scstep>
   <time name="dav">    9.57    9.59</time>
   <time name="total">   18.35   18.37</time>
   <energy>
    <i name="e_fr_energy">    -36.52353782 </i>
    <i name="e_wo_entrp">    -36.55053031 </i>
    <i name="e_0_energy">    -36.53253532 </i>
   </energy>
  </scstep>
  <scstep>
   <time name="dav">   14.92   14.94</time>
   <time name="total">   19.81   19.86</time>
   <energy>
    <i name="e_fr_energy">    -36.51746845 </i>
    <i name="e_wo_entrp">    -36.53983463 </i>
    <i name="e_0_energy">    -36.52492385 </i>
   </energy>
  </scstep>
  <scstep>
   <time name="dav">   10.93   10.95</time>
   <time name="total">   14.41   14.44</time>
   <energy>
    <i name="e_fr_energy">    -36.51726473 </i>
    <i name="e_wo_entrp">    -36.54703697 </i>
    <i name="e_0_energy">    -36.52718881 </i>
   </energy>
  </scstep>
  <scstep>
   <time name="dav">   16.81   16.84</time>
   <time name="total">   22.31   22.35</time>
   <energy>
    <i name="e_fr_energy">    -36.52280750 </i>
    <i name="e_wo_entrp">    -36.55382862 </i>
    <i name="e_0_energy">    -36.53314788 </i>
   </energy>
  </scstep>
  <scstep>
   <time name="dav">   18.87   18.89</time>
   <time name="total">   27.20   27.23</time>
   <energy>
    <i name="e_fr_energy">    -36.51904709 </i>
    <i name="e_wo_entrp">    -36.54676925 </i>
    <i name="e_0_energy">    -36.52828781 </i>
   </energy>
  </scstep>
  <scstep>
   <time name="dav">    9.15    9.24</time>
   <time name="total">   13.82   13.92</time>
   <energy>
    <i name="e_fr_energy">    -36.52040621 </i>
    <i name="e_wo_entrp">    -36.54828660 </i>
    <i name="e_0_energy">    -36.52969968 </i>
   </energy>
  </scstep>
  <scstep>
   <time name="dav">   10.80   10.82</time>
   <time name="total">   15.87   15.92</time>
   <energy>
    <i name="e_fr_energy">    -36.52075122 </i>
    <i name="e_wo_entrp">    -36.54921672 </i>
    <i name="e_0_energy">    -36.53023972 </i>
   </energy>
  </scstep>
  <scstep>
   <time name="dav">    6.04    6.06</time>
   <time name="total">   10.52   10.56</time>
   <energy>
    <i name="e_fr_energy">    -36.52113465 </i>
    <i name="e_wo_entrp">    -36.55020256 </i>
    <i name="e_0_energy">    -36.53082395 </i>
   </energy>
  </scstep>
  <scstep>
   <time name="dav">   10.68   10.70</time>
   <time name="total">   17.38   17.42</time>
   <energy>
    <i name="e_fr_energy">    -36.52156720 </i>
    <i name="e_wo_entrp">    -36.55088688 </i>
    <i name="e_0_energy">    -36.53134043 </i>
   </energy>
  </scstep>
  <scstep>
   <time name="dav">   10.61   10.63</time>
   <time name="total">   20.59   20.62</time>
   <energy>
    <i name="e_fr_energy">    -36.52187226 </i>
    <i name="e_wo_entrp">    -36.55117925 </i>
    <i name="e_0_energy">    -36.53164126 </i>
   </energy>
  </scstep>
  <scstep>
   <time name="dav">    5.00    5.06</time>
   <time name="total">   11.02   11.09</time>
   <energy>
    <i name="e_fr_energy">    -36.52211238 </i>
    <i name="e_wo_entrp">    -36.55153107 </i>
    <i name="e_0_energy">    -36.53191861 </i>
   </energy>
  </scstep>
  <scstep>
   <time name="dav">   13.17   13.18</time>
   <time name="total">   18.60   18.63</time>
   <energy>
    <i name="e_fr_energy">    -36.52232020 </i>
    <i name="e_wo_entrp">    -36.55180426 </i>
    <i name="e_0_energy">    -36.53214822 </i>
   </energy>
  </scstep>
  <scstep>
   <time name="dav">    5.95    5.97</time>
   <time name="total">   10.54   10.57</time>
   <energy>
    <i name="e_fr_energy">    -36.52254173 </i>
    <i name="e_wo_entrp">    -36.55200970 </i>
    <i name="e_0_energy">    -36.53236438 </i>
   </energy>
  </scstep>
  <scstep>
   <time name="dav">    8.12    8.14</time>
   <time name="total">   16.34   16.36</time>
   <energy>
    <i name="e_fr_energy">    -36.52275297 </i>
    <i name="e_wo_entrp">    -36.55225968 </i>
    <i name="e_0_energy">    -36.53258854 </i>
   </energy>
  </scstep>
  <scstep>
   <time name="dav">    6.55    6.56</time>
   <time name="total">   12.23   12.25</time>
   <energy>
    <i name="e_fr_energy">    -36.52292924 </i>
    <i name="e_wo_entrp">    -36.55243377 </i>
    <i name="e_0_energy">    -36.53276408 </i>
   </energy>
  </scstep>
  <scstep>
   <time name="dav">    9.28    9.41</time>
   <time name="total">   14.76   14.91</time>
   <energy>
    <i name="e_fr_energy">    -36.52305545 </i>
    <i name="e_wo_entrp">    -36.55258069 </i>
    <i name="e_0_energy">    -36.53289720 </i>
   </energy>
  </scstep>
  <scstep>
   <time name="dav">   12.96   12.97</time>
   <time name="total">   17.91   17.93</time>
   <energy>
    <i name="e_fr_energy">    -36.52323595 </i>
    <i name="e_wo_entrp">    -36.55275864 </i>
    <i name="e_0_energy">    -36.53307685 </i>
   </energy>
  </scstep>
  <scstep>
   <time name="dav">   12.71   12.73</time>
   <time name="total">   18.41   18.44</time>
   <energy>
    <i name="e_fr_energy">    -36.52336799 </i>
    <i name="e_wo_entrp">    -36.55290510 </i>
    <i name="e_0_energy">    -36.53321369 </i>
   </energy>
  </scstep>
  <scstep>
   <time name="dav">    6.33    6.34</time>
   <time name="total">   15.12   15.15</time>
   <energy>
    <i name="e_fr_energy">    -36.52355784 </i>
    <i name="e_wo_entrp">    -36.55310661 </i>
    <i name="e_0_energy">    -36.53340743 </i>
   </energy>
  </scstep>
  <scstep>
   <time name="dav">    8.38    8.43</time>
   <time name="total">   13.15   13.21</time>
   <energy>
    <i name="e_fr_energy">    -36.52368039 </i>
    <i name="e_wo_entrp">    -36.55323315 </i>
    <i name="e_0_energy">    -36.53353131 </i>
   </energy>
  </scstep>
  <scstep>
   <time name="dav">    5.42    5.45</time>
   <time name="total">    9.51    9.55</time>
   <energy>
    <i name="alphaZ">      4.37349991 </i>
    <i name="ewald">  12204.14888250 </i>
    <i name="hartreedc"> -21280.95146533 </i>
    <i name="XCdc">     59.87665055 </i>
    <i name="pawpsdc">  10055.91585628 </i>
    <i name="pawaedc"> -10218.10187776 </i>
    <i name="eentropy">      0.02955866 </i>
    <i name="bandstr">   -566.77346531 </i>
    <i name="atom">   9704.95859309 </i>
    <i name="e_fr_energy">    -36.52376741 </i>
    <i name="e_wo_entrp">    -36.55332607 </i>
    <i name="e_0_energy">    -36.53362030 </i>
   </energy>
  </scstep>
  <structure>
   <crystal>
    <varray name="basis" >
     <v>      23.40337035       0.00000000       0.00000000 </v>
     <v>       0.00000000      25.71531747       0.00000000 </v>
     <v>       0.00000000       0.00000000      21.53038177 </v>
    </varray>
    <i name="volume">  12957.52413134 </i>
    <varray name="rec_basis" >
     <v>       0.04272889       0.00000000       0.00000000 </v>
     <v>       0.00000000       0.03888733       0.00000000 </v>
     <v>       0.00000000       0.00000000       0.04644599 </v>
    </varray>
   </crystal>
   <varray name="positions" >
    <v>       0.48740627       0.48188881       0.48141675 </v>
    <v>       0.47677068       0.56607886       0.52994059 </v>
    <v>       0.55496717       0.42795265       0.53197216 </v>
    <v>       0.47814151       0.39247907       0.47362481 </v>
    <v>       0.42309130       0.54250638       0.43564928 </v>
    <v>       0.52457930       0.55821762       0.43171802 </v>
    <v>       0.49686822       0.48713266       0.59773284 </v>
    <v>       0.41820331       0.44818823       0.40812946 </v>
    <v>       0.57678134       0.52505745       0.52539996 </v>
    <v>       0.46013732       0.63037783       0.44877394 </v>
   </varray>
  </structure>
  <varray name="forces" >
   <v>       0.10927517      -0.13475613       0.04872539 </v>
   <v>       0.17884499      -0.48790700      -0.45528932 </v>
   <v>      -0.65845754       0.22079824      -0.37211177 </v>
   <v>       0.34085577       0.66492890       0.42539932 </v>
   <v>       0.48801663      -0.21452413       0.22864135 </v>
   <v>      -0.45712862      -0.28210829       0.50280268 </v>
   <v>      -0.11246307      -0.07678001       0.07988273 </v>
   <v>      -0.20912910       0.01887289      -0.33840297 </v>
   <v>       0.48269583       0.10400769      -0.05013001 </v>
   <v>      -0.16251006       0.18746784      -0.06951741 </v>
  </varray>
  <energy>
   <i name="e_fr_energy">    -36.52376741 </i>
   <i name="e_wo_entrp">    -36.55332607 </i>
   <i name="e_0_energy">    -36.53362030 </i>
  </energy>
  <time name="totalsc">  481.74  483.00</time>
 </calculation>
 <calculation>
  <scstep>
   <time name="dav">   11.46   11.49</time>
   <time name="total">   15.66   15.70</time>
   <energy>
    <i name="alphaZ">      4.37349991 </i>
    <i name="ewald">  12369.60370071 </i>
    <i name="hartreedc"> -21444.13335895 </i>
    <i name="XCdc">     60.28541546 </i>
    <i name="pawpsdc">  10055.91249068 </i>
    <i name="pawaedc"> -10218.09859206 </i>
    <i name="eentropy">      0.05918063 </i>
    <i name="bandstr">   -569.40135996 </i>
    <i name="atom">   9704.95859309 </i>
    <i name="e_fr_energy">    -36.44043047 </i>
    <i name="e_wo_entrp">    -36.49961111 </i>
    <i name="e_0_energy">    -36.46015735 </i>
   </energy>
  </scstep>
  <scstep>
   <time name="dav">   16.75   16.76</time>
   <time name="total">   21.91   21.94</time>
   <energy>
    <i name="e_fr_energy">    -38.36556786 </i>
    <i name="e_wo_entrp">    -38.37783802 </i>
    <i name="e_0_energy">    -38.36965791 </i>
   </energy>
  </scstep>
  <scstep>
   <time name="dav">    9.05    9.09</time>
   <time name="total">   15.75   15.81</time>
   <energy>
    <i name="e_fr_energy">    -36.65806829 </i>
    <i name="e_wo_entrp">    -36.69725455 </i>
    <i name="e_0_energy">    -36.67113038 </i>
   </energy>
  </scstep>
  <scstep>
   <time name="dav">   10.53   10.56</time>
   <time name="total">   15.33   15.37</time>
   <energy>
    <i name="e_fr_energy">    -36.77259016 </i>
    <i name="e_wo_entrp">    -36.79226796 </i>
    <i name="e_0_energy">    -36.77914943 </i>
   </energy>
  </scstep>
  <scstep>
   <time name="dav">   18.38   18.41</time>
   <time name="total">   23.83   23.88</time>
   <energy>
    <i name="e_fr_energy">    -36.64629645 </i>
    <i name="e_wo_entrp">    -36.69965794 </i>
    <i name="e_0_energy">    -36.66408362 </i>
   </energy>
  </scstep>
  <scstep>
   <time name="dav">   12.13   12.15</time>
   <time name="total">   15.85   15.89</time>
   <energy>
    <i name="e_fr_energy">    -36.68499168 </i>
    <i name="e_wo_entrp">    -36.70220423 </i>
    <i name="e_0_energy">    -36.69072919 </i>
   </energy>
  </scstep>
  <scstep>
   <time name="dav">   10.27   10.29</time>
   <time name="total">   14.24   14.28</time>
   <energy>
    <i name="e_fr_energy">    -36.64424432 </i>
    <i name="e_wo_entrp">    -36.69557757 </i>
    <i name="e_0_energy">    -36.66135540 </i>
   </energy>
  </scstep>
  <scstep>
   <time name="dav">   13.20   13.26</time>
   <time name="total">   20.65   20.74</time>
   <energy>
    <i name="e_fr_energy">    -36.66111543 </i>
    <i name="e_wo_entrp">    -36.71205178 </i>
    <i name="e_0_energy">    -36.67809422 </i>
   </energy>
  </scstep>
  <scstep>
   <time name="dav">   18.77   18.88</time>
   <time name="total">   23.59   23.71</time>
   <energy>
    <i name="e_fr_energy">    -36.65489503 </i>
    <i name="e_wo_entrp">    -36.70859781 </i>
    <i name="e_0_energy">    -36.67279596 </i>
   </energy>
  </scstep>
  <scstep>
   <time name="dav">   13.56   13.62</time>
   <time name="total">   19.71   19.79</time>
   <energy>
    <i name="e_fr_energy">    -36.66153662 </i>
    <i name="e_wo_entrp">    -36.72044936 </i>
    <i name="e_0_energy">    -36.68117420 </i>
   </energy>
  </scstep>
  <scstep>
   <time name="dav">   12.02   15.21</time>
   <time name="total">   18.81   22.02</time>
   <energy>
    <i name="e_fr_energy">    -36.65974638 </i>
    <i name="e_wo_entrp">    -36.72251664 </i>
    <i name="e_0_energy">    -36.68066980 </i>
   </energy>
  </scstep>
  <scstep>
   <time name="dav">   10.12   10.13</time>
   <time name="total">   15.11   15.18</time>
   <energy>
    <i name="e_fr_energy">    -36.65713970 </i>
    <i name="e_wo_entrp">    -36.71431689 </i>
    <i name="e_0_energy">    -36.67619876 </i>
   </energy>
  </scstep>
  <scstep>
   <time name="dav">   14.32   14.86</time>
   <time name="total">   18.89   19.43</time>
   <energy>
    <i name="e_fr_energy">    -36.65903865 </i>
    <i name="e_wo_entrp">    -36.71477561 </i>
    <i name="e_0_energy">    -36.67761764 </i>
   </energy>
  </scstep>
  <scstep>
   <time name="dav">   10.83   13.50</time>
   <time name="total">   14.52   17.74</time>
   <energy>
    <i name="e_fr_energy">    -36.66014575 </i>
    <i name="e_wo_entrp">    -36.71614780 </i>
    <i name="e_0_energy">    -36.67881310 </i>
   </energy>
  </scstep>
  <scstep>
   <time name="dav">    8.82    8.84</time>
   <time name="total">   13.01   13.58</time>
   <energy>
    <i name="e_fr_energy">    -36.66045720 </i>
    <i name="e_wo_entrp">    -36.71615462 </i>
    <i name="e_0_energy">    -36.67902301 </i>
   </energy>
  </scstep>
  <scstep>
   <time name="dav">    8.90    8.92</time>
   <time name="total">   13.00   13.03</time>
   <energy>
    <i name="e_fr_energy">    -36.66081832 </i>
    <i name="e_wo_entrp">    -36.71638447 </i>
    <i name="e_0_energy">    -36.67934037 </i>
   </energy>
  </scstep>
  <scstep>
   <time name="dav">   10.35   10.40</time>
   <time name="total">   16.31   16.36</time>
   <energy>
    <i name="e_fr_energy">    -36.66108216 </i>
    <i name="e_wo_entrp">    -36.71656780 </i>
    <i name="e_0_energy">    -36.67957737 </i>
   </energy>
  </scstep>
  <scstep>
   <time name="dav">    5.36    5.41</time>
   <time name="total">    9.08    9.13</time>
   <energy>
    <i name="e_fr_energy">    -36.66124828 </i>
    <i name="e_wo_entrp">    -36.71681931 </i>
    <i name="e_0_energy">    -36.67977196 </i>
   </energy>
  </scstep>
  <scstep>
   <time name="dav">    9.18    9.24</time>
   <time name="total">   13.05   13.15</time>
   <energy>
    <i name="e_fr_energy">    -36.66140663 </i>
    <i name="e_wo_entrp">    -36.71698029 </i>
    <i name="e_0_energy">    -36.67993119 </i>
   </energy>
  </scstep>
  <scstep>
   <time name="dav">    5.45    5.45</time>
   <time name="total">   11.09   11.48</time>
   <energy>
    <i name="e_fr_energy">    -36.66153867 </i>
    <i name="e_wo_entrp">    -36.71708912 </i>
    <i name="e_0_energy">    -36.68005549 </i>
   </energy>
  </scstep>
  <scstep>
   <time name="dav">    6.37    6.92</time>
   <time name="total">   10.24   11.26</time>
   <energy>
    <i name="e_fr_energy">    -36.66165383 </i>
    <i name="e_wo_entrp">    -36.71723343 </i>
    <i name="e_0_energy">    -36.68018036 </i>
   </energy>
  </scstep>
  <scstep>
   <time name="dav">    5.11    5.11</time>
   <time name="total">    9.54    9.82</time>
   <energy>
    <i name="e_fr_energy">    -36.66178590 </i>
    <i name="e_wo_entrp">    -36.71735774 </i>
    <i name="e_0_energy">    -36.68030984 </i>
   </energy>
  </scstep>
  <scstep>
   <time name="dav">    5.23    5.28</time>
   <time name="total">    9.04    9.92</time>
   <energy>
    <i name="alphaZ">      4.37349991 </i>
    <i name="ewald">  12369.60370071 </i>
    <i name="hartreedc"> -21443.20703540 </i>
    <i name="XCdc">     60.14989006 </i>
    <i name="pawpsdc">  10126.00030977 </i>
    <i name="pawaedc"> -10288.71842775 </i>
    <i name="eentropy">      0.05558844 </i>
    <i name="bandstr">   -569.87798866 </i>
    <i name="atom">   9704.95859309 </i>
    <i name="e_fr_energy">    -36.66186982 </i>
    <i name="e_wo_entrp">    -36.71745827 </i>
    <i name="e_0_energy">    -36.68039930 </i>
   </energy>
  </scstep>
  <structure>
   <crystal>
    <varray name="basis" >
     <v>      23.40337035       0.00000000       0.00000000 </v>
     <v>       0.00000000      25.71531747       0.00000000 </v>
     <v>       0.00000000       0.00000000      21.53038177 </v>
    </varray>
    <i name="volume">  12957.52413134 </i>
    <varray name="rec_basis" >
     <v>       0.04272889       0.00000000       0.00000000 </v>
     <v>       0.00000000       0.03888733       0.00000000 </v>
     <v>       0.00000000       0.00000000       0.04644599 </v>
    </varray>
   </crystal>
   <varray name="positions" >
    <v>       0.48726704       0.48140597       0.48098507 </v>
    <v>       0.47720784       0.56494847       0.52769113 </v>
    <v>       0.55288883       0.42825199       0.53054915 </v>
    <v>       0.47938570       0.39456850       0.47512478 </v>
    <v>       0.42541706       0.54198674       0.43676824 </v>
    <v>       0.52248493       0.55750099       0.43381381 </v>
    <v>       0.49566597       0.48653650       0.59917694 </v>
    <v>       0.41768060       0.44831036       0.40717415 </v>
    <v>       0.57908900       0.52598598       0.52441823 </v>
    <v>       0.45985945       0.63038406       0.44865631 </v>
   </varray>
  </structure>
  <varray name="forces" >
   <v>       0.24063904       0.10811408       0.25734728 </v>
   <v>       0.14576958      -0.41621791       0.28555624 </v>
   <v>      -0.24770552       0.38208403      -0.00999994 </v>
   <v>      -0.02036285       0.13588956       0.11944500 </v>
   <v>      -0.27604558      -0.25766878      -0.09947120 </v>
   <v>       0.29256722      -0.20926104      -0.04843564 </v>
   <v>       0.20387699       0.06995837      -0.33877367 </v>
   <v>      -0.16530891      -0.00392081      -0.26324783 </v>
   <v>       0.04950082      -0.19653651       0.18348371 </v>
   <v>      -0.22293078       0.38755902      -0.08590396 </v>
  </varray>
  <energy>
   <i name="e_fr_energy">    -36.66186982 </i>
   <i name="e_wo_entrp">    -36.71745827 </i>
   <i name="e_0_energy">    -36.68039930 </i>
  </energy>
  <time name="totalsc">  368.14  379.22</time>
 </calculation>
 <calculation>
  <scstep>
   <time name="dav">   10.51   10.53</time>
   <time name="total">   13.79   13.85</time>
   <energy>
    <i name="alphaZ">      4.37349991 </i>
    <i name="ewald">  12415.10637565 </i>
    <i name="hartreedc"> -21488.30922357 </i>
    <i name="XCdc">     60.23167718 </i>
    <i name="pawpsdc">  10125.96940219 </i>
    <i name="pawaedc"> -10288.68714532 </i>
    <i name="eentropy">      0.07177221 </i>
    <i name="bandstr">   -570.36488917 </i>
    <i name="atom">   9704.95859309 </i>
    <i name="e_fr_energy">    -36.64993783 </i>
    <i name="e_wo_entrp">    -36.72171003 </i>
    <i name="e_0_energy">    -36.67386190 </i>
   </energy>
  </scstep>
  <scstep>
   <time name="dav">   13.10   13.83</time>
   <time name="total">   16.38   17.13</time>
   <energy>
    <i name="e_fr_energy">    -37.20240342 </i>
    <i name="e_wo_entrp">    -37.24298398 </i>
    <i name="e_0_energy">    -37.21593027 </i>
   </energy>
  </scstep>
  <scstep>
   <time name="dav">    8.32    8.70</time>
   <time name="total">   12.11   12.67</time>
   <energy>
    <i name="e_fr_energy">    -36.57773407 </i>
    <i name="e_wo_entrp">    -36.63706092 </i>
    <i name="e_0_energy">    -36.59750968 </i>
   </energy>
  </scstep>
  <scstep>
   <time name="dav">   13.07   13.12</time>
   <time name="total">   18.67   19.23</time>
   <energy>
    <i name="e_fr_energy">    -36.70540328 </i>
    <i name="e_wo_entrp">    -36.75969471 </i>
    <i name="e_0_energy">    -36.72350042 </i>
   </energy>
  </scstep>
  <scstep>
   <time name="dav">   16.82   18.46</time>
   <time name="total">   24.56   27.64</time>
   <energy>
    <i name="e_fr_energy">    -36.69836688 </i>
    <i name="e_wo_entrp">    -36.76154041 </i>
    <i name="e_0_energy">    -36.71942472 </i>
   </energy>
  </scstep>
  <scstep>
   <time name="dav">   19.79   19.81</time>
   <time name="total">   25.43   25.45</time>
   <energy>
    <i name="e_fr_energy">    -36.69953717 </i>
    <i name="e_wo_entrp">    -36.76682370 </i>
    <i name="e_0_energy">    -36.72196601 </i>
   </energy>
  </scstep>
  <scstep>
   <time name="dav">   12.94   15.20</time>
   <time name="total">   17.21   19.48</time>
   <energy>
    <i name="e_fr_energy">    -36.69925118 </i>
    <i name="e_wo_entrp">    -36.75790179 </i>
    <i name="e_0_energy">    -36.71880138 </i>
   </energy>
  </scstep>
  <scstep>
   <time name="dav">   12.90   13.48</time>
   <time name="total">   16.40   17.08</time>
   <energy>
    <i name="e_fr_energy">    -36.70136330 </i>
    <i name="e_wo_entrp">    -36.75965419 </i>
    <i name="e_0_energy">    -36.72079360 </i>
   </energy>
  </scstep>
  <scstep>
   <time name="dav">   12.21   16.15</time>
   <time name="total">   19.77   25.76</time>
   <energy>
    <i name="e_fr_energy">    -36.70055230 </i>
    <i name="e_wo_entrp">    -36.76173708 </i>
    <i name="e_0_energy">    -36.72094723 </i>
   </energy>
  </scstep>
  <scstep>
   <time name="dav">   12.61   12.63</time>
   <time name="total">   18.17   18.20</time>
   <energy>
    <i name="e_fr_energy">    -36.69991202 </i>
    <i name="e_wo_entrp">    -36.76448432 </i>
    <i name="e_0_energy">    -36.72143612 </i>
   </energy>
  </scstep>
  <scstep>
   <time name="dav">   15.02   15.10</time>
   <time name="total">   19.81   19.91</time>
   <energy>
    <i name="e_fr_energy">    -36.70194629 </i>
    <i name="e_wo_entrp">    -36.76459149 </i>
    <i name="e_0_energy">    -36.72282802 </i>
   </energy>
  </scstep>
  <scstep>
   <time name="dav">   12.95   12.97</time>
   <time name="total">   16.32   16.36</time>
   <energy>
    <i name="e_fr_energy">    -36.70125903 </i>
    <i name="e_wo_entrp">    -36.76489808 </i>
    <i name="e_0_energy">    -36.72247205 </i>
   </energy>
  </scstep>
  <scstep>
   <time name="dav">    7.31    7.34</time>
   <time name="total">   15.33   15.37</time>
   <energy>
    <i name="e_fr_energy">    -36.70175969 </i>
    <i name="e_wo_entrp">    -36.76443496 </i>
    <i name="e_0_energy">    -36.72265144 </i>
   </energy>
  </scstep>
  <scstep>
   <time name="dav">    6.46    6.50</time>
   <time name="total">   10.96   11.02</time>
   <energy>
    <i name="e_fr_energy">    -36.70205263 </i>
    <i name="e_wo_entrp">    -36.76537242 </i>
    <i name="e_0_energy">    -36.72315923 </i>
   </energy>
  </scstep>
  <scstep>
   <time name="dav">    7.86    7.89</time>
   <time name="total">   11.80   11.84</time>
   <energy>
    <i name="e_fr_energy">    -36.70229642 </i>
    <i name="e_wo_entrp">    -36.76534929 </i>
    <i name="e_0_energy">    -36.72331404 </i>
   </energy>
  </scstep>
  <scstep>
   <time name="dav">   11.73   11.74</time>
   <time name="total">   16.19   16.21</time>
   <energy>
    <i name="e_fr_energy">    -36.70248603 </i>
    <i name="e_wo_entrp">    -36.76561281 </i>
    <i name="e_0_energy">    -36.72352829 </i>
   </energy>
  </scstep>
  <scstep>
   <time name="dav">   14.23   14.24</time>
   <time name="total">   22.12   22.14</time>
   <energy>
    <i name="e_fr_energy">    -36.70263970 </i>
    <i name="e_wo_entrp">    -36.76573499 </i>
    <i name="e_0_energy">    -36.72367147 </i>
   </energy>
  </scstep>
  <scstep>
   <time name="dav">    9.40    9.44</time>
   <time name="total">   12.84   12.89</time>
   <energy>
    <i name="e_fr_energy">    -36.70280481 </i>
    <i name="e_wo_entrp">    -36.76589782 </i>
    <i name="e_0_energy">    -36.72383582 </i>
   </energy>
  </scstep>
  <scstep>
   <time name="dav">    7.33    7.36</time>
   <time name="total">   12.33   12.37</time>
   <energy>
    <i name="e_fr_energy">    -36.70292346 </i>
    <i name="e_wo_entrp">    -36.76602415 </i>
    <i name="e_0_energy">    -36.72395702 </i>
   </energy>
  </scstep>
  <scstep>
   <time name="dav">    5.39    5.40</time>
   <time name="total">    7.91    7.93</time>
   <energy>
    <i name="alphaZ">      4.37349991 </i>
    <i name="ewald">  12415.10637565 </i>
    <i name="hartreedc"> -21487.89398053 </i>
    <i name="XCdc">     60.20618280 </i>
    <i name="pawpsdc">  10138.13223108 </i>
    <i name="pawaedc"> -10300.91091837 </i>
    <i name="eentropy">      0.06308173 </i>
    <i name="bandstr">   -570.73808543 </i>
    <i name="atom">   9704.95859309 </i>
    <i name="e_fr_energy">    -36.70302006 </i>
    <i name="e_wo_entrp">    -36.76610179 </i>
    <i name="e_0_energy">    -36.72404730 </i>
   </energy>
  </scstep>
  <structure>
   <crystal>
    <varray name="basis" >
     <v>      23.40337035       0.00000000       0.00000000 </v>
     <v>       0.00000000      25.71531747       0.00000000 </v>
     <v>       0.00000000       0.00000000      21.53038177 </v>
    </varray>
    <i name="volume">  12957.52413134 </i>
    <varray name="rec_basis" >
     <v>       0.04272889       0.00000000       0.00000000 </v>
     <v>       0.00000000       0.03888733       0.00000000 </v>
     <v>       0.00000000       0.00000000       0.04644599 </v>
    </varray>
   </crystal>
   <varray name="positions" >
    <v>       0.48785394       0.48154045       0.48160048 </v>
    <v>       0.47769253       0.56369034       0.52793546 </v>
    <v>       0.55173440       0.42922406       0.53016860 </v>
    <v>       0.47964131       0.39540539       0.47583158 </v>
    <v>       0.42528034       0.54125249       0.43676621 </v>
    <v>       0.52272163       0.55683171       0.43419699 </v>
    <v>       0.49589463       0.48655323       0.59858376 </v>
    <v>       0.41712426       0.44833139       0.40619862 </v>
    <v>       0.57978842       0.52575410       0.52469006 </v>
    <v>       0.45921497       0.63129639       0.44838605 </v>
   </varray>
  </structure>
  <varray name="forces" >
   <v>      -0.13837876       0.20381034      -0.15414827 </v>
   <v>       0.02286144      -0.04353274       0.12094695 </v>
   <v>       0.17030436       0.15599013       0.14726046 </v>
   <v>      -0.22867083      -0.06463414      -0.05366305 </v>
   <v>      -0.14419091      -0.06198588      -0.05787310 </v>
   <v>       0.14337403       0.03291606      -0.10814455 </v>
   <v>       0.13098569       0.06484802      -0.03457727 </v>
   <v>       0.01297197       0.01692522      -0.08052561 </v>
   <v>       0.11301626      -0.12869057       0.17759358 </v>
   <v>      -0.08227326      -0.17564644       0.04313086 </v>
  </varray>
  <energy>
   <i name="e_fr_energy">    -36.70302006 </i>
   <i name="e_wo_entrp">    -36.76610179 </i>
   <i name="e_0_energy">    -36.72404730 </i>
  </energy>
  <time name="totalsc">  339.35  353.84</time>
 </calculation>
 <calculation>
  <scstep>
   <time name="dav">   15.72   16.52</time>
   <time name="total">   20.53   21.34</time>
   <energy>
    <i name="alphaZ">      4.37349991 </i>
    <i name="ewald">  12413.90008284 </i>
    <i name="hartreedc"> -21486.70485106 </i>
    <i name="XCdc">     60.20398138 </i>
    <i name="pawpsdc">  10138.11732096 </i>
    <i name="pawaedc"> -10300.89593390 </i>
    <i name="eentropy">      0.06269176 </i>
    <i name="bandstr">   -570.71852157 </i>
    <i name="atom">   9704.95859309 </i>
    <i name="e_fr_energy">    -36.70313658 </i>
    <i name="e_wo_entrp">    -36.76582834 </i>
    <i name="e_0_energy">    -36.72403383 </i>
   </energy>
  </scstep>
  <scstep>
   <time name="dav">   11.27   12.25</time>
   <time name="total">   15.30   16.43</time>
   <energy>
    <i name="e_fr_energy">    -36.70346580 </i>
    <i name="e_wo_entrp">    -36.76890665 </i>
    <i name="e_0_energy">    -36.72527941 </i>
   </energy>
  </scstep>
  <scstep>
   <time name="dav">   13.24   13.89</time>
   <time name="total">   18.74   20.29</time>
   <energy>
    <i name="e_fr_energy">    -36.70284510 </i>
    <i name="e_wo_entrp">    -36.76573449 </i>
    <i name="e_0_energy">    -36.72380823 </i>
   </energy>
  </scstep>
  <scstep>
   <time name="dav">    6.24    6.25</time>
   <time name="total">   12.38   12.72</time>
   <energy>
    <i name="e_fr_energy">    -36.70326431 </i>
    <i name="e_wo_entrp">    -36.76600055 </i>
    <i name="e_0_energy">    -36.72417639 </i>
   </energy>
  </scstep>
  <scstep>
   <time name="dav">    7.72    7.73</time>
   <time name="total">   11.94   11.95</time>
   <energy>
    <i name="alphaZ">      4.37349991 </i>
    <i name="ewald">  12413.90008284 </i>
    <i name="hartreedc"> -21486.69564518 </i>
    <i name="XCdc">     60.20339936 </i>
    <i name="pawpsdc">  10137.85445789 </i>
    <i name="pawaedc"> -10300.62627022 </i>
    <i name="eentropy">      0.06285679 </i>
    <i name="bandstr">   -570.73423232 </i>
    <i name="atom">   9704.95859309 </i>
    <i name="e_fr_energy">    -36.70325784 </i>
    <i name="e_wo_entrp">    -36.76611463 </i>
    <i name="e_0_energy">    -36.72421011 </i>
   </energy>
  </scstep>
  <structure>
   <crystal>
    <varray name="basis" >
     <v>      23.40337035       0.00000000       0.00000000 </v>
     <v>       0.00000000      25.71531747       0.00000000 </v>
     <v>       0.00000000       0.00000000      21.53038177 </v>
    </varray>
    <i name="volume">  12957.52413134 </i>
    <varray name="rec_basis" >
     <v>       0.04272889       0.00000000       0.00000000 </v>
     <v>       0.00000000       0.03888733       0.00000000 </v>
     <v>       0.00000000       0.00000000       0.04644599 </v>
    </varray>
   </crystal>
   <varray name="positions" >
    <v>       0.48783888       0.48153700       0.48158470 </v>
    <v>       0.47768010       0.56372260       0.52792919 </v>
    <v>       0.55176401       0.42919913       0.53017836 </v>
    <v>       0.47963475       0.39538393       0.47581346 </v>
    <v>       0.42528384       0.54127132       0.43676626 </v>
    <v>       0.52271556       0.55684887       0.43418716 </v>
    <v>       0.49588877       0.48655280       0.59859897 </v>
    <v>       0.41713853       0.44833085       0.40622364 </v>
    <v>       0.57977048       0.52576005       0.52468309 </v>
    <v>       0.45923150       0.63127299       0.44839298 </v>
   </varray>
  </structure>
  <varray name="forces" >
   <v>      -0.12865818       0.20084613      -0.14151541 </v>
   <v>       0.02679631      -0.05429378       0.12673099 </v>
   <v>       0.15806455       0.16253186       0.14490015 </v>
   <v>      -0.22333751      -0.06261286      -0.04734764 </v>
   <v>      -0.14761785      -0.06801301      -0.05715245 </v>
   <v>       0.14732528       0.02630215      -0.10374277 </v>
   <v>       0.13698978       0.06476108      -0.04912215 </v>
   <v>       0.00119493       0.01744987      -0.09573070 </v>
   <v>       0.12267727      -0.13436693       0.18316474 </v>
   <v>      -0.09343458      -0.15260451       0.03981523 </v>
  </varray>
  <energy>
   <i name="e_fr_energy">    -36.70325784 </i>
   <i name="e_wo_entrp">    -36.76611463 </i>
   <i name="e_0_energy">    -36.72421011 </i>
  </energy>
  <time name="totalsc">   91.61   96.03</time>
 </calculation>
 <calculation>
  <scstep>
   <time name="dav">   11.06   11.55</time>
   <time name="total">   14.83   15.67</time>
   <energy>
    <i name="alphaZ">      4.37349991 </i>
    <i name="ewald">  12395.06827100 </i>
    <i name="hartreedc"> -21468.42421717 </i>
    <i name="XCdc">     60.14804236 </i>
    <i name="pawpsdc">  10137.83497330 </i>
    <i name="pawaedc"> -10300.61148145 </i>
    <i name="eentropy">      0.06385931 </i>
    <i name="bandstr">   -570.11699005 </i>
    <i name="atom">   9704.95859309 </i>
    <i name="e_fr_energy">    -36.70544970 </i>
    <i name="e_wo_entrp">    -36.76930901 </i>
    <i name="e_0_energy">    -36.72673614 </i>
   </energy>
  </scstep>
  <scstep>
   <time name="dav">   13.04   13.06</time>
   <time name="total">   18.05   18.08</time>
   <energy>
    <i name="e_fr_energy">    -36.72115270 </i>
    <i name="e_wo_entrp">    -36.78395946 </i>
    <i name="e_0_energy">    -36.74208829 </i>
   </energy>
  </scstep>
  <scstep>
   <time name="dav">   13.07   13.11</time>
   <time name="total">   16.95   17.02</time>
   <energy>
    <i name="e_fr_energy">    -36.72117110 </i>
    <i name="e_wo_entrp">    -36.78219701 </i>
    <i name="e_0_energy">    -36.74151307 </i>
   </energy>
  </scstep>
  <scstep>
   <time name="dav">   11.87   11.91</time>
   <time name="total">   18.16   18.27</time>
   <energy>
    <i name="e_fr_energy">    -36.72326443 </i>
    <i name="e_wo_entrp">    -36.79041905 </i>
    <i name="e_0_energy">    -36.74564930 </i>
   </energy>
  </scstep>
  <scstep>
   <time name="dav">   10.84   10.90</time>
   <time name="total">   15.40   15.50</time>
   <energy>
    <i name="e_fr_energy">    -36.71650830 </i>
    <i name="e_wo_entrp">    -36.77760705 </i>
    <i name="e_0_energy">    -36.73687455 </i>
   </energy>
  </scstep>
  <scstep>
   <time name="dav">   13.50   13.53</time>
   <time name="total">   17.70   17.74</time>
   <energy>
    <i name="e_fr_energy">    -36.71991162 </i>
    <i name="e_wo_entrp">    -36.78685523 </i>
    <i name="e_0_energy">    -36.74222616 </i>
   </energy>
  </scstep>
  <scstep>
   <time name="dav">   16.74   16.80</time>
   <time name="total">   21.38   21.47</time>
   <energy>
    <i name="e_fr_energy">    -36.71953124 </i>
    <i name="e_wo_entrp">    -36.78346644 </i>
    <i name="e_0_energy">    -36.74084297 </i>
   </energy>
  </scstep>
  <scstep>
   <time name="dav">   12.45   12.47</time>
   <time name="total">   19.59   19.63</time>
   <energy>
    <i name="e_fr_energy">    -36.72062648 </i>
    <i name="e_wo_entrp">    -36.78327169 </i>
    <i name="e_0_energy">    -36.74150822 </i>
   </energy>
  </scstep>
  <scstep>
   <time name="dav">   17.62   17.67</time>
   <time name="total">   21.42   21.47</time>
   <energy>
    <i name="e_fr_energy">    -36.72009474 </i>
    <i name="e_wo_entrp">    -36.78513629 </i>
    <i name="e_0_energy">    -36.74177526 </i>
   </energy>
  </scstep>
  <scstep>
   <time name="dav">   12.21   12.24</time>
   <time name="total">   16.34   16.37</time>
   <energy>
    <i name="e_fr_energy">    -36.72056020 </i>
    <i name="e_wo_entrp">    -36.78436123 </i>
    <i name="e_0_energy">    -36.74182721 </i>
   </energy>
  </scstep>
  <scstep>
   <time name="dav">    6.11    6.64</time>
   <time name="total">   13.33   13.87</time>
   <energy>
    <i name="e_fr_energy">    -36.72069056 </i>
    <i name="e_wo_entrp">    -36.78554436 </i>
    <i name="e_0_energy">    -36.74230849 </i>
   </energy>
  </scstep>
  <scstep>
   <time name="dav">    7.76    7.79</time>
   <time name="total">   11.75   12.15</time>
   <energy>
    <i name="alphaZ">      4.37349991 </i>
    <i name="ewald">  12395.06827100 </i>
    <i name="hartreedc"> -21468.38142021 </i>
    <i name="XCdc">     60.15618090 </i>
    <i name="pawpsdc">  10125.72323991 </i>
    <i name="pawaedc"> -10288.36601913 </i>
    <i name="eentropy">      0.06411960 </i>
    <i name="bandstr">   -570.31711829 </i>
    <i name="atom">   9704.95859309 </i>
    <i name="e_fr_energy">    -36.72065323 </i>
    <i name="e_wo_entrp">    -36.78477282 </i>
    <i name="e_0_energy">    -36.74202642 </i>
   </energy>
  </scstep>
  <structure>
   <crystal>
    <varray name="basis" >
     <v>      23.40337035       0.00000000       0.00000000 </v>
     <v>       0.00000000      25.71531747       0.00000000 </v>
     <v>       0.00000000       0.00000000      21.53038177 </v>
    </varray>
    <i name="volume">  12957.52413134 </i>
    <varray name="rec_basis" >
     <v>       0.04272889       0.00000000       0.00000000 </v>
     <v>       0.00000000       0.03888733       0.00000000 </v>
     <v>       0.00000000       0.00000000       0.04644599 </v>
    </varray>
   </crystal>
   <varray name="positions" >
    <v>       0.48758316       0.48202372       0.48126795 </v>
    <v>       0.47781070       0.56343533       0.52831422 </v>
    <v>       0.55202295       0.42970301       0.53053449 </v>
    <v>       0.47909358       0.39534420       0.47577132 </v>
    <v>       0.42488719       0.54101873       0.43660640 </v>
    <v>       0.52312420       0.55682507       0.43394630 </v>
    <v>       0.49626983       0.48670635       0.59838620 </v>
    <v>       0.41707070       0.44837433       0.40583199 </v>
    <v>       0.58017477       0.52541635       0.52522922 </v>
    <v>       0.45890933       0.63103247       0.44846972 </v>
   </varray>
  </structure>
  <varray name="forces" >
   <v>      -0.05388751      -0.00969136      -0.10103870 </v>
   <v>       0.04430533       0.00582136      -0.01736027 </v>
   <v>       0.02204284       0.08787640      -0.01186897 </v>
   <v>      -0.11377288       0.08847014       0.03543277 </v>
   <v>      -0.04832384       0.00676725      -0.02812239 </v>
   <v>       0.03293538       0.04506703       0.00259439 </v>
   <v>       0.07618241       0.04774131       0.04990624 </v>
   <v>       0.01300675      -0.00066031      -0.09003287 </v>
   <v>       0.09037483      -0.06108188       0.10604388 </v>
   <v>      -0.06286331      -0.21030996       0.05444591 </v>
  </varray>
  <energy>
   <i name="e_fr_energy">    -36.72065323 </i>
   <i name="e_wo_entrp">    -36.78477282 </i>
   <i name="e_0_energy">    -36.74202642 </i>
  </energy>
  <time name="totalsc">  216.00  218.47</time>
 </calculation>
 <calculation>
  <scstep>
   <time name="dav">    8.64    8.70</time>
   <time name="total">   13.30   13.41</time>
   <energy>
    <i name="alphaZ">      4.37349991 </i>
    <i name="ewald">  12383.18345104 </i>
    <i name="hartreedc"> -21456.85107738 </i>
    <i name="XCdc">     60.12397691 </i>
    <i name="pawpsdc">  10125.58381139 </i>
    <i name="pawaedc"> -10288.24396349 </i>
    <i name="eentropy">      0.06437155 </i>
    <i name="bandstr">   -569.91033000 </i>
    <i name="atom">   9704.95859309 </i>
    <i name="e_fr_energy">    -36.71766698 </i>
    <i name="e_wo_entrp">    -36.78203853 </i>
    <i name="e_0_energy">    -36.73912416 </i>
   </energy>
  </scstep>
  <scstep>
   <time name="dav">   19.43   19.66</time>
   <time name="total">   22.94   23.26</time>
   <energy>
    <i name="e_fr_energy">    -36.72243711 </i>
    <i name="e_wo_entrp">    -36.78726770 </i>
    <i name="e_0_energy">    -36.74404731 </i>
   </energy>
  </scstep>
  <scstep>
   <time name="dav">   11.09   11.13</time>
   <time name="total">   15.85   15.91</time>
   <energy>
    <i name="e_fr_energy">    -36.72381393 </i>
    <i name="e_wo_entrp">    -36.78723655 </i>
    <i name="e_0_energy">    -36.74495480 </i>
   </energy>
  </scstep>
  <scstep>
   <time name="dav">   13.68   13.75</time>
   <time name="total">   18.84   18.92</time>
   <energy>
    <i name="e_fr_energy">    -36.72422006 </i>
    <i name="e_wo_entrp">    -36.78915240 </i>
    <i name="e_0_energy">    -36.74586417 </i>
   </energy>
  </scstep>
  <scstep>
   <time name="dav">   16.21   16.23</time>
   <time name="total">   20.87   20.91</time>
   <energy>
    <i name="e_fr_energy">    -36.72184493 </i>
    <i name="e_wo_entrp">    -36.78445848 </i>
    <i name="e_0_energy">    -36.74271611 </i>
   </energy>
  </scstep>
  <scstep>
   <time name="dav">   15.98   16.02</time>
   <time name="total">   19.27   19.31</time>
   <energy>
    <i name="e_fr_energy">    -36.72330015 </i>
    <i name="e_wo_entrp">    -36.79011810 </i>
    <i name="e_0_energy">    -36.74557280 </i>
   </energy>
  </scstep>
  <scstep>
   <time name="dav">   21.28   21.29</time>
   <time name="total">   25.45   25.48</time>
   <energy>
    <i name="e_fr_energy">    -36.72324084 </i>
    <i name="e_wo_entrp">    -36.78775933 </i>
    <i name="e_0_energy">    -36.74474700 </i>
   </energy>
  </scstep>
  <scstep>
   <time name="dav">   10.71   10.72</time>
   <time name="total">   18.10   18.12</time>
   <energy>
    <i name="e_fr_energy">    -36.72370592 </i>
    <i name="e_wo_entrp">    -36.78762347 </i>
    <i name="e_0_energy">    -36.74501177 </i>
   </energy>
  </scstep>
  <scstep>
   <time name="dav">    7.71    7.90</time>
   <time name="total">   15.07   15.26</time>
   <energy>
    <i name="e_fr_energy">    -36.72353513 </i>
    <i name="e_wo_entrp">    -36.78863004 </i>
    <i name="e_0_energy">    -36.74523344 </i>
   </energy>
  </scstep>
  <scstep>
   <time name="dav">    7.27    7.28</time>
   <time name="total">   12.09   12.11</time>
   <energy>
    <i name="e_fr_energy">    -36.72381030 </i>
    <i name="e_wo_entrp">    -36.78790340 </i>
    <i name="e_0_energy">    -36.74517467 </i>
   </energy>
  </scstep>
  <scstep>
   <time name="dav">    6.01    6.59</time>
   <time name="total">    9.13   10.22</time>
   <energy>
    <i name="alphaZ">      4.37349991 </i>
    <i name="ewald">  12383.18345104 </i>
    <i name="hartreedc"> -21456.88523911 </i>
    <i name="XCdc">     60.13114434 </i>
    <i name="pawpsdc">  10119.07856377 </i>
    <i name="pawaedc"> -10281.68710189 </i>
    <i name="eentropy">      0.06502926 </i>
    <i name="bandstr">   -569.94177522 </i>
    <i name="atom">   9704.95859309 </i>
    <i name="e_fr_energy">    -36.72383481 </i>
    <i name="e_wo_entrp">    -36.78886406 </i>
    <i name="e_0_energy">    -36.74551123 </i>
   </energy>
  </scstep>
  <structure>
   <crystal>
    <varray name="basis" >
     <v>      23.40337035       0.00000000       0.00000000 </v>
     <v>       0.00000000      25.71531747       0.00000000 </v>
     <v>       0.00000000       0.00000000      21.53038177 </v>
    </varray>
    <i name="volume">  12957.52413134 </i>
    <varray name="rec_basis" >
     <v>       0.04272889       0.00000000       0.00000000 </v>
     <v>       0.00000000       0.03888733       0.00000000 </v>
[...]
       <r>    -1.6796     3.6845    59.7260 </r>
       <r>    -1.6339     2.9088    59.8589 </r>
       <r>    -1.5882     1.8462    59.9432 </r>
       <r>    -1.5425     0.9410    59.9862 </r>
       <r>    -1.4968     0.5759    60.0125 </r>
       <r>    -1.4512     0.9084    60.0540 </r>
       <r>    -1.4055     1.8094    60.1367 </r>
       <r>    -1.3598     2.9067    60.2695 </r>
       <r>    -1.3141     3.7303    60.4399 </r>
       <r>    -1.2684     3.9254    60.6192 </r>
       <r>    -1.2227     3.4380    60.7763 </r>
       <r>    -1.1771     2.5587    60.8932 </r>
       <r>    -1.1314     1.7772    60.9743 </r>
       <r>    -1.0857     1.5188    61.0437 </r>
       <r>    -1.0400     1.9126    61.1311 </r>
       <r>    -0.9943     2.7227    61.2555 </r>
       <r>    -0.9486     3.4855    61.4147 </r>
       <r>    -0.9030     3.7814    61.5875 </r>
       <r>    -0.8573     3.4839    61.7466 </r>
       <r>    -0.8116     2.8272    61.8758 </r>
       <r>    -0.7659     2.2453    61.9784 </r>
       <r>    -0.7202     2.0957    62.0741 </r>
       <r>    -0.6745     2.4703    62.1870 </r>
       <r>    -0.6289     3.2298    62.3345 </r>
       <r>    -0.5832     4.2106    62.5269 </r>
       <r>    -0.5375     5.3985    62.7735 </r>
       <r>    -0.4918     6.8894    63.0882 </r>
       <r>    -0.4461     8.6575    63.4837 </r>
       <r>    -0.4004    10.3576    63.9569 </r>
       <r>    -0.3547    11.3857    64.4770 </r>
       <r>    -0.3091    11.2014    64.9888 </r>
       <r>    -0.2634     9.6742    65.4307 </r>
       <r>    -0.2177     7.1898    65.7592 </r>
       <r>    -0.1720     4.4467    65.9623 </r>
       <r>    -0.1263     2.1062    66.0585 </r>
       <r>    -0.0806     0.5303    66.0828 </r>
       <r>    -0.0350    -0.2689    66.0705 </r>
       <r>     0.0107    -0.5054    66.0474 </r>
       <r>     0.0564    -0.4472    66.0270 </r>
       <r>     0.1021    -0.2982    66.0133 </r>
       <r>     0.1478    -0.1647    66.0058 </r>
       <r>     0.1935    -0.0781    66.0023 </r>
       <r>     0.2391    -0.0323    66.0008 </r>
       <r>     0.2848    -0.0118    66.0002 </r>
       <r>     0.3305    -0.0038    66.0001 </r>
       <r>     0.3762    -0.0011    66.0000 </r>
       <r>     0.4219    -0.0003    66.0000 </r>
       <r>     0.4676    -0.0001    66.0000 </r>
       <r>     0.5132    -0.0000    66.0000 </r>
       <r>     0.5589    -0.0000    66.0000 </r>
       <r>     0.6046    -0.0000    66.0000 </r>
       <r>     0.6503    -0.0000    66.0000 </r>
       <r>     0.6960    -0.0000    66.0000 </r>
       <r>     0.7417    -0.0000    66.0000 </r>
       <r>     0.7874    -0.0000    66.0000 </r>
       <r>     0.8330    -0.0000    66.0000 </r>
       <r>     0.8787    -0.0000    66.0000 </r>
       <r>     0.9244    -0.0000    66.0000 </r>
       <r>     0.9701    -0.0000    66.0000 </r>
       <r>     1.0158     0.0000    66.0000 </r>
       <r>     1.0615     0.0000    66.0000 </r>
       <r>     1.1071     0.0000    66.0000 </r>
       <r>     1.1528     0.0000    66.0000 </r>
       <r>     1.1985     0.0000    66.0000 </r>
       <r>     1.2442     0.0000    66.0000 </r>
       <r>     1.2899     0.0000    66.0000 </r>
       <r>     1.3356     0.0000    66.0000 </r>
       <r>     1.3812     0.0000    66.0000 </r>
       <r>     1.4269     0.0000    66.0000 </r>
       <r>     1.4726     0.0000    66.0000 </r>
       <r>     1.5183     0.0000    66.0000 </r>
       <r>     1.5640     0.0000    66.0000 </r>
       <r>     1.6097     0.0000    66.0000 </r>
       <r>     1.6553     0.0000    66.0000 </r>
       <r>     1.7010     0.0000    66.0000 </r>
       <r>     1.7467     0.0000    66.0000 </r>
       <r>     1.7924     0.0000    66.0000 </r>
       <r>     1.8381     0.0000    66.0000 </r>
       <r>     1.8838     0.0000    66.0000 </r>
      </set>
      <set comment="spin 2">
       <r>   -11.8214     0.0000     0.0000 </r>
       <r>   -11.7757     0.0000     0.0000 </r>
       <r>   -11.7301     0.0000     0.0000 </r>
       <r>   -11.6844     0.0000     0.0000 </r>
       <r>   -11.6387     0.0000     0.0000 </r>
       <r>   -11.5930     0.0000     0.0000 </r>
       <r>   -11.5473     0.0000     0.0000 </r>
       <r>   -11.5016     0.0000     0.0000 </r>
       <r>   -11.4560     0.0000     0.0000 </r>
       <r>   -11.4103     0.0000     0.0000 </r>
       <r>   -11.3646    -0.0000    -0.0000 </r>
       <r>   -11.3189    -0.0000    -0.0000 </r>
       <r>   -11.2732    -0.0000    -0.0000 </r>
       <r>   -11.2275    -0.0000    -0.0000 </r>
       <r>   -11.1819    -0.0000    -0.0000 </r>
       <r>   -11.1362    -0.0000    -0.0000 </r>
       <r>   -11.0905    -0.0000    -0.0000 </r>
       <r>   -11.0448    -0.0000    -0.0000 </r>
       <r>   -10.9991    -0.0000    -0.0000 </r>
       <r>   -10.9534    -0.0000    -0.0000 </r>
       <r>   -10.9077    -0.0000    -0.0000 </r>
       <r>   -10.8621    -0.0000    -0.0000 </r>
       <r>   -10.8164    -0.0000    -0.0000 </r>
       <r>   -10.7707    -0.0000    -0.0000 </r>
       <r>   -10.7250    -0.0000    -0.0000 </r>
       <r>   -10.6793    -0.0000    -0.0000 </r>
       <r>   -10.6336    -0.0000    -0.0000 </r>
       <r>   -10.5880    -0.0000    -0.0000 </r>
       <r>   -10.5423    -0.0000    -0.0000 </r>
       <r>   -10.4966    -0.0000    -0.0000 </r>
       <r>   -10.4509    -0.0001    -0.0000 </r>
       <r>   -10.4052    -0.0003    -0.0000 </r>
       <r>   -10.3595    -0.0010    -0.0001 </r>
       <r>   -10.3139    -0.0035    -0.0002 </r>
       <r>   -10.2682    -0.0104    -0.0007 </r>
       <r>   -10.2225    -0.0270    -0.0019 </r>
       <r>   -10.1768    -0.0611    -0.0047 </r>
       <r>   -10.1311    -0.1180    -0.0101 </r>
       <r>   -10.0854    -0.1880    -0.0187 </r>
       <r>   -10.0398    -0.2265    -0.0291 </r>
       <r>    -9.9941    -0.1394    -0.0354 </r>
       <r>    -9.9484     0.2011    -0.0262 </r>
       <r>    -9.9027     0.8924     0.0145 </r>
       <r>    -9.8570     1.9057     0.1016 </r>
       <r>    -9.8113     3.0263     0.2398 </r>
       <r>    -9.7656     3.9004     0.4180 </r>
       <r>    -9.7200     4.1990     0.6099 </r>
       <r>    -9.6743     3.8013     0.7835 </r>
       <r>    -9.6286     2.8674     0.9145 </r>
       <r>    -9.5829     1.7424     0.9941 </r>
       <r>    -9.5372     0.7676     1.0292 </r>
       <r>    -9.4915     0.1303     1.0351 </r>
       <r>    -9.4459    -0.1650     1.0276 </r>
       <r>    -9.4002    -0.2259     1.0173 </r>
       <r>    -9.3545    -0.1781     1.0091 </r>
       <r>    -9.3088    -0.1083     1.0042 </r>
       <r>    -9.2631    -0.0547     1.0017 </r>
       <r>    -9.2174    -0.0237     1.0006 </r>
       <r>    -9.1718    -0.0089     1.0002 </r>
       <r>    -9.1261    -0.0030     1.0001 </r>
       <r>    -9.0804    -0.0009     1.0000 </r>
       <r>    -9.0347    -0.0002     1.0000 </r>
       <r>    -8.9890    -0.0001     1.0000 </r>
       <r>    -8.9433    -0.0001     1.0000 </r>
       <r>    -8.8977    -0.0004     1.0000 </r>
       <r>    -8.8520    -0.0013     0.9999 </r>
       <r>    -8.8063    -0.0044     0.9997 </r>
       <r>    -8.7606    -0.0126     0.9991 </r>
       <r>    -8.7149    -0.0320     0.9977 </r>
       <r>    -8.6692    -0.0704     0.9945 </r>
       <r>    -8.6235    -0.1315     0.9885 </r>
       <r>    -8.5779    -0.2006     0.9793 </r>
       <r>    -8.5322    -0.2248     0.9690 </r>
       <r>    -8.4865    -0.1024     0.9643 </r>
       <r>    -8.4408     0.2914     0.9777 </r>
       <r>    -8.3951     1.0308     1.0247 </r>
       <r>    -8.3494     2.0453     1.1182 </r>
       <r>    -8.3038     3.0834     1.2590 </r>
       <r>    -8.2581     3.8011     1.4327 </r>
       <r>    -8.2124     3.9591     1.6136 </r>
       <r>    -8.1667     3.6009     1.7781 </r>
       <r>    -8.1210     3.0596     1.9178 </r>
       <r>    -8.0753     2.7538     2.0436 </r>
       <r>    -8.0297     2.9026     2.1762 </r>
       <r>    -7.9840     3.3697     2.3302 </r>
       <r>    -7.9383     3.7598     2.5020 </r>
       <r>    -7.8926     3.7015     2.6711 </r>
       <r>    -7.8469     3.1131     2.8133 </r>
       <r>    -7.8012     2.2677     2.9169 </r>
       <r>    -7.7556     1.6209     2.9909 </r>
       <r>    -7.7099     1.5267     3.0607 </r>
       <r>    -7.6642     2.0237     3.1531 </r>
       <r>    -7.6185     2.8215     3.2820 </r>
       <r>    -7.5728     3.4948     3.4417 </r>
       <r>    -7.5271     3.7651     3.6137 </r>
       <r>    -7.4814     3.6857     3.7820 </r>
       <r>    -7.4358     3.6017     3.9466 </r>
       <r>    -7.3901     3.9132     4.1254 </r>
       <r>    -7.3444     4.8095     4.3451 </r>
       <r>    -7.2987     6.1517     4.6261 </r>
       <r>    -7.2530     7.5514     4.9711 </r>
       <r>    -7.2073     8.5608     5.3622 </r>
       <r>    -7.1617     8.8624     5.7670 </r>
       <r>    -7.1160     8.3963     6.1506 </r>
       <r>    -7.0703     7.4041     6.4889 </r>
       <r>    -7.0246     6.3687     6.7798 </r>
       <r>    -6.9789     5.8415     7.0467 </r>
       <r>    -6.9332     6.2077     7.3303 </r>
       <r>    -6.8876     7.5028     7.6730 </r>
       <r>    -6.8419     9.3791     8.1015 </r>
       <r>    -6.7962    11.2498     8.6154 </r>
       <r>    -6.7505    12.5430     9.1885 </r>
       <r>    -6.7048    12.9523     9.7802 </r>
       <r>    -6.6591    12.5680    10.3543 </r>
       <r>    -6.6135    11.8194    10.8943 </r>
       <r>    -6.5678    11.2446    11.4080 </r>
       <r>    -6.5221    11.2001    11.9197 </r>
       <r>    -6.4764    11.6718    12.4529 </r>
       <r>    -6.4307    12.3116    13.0153 </r>
       <r>    -6.3850    12.6880    13.5950 </r>
       <r>    -6.3393    12.5833    14.1698 </r>
       <r>    -6.2937    12.1163    14.7233 </r>
       <r>    -6.2480    11.5997    15.2532 </r>
       <r>    -6.2023    11.2599    15.7676 </r>
       <r>    -6.1566    11.0650    16.2731 </r>
       <r>    -6.1109    10.8124    16.7671 </r>
       <r>    -6.0652    10.4007    17.2422 </r>
       <r>    -6.0196    10.0517    17.7014 </r>
       <r>    -5.9739    10.2720    18.1707 </r>
       <r>    -5.9282    11.5358    18.6977 </r>
       <r>    -5.8825    13.8773    19.3317 </r>
       <r>    -5.8368    16.6914    20.0942 </r>
       <r>    -5.7911    18.9366    20.9593 </r>
       <r>    -5.7455    19.6706    21.8579 </r>
       <r>    -5.6998    18.5822    22.7068 </r>
       <r>    -5.6541    16.1564    23.4449 </r>
       <r>    -5.6084    13.3697    24.0557 </r>
       <r>    -5.5627    11.1534    24.5652 </r>
       <r>    -5.5170     9.9890    25.0216 </r>
       <r>    -5.4714     9.8419    25.4712 </r>
       <r>    -5.4257    10.3679    25.9449 </r>
       <r>    -5.3800    11.1863    26.4559 </r>
       <r>    -5.3343    12.0550    27.0066 </r>
       <r>    -5.2886    12.9003    27.5959 </r>
       <r>    -5.2429    13.7439    28.2238 </r>
       <r>    -5.1972    14.5894    28.8903 </r>
       <r>    -5.1516    15.3301    29.5907 </r>
       <r>    -5.1059    15.7391    30.3097 </r>
       <r>    -5.0602    15.5776    31.0213 </r>
       <r>    -5.0145    14.7844    31.6967 </r>
       <r>    -4.9688    13.6238    32.3191 </r>
       <r>    -4.9231    12.6491    32.8970 </r>
       <r>    -4.8775    12.4571    33.4661 </r>
       <r>    -4.8318    13.3698    34.0769 </r>
       <r>    -4.7861    15.2499    34.7735 </r>
       <r>    -4.7404    17.5600    35.5758 </r>
       <r>    -4.6947    19.6201    36.4721 </r>
       <r>    -4.6490    20.9080    37.4272 </r>
       <r>    -4.6034    21.2419    38.3977 </r>
       <r>    -4.5577    20.7663    39.3463 </r>
       <r>    -4.5120    19.7803    40.2500 </r>
       <r>    -4.4663    18.5438    41.0971 </r>
       <r>    -4.4206    17.1964    41.8827 </r>
       <r>    -4.3749    15.8167    42.6053 </r>
       <r>    -4.3293    14.5387    43.2695 </r>
       <r>    -4.2836    13.6080    43.8912 </r>
       <r>    -4.2379    13.3147    44.4994 </r>
       <r>    -4.1922    13.8433    45.1319 </r>
       <r>    -4.1465    15.1405    45.8235 </r>
       <r>    -4.1008    16.9086    46.5960 </r>
       <r>    -4.0551    18.7403    47.4521 </r>
       <r>    -4.0095    20.2929    48.3792 </r>
       <r>    -3.9638    21.3538    49.3547 </r>
       <r>    -3.9181    21.7506    50.3484 </r>
       <r>    -3.8724    21.2326    51.3183 </r>
       <r>    -3.8267    19.5059    52.2095 </r>
       <r>    -3.7810    16.4577    52.9613 </r>
       <r>    -3.7354    12.3840    53.5271 </r>
       <r>    -3.6897     7.9882    53.8920 </r>
       <r>    -3.6440     4.0991    54.0792 </r>
       <r>    -3.5983     1.3027    54.1388 </r>
       <r>    -3.5526    -0.2627    54.1268 </r>
       <r>    -3.5069    -0.8474    54.0880 </r>
       <r>    -3.4613    -0.8683    54.0484 </r>
       <r>    -3.4156    -0.6913    54.0168 </r>
       <r>    -3.3699    -0.5204    53.9930 </r>
       <r>    -3.3242    -0.3878    53.9753 </r>
       <r>    -3.2785    -0.1979    53.9663 </r>
       <r>    -3.2328     0.2027    53.9755 </r>
       <r>    -3.1872     0.9306    54.0180 </r>
       <r>    -3.1415     1.9625    54.1077 </r>
       <r>    -3.0958     3.0803    54.2484 </r>
       <r>    -3.0501     3.9282    54.4279 </r>
       <r>    -3.0044     4.1814    54.6189 </r>
       <r>    -2.9587     3.7273    54.7892 </r>
       <r>    -2.9131     2.7290    54.9139 </r>
       <r>    -2.8674     1.5278    54.9836 </r>
       <r>    -2.8217     0.4664    55.0050 </r>
       <r>    -2.7760    -0.2326    54.9943 </r>
       <r>    -2.7303    -0.4679    54.9730 </r>
       <r>    -2.6846    -0.1914    54.9642 </r>
       <r>    -2.6389     0.6316    54.9931 </r>
       <r>    -2.5933     1.9835    55.0837 </r>
       <r>    -2.5476     3.7210    55.2537 </r>
       <r>    -2.5019     5.5553    55.5075 </r>
       <r>    -2.4562     7.1321    55.8333 </r>
       <r>    -2.4105     8.1648    56.2063 </r>
       <r>    -2.3648     8.5255    56.5958 </r>
       <r>    -2.3192     8.2363    56.9720 </r>
       <r>    -2.2735     7.3962    57.3099 </r>
       <r>    -2.2278     6.1268    57.5898 </r>
       <r>    -2.1821     4.5758    57.7988 </r>
       <r>    -2.1364     2.9431    57.9333 </r>
       <r>    -2.0907     1.4704    58.0005 </r>
       <r>    -2.0451     0.3860    58.0181 </r>
       <r>    -1.9994    -0.1506    58.0112 </r>
       <r>    -1.9537    -0.0749    58.0078 </r>
       <r>    -1.9080     0.5720    58.0339 </r>
       <r>    -1.8623     1.6208    58.1080 </r>
       <r>    -1.8166     2.7652    58.2343 </r>
       <r>    -1.7710     3.6325    58.4003 </r>
       <r>    -1.7253     3.9503    58.5807 </r>
       <r>    -1.6796     3.7171    58.7505 </r>
       <r>    -1.6339     3.2292    58.8981 </r>
       <r>    -1.5882     2.8992    59.0305 </r>
       <r>    -1.5425     2.9743    59.1664 </r>
       <r>    -1.4968     3.3633    59.3200 </r>
       <r>    -1.4512     3.7138    59.4897 </r>
       <r>    -1.4055     3.6894    59.6582 </r>
       <r>    -1.3598     3.2357    59.8061 </r>
       <r>    -1.3141     2.6318    59.9263 </r>
       <r>    -1.2684     2.2899    60.0309 </r>
       <r>    -1.2227     2.4521    60.1429 </r>
       <r>    -1.1771     3.0089    60.2804 </r>
       <r>    -1.1314     3.5715    60.4435 </r>
       <r>    -1.0857     3.7460    60.6147 </r>
       <r>    -1.0400     3.4134    60.7706 </r>
       <r>    -0.9943     2.8156    60.8992 </r>
       <r>    -0.9486     2.3840    61.0081 </r>
       <r>    -0.9030     2.4335    61.1193 </r>
       <r>    -0.8573     2.9367    61.2535 </r>
       <r>    -0.8116     3.5348    61.4150 </r>
       <r>    -0.7659     3.7752    61.5874 </r>
       <r>    -0.7202     3.4102    61.7432 </r>
       <r>    -0.6745     2.5593    61.8601 </r>
       <r>    -0.6289     1.6429    61.9352 </r>
       <r>    -0.5832     1.1497    61.9877 </r>
       <r>    -0.5375     1.3962    62.0515 </r>
       <r>    -0.4918     2.4116    62.1617 </r>
       <r>    -0.4461     3.9840    62.3437 </r>
       <r>    -0.4004     5.8046    62.6089 </r>
       <r>    -0.3547     7.5991    62.9560 </r>
       <r>    -0.3091     9.1669    63.3748 </r>
       <r>    -0.2634    10.3328    63.8468 </r>
       <r>    -0.2177    10.8947    64.3446 </r>
       <r>    -0.1720    10.6515    64.8312 </r>
       <r>    -0.1263     9.5143    65.2658 </r>
       <r>    -0.0806     7.6166    65.6138 </r>
       <r>    -0.0350     5.3221    65.8569 </r>
       <r>     0.0107     3.1001    65.9985 </r>
       <r>     0.0564     1.3408    66.0598 </r>
       <r>     0.1021     0.2214    66.0699 </r>
       <r>     0.1478    -0.3070    66.0559 </r>
       <r>     0.1935    -0.4302    66.0362 </r>
       <r>     0.2391    -0.3540    66.0200 </r>
       <r>     0.2848    -0.2268    66.0097 </r>
       <r>     0.3305    -0.1216    66.0041 </r>
       <r>     0.3762    -0.0562    66.0016 </r>
       <r>     0.4219    -0.0227    66.0005 </r>
       <r>     0.4676    -0.0081    66.0002 </r>
       <r>     0.5132    -0.0025    66.0000 </r>
       <r>     0.5589    -0.0007    66.0000 </r>
       <r>     0.6046    -0.0002    66.0000 </r>
       <r>     0.6503    -0.0000    66.0000 </r>
       <r>     0.6960    -0.0000    66.0000 </r>
       <r>     0.7417    -0.0000    66.0000 </r>
       <r>     0.7874    -0.0000    66.0000 </r>
       <r>     0.8330    -0.0000    66.0000 </r>
       <r>     0.8787    -0.0000    66.0000 </r>
       <r>     0.9244    -0.0000    66.0000 </r>
       <r>     0.9701    -0.0000    66.0000 </r>
       <r>     1.0158    -0.0000    66.0000 </r>
       <r>     1.0615    -0.0000    66.0000 </r>
       <r>     1.1071    -0.0000    66.0000 </r>
       <r>     1.1528     0.0000    66.0000 </r>
       <r>     1.1985     0.0000    66.0000 </r>
       <r>     1.2442     0.0000    66.0000 </r>
       <r>     1.2899     0.0000    66.0000 </r>
       <r>     1.3356     0.0000    66.0000 </r>
       <r>     1.3812     0.0000    66.0000 </r>
       <r>     1.4269     0.0000    66.0000 </r>
       <r>     1.4726     0.0000    66.0000 </r>
       <r>     1.5183     0.0000    66.0000 </r>
       <r>     1.5640     0.0000    66.0000 </r>
       <r>     1.6097     0.0000    66.0000 </r>
       <r>     1.6553     0.0000    66.0000 </r>
       <r>     1.7010     0.0000    66.0000 </r>
       <r>     1.7467     0.0000    66.0000 </r>
       <r>     1.7924     0.0000    66.0000 </r>
       <r>     1.8381     0.0000    66.0000 </r>
       <r>     1.8838     0.0000    66.0000 </r>
      </set>
     </set>
    </array>
   </total>
  </dos>
 </calculation>
 <structure name="finalpos" >
  <crystal>
   <varray name="basis" >
    <v>      23.40337035       0.00000000       0.00000000 </v>
    <v>       0.00000000      25.71531747       0.00000000 </v>
    <v>       0.00000000       0.00000000      21.53038177 </v>
   </varray>
   <i name="volume">  12957.52413134 </i>
   <varray name="rec_basis" >
    <v>       0.04272889       0.00000000       0.00000000 </v>
    <v>       0.00000000       0.03888733       0.00000000 </v>
    <v>       0.00000000       0.00000000       0.04644599 </v>
   </varray>
  </crystal>
  <varray name="positions" >
   <v>       0.52077772       0.47732400       0.43674539 </v>
   <v>       0.47844963       0.54621068       0.53051255 </v>
   <v>       0.54128260       0.42730367       0.52265561 </v>
   <v>       0.44968435       0.45870970       0.50811780 </v>
   <v>       0.43343862       0.52887094       0.43002232 </v>
   <v>       0.52373315       0.56988871       0.43957737 </v>
   <v>       0.49983416       0.47872401       0.60725251 </v>
   <v>       0.43183572       0.43825105       0.39960014 </v>
   <v>       0.57972680       0.51736983       0.51987558 </v>
   <v>       0.43818368       0.61722697       0.46999854 </v>
  </varray>
 </structure>
</modeling>
