unknown system                          
            1
    23.403370    0.000000    0.000000
     0.000000   25.715317    0.000000
     0.000000    0.000000   21.530382
   Ni   Pd
     6     4
Direct configuration=     1
   0.48751647  0.48227098  0.48175843
   0.47642466  0.56697358  0.53172108
   0.55661221  0.42771571  0.53309849
   0.47715671  0.39082526  0.47243756
   0.42125042  0.54291769  0.43476360
   0.52623703  0.55878484  0.43005916
   0.49781982  0.48760454  0.59658980
   0.41861705  0.44809156  0.40888560
   0.57495479  0.52432250  0.52617703
   0.46035726  0.63037290  0.44886704
Direct configuration=     2
   0.48740627  0.48188881  0.48141675
   0.47677068  0.56607886  0.52994059
   0.55496717  0.42795265  0.53197216
   0.47814151  0.39247907  0.47362481
   0.42309130  0.54250638  0.43564928
   0.52457930  0.55821762  0.43171802
   0.49686822  0.48713266  0.59773284
   0.41820331  0.44818823  0.40812946
   0.57678134  0.52505745  0.52539996
   0.46013732  0.63037783  0.44877394
Direct configuration=     3
   0.48726704  0.48140597  0.48098507
   0.47720784  0.56494847  0.52769113
   0.55288883  0.42825199  0.53054915
   0.47938570  0.39456850  0.47512478
   0.42541706  0.54198674  0.43676824
   0.52248493  0.55750099  0.43381381
   0.49566597  0.48653650  0.59917694
   0.41768060  0.44831036  0.40717415
   0.57908900  0.52598598  0.52441823
   0.45985945  0.63038406  0.44865631
Direct configuration=     4
   0.48785394  0.48154045  0.48160048
   0.47769253  0.56369034  0.52793546
   0.55173440  0.42922406  0.53016860
   0.47964131  0.39540539  0.47583158
   0.42528034  0.54125249  0.43676621
   0.52272163  0.55683171  0.43419699
   0.49589463  0.48655323  0.59858376
   0.41712426  0.44833139  0.40619862
   0.57978842  0.52575410  0.52469006
   0.45921497  0.63129639  0.44838605
Direct configuration=     5
   0.48783888  0.48153700  0.48158470
   0.47768010  0.56372260  0.52792919
   0.55176401  0.42919913  0.53017836
   0.47963475  0.39538393  0.47581346
   0.42528384  0.54127132  0.43676626
   0.52271556  0.55684887  0.43418716
   0.49588877  0.48655280  0.59859897
   0.41713853  0.44833085  0.40622364
   0.57977048  0.52576005  0.52468309
   0.45923150  0.63127299  0.44839298
Direct configuration=     6
   0.48758316  0.48202372  0.48126795
   0.47781070  0.56343533  0.52831422
   0.55202295  0.42970301  0.53053449
   0.47909358  0.39534420  0.47577132
   0.42488719  0.54101873  0.43660640
   0.52312420  0.55682507  0.43394630
   0.49626983  0.48670635  0.59838620
   0.41707070  0.44837433  0.40583199
   0.58017477  0.52541635  0.52522922
   0.45890933  0.63103247  0.44846972
Direct configuration=     7
   0.48741905  0.48233607  0.48106468
   0.47789452  0.56325097  0.52856131
   0.55218912  0.43002637  0.53076304
   0.47874628  0.39531870  0.47574427
   0.42463264  0.54085663  0.43650382
   0.52338644  0.55680980  0.43379172
   0.49651437  0.48680488  0.59824966
   0.41702717  0.44840224  0.40558066
   0.58043422  0.52519578  0.52557969
   0.45870259  0.63087812  0.44851897
Direct configuration=     8
   0.48725454  0.48223051  0.48065807
   0.47811698  0.56322274  0.52845847
   0.55215902  0.43038453  0.53061098
   0.47832112  0.39578142  0.47599537
   0.42446150  0.54084937  0.43639556
   0.52350578  0.55694425  0.43386363
   0.49681323  0.48697743  0.59848731
   0.41703923  0.44839151  0.40507632
   0.58088478  0.52497494  0.52605637
   0.45839024  0.63012286  0.44875574
Direct configuration=     9
   0.48711574  0.48214144  0.48031497
   0.47830468  0.56319893  0.52837169
   0.55213362  0.43068675  0.53048267
   0.47796237  0.39617186  0.47620725
   0.42431708  0.54084323  0.43630421
   0.52360647  0.55705769  0.43392430
   0.49706540  0.48712303  0.59868783
   0.41704941  0.44838245  0.40465075
   0.58126496  0.52478860  0.52645860
   0.45812669  0.62948557  0.44895552
Direct configuration=    10
   0.48724827  0.48241451  0.48017843
   0.47874517  0.56285449  0.52830179
   0.55191735  0.43085421  0.53000363
   0.47743653  0.39652558  0.47669164
   0.42425469  0.54052406  0.43614495
   0.52376403  0.55692095  0.43433110
   0.49732474  0.48739975  0.59898443
   0.41709175  0.44838700  0.40389644
   0.58155328  0.52478350  0.52667470
   0.45761060  0.62921551  0.44915069
Direct configuration=    11
   0.48735235  0.48262894  0.48007122
   0.47909107  0.56258401  0.52824690
   0.55174752  0.43098572  0.52962745
   0.47702361  0.39680334  0.47707201
   0.42420569  0.54027343  0.43601989
   0.52388776  0.55681357  0.43465054
   0.49752839  0.48761704  0.59921733
   0.41712501  0.44839057  0.40330412
   0.58177968  0.52477949  0.52684440
   0.45720534  0.62900345  0.44930395
Direct configuration=    12
   0.48726739  0.48268435  0.47996329
   0.47923826  0.56248286  0.52869585
   0.55163377  0.43090970  0.52937937
   0.47623658  0.39689857  0.47749686
   0.42427080  0.53984852  0.43584166
   0.52417366  0.55691269  0.43457329
   0.49782970  0.48770529  0.59937722
   0.41754174  0.44840324  0.40280833
   0.58199776  0.52495678  0.52679906
   0.45675675  0.62907755  0.44942288
Direct configuration=    13
   0.48721932  0.48271570  0.47990223
   0.47932154  0.56242563  0.52894986
   0.55156942  0.43086669  0.52923901
   0.47579129  0.39695245  0.47773723
   0.42430764  0.53960812  0.43574082
   0.52433542  0.55696877  0.43452959
   0.49800018  0.48775522  0.59946768
   0.41777751  0.44841040  0.40252782
   0.58212114  0.52505709  0.52677340
   0.45650295  0.62911948  0.44949017
Direct configuration=    14
   0.48722050  0.48274865  0.47993230
   0.47937737  0.56245994  0.52905766
   0.55151238  0.43080262  0.52912424
   0.47523163  0.39698277  0.47806483
   0.42443330  0.53950617  0.43566007
   0.52433770  0.55715214  0.43454986
   0.49823601  0.48772590  0.59949342
   0.41812445  0.44837187  0.40220390
   0.58217577  0.52514335  0.52667336
   0.45629730  0.62898615  0.44959817
Direct configuration=    15
   0.48722401  0.48284750  0.48002249
   0.47954487  0.56256288  0.52938107
   0.55134128  0.43061039  0.52877994
   0.47355263  0.39707372  0.47904762
   0.42481031  0.53920031  0.43541782
   0.52434452  0.55770223  0.43461070
   0.49894352  0.48763795  0.59957066
   0.41916526  0.44825628  0.40123212
   0.58233965  0.52540212  0.52637323
   0.45568036  0.62858618  0.44992216
Direct configuration=    16
   0.48723104  0.48304519  0.48020286
   0.47987987  0.56276875  0.53002790
   0.55099906  0.43022593  0.52809135
   0.47019464  0.39725563  0.48101321
   0.42556432  0.53858859  0.43493332
   0.52435817  0.55880241  0.43473236
   0.50035852  0.48746205  0.59972514
   0.42124689  0.44802510  0.39928857
   0.58266743  0.52591966  0.52577297
   0.45444646  0.62778624  0.45057014
Direct configuration=    17
   0.48734513  0.48303471  0.48032765
   0.47999202  0.56276759  0.53003407
   0.55088037  0.43011262  0.52788259
   0.46952379  0.39745332  0.48161223
   0.42559199  0.53849252  0.43477296
   0.52429066  0.55899947  0.43489350
   0.50068330  0.48738397  0.59968529
   0.42183894  0.44797000  0.39885608
   0.58264291  0.52591102  0.52558231
   0.45415730  0.62775434  0.45071113
Direct configuration=    18
   0.48768739  0.48300328  0.48070202
   0.48032845  0.56276411  0.53005259
   0.55052430  0.42977267  0.52725632
   0.46751124  0.39804639  0.48340932
   0.42567499  0.53820430  0.43429189
   0.52408812  0.55959067  0.43537689
   0.50165766  0.48714973  0.59956574
   0.42361512  0.44780469  0.39755860
   0.58256936  0.52588508  0.52501033
   0.45328980  0.62765864  0.45113411
Direct configuration=    19
   0.48837191  0.48294042  0.48145075
   0.48100131  0.56275715  0.53008963
   0.54981215  0.42909278  0.52600378
   0.46348612  0.39923253  0.48700348
   0.42584099  0.53762785  0.43332976
   0.52368304  0.56077305  0.43634367
   0.50360637  0.48668125  0.59932664
   0.42716747  0.44747407  0.39496365
   0.58242226  0.52583321  0.52386638
   0.45155480  0.62746724  0.45198006
Direct configuration=    20
   0.48786621  0.48298686  0.48089761
   0.48050422  0.56276229  0.53006227
   0.55033826  0.42959506  0.52692911
   0.46645973  0.39835625  0.48434824
   0.42571835  0.53805371  0.43404055
   0.52398230  0.55989955  0.43562945
   0.50216673  0.48702735  0.59950328
   0.42454312  0.44771832  0.39688071
   0.58253094  0.52587153  0.52471149
   0.45283656  0.62760864  0.45135510
Direct configuration=    21
   0.48778397  0.48321830  0.48072766
   0.48055039  0.56272680  0.53009991
   0.55036141  0.42909122  0.52660534
   0.46541577  0.39893677  0.48555068
   0.42564610  0.53784118  0.43377990
   0.52381051  0.56013795  0.43581488
   0.50259832  0.48683251  0.59948937
   0.42592021  0.44766331  0.39640464
   0.58257974  0.52561005  0.52431163
   0.45227999  0.62782146  0.45157379
Direct configuration=    22
   0.48759280  0.48375629  0.48033260
   0.48065771  0.56264431  0.53018740
   0.55041521  0.42792002  0.52585272
   0.46298902  0.40028620  0.48834582
   0.42547815  0.53734715  0.43317402
   0.52341120  0.56069212  0.43624593
   0.50360158  0.48637962  0.59945703
   0.42912132  0.44753545  0.39529800
   0.58269320  0.52500223  0.52338215
   0.45098623  0.62831617  0.45208214
Direct configuration=    23
   0.48796304  0.48399234  0.48034652
   0.48041504  0.56271687  0.53056858
   0.55020527  0.42738769  0.52541784
   0.46180781  0.40130010  0.49006352
   0.42514352  0.53757465  0.43279529
   0.52308232  0.56118511  0.43598729
   0.50399156  0.48590665  0.59912711
   0.43120427  0.44731335  0.39491281
   0.58283038  0.52423393  0.52275924
   0.45030321  0.62826887  0.45237961
Direct configuration=    24
   0.48825996  0.48418164  0.48035769
   0.48022043  0.56277506  0.53087426
   0.55003691  0.42696078  0.52506908
   0.46086051  0.40211320  0.49144107
   0.42487516  0.53775709  0.43249156
   0.52281858  0.56158046  0.43577987
   0.50430431  0.48552735  0.59886253
   0.43287473  0.44713523  0.39460389
   0.58294039  0.52361779  0.52225969
   0.44975545  0.62823094  0.45261816
Direct configuration=    25
   0.48861138  0.48472539  0.48025762
   0.48013183  0.56280107  0.53078501
   0.54994279  0.42695521  0.52503398
   0.46064873  0.40232270  0.49176802
   0.42505280  0.53776442  0.43264606
   0.52253774  0.56172410  0.43568122
   0.50401688  0.48525391  0.59862064
   0.43338281  0.44707799  0.39489170
   0.58292737  0.52326929  0.52191289
   0.44969409  0.62798548  0.45276065
Direct configuration=    26
   0.48869355  0.48485254  0.48023422
   0.48011111  0.56280715  0.53076414
   0.54992078  0.42695390  0.52502578
   0.46059921  0.40237168  0.49184448
   0.42509434  0.53776613  0.43268219
   0.52247207  0.56175769  0.43565815
   0.50394966  0.48518997  0.59856408
   0.43350162  0.44706460  0.39495900
   0.58292433  0.52318780  0.52183180
   0.44967975  0.62792808  0.45279397
Direct configuration=    27
   0.48907352  0.48488365  0.48006220
   0.48009568  0.56289065  0.53089489
   0.54982363  0.42696303  0.52497559
   0.46062832  0.40276790  0.49204786
   0.42510549  0.53760342  0.43284150
   0.52251561  0.56193777  0.43536853
   0.50338678  0.48492251  0.59832595
   0.43379972  0.44703069  0.39542431
   0.58294853  0.52292486  0.52150910
   0.44956913  0.62795508  0.45290787
Direct configuration=    28
   0.48935195  0.48490644  0.47993614
   0.48008438  0.56295182  0.53099070
   0.54975243  0.42696972  0.52493882
   0.46064966  0.40305824  0.49219689
   0.42511367  0.53748419  0.43295824
   0.52254752  0.56206973  0.43515631
   0.50297431  0.48472652  0.59815146
   0.43401816  0.44700585  0.39576527
   0.58296626  0.52273218  0.52127264
   0.44948808  0.62797486  0.45299134
Direct configuration=    29
   0.48974551  0.48507532  0.47969847
   0.48021668  0.56297146  0.53092765
   0.54992872  0.42684818  0.52498105
   0.46061735  0.40328079  0.49256476
   0.42511561  0.53743081  0.43319352
   0.52260684  0.56224836  0.43499605
   0.50233121  0.48450267  0.59789542
   0.43408045  0.44691241  0.39593634
   0.58296295  0.52257078  0.52106539
   0.44934111  0.62803877  0.45309915
Direct configuration=    30
   0.49070651  0.48548768  0.47911812
   0.48053975  0.56301942  0.53077371
   0.55035918  0.42655140  0.52508416
   0.46053846  0.40382422  0.49346304
   0.42512034  0.53730046  0.43376803
   0.52275169  0.56268455  0.43460471
   0.50076086  0.48395606  0.59727023
   0.43423254  0.44668425  0.39635406
   0.58295486  0.52217667  0.52055932
   0.44898224  0.62819482  0.45336242
Direct configuration=    31
   0.49103477  0.48536951  0.47871648
   0.48074625  0.56305912  0.53058864
   0.55059742  0.42644811  0.52521007
   0.46049611  0.40412445  0.49399314
   0.42515930  0.53737822  0.43402605
   0.52276059  0.56294986  0.43453579
   0.50020800  0.48367405  0.59682607
   0.43413056  0.44656053  0.39638574
   0.58297202  0.52213667  0.52060482
   0.44884139  0.62817903  0.45347099
Direct configuration=    32
   0.49201956  0.48501499  0.47751157
   0.48136576  0.56317821  0.53003343
   0.55131215  0.42613822  0.52558779
   0.46036905  0.40502515  0.49558344
   0.42527620  0.53761150  0.43480013
   0.52278728  0.56374578  0.43432904
   0.49854943  0.48282801  0.59549358
   0.43382464  0.44618936  0.39648080
   0.58302349  0.52201667  0.52074134
   0.44841886  0.62813167  0.45379669
Direct configuration=    33
   0.49398914  0.48430595  0.47510174
   0.48260477  0.56341638  0.52892299
   0.55274159  0.42551845  0.52634323
   0.46011495  0.40682653  0.49876405
   0.42550999  0.53807806  0.43634829
   0.52284066  0.56533763  0.43391552
   0.49523228  0.48113594  0.59282861
   0.43321280  0.44544701  0.39667090
   0.58312643  0.52177666  0.52101438
   0.44757380  0.62803693  0.45444809
Direct configuration=    34
   0.49412006  0.48428422  0.47493927
   0.48266404  0.56341352  0.52887790
   0.55282164  0.42549297  0.52637930
   0.46008762  0.40693276  0.49895691
   0.42553105  0.53807703  0.43643342
   0.52286133  0.56541410  0.43388348
   0.49504320  0.48102959  0.59266191
   0.43317060  0.44540987  0.39670245
   0.58312749  0.52176923  0.52103795
   0.44751941  0.62805626  0.45448520
Direct configuration=    35
   0.49451283  0.48421903  0.47445183
   0.48284184  0.56340492  0.52874263
   0.55306176  0.42541654  0.52648753
   0.46000562  0.40725142  0.49953552
   0.42559421  0.53807396  0.43668883
   0.52292334  0.56564353  0.43378736
   0.49447594  0.48071052  0.59216182
   0.43304398  0.44529846  0.39679710
   0.58313065  0.52174694  0.52110865
   0.44735624  0.62811424  0.45459653
Direct configuration=    36
   0.49529838  0.48408865  0.47347695
   0.48319744  0.56338772  0.52847208
   0.55354202  0.42526368  0.52670399
   0.45984164  0.40788874  0.50069273
   0.42572055  0.53806780  0.43719965
   0.52304735  0.56610240  0.43359513
   0.49334143  0.48007239  0.59116163
   0.43279075  0.44507563  0.39698640
   0.58313697  0.52170235  0.52125005
   0.44702989  0.62823019  0.45481919
Direct configuration=    37
   0.49686946  0.48382789  0.47152719
   0.48390865  0.56335333  0.52793099
   0.55450253  0.42495796  0.52713691
   0.45951367  0.40916339  0.50300715
   0.42597321  0.53805550  0.43822128
   0.52329539  0.56702012  0.43321067
   0.49107241  0.47879612  0.58916126
   0.43228428  0.44462998  0.39736500
   0.58314961  0.52161316  0.52153285
   0.44637719  0.62846210  0.45526450
Direct configuration=    38
   0.50001163  0.48330637  0.46762767
   0.48533107  0.56328454  0.52684880
   0.55642356  0.42434652  0.52800275
   0.45885773  0.41171269  0.50763600
   0.42647854  0.53803089  0.44026455
   0.52379146  0.56885557  0.43244175
   0.48653437  0.47624360  0.58516051
   0.43127135  0.44373866  0.39812221
   0.58317489  0.52143480  0.52209845
   0.44507180  0.62892592  0.45615512
Direct configuration=    39
   0.49746747  0.48372864  0.47078504
   0.48417936  0.56334024  0.52772503
   0.55486814  0.42484159  0.52730170
   0.45938883  0.40964856  0.50388810
   0.42606938  0.53805082  0.43861015
   0.52338980  0.56736944  0.43306433
   0.49020875  0.47831033  0.58839984
   0.43209150  0.44446034  0.39750911
   0.58315442  0.52157922  0.52164050
   0.44612876  0.62855037  0.45543400
Direct configuration=    40
   0.49792984  0.48375600  0.47026127
   0.48416998  0.56322547  0.52775917
   0.55495325  0.42489527  0.52728328
   0.45927508  0.40998025  0.50431777
   0.42619377  0.53783412  0.43873612
   0.52353846  0.56742666  0.43294966
   0.48979907  0.47802027  0.58797896
   0.43195068  0.44444056  0.39781524
   0.58312756  0.52160920  0.52171766
   0.44600872  0.62869177  0.45553868
Direct configuration=    41
   0.49931695  0.48383808  0.46868995
   0.48414182  0.56288118  0.52786159
   0.55520859  0.42505628  0.52722801
   0.45893381  0.41097531  0.50560677
   0.42656694  0.53718403  0.43911401
   0.52398443  0.56759833  0.43260565
   0.48857003  0.47715007  0.58671629
   0.43152823  0.44438119  0.39873364
   0.58304699  0.52169913  0.52194916
   0.44564863  0.62911595  0.45585274
Direct configuration=    42
   0.50209116  0.48400224  0.46554730
   0.48408551  0.56219260  0.52806642
   0.55571928  0.42537832  0.52711749
   0.45825128  0.41296544  0.50818477
   0.42731328  0.53588386  0.43986980
   0.52487637  0.56794166  0.43191763
   0.48611196  0.47540967  0.58419096
   0.43068331  0.44426246  0.40057043
   0.58288584  0.52187900  0.52241215
   0.44492843  0.62996431  0.45648086
Direct configuration=    43
   0.50012734  0.48388603  0.46777192
   0.48412537  0.56268004  0.52792142
   0.55535777  0.42515036  0.52719573
   0.45873443  0.41155666  0.50635985
   0.42678496  0.53680423  0.43933479
   0.52424498  0.56769862  0.43240466
   0.48785199  0.47664167  0.58597860
   0.43128141  0.44434651  0.39927020
   0.58299991  0.52175167  0.52208440
   0.44543824  0.62936377  0.45603623
Direct configuration=    44
   0.50068504  0.48385994  0.46736901
   0.48383467  0.56249204  0.52787085
   0.55526109  0.42532989  0.52692747
   0.45859734  0.41184308  0.50628537
   0.42698596  0.53666006  0.43928466
   0.52430319  0.56762977  0.43249566
   0.48769829  0.47663580  0.58600672
   0.43106041  0.44438637  0.39978415
   0.58298338  0.52189038  0.52216966
   0.44553705  0.62915224  0.45616427
Direct configuration=    45
   0.50235812  0.48378167  0.46616025
   0.48296254  0.56192803  0.52771913
   0.55497103  0.42586850  0.52612268
   0.45818608  0.41270233  0.50606195
   0.42758896  0.53622754  0.43913426
   0.52447782  0.56742322  0.43276864
   0.48723718  0.47661821  0.58609109
   0.43039742  0.44450594  0.40132600
   0.58293377  0.52230648  0.52242541
   0.44583348  0.62851764  0.45654839
Direct configuration=    46
   0.50570430  0.48362511  0.46374274
   0.48121830  0.56080002  0.52741569
   0.55439092  0.42694571  0.52451311
   0.45736356  0.41442084  0.50561510
   0.42879497  0.53536251  0.43883347
   0.52482708  0.56701012  0.43331460
   0.48631497  0.47658302  0.58625984
   0.42907142  0.44474509  0.40440971
   0.58283455  0.52313870  0.52293692
   0.44642634  0.62724844  0.45731665
Direct configuration=    47
   0.50662006  0.48346787  0.46260279
   0.48066575  0.55972072  0.52767017
   0.55447293  0.42706251  0.52414923
   0.45703977  0.41501758  0.50574799
   0.42900001  0.53524449  0.43850847
   0.52551839  0.56722906  0.43331901
   0.48626117  0.47686777  0.58660257
   0.42808124  0.44456534  0.40484972
   0.58282162  0.52370927  0.52343935
   0.44646547  0.62699495  0.45746849
Direct configuration=    48
   0.50831274  0.48317721  0.46049573
   0.47964444  0.55772576  0.52814056
   0.55462451  0.42727840  0.52347666
   0.45644127  0.41612060  0.50599363
   0.42937900  0.53502635  0.43790776
   0.52679620  0.56763374  0.43332716
   0.48616172  0.47739410  0.58723608
   0.42625101  0.44423309  0.40566304
   0.58279772  0.52476390  0.52436803
   0.44653781  0.62652640  0.45774916
Direct configuration=    49
   0.50832076  0.48304672  0.45907620
   0.47941842  0.55646252  0.52732905
   0.55470383  0.42746318  0.52367781
   0.45654140  0.41711320  0.50669304
   0.42976405  0.53497856  0.43727977
   0.52738267  0.56825701  0.43395570
   0.48674487  0.47726993  0.58793935
   0.42501102  0.44398036  0.40542835
   0.58231603  0.52520642  0.52490721
   0.44674339  0.62610165  0.45807131
Direct configuration=    50
   0.50832594  0.48296255  0.45816057
   0.47927263  0.55564769  0.52680560
   0.55475499  0.42758237  0.52380757
   0.45660598  0.41775346  0.50714419
   0.43001241  0.53494773  0.43687470
   0.52776096  0.56865904  0.43436113
   0.48712101  0.47718983  0.58839298
   0.42421118  0.44381734  0.40527697
   0.58200532  0.52549187  0.52525499
   0.44687600  0.62582767  0.45827911
Direct configuration=    51
   0.50833629  0.48279421  0.45632929
   0.47898106  0.55401802  0.52575870
   0.55485731  0.42782075  0.52406707
   0.45673516  0.41903399  0.50804648
   0.43050914  0.53488608  0.43606456
   0.52851754  0.56946310  0.43517198
   0.48787331  0.47702963  0.58930024
   0.42261150  0.44349130  0.40497421
   0.58138390  0.52606275  0.52595057
   0.44714122  0.62527972  0.45869470
Direct configuration=    52
   0.50822255  0.48248504  0.45550214
   0.47872717  0.55288084  0.52511837
   0.55475348  0.42845891  0.52428062
   0.45685272  0.42015747  0.50796757
   0.43047535  0.53454176  0.43466480
   0.52916316  0.56999851  0.43581385
   0.48877707  0.47681450  0.59065592
   0.42183129  0.44337731  0.40515369
   0.58090325  0.52592662  0.52609687
   0.44724037  0.62523858  0.45910400
Direct configuration=    53
   0.50788135  0.48155755  0.45302068
   0.47796551  0.54946930  0.52319735
   0.55444200  0.43037337  0.52492126
   0.45720543  0.42352793  0.50773084
   0.43037397  0.53350882  0.43046553
   0.53110003  0.57160476  0.43773944
   0.49148836  0.47616912  0.59472295
   0.41949065  0.44303532  0.40569212
   0.57946130  0.52551823  0.52653576
   0.44753784  0.62511517  0.46033187
Direct configuration=    54
   0.50803363  0.48167175  0.45221787
   0.47738582  0.54841222  0.52275377
   0.55446562  0.43085733  0.52505960
   0.45710184  0.42446474  0.50781494
   0.43046712  0.53364706  0.42929007
   0.53141976  0.57191677  0.43819017
   0.49217342  0.47607706  0.59603145
   0.41891263  0.44280282  0.40579321
   0.57935634  0.52522890  0.52654567
   0.44763024  0.62480091  0.46066107
Direct configuration=    55
   0.50849047  0.48201437  0.44980942
   0.47564675  0.54524097  0.52142303
   0.55453648  0.43230921  0.52547459
   0.45679106  0.42727517  0.50806722
   0.43074659  0.53406177  0.42576369
   0.53237896  0.57285282  0.43954237
   0.49422860  0.47580086  0.59995695
   0.41717858  0.44210534  0.40609649
   0.57904149  0.52436090  0.52657540
   0.44790746  0.62385815  0.46164865
Direct configuration=    56
   0.50940415  0.48269961  0.44499253
   0.47216861  0.53889849  0.51876154
   0.55467820  0.43521296  0.52630458
   0.45616949  0.43289603  0.50857178
   0.43130553  0.53489121  0.41871093
   0.53429735  0.57472491  0.44224676
   0.49833896  0.47524847  0.60780796
   0.41371048  0.44071037  0.40670305
   0.57841177  0.52262489  0.52663486
   0.44846188  0.62197262  0.46362381
Direct configuration=    57
   0.50867261  0.48215098  0.44884915
   0.47495336  0.54397656  0.52089245
   0.55456473  0.43288809  0.52564005
   0.45666714  0.42839572  0.50816780
   0.43085802  0.53422713  0.42435768
   0.53276140  0.57322603  0.44008151
   0.49504802  0.47569074  0.60152210
   0.41648719  0.44182724  0.40621741
   0.57891595  0.52401481  0.52658725
   0.44801799  0.62348226  0.46204241
Direct configuration=    58
   0.50911572  0.48254759  0.44771369
   0.47402606  0.54261436  0.52081246
   0.55442863  0.43282787  0.52553770
   0.45645183  0.42979085  0.50898607
   0.43136752  0.53464833  0.42344135
   0.53254113  0.57309473  0.44040118
   0.49541666  0.47579270  0.60214645
   0.41639327  0.44178191  0.40638944
   0.57923255  0.52395522  0.52654374
   0.44797305  0.62282599  0.46238573
Direct configuration=    59
   0.51044504  0.48373741  0.44430733
   0.47124416  0.53852776  0.52057251
   0.55402035  0.43264721  0.52523065
   0.45580588  0.43397624  0.51144086
   0.43289600  0.53591195  0.42069235
   0.53188032  0.57270083  0.44136019
   0.49652260  0.47609859  0.60401951
   0.41611149  0.44164593  0.40690551
   0.58018235  0.52377644  0.52641320
   0.44783824  0.62085719  0.46341569
Direct configuration=    60
   0.51091041  0.48344184  0.44352777
   0.47050921  0.53699265  0.52040084
   0.55359578  0.43259357  0.52481791
   0.45556311  0.43607242  0.51194011
   0.43341872  0.53583318  0.41966283
   0.53156879  0.57228087  0.44167122
   0.49698666  0.47630023  0.60445606
   0.41668927  0.44207743  0.40745940
   0.58025498  0.52372658  0.52629099
   0.44744948  0.62056078  0.46413068
Direct configuration=    61
   0.51230654  0.48255513  0.44118908
   0.46830438  0.53238730  0.51988585
   0.55232207  0.43243265  0.52357968
   0.45483482  0.44236097  0.51343785
   0.43498688  0.53559686  0.41657429
   0.53063421  0.57102101  0.44260430
   0.49837883  0.47690516  0.60576571
   0.41842260  0.44337192  0.40912106
   0.58047288  0.52357699  0.52592435
   0.44628320  0.61967155  0.46627563
Direct configuration=    62
   0.51196997  0.48276889  0.44175288
   0.46883592  0.53349754  0.52001000
   0.55262913  0.43247145  0.52387819
   0.45501039  0.44084495  0.51307678
   0.43460883  0.53565383  0.41731887
   0.53085951  0.57132474  0.44237936
   0.49804321  0.47675933  0.60544998
   0.41800474  0.44305985  0.40872047
   0.58042035  0.52361305  0.52601274
   0.44656436  0.61988592  0.46575853
Direct configuration=    63
   0.51208504  0.48269581  0.44156012
   0.46865419  0.53311796  0.51996755
   0.55252415  0.43245818  0.52377613
   0.45495036  0.44136327  0.51320023
   0.43473808  0.53563435  0.41706430
   0.53078248  0.57122089  0.44245626
   0.49815796  0.47680919  0.60555793
   0.41814760  0.44316655  0.40885743
   0.58043831  0.52360072  0.52598252
   0.44646824  0.61981263  0.46593533
Direct configuration=    64
   0.51299695  0.48168516  0.44128834
   0.46838287  0.53283673  0.51892404
   0.55212026  0.43247723  0.52320343
   0.45406351  0.44292432  0.51330432
   0.43530027  0.53575765  0.41654033
   0.53013857  0.57097175  0.44257350
   0.49911078  0.47702403  0.60663490
   0.41891702  0.44349827  0.40905973
   0.57991640  0.52335530  0.52585264
   0.44599978  0.61934913  0.46697658
Direct configuration=    65
   0.51449112  0.48002921  0.44084302
   0.46793831  0.53237595  0.51721424
   0.55145850  0.43250843  0.52226507
   0.45261041  0.44548209  0.51347487
   0.43622143  0.53595967  0.41568181
   0.52908352  0.57056352  0.44276560
   0.50067197  0.47737604  0.60839951
   0.42017770  0.44404179  0.40939119
   0.57906125  0.52295316  0.52563984
   0.44523220  0.61858969  0.46868266
Direct configuration=    66
   0.51381686  0.48077647  0.44104397
   0.46813892  0.53258388  0.51798580
   0.55175713  0.43249435  0.52268851
   0.45326614  0.44432788  0.51339791
   0.43580575  0.53586851  0.41606922
   0.52955962  0.57074773  0.44267891
   0.49996747  0.47721719  0.60760321
   0.41960881  0.44379652  0.40924162
   0.57944714  0.52313463  0.52573587
   0.44557858  0.61893239  0.46791278
Direct configuration=    67
   0.51463012  0.48010216  0.44090344
   0.46864463  0.53350800  0.51786946
   0.55128183  0.43220757  0.52268264
   0.45271605  0.44436981  0.51421956
   0.43622468  0.53612959  0.41581204
   0.52897831  0.57077933  0.44229822
   0.50064613  0.47744323  0.60752219
   0.41989089  0.44362773  0.40848439
   0.57885887  0.52289963  0.52581949
   0.44507491  0.61881251  0.46874639
Direct configuration=    68
   0.51525016  0.47958805  0.44079629
   0.46903018  0.53421256  0.51778075
   0.55091946  0.43198893  0.52267816
   0.45229666  0.44440178  0.51484600
   0.43654408  0.53632864  0.41561595
   0.52853512  0.57080341  0.44200798
   0.50116355  0.47761555  0.60746041
   0.42010594  0.44349904  0.40790708
   0.57841036  0.52272046  0.52588324
   0.44469090  0.61872111  0.46938194
Direct configuration=    69
   0.51513664  0.47930107  0.44081695
   0.46975131  0.53462008  0.51841245
   0.55034321  0.43131034  0.52294515
   0.45212188  0.44464020  0.51472080
   0.43694513  0.53596852  0.41556147
   0.52819128  0.57083021  0.44130071
   0.50147642  0.47798048  0.60712391
   0.42085174  0.44353149  0.40758514
   0.57810994  0.52260852  0.52584365
   0.44401887  0.61908865  0.47004757
Direct configuration=    70
   0.51502056  0.47900764  0.44083807
   0.47048866  0.53503678  0.51905836
   0.54975400  0.43061647  0.52321815
   0.45194317  0.44488398  0.51459279
   0.43735521  0.53560030  0.41550575
   0.52783970  0.57085761  0.44057753
   0.50179633  0.47835361  0.60677983
   0.42161432  0.44356466  0.40725596
   0.57780275  0.52249405  0.52580317
   0.44333171  0.61946445  0.47072818
Direct configuration=    71
   0.51517264  0.47888738  0.44105146
   0.47095677  0.53566274  0.51945903
   0.54921366  0.42991291  0.52341656
   0.45181715  0.44539079  0.51427796
   0.43767918  0.53561524  0.41605680
   0.52732251  0.57098464  0.44003413
   0.50190302  0.47868028  0.60680626
   0.42228410  0.44326833  0.40673868
   0.57769408  0.52223815  0.52536847
   0.44290329  0.61923911  0.47114844
Direct configuration=    72
   0.51558792  0.47855900  0.44163413
   0.47223501  0.53737201  0.52055310
   0.54773821  0.42799174  0.52395835
   0.45147304  0.44677471  0.51341829
   0.43856383  0.53565603  0.41756150
   0.52591028  0.57133150  0.43855033
   0.50219434  0.47957227  0.60687844
   0.42411301  0.44245916  0.40532619
   0.57739734  0.52153937  0.52418147
   0.44173343  0.61862377  0.47229600
Direct configuration=    73
   0.51592531  0.47847505  0.44173425
   0.47246879  0.53779678  0.52092728
   0.54732279  0.42763540  0.52410292
   0.45135486  0.44728393  0.51324777
   0.43845587  0.53545751  0.41799875
   0.52579114  0.57150374  0.43826302
   0.50220275  0.47973641  0.60693602
   0.42459323  0.44224694  0.40488033
   0.57742090  0.52122754  0.52372144
   0.44141077  0.61851626  0.47254602