       N       E                     dE             d eps       ncg     rms          rms(c)
DAV:   1     0.711896909873E+03    0.71190E+03   -0.16213E+04   272   0.694E+02
DAV:   2     0.243019253887E+03   -0.46888E+03   -0.43615E+03   480   0.123E+02
DAV:   3     0.184031280924E+02   -0.22462E+03   -0.20957E+03   376   0.124E+02
DAV:   4    -0.378264385100E+02   -0.56230E+02   -0.48741E+02   408   0.564E+01
DAV:   5    -0.436700335196E+02   -0.58436E+01   -0.55035E+01   336   0.249E+01    0.261E+01
DAV:   6    -0.575917594756E+02   -0.13922E+02   -0.93749E+01   308   0.139E+02    0.520E+01
DAV:   7    -0.372684086763E+02    0.20323E+02   -0.60092E+01   314   0.824E+01    0.163E+01
DAV:   8    -0.405522084230E+02   -0.32838E+01   -0.18686E+01   388   0.654E+01    0.497E+01
DAV:   9    -0.388235761266E+02    0.17286E+01   -0.37177E+01   416   0.430E+01    0.324E+01
DAV:  10    -0.396558524239E+02   -0.83228E+00   -0.19158E+01   368   0.449E+01    0.377E+01
DAV:  11    -0.368598769931E+02    0.27960E+01   -0.13630E+01   334   0.364E+01    0.323E+01
DAV:  12    -0.354981260657E+02    0.13618E+01   -0.71733E+00   384   0.240E+01    0.172E+01
DAV:  13    -0.360640771285E+02   -0.56595E+00   -0.26947E+00   352   0.244E+01    0.289E+01
DAV:  14    -0.350052273421E+02    0.10588E+01   -0.27239E+00   342   0.199E+01    0.124E+01
DAV:  15    -0.350762363589E+02   -0.71009E-01   -0.12841E+00   382   0.138E+01    0.144E+01
DAV:  16    -0.348661151185E+02    0.21012E+00   -0.78564E-01   318   0.118E+01    0.781E+00
DAV:  17    -0.350960325228E+02   -0.22992E+00   -0.21991E-01   372   0.577E+00    0.628E+00
DAV:  18    -0.353304488748E+02   -0.23442E+00   -0.13285E-01   380   0.367E+00    0.503E+00
DAV:  19    -0.356229978166E+02   -0.29255E+00   -0.96967E-02   300   0.240E+00    0.459E+00
DAV:  20    -0.360733762651E+02   -0.45038E+00   -0.16879E-01   356   0.400E+00    0.420E+00
DAV:  21    -0.365940590946E+02   -0.52068E+00   -0.23757E-01   366   0.431E+00    0.455E+00
DAV:  22    -0.366454059249E+02   -0.51347E-01   -0.44746E-02   344   0.211E+00    0.242E+00
DAV:  23    -0.368764591684E+02   -0.23105E+00   -0.37393E-02   348   0.152E+00    0.222E+00
DAV:  24    -0.369853228568E+02   -0.10886E+00   -0.28271E-02   366   0.115E+00    0.104E+00
DAV:  25    -0.370686097409E+02   -0.83287E-01   -0.89309E-03   308   0.120E+00    0.871E-01
DAV:  26    -0.371779978088E+02   -0.10939E+00   -0.78111E-03   350   0.918E-01    0.999E-01
DAV:  27    -0.372490462543E+02   -0.71048E-01   -0.49940E-03   350   0.867E-01    0.383E-01
DAV:  28    -0.373028328952E+02   -0.53787E-01   -0.17726E-03   356   0.463E-01    0.233E-01
DAV:  29    -0.373425947630E+02   -0.39762E-01   -0.98528E-04   296   0.275E-01    0.209E-01
DAV:  30    -0.373958942657E+02   -0.53300E-01   -0.10603E-03   276   0.265E-01    0.214E-01
DAV:  31    -0.374304318182E+02   -0.34538E-01   -0.46520E-04   230   0.230E-01    0.105E-01
DAV:  32    -0.374643171009E+02   -0.33885E-01   -0.46097E-04   246   0.137E-01    0.161E-01
DAV:  33    -0.374992071348E+02   -0.34890E-01   -0.66631E-04   246   0.204E-01    0.120E-01
DAV:  34    -0.375216636280E+02   -0.22456E-01   -0.47986E-04   230   0.131E-01    0.136E-01
DAV:  35    -0.375340874444E+02   -0.12424E-01   -0.13979E-04   206   0.814E-02    0.636E-02
DAV:  36    -0.375456296209E+02   -0.11542E-01   -0.19539E-04   214   0.602E-02    0.500E-02
DAV:  37    -0.375548525316E+02   -0.92229E-02   -0.17432E-04   212   0.479E-02    0.386E-02
DAV:  38    -0.375598321472E+02   -0.49796E-02   -0.88292E-05   190   0.392E-02    0.377E-02
DAV:  39    -0.375633386308E+02   -0.35065E-02   -0.85794E-05   198   0.386E-02    0.300E-02
DAV:  40    -0.375657184021E+02   -0.23798E-02   -0.57407E-05   180   0.344E-02    0.130E-02
DAV:  41    -0.375667976990E+02   -0.10793E-02   -0.40588E-05   180   0.251E-02    0.971E-03
DAV:  42    -0.375673618796E+02   -0.56418E-03   -0.18892E-05   176   0.168E-02    0.117E-02
DAV:  43    -0.375679201385E+02   -0.55826E-03   -0.16274E-05   172   0.126E-02    0.126E-02
DAV:  44    -0.375684409575E+02   -0.52082E-03   -0.13477E-05   176   0.132E-02    0.120E-02
DAV:  45    -0.375688052136E+02   -0.36426E-03   -0.10207E-05   172   0.144E-02    0.333E-03
DAV:  46    -0.375692663892E+02   -0.46118E-03   -0.15536E-05   172   0.999E-03    0.402E-03
DAV:  47    -0.375694762791E+02   -0.20989E-03   -0.58804E-06   176   0.981E-03    0.305E-03
DAV:  48    -0.375696846037E+02   -0.20832E-03   -0.64354E-06   172   0.702E-03    0.359E-03
DAV:  49    -0.375698244285E+02   -0.13982E-03   -0.44849E-06   176   0.585E-03    0.420E-03
DAV:  50    -0.375699175231E+02   -0.93095E-04   -0.26226E-06   168   0.553E-03
   1 F= -.37569918E+02 E0= -.37569173E+02  d E =-.375699E+02  mag=     7.9947
       N       E                     dE             d eps       ncg     rms          rms(c)
DAV:   1    -0.376772199573E+02   -0.10740E+00   -0.58288E+01   264   0.276E+01    0.340E+00
DAV:   2    -0.389684464662E+02   -0.12912E+01   -0.46499E+00   366   0.328E+01    0.214E+01
DAV:   3    -0.377302020386E+02    0.12382E+01   -0.30087E+00   324   0.284E+01    0.510E+00
DAV:   4    -0.377628936924E+02   -0.32692E-01   -0.79748E-01   372   0.106E+01    0.466E+00
DAV:   5    -0.377933953003E+02   -0.30502E-01   -0.37770E-01   356   0.786E+00    0.536E+00
DAV:   6    -0.377735436740E+02    0.19852E-01   -0.21888E-01   342   0.619E+00    0.420E+00
DAV:   7    -0.377497650049E+02    0.23779E-01   -0.95931E-02   334   0.398E+00    0.736E-01
DAV:   8    -0.377699693681E+02   -0.20204E-01   -0.42989E-02   398   0.237E+00    0.281E+00
DAV:   9    -0.377581285716E+02    0.11841E-01   -0.48257E-02   350   0.254E+00    0.120E+00
DAV:  10    -0.377699193686E+02   -0.11791E-01   -0.45695E-02   358   0.233E+00    0.253E+00
DAV:  11    -0.377581483768E+02    0.11771E-01   -0.46016E-02   358   0.230E+00    0.623E-01
DAV:  12    -0.377628505089E+02   -0.47021E-02   -0.49328E-03   382   0.100E+00    0.600E-01
DAV:  13    -0.377622968548E+02    0.55365E-03   -0.18805E-03   384   0.679E-01    0.206E-01
DAV:  14    -0.377625889151E+02   -0.29206E-03   -0.41037E-04   198   0.266E-01    0.105E-01
DAV:  15    -0.377628261998E+02   -0.23728E-03   -0.16471E-04   190   0.203E-01    0.888E-02
DAV:  16    -0.377630647594E+02   -0.23856E-03   -0.80030E-05   184   0.988E-02    0.415E-02
DAV:  17    -0.377633722147E+02   -0.30746E-03   -0.41410E-05   174   0.573E-02    0.327E-02
DAV:  18    -0.377636760972E+02   -0.30388E-03   -0.34649E-05   182   0.539E-02    0.225E-02
DAV:  19    -0.377639631640E+02   -0.28707E-03   -0.26523E-05   174   0.413E-02    0.236E-02
DAV:  20    -0.377642245989E+02   -0.26143E-03   -0.16533E-05   182   0.338E-02    0.127E-02
DAV:  21    -0.377644647977E+02   -0.24020E-03   -0.10976E-05   174   0.210E-02    0.847E-03
DAV:  22    -0.377646436279E+02   -0.17883E-03   -0.67806E-06   174   0.142E-02    0.510E-03
DAV:  23    -0.377648325222E+02   -0.18889E-03   -0.45885E-06   174   0.109E-02    0.552E-03
DAV:  24    -0.377650658557E+02   -0.23333E-03   -0.50684E-06   174   0.953E-03    0.312E-03
DAV:  25    -0.377652172504E+02   -0.15139E-03   -0.34913E-06   174   0.647E-03    0.305E-03
DAV:  26    -0.377653603186E+02   -0.14307E-03   -0.25126E-06   174   0.628E-03    0.261E-03
DAV:  27    -0.377654916777E+02   -0.13136E-03   -0.22810E-06   174   0.486E-03    0.199E-03
DAV:  28    -0.377655825366E+02   -0.90859E-04   -0.14223E-06   174   0.431E-03
   2 F= -.37765583E+02 E0= -.37760779E+02  d E =-.195665E+00  mag=     8.0236
       N       E                     dE             d eps       ncg     rms          rms(c)
DAV:   1    -0.375175907244E+02    0.24790E+00   -0.22257E+02   264   0.559E+01    0.661E+00
DAV:   2    -0.417110025575E+02   -0.41934E+01   -0.15709E+01   372   0.651E+01    0.340E+01
DAV:   3    -0.382514548198E+02    0.34595E+01   -0.10087E+01   316   0.479E+01    0.148E+01
DAV:   4    -0.378516983402E+02    0.39976E+00   -0.22050E+00   340   0.249E+01    0.715E+00
DAV:   5    -0.379563408275E+02   -0.10464E+00   -0.12654E+00   340   0.166E+01    0.788E+00
DAV:   6    -0.379727971128E+02   -0.16456E-01   -0.10454E+00   342   0.126E+01    0.816E+00
DAV:   7    -0.378616681167E+02    0.11113E+00   -0.43635E-01   324   0.932E+00    0.313E+00
DAV:   8    -0.378828408277E+02   -0.21173E-01   -0.18262E-01   374   0.491E+00    0.343E+00
DAV:   9    -0.378784698217E+02    0.43710E-02   -0.73754E-02   392   0.335E+00    0.134E+00
DAV:  10    -0.379001392217E+02   -0.21669E-01   -0.71538E-02   358   0.364E+00    0.324E+00
DAV:  11    -0.378810559464E+02    0.19083E-01   -0.84694E-02   336   0.395E+00    0.109E+00
DAV:  12    -0.378892388688E+02   -0.81829E-02   -0.12296E-02   382   0.149E+00    0.696E-01
DAV:  13    -0.378896337583E+02   -0.39489E-03   -0.58922E-03   380   0.115E+00    0.571E-01
DAV:  14    -0.378890432650E+02    0.59049E-03   -0.25172E-03   368   0.792E-01    0.245E-01
DAV:  15    -0.378896029338E+02   -0.55967E-03   -0.11401E-03   316   0.418E-01    0.170E-01
DAV:  16    -0.378903176244E+02   -0.71469E-03   -0.33228E-04   180   0.253E-01    0.143E-01
DAV:  17    -0.378910392230E+02   -0.72160E-03   -0.21862E-04   188   0.177E-01    0.861E-02
DAV:  18    -0.378917285316E+02   -0.68931E-03   -0.13468E-04   182   0.128E-01    0.403E-02
DAV:  19    -0.378924072542E+02   -0.67872E-03   -0.82381E-05   182   0.592E-02    0.326E-02
DAV:  20    -0.378929003995E+02   -0.49315E-03   -0.38488E-05   184   0.426E-02    0.211E-02
DAV:  21    -0.378934012227E+02   -0.50082E-03   -0.24008E-05   174   0.321E-02    0.134E-02
DAV:  22    -0.378938713751E+02   -0.47015E-03   -0.16885E-05   182   0.280E-02    0.116E-02
DAV:  23    -0.378942775110E+02   -0.40614E-03   -0.12243E-05   182   0.202E-02    0.714E-03
DAV:  24    -0.378947587364E+02   -0.48123E-03   -0.12445E-05   180   0.131E-02    0.500E-03
DAV:  25    -0.378951692877E+02   -0.41055E-03   -0.89091E-06   182   0.110E-02    0.412E-03
DAV:  26    -0.378953975580E+02   -0.22827E-03   -0.43308E-06   174   0.100E-02    0.431E-03
DAV:  27    -0.378957330509E+02   -0.33549E-03   -0.68738E-06   180   0.101E-02    0.359E-03
DAV:  28    -0.378959588050E+02   -0.22575E-03   -0.40306E-06   174   0.755E-03    0.217E-03
DAV:  29    -0.378962381495E+02   -0.27934E-03   -0.63062E-06   180   0.679E-03    0.307E-03
DAV:  30    -0.378964204683E+02   -0.18232E-03   -0.30098E-06   174   0.706E-03    0.210E-03
DAV:  31    -0.378964879743E+02   -0.67506E-04   -0.15935E-06   176   0.480E-03
   3 F= -.37896488E+02 E0= -.37891275E+02  d E =-.326570E+00  mag=     8.0586
       N       E                     dE             d eps       ncg     rms          rms(c)
DAV:   1    -0.378475541808E+02    0.48866E-01   -0.92735E+01   264   0.352E+01    0.466E+00
DAV:   2    -0.399318120467E+02   -0.20843E+01   -0.71430E+00   342   0.471E+01    0.236E+01
DAV:   3    -0.379762440958E+02    0.19556E+01   -0.40136E+00   316   0.380E+01    0.636E+00
DAV:   4    -0.380023542561E+02   -0.26110E-01   -0.99376E-01   356   0.146E+01    0.522E+00
DAV:   5    -0.380264593727E+02   -0.24105E-01   -0.59849E-01   364   0.108E+01    0.485E+00
DAV:   6    -0.379963638021E+02    0.30096E-01   -0.22371E-01   356   0.631E+00    0.265E+00
DAV:   7    -0.379940866300E+02    0.22772E-02   -0.82997E-02   350   0.386E+00    0.154E+00
DAV:   8    -0.380063052221E+02   -0.12219E-01   -0.75540E-02   384   0.331E+00    0.224E+00
DAV:   9    -0.379990075029E+02    0.72977E-02   -0.51060E-02   350   0.344E+00    0.125E+00
DAV:  10    -0.380011344667E+02   -0.21270E-02   -0.18672E-02   374   0.198E+00    0.105E+00
DAV:  11    -0.380019683339E+02   -0.83387E-03   -0.23292E-02   352   0.217E+00    0.104E+00
DAV:  12    -0.380021263041E+02   -0.15797E-03   -0.68547E-03   348   0.123E+00    0.516E-01
DAV:  13    -0.380022236475E+02   -0.97343E-04   -0.19237E-03   326   0.679E-01    0.175E-01
DAV:  14    -0.380028768854E+02   -0.65324E-03   -0.28454E-04   204   0.231E-01    0.791E-02
DAV:  15    -0.380033576448E+02   -0.48076E-03   -0.19359E-04   188   0.171E-01    0.893E-02
DAV:  16    -0.380036661402E+02   -0.30850E-03   -0.12792E-04   188   0.141E-01    0.316E-02
DAV:  17    -0.380039845903E+02   -0.31845E-03   -0.52633E-05   182   0.579E-02    0.274E-02
DAV:  18    -0.380042870146E+02   -0.30242E-03   -0.40855E-05   192   0.559E-02    0.205E-02
DAV:  19    -0.380044639210E+02   -0.17691E-03   -0.17313E-05   176   0.374E-02    0.129E-02
DAV:  20    -0.380046645847E+02   -0.20066E-03   -0.10850E-05   184   0.250E-02    0.104E-02
DAV:  21    -0.380048345100E+02   -0.16993E-03   -0.66715E-06   176   0.174E-02    0.542E-03
DAV:  22    -0.380049911164E+02   -0.15661E-03   -0.48907E-06   176   0.976E-03    0.354E-03
DAV:  23    -0.380051274536E+02   -0.13634E-03   -0.29738E-06   176   0.825E-03    0.373E-03
DAV:  24    -0.380052591432E+02   -0.13169E-03   -0.24431E-06   176   0.822E-03    0.266E-03
DAV:  25    -0.380053307757E+02   -0.71633E-04   -0.15358E-06   176   0.575E-03
   4 F= -.38005331E+02 E0= -.38012259E+02  d E =-.108843E+00  mag=     8.0632
       N       E                     dE             d eps       ncg     rms          rms(c)
DAV:   1    -0.379925021900E+02    0.12757E-01   -0.14194E+01   264   0.136E+01    0.172E+00
DAV:   2    -0.382992325874E+02   -0.30673E+00   -0.12347E+00   366   0.169E+01    0.110E+01
DAV:   3    -0.379617354408E+02    0.33750E+00   -0.89219E-01   332   0.153E+01    0.172E+00
DAV:   4    -0.380132812020E+02   -0.51546E-01   -0.14438E-01   372   0.479E+00    0.172E+00
DAV:   5    -0.380187305507E+02   -0.54493E-02   -0.76563E-02   332   0.366E+00    0.197E+00
DAV:   6    -0.380105845731E+02    0.81460E-02   -0.21655E-02   332   0.250E+00    0.353E-01
DAV:   7    -0.380147191112E+02   -0.41345E-02   -0.12405E-02   400   0.130E+00    0.102E+00
DAV:   8    -0.380132748548E+02    0.14443E-02   -0.14821E-02   348   0.137E+00    0.666E-01
DAV:   9    -0.380143351566E+02   -0.10603E-02   -0.64469E-03   372   0.116E+00    0.804E-01
DAV:  10    -0.380126910546E+02    0.16441E-02   -0.46051E-03   348   0.106E+00    0.202E-01
DAV:  11    -0.380141450151E+02   -0.14540E-02   -0.12886E-03   276   0.480E-01    0.291E-01
DAV:  12    -0.380140843778E+02    0.60637E-04   -0.53549E-04   184   0.360E-01
   5 F= -.38014084E+02 E0= -.38025421E+02  d E =-.117596E+00  mag=     8.0644
