<?xml version="1.0" encoding="ISO-8859-1"?>
<modeling>
 <generator>
  <i name="program" type="string">vasp </i>
  <i name="version" type="string">6.1.2  </i>
  <i name="subversion" type="string">22Jul20 (build Aug  2 2021 21:04:21) gamma-only                       parallel </i>
  <i name="platform" type="string">LinuxPGI </i>
  <i name="date" type="string">2021 12 21 </i>
  <i name="time" type="string">15:45:09 </i>
 </generator>
 <incar>
  <i type="int" name="ISPIN">     2</i>
  <i type="int" name="IBRION">     2</i>
  <i type="int" name="NSW">  1000</i>
  <i type="int" name="ISIF">     0</i>
  <i type="int" name="ISYM">     0</i>
  <i name="ENCUT">    400.00000000</i>
  <i type="logical" name="LREAL"> F  </i>
  <i type="int" name="ISMEAR">     1</i>
  <i name="SIGMA">      0.20000000</i>
  <i type="logical" name="LWAVE"> F  </i>
  <i type="logical" name="LCHARG"> F  </i>
  <i type="int" name="KPAR">     1</i>
  <i type="int" name="NCORE">     8</i>
  <i type="string" name="GGA"> PE</i>
  <i type="int" name="ISPIN">     2</i>
 </incar>
 <structure name="primitive_cell" >
  <crystal>
   <varray name="basis" >
    <v>      24.40325695       0.00000000       0.00000000 </v>
    <v>       0.00000000      22.22020174       0.00000000 </v>
    <v>       0.00000000       0.00000000      21.60621523 </v>
   </varray>
   <i name="volume">  11715.86849927 </i>
   <varray name="rec_basis" >
    <v>       0.04097814       0.00000000       0.00000000 </v>
    <v>       0.00000000       0.04500409       0.00000000 </v>
    <v>       0.00000000       0.00000000       0.04628298 </v>
   </varray>
  </crystal>
  <varray name="positions" >
   <v>       0.51451131       0.43314744       0.47951015 </v>
   <v>       0.51758931       0.43941204       0.36810006 </v>
   <v>       0.46399133       0.51693677       0.42455987 </v>
   <v>       0.51048202       0.53858702       0.52287338 </v>
   <v>       0.59444456       0.47556387       0.52915248 </v>
   <v>       0.42967692       0.47143507       0.52198953 </v>
   <v>       0.51007230       0.45126413       0.59206872 </v>
   <v>       0.60429127       0.41674588       0.42890191 </v>
   <v>       0.56678178       0.52258975       0.42662912 </v>
   <v>       0.42871997       0.41369958       0.42160855 </v>
  </varray>
 </structure>
 <varray name="primitive_index" >
  <v type="int" >        1 </v>
  <v type="int" >        2 </v>
  <v type="int" >        3 </v>
  <v type="int" >        4 </v>
  <v type="int" >        5 </v>
  <v type="int" >        6 </v>
  <v type="int" >        7 </v>
  <v type="int" >        8 </v>
  <v type="int" >        9 </v>
  <v type="int" >       10 </v>
 </varray>
 <kpoints>
  <generation param="Gamma">
   <v type="int" name="divisions">       1        1        1 </v>
   <v name="usershift">      0.00000000       0.00000000       0.00000000 </v>
   <v name="genvec1">      1.00000000       0.00000000       0.00000000 </v>
   <v name="genvec2">      0.00000000       1.00000000       0.00000000 </v>
   <v name="genvec3">      0.00000000       0.00000000       1.00000000 </v>
   <v name="shift">      0.00000000       0.00000000       0.00000000 </v>
  </generation>
  <varray name="kpointlist" >
   <v>       0.00000000       0.00000000       0.00000000 </v>
  </varray>
  <varray name="weights" >
   <v>       1.00000000 </v>
  </varray>
 </kpoints>
 <parameters>
  <separator name="general" >
   <i type="string" name="SYSTEM">unknown system</i>
   <i type="logical" name="LCOMPAT"> F  </i>
  </separator>
  <separator name="electronic" >
   <i type="string" name="PREC">normal</i>
   <i name="ENMAX">    400.00000000</i>
   <i name="ENAUG">    544.56500000</i>
   <i name="EDIFF">      0.00010000</i>
   <i type="int" name="IALGO">    38</i>
   <i type="int" name="IWAVPR">    11</i>
   <i type="int" name="NBANDS">    66</i>
   <i type="int" name="NBANDSLOW">    -1</i>
   <i type="int" name="NBANDSHIGH">    -1</i>
   <i name="NELECT">    100.00000000</i>
   <i type="int" name="TURBO">     0</i>
   <i type="int" name="IRESTART">     0</i>
   <i type="int" name="NREBOOT">     0</i>
   <i type="int" name="NMIN">     0</i>
   <i name="EREF">      0.00000000</i>
   <separator name="electronic smearing" >
    <i type="int" name="ISMEAR">     1</i>
    <i name="SIGMA">      0.20000000</i>
    <i name="KSPACING">      0.50000000</i>
    <i type="logical" name="KGAMMA"> T  </i>
    <i type="logical" name="KBLOWUP"> T  </i>
   </separator>
   <separator name="electronic projectors" >
    <i type="logical" name="LREAL"> F  </i>
    <v name="ROPT">      0.00000000      0.00000000</v>
    <i type="int" name="LMAXPAW">  -100</i>
    <i type="int" name="LMAXMIX">     2</i>
    <i type="logical" name="NLSPLINE"> F  </i>
   </separator>
   <separator name="electronic startup" >
    <i type="int" name="ISTART">     0</i>
    <i type="int" name="ICHARG">     2</i>
    <i type="int" name="INIWAV">     1</i>
   </separator>
   <separator name="electronic spin" >
    <i type="int" name="ISPIN">     2</i>
    <i type="logical" name="LNONCOLLINEAR"> F  </i>
    <v name="MAGMOM">      1.00000000      1.00000000      1.00000000      1.00000000      1.00000000      1.00000000      1.00000000      1.00000000      1.00000000      1.00000000</v>
    <i name="NUPDOWN">     -1.00000000</i>
    <i type="logical" name="LSORBIT"> F  </i>
    <v name="SAXIS">      0.00000000      0.00000000      1.00000000</v>
    <i type="logical" name="LSPIRAL"> F  </i>
    <v name="QSPIRAL">      0.00000000      0.00000000      0.00000000</v>
    <i type="logical" name="LZEROZ"> F  </i>
   </separator>
   <separator name="electronic exchange-correlation" >
    <i type="logical" name="LASPH"> F  </i>
    <i type="logical" name="LMETAGGA"> F  </i>
   </separator>
   <separator name="electronic convergence" >
    <i type="int" name="NELM">    60</i>
    <i type="int" name="NELMDL">     0</i>
    <i type="int" name="NELMIN">     2</i>
    <i name="ENINI">    400.00000000</i>
    <separator name="electronic convergence detail" >
     <i type="logical" name="LDIAG"> T  </i>
     <i type="logical" name="LSUBROT"> F  </i>
     <i name="WEIMIN">      0.00100000</i>
     <i name="EBREAK">      0.00000038</i>
     <i name="DEPER">      0.30000000</i>
     <i type="int" name="NRMM">     4</i>
     <i name="TIME">      0.40000000</i>
    </separator>
   </separator>
   <separator name="electronic mixer" >
    <i name="AMIX">      0.40000000</i>
    <i name="BMIX">      1.00000000</i>
    <i name="AMIN">      0.10000000</i>
    <i name="AMIX_MAG">      1.60000000</i>
    <i name="BMIX_MAG">      1.00000000</i>
    <separator name="electronic mixer details" >
     <i type="int" name="IMIX">     4</i>
     <i type="logical" name="MIXFIRST"> F  </i>
     <i type="int" name="MAXMIX">   -45</i>
     <i name="WC">    100.00000000</i>
     <i type="int" name="INIMIX">     1</i>
     <i type="int" name="MIXPRE">     1</i>
     <i type="int" name="MREMOVE">     5</i>
    </separator>
   </separator>
   <separator name="electronic dipolcorrection" >
    <i type="logical" name="LDIPOL"> F  </i>
    <i type="logical" name="LMONO"> F  </i>
    <i type="int" name="IDIPOL">     0</i>
    <i name="EPSILON">      1.00000000</i>
    <v name="DIPOL">   -100.00000000   -100.00000000   -100.00000000</v>
    <i name="EFIELD">      0.00000000</i>
   </separator>
  </separator>
  <separator name="grids" >
   <i type="int" name="NGX">   120</i>
   <i type="int" name="NGY">   112</i>
   <i type="int" name="NGZ">   108</i>
   <i type="int" name="NGXF">   240</i>
   <i type="int" name="NGYF">   224</i>
   <i type="int" name="NGZF">   216</i>
   <i type="logical" name="ADDGRID"> F  </i>
  </separator>
  <separator name="ionic" >
   <i type="int" name="NSW">  1000</i>
   <i type="int" name="IBRION">     2</i>
   <i type="int" name="MDALGO">     0</i>
   <i type="int" name="ISIF">     0</i>
   <i name="PSTRESS">      0.00000000</i>
   <i name="EDIFFG">      0.00100000</i>
   <i type="int" name="NFREE">     1</i>
   <i name="POTIM">      0.50000000</i>
   <i name="SMASS">     -3.00000000</i>
   <i name="SCALEE">      1.00000000</i>
  </separator>
  <separator name="ionic md" >
   <i name="TEBEG">      0.00010000</i>
   <i name="TEEND">      0.00010000</i>
   <i type="int" name="NBLOCK">     1</i>
   <i type="int" name="KBLOCK">  1000</i>
   <i type="int" name="NPACO">   256</i>
   <i name="APACO">     16.00000000</i>
  </separator>
  <separator name="symmetry" >
   <i type="int" name="ISYM">     0</i>
   <i name="SYMPREC">      0.00001000</i>
  </separator>
  <separator name="dos" >
   <i type="int" name="LORBIT">     0</i>
   <v name="RWIGS">     -1.00000000     -1.00000000</v>
   <i type="int" name="NEDOS">   301</i>
   <i name="EMIN">     10.00000000</i>
   <i name="EMAX">    -10.00000000</i>
   <i name="EFERMI">      0.00000000</i>
  </separator>
  <separator name="writing" >
   <i type="int" name="NWRITE">     2</i>
   <i type="logical" name="LWAVE"> F  </i>
   <i type="logical" name="LDOWNSAMPLE"> F  </i>
   <i type="logical" name="LCHARG"> F  </i>
   <i type="logical" name="LPARD"> F  </i>
   <i type="logical" name="LVTOT"> F  </i>
   <i type="logical" name="LVHAR"> F  </i>
   <i type="logical" name="LELF"> F  </i>
   <i type="logical" name="LOPTICS"> F  </i>
   <v name="STM">      0.00000000      0.00000000      0.00000000      0.00000000      0.00000000      0.00000000      0.00000000</v>
  </separator>
  <separator name="performance" >
   <i type="int" name="NPAR">     2</i>
   <i type="int" name="NSIM">     4</i>
   <i type="int" name="NBLK">    -1</i>
   <i type="logical" name="LPLANE"> T  </i>
   <i type="logical" name="LSCALAPACK"> T  </i>
   <i type="logical" name="LSCAAWARE"> F  </i>
   <i type="logical" name="LSCALU"> F  </i>
   <i type="logical" name="LASYNC"> F  </i>
   <i type="logical" name="LORBITALREAL"> F  </i>
  </separator>
  <separator name="miscellaneous" >
   <i type="int" name="IDIOT">     3</i>
   <i type="int" name="PHON_NSTRUCT">    -1</i>
   <i type="logical" name="LMUSIC"> F  </i>
   <v name="POMASS">     58.69000000    106.42000000</v>
   <v name="DARWINR">      0.00000000      0.00000000</v>
   <v name="DARWINV">      1.00000000      1.00000000</v>
   <i type="logical" name="LCORR"> T  </i>
  </separator>
  <i type="logical" name="GGA_COMPAT"> T  </i>
  <i type="logical" name="LBERRY"> F  </i>
  <i type="int" name="ICORELEVEL">     0</i>
  <i type="logical" name="LDAU"> F  </i>
  <i type="int" name="I_CONSTRAINED_M">     0</i>
  <separator name="electronic exchange-correlation" >
   <i type="string" name="GGA">PE</i>
   <i type="int" name="VOSKOWN">     0</i>
   <i type="logical" name="LHFCALC"> F  </i>
   <i type="string" name="PRECFOCK"></i>
   <i type="logical" name="LSYMGRAD"> F  </i>
   <i type="logical" name="LHFONE"> F  </i>
   <i type="logical" name="LRHFCALC"> F  </i>
   <i type="logical" name="LTHOMAS"> F  </i>
   <i type="logical" name="LMODELHF"> F  </i>
   <i type="logical" name="LFOCKACE"> F  </i>
   <i name="ENCUT4O">     -1.00000000</i>
   <i type="int" name="EXXOEP">     0</i>
   <i type="int" name="FOURORBIT">     0</i>
   <i name="AEXX">      0.00000000</i>
   <i name="HFALPHA">      0.00000000</i>
   <i name="MCALPHA">      0.00000000</i>
   <i name="ALDAX">      1.00000000</i>
   <i name="AGGAX">      1.00000000</i>
   <i name="ALDAC">      1.00000000</i>
   <i name="AGGAC">      1.00000000</i>
   <i type="int" name="NKREDX">     1</i>
   <i type="int" name="NKREDY">     1</i>
   <i type="int" name="NKREDZ">     1</i>
   <i type="logical" name="SHIFTRED"> F  </i>
   <i type="logical" name="ODDONLY"> F  </i>
   <i type="logical" name="EVENONLY"> F  </i>
   <i type="int" name="LMAXFOCK">     0</i>
   <i type="int" name="NMAXFOCKAE">     0</i>
   <i type="logical" name="LFOCKAEDFT"> F  </i>
   <i name="HFSCREEN">      0.00000000</i>
   <i name="HFSCREENC">      0.00000000</i>
   <i type="int" name="NBANDSGWLOW">     0</i>
  </separator>
  <separator name="vdW DFT" >
   <i type="logical" name="LUSE_VDW"> F  </i>
   <i name="Zab_VDW">     -0.84910000</i>
   <i name="PARAM1">      0.12340000</i>
   <i name="PARAM2">      1.00000000</i>
   <i name="PARAM3">      0.00000000</i>
  </separator>
  <separator name="model GW" >
   <i type="int" name="MODEL_GW">     0</i>
   <i name="MODEL_EPS0">    702.95210996</i>
   <i name="MODEL_ALPHA">      1.00000000</i>
  </separator>
  <separator name="linear response parameters" >
   <i type="logical" name="LEPSILON"> F  </i>
   <i type="logical" name="LRPA"> F  </i>
   <i type="logical" name="LNABLA"> F  </i>
   <i type="logical" name="LVEL"> F  </i>
   <i type="int" name="KINTER">     0</i>
   <i name="CSHIFT">      0.10000000</i>
   <i name="OMEGAMAX">     -1.00000000</i>
   <i name="DEG_THRESHOLD">      0.00200000</i>
   <i name="RTIME">     -0.10000000</i>
   <i name="WPLASMAI">      0.00000000</i>
   <v name="DFIELD">      0.00000000      0.00000000      0.00000000</v>
   <v name="WPLASMA">      0.00000000      0.00000000      0.00000000      0.00000000      0.00000000      0.00000000      0.00000000      0.00000000      0.00000000</v>
  </separator>
  <separator name="orbital magnetization" >
   <i type="logical" name="NUCIND"> F  </i>
   <v name="MAGPOS">      0.00000000      0.00000000      0.00000000</v>
   <i type="logical" name="LNICSALL"> T  </i>
   <i type="logical" name="ORBITALMAG"> F  </i>
   <i type="logical" name="LMAGBLOCH"> F  </i>
   <i type="logical" name="LCHIMAG"> F  </i>
   <i type="logical" name="LGAUGE"> T  </i>
   <i type="int" name="MAGATOM">     0</i>
   <v name="MAGDIPOL">      0.00000000      0.00000000      0.00000000</v>
   <v name="AVECCONST">      0.00000000      0.00000000      0.00000000</v>
  </separator>
  <separator name="response functions" >
   <i type="logical" name="LFINITE_TEMPERATURE"> F  </i>
   <i type="logical" name="LADDER"> F  </i>
   <i type="logical" name="LRPAFORCE"> F  </i>
   <i type="logical" name="LFXC"> F  </i>
   <i type="logical" name="LHARTREE"> T  </i>
   <i type="int" name="IBSE">     0</i>
   <v type="int" name="KPOINT">    -1     0     0     0</v>
   <i type="logical" name="LTCTC"> F  </i>
   <i type="logical" name="LTCTE"> F  </i>
   <i type="logical" name="LTETE"> F  </i>
   <i type="logical" name="LTRIPLET"> F  </i>
   <i type="logical" name="LFXCEPS"> F  </i>
   <i type="logical" name="LFXHEG"> F  </i>
   <i type="int" name="NATURALO">     2</i>
   <i type="logical" name="LHOLEGF"> F  </i>
   <i type="logical" name="L2ORDER"> F  </i>
   <i type="logical" name="LDMP1"> F  </i>
   <i type="logical" name="LMP2LT"> F  </i>
   <i type="logical" name="LSMP2LT"> F  </i>
   <i type="logical" name="LGWLF"> F  </i>
   <i name="ENCUTGW">     -2.00000000</i>
   <i name="ENCUTGWSOFT">     -2.00000000</i>
   <i name="ENCUTLF">     -1.00000000</i>
   <i type="logical" name="LESF_SPLINES"> F  </i>
   <i type="int" name="LMAXMP2">    -1</i>
   <i name="SCISSOR">      0.00000000</i>
   <i type="int" name="NOMEGA">     0</i>
   <i type="int" name="NOMEGAR">     0</i>
   <i type="int" name="NBANDSGW">    -1</i>
   <i type="int" name="NBANDSO">    -1</i>
   <i type="int" name="NBANDSV">    -1</i>
   <i type="int" name="NELM">     1</i>
   <i type="int" name="NELMHF">     1</i>
   <i type="int" name="DIM">     3</i>
   <i type="int" name="IESPILON">     4</i>
   <i type="int" name="ANTIRES">     0</i>
   <i name="OMEGAMAX">    -30.00000000</i>
   <i name="OMEGAMIN">    -30.00000000</i>
   <i name="OMEGATL">   -200.00000000</i>
   <i type="int" name="OMEGAGRID">     0</i>
   <i name="CSHIFT">     -0.10000000</i>
   <i type="logical" name="LSELFENERGY"> F  </i>
   <i type="logical" name="LSPECTRAL"> F  </i>
   <i type="logical" name="LSPECTRALGW"> F  </i>
   <i type="logical" name="LSINGLES"> F  </i>
   <i type="logical" name="LFERMIGW"> F  </i>
   <i type="logical" name="ODDONLYGW"> F  </i>
   <i type="logical" name="EVENONLYGW"> F  </i>
   <i type="int" name="NKREDLFX">     1</i>
   <i type="int" name="NKREDLFY">     1</i>
   <i type="int" name="NKREDLFZ">     1</i>
   <i type="int" name="MAXMEM">  2800</i>
   <i type="int" name="TELESCOPE">     0</i>
   <i type="int" name="NTAUPAR">    -1</i>
   <i type="int" name="NOMEGAPAR">    -1</i>
   <i name="LAMBDA">      1.00000000</i>
  </separator>
  <separator name="External order field" >
   <i name="OFIELD_KAPPA">      0.00000000</i>
   <v name="OFIELD_K">      0.00000000      0.00000000      0.00000000</v>
   <i name="OFIELD_Q6_NEAR">      0.00000000</i>
   <i name="OFIELD_Q6_FAR">      0.00000000</i>
   <i name="OFIELD_A">      0.00000000</i>
  </separator>
 </parameters>
 <atominfo>
  <atoms>      10 </atoms>
  <types>       2 </types>
  <array name="atoms" >
   <dimension dim="1">ion</dimension>
   <field type="string">element</field>
   <field type="int">atomtype</field>
   <set>
    <rc><c>Ni</c><c>   1</c></rc>
    <rc><c>Ni</c><c>   1</c></rc>
    <rc><c>Ni</c><c>   1</c></rc>
    <rc><c>Ni</c><c>   1</c></rc>
    <rc><c>Ni</c><c>   1</c></rc>
    <rc><c>Ni</c><c>   1</c></rc>
    <rc><c>Pd</c><c>   2</c></rc>
    <rc><c>Pd</c><c>   2</c></rc>
    <rc><c>Pd</c><c>   2</c></rc>
    <rc><c>Pd</c><c>   2</c></rc>
   </set>
  </array>
  <array name="atomtypes" >
   <dimension dim="1">type</dimension>
   <field type="int">atomspertype</field>
   <field type="string">element</field>
   <field>mass</field>
   <field>valence</field>
   <field type="string">pseudopotential</field>
   <set>
    <rc><c>   6</c><c>Ni</c><c>     58.69000000</c><c>     10.00000000</c><c>  PAW_PBE Ni 02Aug2007                  </c></rc>
    <rc><c>   4</c><c>Pd</c><c>    106.42000000</c><c>     10.00000000</c><c>  PAW_PBE Pd 04Jan2005                  </c></rc>
   </set>
  </array>
 </atominfo>
 <structure name="initialpos" >
  <crystal>
   <varray name="basis" >
    <v>      24.40325695       0.00000000       0.00000000 </v>
    <v>       0.00000000      22.22020174       0.00000000 </v>
    <v>       0.00000000       0.00000000      21.60621523 </v>
   </varray>
   <i name="volume">  11715.86849927 </i>
   <varray name="rec_basis" >
    <v>       0.04097814       0.00000000       0.00000000 </v>
    <v>       0.00000000       0.04500409       0.00000000 </v>
    <v>       0.00000000       0.00000000       0.04628298 </v>
   </varray>
  </crystal>
  <varray name="positions" >
   <v>       0.51451131       0.43314744       0.47951015 </v>
   <v>       0.51758931       0.43941204       0.36810006 </v>
   <v>       0.46399133       0.51693677       0.42455987 </v>
   <v>       0.51048202       0.53858702       0.52287338 </v>
   <v>       0.59444456       0.47556387       0.52915248 </v>
   <v>       0.42967692       0.47143507       0.52198953 </v>
   <v>       0.51007230       0.45126413       0.59206872 </v>
   <v>       0.60429127       0.41674588       0.42890191 </v>
   <v>       0.56678178       0.52258975       0.42662912 </v>
   <v>       0.42871997       0.41369958       0.42160855 </v>
  </varray>
 </structure>
 <calculation>
  <scstep>
   <time name="dav">    2.47    2.47</time>
   <time name="total">    4.23    4.42</time>
   <energy>
    <i name="alphaZ">      4.83700637 </i>
    <i name="ewald">  12891.18694864 </i>
    <i name="hartreedc"> -21868.96152091 </i>
    <i name="XCdc">     62.97712759 </i>
    <i name="pawpsdc">   9003.59075477 </i>
    <i name="pawaedc">  -9155.75339974 </i>
    <i name="eentropy">      0.03739769 </i>
    <i name="bandstr">     69.02400235 </i>
    <i name="atom">   9704.95859309 </i>
    <i name="e_fr_energy">    711.89690987 </i>
    <i name="e_wo_entrp">    711.85951218 </i>
    <i name="e_0_energy">    711.88444398 </i>
   </energy>
  </scstep>
  <scstep>
   <time name="dav">    3.76    3.78</time>
   <time name="total">    3.76    3.79</time>
   <energy>
    <i name="e_fr_energy">    243.01925389 </i>
    <i name="e_wo_entrp">    243.03234195 </i>
    <i name="e_0_energy">    243.02361657 </i>
   </energy>
  </scstep>
  <scstep>
   <time name="dav">    3.10    3.11</time>
   <time name="total">    3.11    3.12</time>
   <energy>
    <i name="e_fr_energy">     18.40312809 </i>
    <i name="e_wo_entrp">     18.42259475 </i>
    <i name="e_0_energy">     18.40961698 </i>
   </energy>
  </scstep>
  <scstep>
   <time name="dav">    3.30    3.33</time>
   <time name="total">    3.31    3.33</time>
   <energy>
    <i name="e_fr_energy">    -37.82643851 </i>
    <i name="e_wo_entrp">    -37.77982152 </i>
    <i name="e_0_energy">    -37.81089951 </i>
   </energy>
  </scstep>
  <scstep>
   <time name="dav">    2.85    2.87</time>
   <time name="total">    3.14    3.17</time>
   <energy>
    <i name="e_fr_energy">    -43.67003352 </i>
    <i name="e_wo_entrp">    -43.60640684 </i>
    <i name="e_0_energy">    -43.64882463 </i>
   </energy>
  </scstep>
  <scstep>
   <time name="dav">    2.66    2.70</time>
   <time name="total">    4.16    4.21</time>
   <energy>
    <i name="e_fr_energy">    -57.59175948 </i>
    <i name="e_wo_entrp">    -57.59681950 </i>
    <i name="e_0_energy">    -57.59344615 </i>
   </energy>
  </scstep>
  <scstep>
   <time name="dav">    2.72    2.74</time>
   <time name="total">    4.21    4.25</time>
   <energy>
    <i name="e_fr_energy">    -37.26840868 </i>
    <i name="e_wo_entrp">    -37.24716859 </i>
    <i name="e_0_energy">    -37.26132865 </i>
   </energy>
  </scstep>
  <scstep>
   <time name="dav">    3.18    3.21</time>
   <time name="total">    4.69    4.74</time>
   <energy>
    <i name="e_fr_energy">    -40.55220842 </i>
    <i name="e_wo_entrp">    -40.50152081 </i>
    <i name="e_0_energy">    -40.53531255 </i>
   </energy>
  </scstep>
  <scstep>
   <time name="dav">    3.61    3.62</time>
   <time name="total">    5.12    5.14</time>
   <energy>
    <i name="e_fr_energy">    -38.82357613 </i>
    <i name="e_wo_entrp">    -38.87085568 </i>
    <i name="e_0_energy">    -38.83933598 </i>
   </energy>
  </scstep>
  <scstep>
   <time name="dav">    3.04    3.04</time>
   <time name="total">    4.51    4.53</time>
   <energy>
    <i name="e_fr_energy">    -39.65585242 </i>
    <i name="e_wo_entrp">    -39.67861756 </i>
    <i name="e_0_energy">    -39.66344080 </i>
   </energy>
  </scstep>
  <scstep>
   <time name="dav">    2.86    2.88</time>
   <time name="total">    4.35    4.37</time>
   <energy>
    <i name="e_fr_energy">    -36.85987699 </i>
    <i name="e_wo_entrp">    -36.89517486 </i>
    <i name="e_0_energy">    -36.87164295 </i>
   </energy>
  </scstep>
  <scstep>
   <time name="dav">    3.11    3.15</time>
   <time name="total">    4.61    4.65</time>
   <energy>
    <i name="e_fr_energy">    -35.49812607 </i>
    <i name="e_wo_entrp">    -35.50562654 </i>
    <i name="e_0_energy">    -35.50062622 </i>
   </energy>
  </scstep>
  <scstep>
   <time name="dav">    3.00    3.01</time>
   <time name="total">    4.48    4.50</time>
   <energy>
    <i name="e_fr_energy">    -36.06407713 </i>
    <i name="e_wo_entrp">    -36.08895793 </i>
    <i name="e_0_energy">    -36.07237073 </i>
   </energy>
  </scstep>
  <scstep>
   <time name="dav">    2.86    2.90</time>
   <time name="total">    4.35    4.40</time>
   <energy>
    <i name="e_fr_energy">    -35.00522734 </i>
    <i name="e_wo_entrp">    -35.01671339 </i>
    <i name="e_0_energy">    -35.00905602 </i>
   </energy>
  </scstep>
  <scstep>
   <time name="dav">    3.10    3.13</time>
   <time name="total">    4.58    4.62</time>
   <energy>
    <i name="e_fr_energy">    -35.07623636 </i>
    <i name="e_wo_entrp">    -35.05620184 </i>
    <i name="e_0_energy">    -35.06955818 </i>
   </energy>
  </scstep>
  <scstep>
   <time name="dav">    2.72    2.73</time>
   <time name="total">    4.18    4.20</time>
   <energy>
    <i name="e_fr_energy">    -34.86611512 </i>
    <i name="e_wo_entrp">    -34.87253810 </i>
    <i name="e_0_energy">    -34.86825611 </i>
   </energy>
  </scstep>
  <scstep>
   <time name="dav">    3.05    3.07</time>
   <time name="total">    4.52    4.55</time>
   <energy>
    <i name="e_fr_energy">    -35.09603252 </i>
    <i name="e_wo_entrp">    -35.09901291 </i>
    <i name="e_0_energy">    -35.09702599 </i>
   </energy>
  </scstep>
  <scstep>
   <time name="dav">    3.12    3.14</time>
   <time name="total">    4.64    4.67</time>
   <energy>
    <i name="e_fr_energy">    -35.33044887 </i>
    <i name="e_wo_entrp">    -35.32853918 </i>
    <i name="e_0_energy">    -35.32981231 </i>
   </energy>
  </scstep>
  <scstep>
   <time name="dav">    2.61    2.63</time>
   <time name="total">    4.11    4.13</time>
   <energy>
    <i name="e_fr_energy">    -35.62299782 </i>
    <i name="e_wo_entrp">    -35.61752034 </i>
    <i name="e_0_energy">    -35.62117199 </i>
   </energy>
  </scstep>
  <scstep>
   <time name="dav">    3.09    3.12</time>
   <time name="total">    4.59    4.61</time>
   <energy>
    <i name="e_fr_energy">    -36.07337627 </i>
    <i name="e_wo_entrp">    -36.06911143 </i>
    <i name="e_0_energy">    -36.07195465 </i>
   </energy>
  </scstep>
  <scstep>
   <time name="dav">    3.01    3.03</time>
   <time name="total">    4.47    4.50</time>
   <energy>
    <i name="e_fr_energy">    -36.59405909 </i>
    <i name="e_wo_entrp">    -36.58378818 </i>
    <i name="e_0_energy">    -36.59063546 </i>
   </energy>
  </scstep>
  <scstep>
   <time name="dav">    2.94    2.95</time>
   <time name="total">    4.43    4.45</time>
   <energy>
    <i name="e_fr_energy">    -36.64540592 </i>
    <i name="e_wo_entrp">    -36.63071453 </i>
    <i name="e_0_energy">    -36.64050879 </i>
   </energy>
  </scstep>
  <scstep>
   <time name="dav">    2.94    2.95</time>
   <time name="total">    4.45    4.46</time>
   <energy>
    <i name="e_fr_energy">    -36.87645917 </i>
    <i name="e_wo_entrp">    -36.86582310 </i>
    <i name="e_0_energy">    -36.87291381 </i>
   </energy>
  </scstep>
  <scstep>
   <time name="dav">    3.03    3.05</time>
   <time name="total">    4.56    4.60</time>
   <energy>
    <i name="e_fr_energy">    -36.98532286 </i>
    <i name="e_wo_entrp">    -36.97722803 </i>
    <i name="e_0_energy">    -36.98262458 </i>
   </energy>
  </scstep>
  <scstep>
   <time name="dav">    2.79    2.79</time>
   <time name="total">    4.29    4.30</time>
   <energy>
    <i name="e_fr_energy">    -37.06860974 </i>
    <i name="e_wo_entrp">    -37.06056361 </i>
    <i name="e_0_energy">    -37.06592770 </i>
   </energy>
  </scstep>
  <scstep>
   <time name="dav">    2.88    2.92</time>
   <time name="total">    4.38    4.42</time>
   <energy>
    <i name="e_fr_energy">    -37.17799781 </i>
    <i name="e_wo_entrp">    -37.17175637 </i>
    <i name="e_0_energy">    -37.17591733 </i>
   </energy>
  </scstep>
  <scstep>
   <time name="dav">    2.98    3.02</time>
   <time name="total">    4.49    4.54</time>
   <energy>
    <i name="e_fr_energy">    -37.24904625 </i>
    <i name="e_wo_entrp">    -37.24534280 </i>
    <i name="e_0_energy">    -37.24781177 </i>
   </energy>
  </scstep>
  <scstep>
   <time name="dav">    2.92    2.96</time>
   <time name="total">    4.42    4.47</time>
   <energy>
    <i name="e_fr_energy">    -37.30283290 </i>
    <i name="e_wo_entrp">    -37.30053769 </i>
    <i name="e_0_energy">    -37.30206783 </i>
   </energy>
  </scstep>
  <scstep>
   <time name="dav">    2.56    2.59</time>
   <time name="total">    4.08    4.12</time>
   <energy>
    <i name="e_fr_energy">    -37.34259476 </i>
    <i name="e_wo_entrp">    -37.34038333 </i>
    <i name="e_0_energy">    -37.34185762 </i>
   </energy>
  </scstep>
  <scstep>
   <time name="dav">    2.46    2.47</time>
   <time name="total">    4.19    4.20</time>
   <energy>
    <i name="e_fr_energy">    -37.39589427 </i>
    <i name="e_wo_entrp">    -37.39382278 </i>
    <i name="e_0_energy">    -37.39520377 </i>
   </energy>
  </scstep>
  <scstep>
   <time name="dav">    2.20    2.21</time>
   <time name="total">    3.73    3.75</time>
   <energy>
    <i name="e_fr_energy">    -37.43043182 </i>
    <i name="e_wo_entrp">    -37.42823460 </i>
    <i name="e_0_energy">    -37.42969941 </i>
   </energy>
  </scstep>
  <scstep>
   <time name="dav">    2.36    2.39</time>
   <time name="total">    3.89    3.92</time>
   <energy>
    <i name="e_fr_energy">    -37.46431710 </i>
    <i name="e_wo_entrp">    -37.46216677 </i>
    <i name="e_0_energy">    -37.46360032 </i>
   </energy>
  </scstep>
  <scstep>
   <time name="dav">    2.30    2.34</time>
   <time name="total">    3.85    3.89</time>
   <energy>
    <i name="e_fr_energy">    -37.49920713 </i>
    <i name="e_wo_entrp">    -37.49706720 </i>
    <i name="e_0_energy">    -37.49849382 </i>
   </energy>
  </scstep>
  <scstep>
   <time name="dav">    2.20    2.21</time>
   <time name="total">    3.76    3.77</time>
   <energy>
    <i name="e_fr_energy">    -37.52166363 </i>
    <i name="e_wo_entrp">    -37.51959939 </i>
    <i name="e_0_energy">    -37.52097555 </i>
   </energy>
  </scstep>
  <scstep>
   <time name="dav">    2.17    2.18</time>
   <time name="total">    3.71    3.72</time>
   <energy>
    <i name="e_fr_energy">    -37.53408744 </i>
    <i name="e_wo_entrp">    -37.53201926 </i>
    <i name="e_0_energy">    -37.53339805 </i>
   </energy>
  </scstep>
  <scstep>
   <time name="dav">    2.09    2.10</time>
   <time name="total">    3.63    3.65</time>
   <energy>
    <i name="e_fr_energy">    -37.54562962 </i>
    <i name="e_wo_entrp">    -37.54357114 </i>
    <i name="e_0_energy">    -37.54494346 </i>
   </energy>
  </scstep>
  <scstep>
   <time name="dav">    2.07    2.09</time>
   <time name="total">    3.63    3.66</time>
   <energy>
    <i name="e_fr_energy">    -37.55485253 </i>
    <i name="e_wo_entrp">    -37.55278236 </i>
    <i name="e_0_energy">    -37.55416247 </i>
   </energy>
  </scstep>
  <scstep>
   <time name="dav">    1.93    1.95</time>
   <time name="total">    3.51    3.53</time>
   <energy>
    <i name="e_fr_energy">    -37.55983215 </i>
    <i name="e_wo_entrp">    -37.55773362 </i>
    <i name="e_0_energy">    -37.55913264 </i>
   </energy>
  </scstep>
  <scstep>
   <time name="dav">    2.02    2.03</time>
   <time name="total">    3.65    3.66</time>
   <energy>
    <i name="e_fr_energy">    -37.56333863 </i>
    <i name="e_wo_entrp">    -37.56120308 </i>
    <i name="e_0_energy">    -37.56262678 </i>
   </energy>
  </scstep>
  <scstep>
   <time name="dav">    1.94    1.95</time>
   <time name="total">    3.49    3.52</time>
   <energy>
    <i name="e_fr_energy">    -37.56571840 </i>
    <i name="e_wo_entrp">    -37.56351891 </i>
    <i name="e_0_energy">    -37.56498524 </i>
   </energy>
  </scstep>
  <scstep>
   <time name="dav">    1.88    1.89</time>
   <time name="total">    3.44    3.45</time>
   <energy>
    <i name="e_fr_energy">    -37.56679770 </i>
    <i name="e_wo_entrp">    -37.56460907 </i>
    <i name="e_0_energy">    -37.56606815 </i>
   </energy>
  </scstep>
  <scstep>
   <time name="dav">    1.83    1.85</time>
   <time name="total">    3.39    3.41</time>
   <energy>
    <i name="e_fr_energy">    -37.56736188 </i>
    <i name="e_wo_entrp">    -37.56515762 </i>
    <i name="e_0_energy">    -37.56662713 </i>
   </energy>
  </scstep>
  <scstep>
   <time name="dav">    1.84    1.86</time>
   <time name="total">    3.40    3.44</time>
   <energy>
    <i name="e_fr_energy">    -37.56792014 </i>
    <i name="e_wo_entrp">    -37.56571621 </i>
    <i name="e_0_energy">    -37.56718550 </i>
   </energy>
  </scstep>
  <scstep>
   <time name="dav">    1.84    1.87</time>
   <time name="total">    3.43    3.47</time>
   <energy>
    <i name="e_fr_energy">    -37.56844096 </i>
    <i name="e_wo_entrp">    -37.56623003 </i>
    <i name="e_0_energy">    -37.56770398 </i>
   </energy>
  </scstep>
  <scstep>
   <time name="dav">    1.81    1.83</time>
   <time name="total">    3.38    3.40</time>
   <energy>
    <i name="e_fr_energy">    -37.56880521 </i>
    <i name="e_wo_entrp">    -37.56658326 </i>
    <i name="e_0_energy">    -37.56806456 </i>
   </energy>
  </scstep>
  <scstep>
   <time name="dav">    1.82    1.84</time>
   <time name="total">    3.40    3.44</time>
   <energy>
    <i name="e_fr_energy">    -37.56926639 </i>
    <i name="e_wo_entrp">    -37.56703702 </i>
    <i name="e_0_energy">    -37.56852327 </i>
   </energy>
  </scstep>
  <scstep>
   <time name="dav">    1.85    1.87</time>
   <time name="total">    3.44    3.47</time>
   <energy>
    <i name="e_fr_energy">    -37.56947628 </i>
    <i name="e_wo_entrp">    -37.56724255 </i>
    <i name="e_0_energy">    -37.56873170 </i>
   </energy>
  </scstep>
  <scstep>
   <time name="dav">    1.81    1.83</time>
   <time name="total">    3.43    3.45</time>
   <energy>
    <i name="e_fr_energy">    -37.56968460 </i>
    <i name="e_wo_entrp">    -37.56745673 </i>
    <i name="e_0_energy">    -37.56894198 </i>
   </energy>
  </scstep>
  <scstep>
   <time name="dav">    1.88    1.89</time>
   <time name="total">    3.49    3.50</time>
   <energy>
    <i name="e_fr_energy">    -37.56982443 </i>
    <i name="e_wo_entrp">    -37.56759585 </i>
    <i name="e_0_energy">    -37.56908157 </i>
   </energy>
  </scstep>
  <scstep>
   <time name="dav">    2.05    2.06</time>
   <time name="total">    3.26    3.29</time>
   <energy>
    <i name="alphaZ">      4.83700637 </i>
    <i name="ewald">  12891.18694864 </i>
    <i name="hartreedc"> -21943.72201453 </i>
    <i name="XCdc">     60.24544010 </i>
    <i name="pawpsdc">  10079.91031107 </i>
    <i name="pawaedc"> -10244.18431140 </i>
    <i name="eentropy">     -0.00223313 </i>
    <i name="bandstr">   -590.79965774 </i>
    <i name="atom">   9704.95859309 </i>
    <i name="e_fr_energy">    -37.56991752 </i>
    <i name="e_wo_entrp">    -37.56768439 </i>
    <i name="e_0_energy">    -37.56917315 </i>
   </energy>
  </scstep>
  <structure>
   <crystal>
    <varray name="basis" >
     <v>      24.40325695       0.00000000       0.00000000 </v>
     <v>       0.00000000      22.22020174       0.00000000 </v>
     <v>       0.00000000       0.00000000      21.60621523 </v>
    </varray>
    <i name="volume">  11715.86849927 </i>
    <varray name="rec_basis" >
     <v>       0.04097814       0.00000000       0.00000000 </v>
     <v>       0.00000000       0.04500409       0.00000000 </v>
     <v>       0.00000000       0.00000000       0.04628298 </v>
    </varray>
   </crystal>
   <varray name="positions" >
    <v>       0.51451131       0.43314744       0.47951015 </v>
    <v>       0.51758931       0.43941204       0.36810006 </v>
    <v>       0.46399133       0.51693677       0.42455987 </v>
    <v>       0.51048202       0.53858702       0.52287338 </v>
    <v>       0.59444456       0.47556387       0.52915248 </v>
    <v>       0.42967692       0.47143507       0.52198953 </v>
    <v>       0.51007230       0.45126413       0.59206872 </v>
    <v>       0.60429127       0.41674588       0.42890191 </v>
    <v>       0.56678178       0.52258975       0.42662912 </v>
    <v>       0.42871997       0.41369958       0.42160855 </v>
   </varray>
  </structure>
  <varray name="forces" >
   <v>      -0.13515904      -0.05015137       0.05584169 </v>
   <v>      -0.15236591       0.34169179       0.82541824 </v>
   <v>       0.25913587      -0.22268898       0.38595518 </v>
   <v>      -0.11215773      -0.37644840      -0.33893243 </v>
   <v>      -0.82053512       0.04344260      -0.39713892 </v>
   <v>       0.84769427       0.22072350      -0.51873883 </v>
   <v>       0.02416800      -0.05846868       0.22865295 </v>
   <v>       0.34494249      -0.74996761      -0.00671935 </v>
   <v>      -0.12799434       0.97813659      -0.14627686 </v>
   <v>      -0.12772850      -0.12626945      -0.08806166 </v>
  </varray>
  <energy>
   <i name="e_fr_energy">    -37.56991752 </i>
   <i name="e_wo_entrp">    -37.56768439 </i>
   <i name="e_0_energy">    -37.56917315 </i>
  </energy>
  <time name="totalsc">  203.66  205.18</time>
 </calculation>
 <calculation>
  <scstep>
   <time name="dav">    2.38    2.38</time>
   <time name="total">    4.02    4.03</time>
   <energy>
    <i name="alphaZ">      4.83700637 </i>
    <i name="ewald">  12989.47756290 </i>
    <i name="hartreedc"> -22041.37948969 </i>
    <i name="XCdc">     60.43644575 </i>
    <i name="pawpsdc">  10079.92076747 </i>
    <i name="pawaedc"> -10244.19478137 </i>
    <i name="eentropy">     -0.01867666 </i>
    <i name="bandstr">   -591.71464783 </i>
    <i name="atom">   9704.95859309 </i>
    <i name="e_fr_energy">    -37.67721996 </i>
    <i name="e_wo_entrp">    -37.65854330 </i>
    <i name="e_0_energy">    -37.67099440 </i>
   </energy>
  </scstep>
  <scstep>
   <time name="dav">    2.97    3.00</time>
   <time name="total">    4.42    4.46</time>
   <energy>
    <i name="e_fr_energy">    -38.96844647 </i>
    <i name="e_wo_entrp">    -38.84824628 </i>
    <i name="e_0_energy">    -38.92837974 </i>
   </energy>
  </scstep>
  <scstep>
   <time name="dav">    2.73    2.75</time>
   <time name="total">    4.19    4.21</time>
   <energy>
    <i name="e_fr_energy">    -37.73020204 </i>
    <i name="e_wo_entrp">    -37.69655417 </i>
    <i name="e_0_energy">    -37.71898608 </i>
   </energy>
  </scstep>
  <scstep>
   <time name="dav">    3.02    3.03</time>
   <time name="total">    4.55    4.57</time>
   <energy>
    <i name="e_fr_energy">    -37.76289369 </i>
    <i name="e_wo_entrp">    -37.74594644 </i>
    <i name="e_0_energy">    -37.75724461 </i>
   </energy>
  </scstep>
  <scstep>
   <time name="dav">    2.94    2.95</time>
   <time name="total">    4.37    4.39</time>
   <energy>
    <i name="e_fr_energy">    -37.79339530 </i>
    <i name="e_wo_entrp">    -37.77848387 </i>
    <i name="e_0_energy">    -37.78842482 </i>
   </energy>
  </scstep>
  <scstep>
   <time name="dav">    2.82    2.84</time>
   <time name="total">    4.30    4.32</time>
   <energy>
    <i name="e_fr_energy">    -37.77354367 </i>
    <i name="e_wo_entrp">    -37.76355381 </i>
    <i name="e_0_energy">    -37.77021372 </i>
   </energy>
  </scstep>
  <scstep>
   <time name="dav">    3.00    3.12</time>
   <time name="total">    4.44    4.57</time>
   <energy>
    <i name="e_fr_energy">    -37.74976500 </i>
    <i name="e_wo_entrp">    -37.73306737 </i>
    <i name="e_0_energy">    -37.74419913 </i>
   </energy>
  </scstep>
  <scstep>
   <time name="dav">    3.22    3.23</time>
   <time name="total">    4.66    4.69</time>
   <energy>
    <i name="e_fr_energy">    -37.76996937 </i>
    <i name="e_wo_entrp">    -37.75405586 </i>
    <i name="e_0_energy">    -37.76466486 </i>
   </energy>
  </scstep>
  <scstep>
   <time name="dav">    2.87    2.91</time>
   <time name="total">    4.33    4.38</time>
   <energy>
    <i name="e_fr_energy">    -37.75812857 </i>
    <i name="e_wo_entrp">    -37.74369663 </i>
    <i name="e_0_energy">    -37.75331793 </i>
   </energy>
  </scstep>
  <scstep>
   <time name="dav">    2.91    2.95</time>
   <time name="total">    4.37    4.42</time>
   <energy>
    <i name="e_fr_energy">    -37.76991937 </i>
    <i name="e_wo_entrp">    -37.75695273 </i>
    <i name="e_0_energy">    -37.76559716 </i>
   </energy>
  </scstep>
  <scstep>
   <time name="dav">    2.90    2.94</time>
   <time name="total">    4.40    4.44</time>
   <energy>
    <i name="e_fr_energy">    -37.75814838 </i>
    <i name="e_wo_entrp">    -37.74377417 </i>
    <i name="e_0_energy">    -37.75335697 </i>
   </energy>
  </scstep>
  <scstep>
   <time name="dav">    3.08    3.09</time>
   <time name="total">    4.56    4.57</time>
   <energy>
    <i name="e_fr_energy">    -37.76285051 </i>
    <i name="e_wo_entrp">    -37.74692368 </i>
    <i name="e_0_energy">    -37.75754157 </i>
   </energy>
  </scstep>
  <scstep>
   <time name="dav">    3.07    3.08</time>
   <time name="total">    4.57    4.58</time>
   <energy>
    <i name="e_fr_energy">    -37.76229685 </i>
    <i name="e_wo_entrp">    -37.74687666 </i>
    <i name="e_0_energy">    -37.75715679 </i>
   </energy>
  </scstep>
  <scstep>
   <time name="dav">    1.94    1.96</time>
   <time name="total">    3.41    3.44</time>
   <energy>
    <i name="e_fr_energy">    -37.76258892 </i>
    <i name="e_wo_entrp">    -37.74824233 </i>
    <i name="e_0_energy">    -37.75780672 </i>
   </energy>
  </scstep>
  <scstep>
   <time name="dav">    1.91    1.92</time>
   <time name="total">    3.38    3.40</time>
   <energy>
    <i name="e_fr_energy">    -37.76282620 </i>
    <i name="e_wo_entrp">    -37.74816506 </i>
    <i name="e_0_energy">    -37.75793915 </i>
   </energy>
  </scstep>
  <scstep>
   <time name="dav">    1.87    1.88</time>
   <time name="total">    3.38    3.39</time>
   <energy>
    <i name="e_fr_energy">    -37.76306476 </i>
    <i name="e_wo_entrp">    -37.74841900 </i>
    <i name="e_0_energy">    -37.75818284 </i>
   </energy>
  </scstep>
  <scstep>
   <time name="dav">    1.80    1.82</time>
   <time name="total">    3.29    3.32</time>
   <energy>
    <i name="e_fr_energy">    -37.76337221 </i>
    <i name="e_wo_entrp">    -37.74883493 </i>
    <i name="e_0_energy">    -37.75852645 </i>
   </energy>
  </scstep>
  <scstep>
   <time name="dav">    1.85    1.86</time>
   <time name="total">    3.41    3.43</time>
   <energy>
    <i name="e_fr_energy">    -37.76367610 </i>
    <i name="e_wo_entrp">    -37.74911288 </i>
    <i name="e_0_energy">    -37.75882169 </i>
   </energy>
  </scstep>
  <scstep>
   <time name="dav">    1.81    1.84</time>
   <time name="total">    3.31    3.34</time>
   <energy>
    <i name="e_fr_energy">    -37.76396316 </i>
    <i name="e_wo_entrp">    -37.74947437 </i>
    <i name="e_0_energy">    -37.75913357 </i>
   </energy>
  </scstep>
  <scstep>
   <time name="dav">    1.86    1.88</time>
   <time name="total">    3.36    3.38</time>
   <energy>
    <i name="e_fr_energy">    -37.76422460 </i>
    <i name="e_wo_entrp">    -37.74971038 </i>
    <i name="e_0_energy">    -37.75938653 </i>
   </energy>
  </scstep>
  <scstep>
   <time name="dav">    1.81    1.82</time>
   <time name="total">    3.35    3.37</time>
   <energy>
    <i name="e_fr_energy">    -37.76446480 </i>
    <i name="e_wo_entrp">    -37.75002026 </i>
    <i name="e_0_energy">    -37.75964995 </i>
   </energy>
  </scstep>
  <scstep>
   <time name="dav">    1.90    1.91</time>
   <time name="total">    3.49    3.50</time>
   <energy>
    <i name="e_fr_energy">    -37.76464363 </i>
    <i name="e_wo_entrp">    -37.75020202 </i>
    <i name="e_0_energy">    -37.75982976 </i>
   </energy>
  </scstep>
  <scstep>
   <time name="dav">    1.80    1.81</time>
   <time name="total">    3.29    3.30</time>
   <energy>
    <i name="e_fr_energy">    -37.76483252 </i>
    <i name="e_wo_entrp">    -37.75039729 </i>
    <i name="e_0_energy">    -37.76002078 </i>
   </energy>
  </scstep>
  <scstep>
   <time name="dav">    1.80    1.83</time>
   <time name="total">    3.33    3.37</time>
   <energy>
    <i name="e_fr_energy">    -37.76506586 </i>
    <i name="e_wo_entrp">    -37.75063273 </i>
    <i name="e_0_energy">    -37.76025481 </i>
   </energy>
  </scstep>
  <scstep>
   <time name="dav">    1.82    1.84</time>
   <time name="total">    3.34    3.37</time>
   <energy>
    <i name="e_fr_energy">    -37.76521725 </i>
    <i name="e_wo_entrp">    -37.75078576 </i>
    <i name="e_0_energy">    -37.76040675 </i>
   </energy>
  </scstep>
  <scstep>
   <time name="dav">    1.80    1.82</time>
   <time name="total">    3.34    3.37</time>
   <energy>
    <i name="e_fr_energy">    -37.76536032 </i>
    <i name="e_wo_entrp">    -37.75094208 </i>
    <i name="e_0_energy">    -37.76055424 </i>
   </energy>
  </scstep>
  <scstep>
   <time name="dav">    1.83    1.85</time>
   <time name="total">    3.36    3.40</time>
   <energy>
    <i name="e_fr_energy">    -37.76549168 </i>
    <i name="e_wo_entrp">    -37.75107797 </i>
    <i name="e_0_energy">    -37.76068711 </i>
   </energy>
  </scstep>
  <scstep>
   <time name="dav">    1.82    1.84</time>
   <time name="total">    3.00    3.02</time>
   <energy>
    <i name="alphaZ">      4.83700637 </i>
    <i name="ewald">  12989.47756290 </i>
    <i name="hartreedc"> -22039.45476634 </i>
    <i name="XCdc">     60.35085363 </i>
    <i name="pawpsdc">  10108.55403683 </i>
    <i name="pawaedc"> -10273.10081879 </i>
    <i name="eentropy">     -0.01441159 </i>
    <i name="bandstr">   -593.37363863 </i>
    <i name="atom">   9704.95859309 </i>
    <i name="e_fr_energy">    -37.76558254 </i>
    <i name="e_wo_entrp">    -37.75117095 </i>
    <i name="e_0_energy">    -37.76077867 </i>
   </energy>
  </scstep>
  <structure>
   <crystal>
    <varray name="basis" >
     <v>      24.40325695       0.00000000       0.00000000 </v>
     <v>       0.00000000      22.22020174       0.00000000 </v>
     <v>       0.00000000       0.00000000      21.60621523 </v>
    </varray>
    <i name="volume">  11715.86849927 </i>
    <varray name="rec_basis" >
     <v>       0.04097814       0.00000000       0.00000000 </v>
     <v>       0.00000000       0.04500409       0.00000000 </v>
     <v>       0.00000000       0.00000000       0.04628298 </v>
    </varray>
   </crystal>
   <varray name="positions" >
    <v>       0.51424412       0.43303856       0.47963484 </v>
    <v>       0.51728810       0.44015389       0.36994306 </v>
    <v>       0.46450362       0.51645328       0.42542164 </v>
    <v>       0.51026029       0.53776971       0.52211661 </v>
    <v>       0.59282245       0.47565818       0.52826574 </v>
    <v>       0.43135272       0.47191429       0.52083128 </v>
    <v>       0.51012008       0.45113719       0.59257926 </v>
    <v>       0.60497319       0.41511761       0.42888691 </v>
    <v>       0.56652875       0.52471339       0.42630251 </v>
    <v>       0.42846747       0.41342544       0.42141193 </v>
   </varray>
  </structure>
  <varray name="forces" >
   <v>       0.06798373      -0.18013641       0.00040782 </v>
   <v>      -0.02705034       0.28135569       0.70789071 </v>
   <v>       0.12037269      -0.12101271       0.18864230 </v>
   <v>      -0.04266286      -0.18764811      -0.16285417 </v>
   <v>      -0.65136630       0.00903946      -0.42531321 </v>
   <v>       0.55286022       0.15679271      -0.33592933 </v>
   <v>       0.01510186      -0.05878321       0.29457738 </v>
   <v>       0.03198848      -0.22467061       0.03961799 </v>
   <v>       0.14123294       0.48858943      -0.17980400 </v>
   <v>      -0.20846042      -0.16352625      -0.12723549 </v>
  </varray>
  <energy>
   <i name="e_fr_energy">    -37.76558254 </i>
   <i name="e_wo_entrp">    -37.75117095 </i>
   <i name="e_0_energy">    -37.76077867 </i>
  </energy>
  <time name="totalsc">  111.48  112.33</time>
 </calculation>
 <calculation>
  <scstep>
   <time name="dav">    2.39    2.42</time>
   <time name="total">    3.86    3.89</time>
   <energy>
    <i name="alphaZ">      4.83700637 </i>
    <i name="ewald">  13187.45501738 </i>
    <i name="hartreedc"> -22235.11707740 </i>
    <i name="XCdc">     60.82023074 </i>
    <i name="pawpsdc">  10108.55337929 </i>
    <i name="pawaedc"> -10273.10008350 </i>
    <i name="eentropy">     -0.02957153 </i>
    <i name="bandstr">   -595.89508517 </i>
    <i name="atom">   9704.95859309 </i>
    <i name="e_fr_energy">    -37.51759072 </i>
    <i name="e_wo_entrp">    -37.48801920 </i>
    <i name="e_0_energy">    -37.50773355 </i>
   </energy>
  </scstep>
  <scstep>
   <time name="dav">    3.04    3.07</time>
   <time name="total">    4.49    4.53</time>
   <energy>
    <i name="e_fr_energy">    -41.71100256 </i>
    <i name="e_wo_entrp">    -41.63991589 </i>
    <i name="e_0_energy">    -41.68730700 </i>
   </energy>
  </scstep>
  <scstep>
   <time name="dav">    2.77    2.79</time>
   <time name="total">    4.22    4.25</time>
   <energy>
    <i name="e_fr_energy">    -38.25145482 </i>
    <i name="e_wo_entrp">    -38.20226906 </i>
    <i name="e_0_energy">    -38.23505957 </i>
   </energy>
  </scstep>
  <scstep>
   <time name="dav">    2.86    2.88</time>
   <time name="total">    4.31    4.34</time>
   <energy>
    <i name="e_fr_energy">    -37.85169834 </i>
    <i name="e_wo_entrp">    -37.79214924 </i>
    <i name="e_0_energy">    -37.83184864 </i>
   </energy>
  </scstep>
  <scstep>
   <time name="dav">    2.85    2.85</time>
   <time name="total">    4.32    4.33</time>
   <energy>
    <i name="e_fr_energy">    -37.95634083 </i>
    <i name="e_wo_entrp">    -37.94910915 </i>
    <i name="e_0_energy">    -37.95393027 </i>
   </energy>
  </scstep>
  <scstep>
   <time name="dav">    2.88    2.88</time>
   <time name="total">    4.37    4.38</time>
   <energy>
    <i name="e_fr_energy">    -37.97279711 </i>
    <i name="e_wo_entrp">    -37.95497845 </i>
    <i name="e_0_energy">    -37.96685756 </i>
   </energy>
  </scstep>
  <scstep>
   <time name="dav">    2.77    2.78</time>
   <time name="total">    4.27    4.29</time>
   <energy>
    <i name="e_fr_energy">    -37.86166812 </i>
    <i name="e_wo_entrp">    -37.84004705 </i>
    <i name="e_0_energy">    -37.85446109 </i>
   </energy>
  </scstep>
  <scstep>
   <time name="dav">    3.07    3.08</time>
   <time name="total">    4.54    4.56</time>
   <energy>
    <i name="e_fr_energy">    -37.88284083 </i>
    <i name="e_wo_entrp">    -37.86504608 </i>
    <i name="e_0_energy">    -37.87690924 </i>
   </energy>
  </scstep>
  <scstep>
   <time name="dav">    3.16    3.18</time>
   <time name="total">    4.63    4.66</time>
   <energy>
    <i name="e_fr_energy">    -37.87846982 </i>
    <i name="e_wo_entrp">    -37.85922198 </i>
    <i name="e_0_energy">    -37.87205388 </i>
   </energy>
  </scstep>
  <scstep>
   <time name="dav">    3.02    3.03</time>
   <time name="total">    4.49    4.52</time>
   <energy>
    <i name="e_fr_energy">    -37.90013922 </i>
    <i name="e_wo_entrp">    -37.88091533 </i>
    <i name="e_0_energy">    -37.89373126 </i>
   </energy>
  </scstep>
  <scstep>
   <time name="dav">    2.81    2.84</time>
   <time name="total">    4.35    4.39</time>
   <energy>
    <i name="e_fr_energy">    -37.88105595 </i>
    <i name="e_wo_entrp">    -37.86252163 </i>
    <i name="e_0_energy">    -37.87487784 </i>
   </energy>
  </scstep>
  <scstep>
   <time name="dav">    3.11    3.14</time>
   <time name="total">    4.59    4.63</time>
   <energy>
    <i name="e_fr_energy">    -37.88923887 </i>
    <i name="e_wo_entrp">    -37.87060090 </i>
    <i name="e_0_energy">    -37.88302621 </i>
   </energy>
  </scstep>
  <scstep>
   <time name="dav">    3.09    3.12</time>
   <time name="total">    4.58    4.62</time>
   <energy>
    <i name="e_fr_energy">    -37.88963376 </i>
    <i name="e_wo_entrp">    -37.87391598 </i>
    <i name="e_0_energy">    -37.88439450 </i>
   </energy>
  </scstep>
  <scstep>
   <time name="dav">    3.03    3.06</time>
   <time name="total">    4.50    4.53</time>
   <energy>
    <i name="e_fr_energy">    -37.88904327 </i>
    <i name="e_wo_entrp">    -37.87218529 </i>
    <i name="e_0_energy">    -37.88342394 </i>
   </energy>
  </scstep>
  <scstep>
   <time name="dav">    2.82    2.84</time>
   <time name="total">    4.28    4.30</time>
   <energy>
    <i name="e_fr_energy">    -37.88960293 </i>
    <i name="e_wo_entrp">    -37.87276452 </i>
    <i name="e_0_energy">    -37.88399013 </i>
   </energy>
  </scstep>
  <scstep>
   <time name="dav">    1.87    1.88</time>
   <time name="total">    3.38    3.40</time>
   <energy>
    <i name="e_fr_energy">    -37.89031762 </i>
    <i name="e_wo_entrp">    -37.87395215 </i>
    <i name="e_0_energy">    -37.88486247 </i>
   </energy>
  </scstep>
  <scstep>
   <time name="dav">    1.96    1.98</time>
   <time name="total">    3.44    3.46</time>
   <energy>
    <i name="e_fr_energy">    -37.89103922 </i>
    <i name="e_wo_entrp">    -37.87532055 </i>
    <i name="e_0_energy">    -37.88579967 </i>
   </energy>
  </scstep>
  <scstep>
   <time name="dav">    1.87    1.87</time>
   <time name="total">    3.34    3.35</time>
   <energy>
    <i name="e_fr_energy">    -37.89172853 </i>
    <i name="e_wo_entrp">    -37.87601022 </i>
    <i name="e_0_energy">    -37.88648909 </i>
   </energy>
  </scstep>
  <scstep>
   <time name="dav">    1.86    1.88</time>
   <time name="total">    3.38    3.41</time>
   <energy>
    <i name="e_fr_energy">    -37.89240725 </i>
    <i name="e_wo_entrp">    -37.87670722 </i>
    <i name="e_0_energy">    -37.88717391 </i>
   </energy>
  </scstep>
  <scstep>
   <time name="dav">    1.91    1.91</time>
   <time name="total">    3.41    3.43</time>
   <energy>
    <i name="e_fr_energy">    -37.89290040 </i>
    <i name="e_wo_entrp">    -37.87719597 </i>
    <i name="e_0_energy">    -37.88766559 </i>
   </energy>
  </scstep>
  <scstep>
   <time name="dav">    1.85    1.85</time>
   <time name="total">    3.36    3.37</time>
   <energy>
    <i name="e_fr_energy">    -37.89340122 </i>
    <i name="e_wo_entrp">    -37.87769537 </i>
    <i name="e_0_energy">    -37.88816594 </i>
   </energy>
  </scstep>
  <scstep>
   <time name="dav">    1.90    1.90</time>
   <time name="total">    3.43    3.44</time>
   <energy>
    <i name="e_fr_energy">    -37.89387138 </i>
    <i name="e_wo_entrp">    -37.87818327 </i>
    <i name="e_0_energy">    -37.88864201 </i>
   </energy>
  </scstep>
  <scstep>
   <time name="dav">    1.86    1.88</time>
   <time name="total">    3.35    3.36</time>
   <energy>
    <i name="e_fr_energy">    -37.89427751 </i>
    <i name="e_wo_entrp">    -37.87859442 </i>
    <i name="e_0_energy">    -37.88904982 </i>
   </energy>
  </scstep>
  <scstep>
   <time name="dav">    1.86    1.87</time>
   <time name="total">    3.38    3.41</time>
   <energy>
    <i name="e_fr_energy">    -37.89475874 </i>
    <i name="e_wo_entrp">    -37.87911024 </i>
    <i name="e_0_energy">    -37.88954257 </i>
   </energy>
  </scstep>
  <scstep>
   <time name="dav">    1.86    1.88</time>
   <time name="total">    3.40    3.43</time>
   <energy>
    <i name="e_fr_energy">    -37.89516929 </i>
    <i name="e_wo_entrp">    -37.87952897 </i>
    <i name="e_0_energy">    -37.88995585 </i>
   </energy>
  </scstep>
  <scstep>
   <time name="dav">    1.84    1.84</time>
   <time name="total">    3.39    3.40</time>
   <energy>
    <i name="e_fr_energy">    -37.89539756 </i>
    <i name="e_wo_entrp">    -37.87976884 </i>
    <i name="e_0_energy">    -37.89018799 </i>
   </energy>
  </scstep>
  <scstep>
   <time name="dav">    1.85    1.86</time>
   <time name="total">    3.40    3.42</time>
   <energy>
    <i name="e_fr_energy">    -37.89573305 </i>
    <i name="e_wo_entrp">    -37.88008795 </i>
    <i name="e_0_energy">    -37.89051802 </i>
   </energy>
  </scstep>
  <scstep>
   <time name="dav">    1.90    1.92</time>
   <time name="total">    3.47    3.49</time>
   <energy>
    <i name="e_fr_energy">    -37.89595881 </i>
    <i name="e_wo_entrp">    -37.88031955 </i>
    <i name="e_0_energy">    -37.89074572 </i>
   </energy>
  </scstep>
  <scstep>
   <time name="dav">    1.93    1.94</time>
   <time name="total">    3.49    3.49</time>
   <energy>
    <i name="e_fr_energy">    -37.89623815 </i>
    <i name="e_wo_entrp">    -37.88059417 </i>
    <i name="e_0_energy">    -37.89102349 </i>
   </energy>
  </scstep>
  <scstep>
   <time name="dav">    1.83    1.85</time>
   <time name="total">    3.36    3.39</time>
   <energy>
    <i name="e_fr_energy">    -37.89642047 </i>
    <i name="e_wo_entrp">    -37.88077768 </i>
    <i name="e_0_energy">    -37.89120621 </i>
   </energy>
  </scstep>
  <scstep>
   <time name="dav">    1.83    1.85</time>
   <time name="total">    3.04    3.06</time>
   <energy>
    <i name="alphaZ">      4.83700637 </i>
    <i name="ewald">  13187.45501738 </i>
    <i name="hartreedc"> -22231.15182880 </i>
    <i name="XCdc">     60.63229104 </i>
    <i name="pawpsdc">  10188.57860437 </i>
    <i name="pawaedc"> -10353.94151861 </i>
    <i name="eentropy">     -0.01563993 </i>
    <i name="bandstr">   -599.24901289 </i>
    <i name="atom">   9704.95859309 </i>
    <i name="e_fr_energy">    -37.89648797 </i>
    <i name="e_wo_entrp">    -37.88084804 </i>
    <i name="e_0_energy">    -37.89127466 </i>
   </energy>
  </scstep>
  <structure>
   <crystal>
    <varray name="basis" >
     <v>      24.40325695       0.00000000       0.00000000 </v>
     <v>       0.00000000      22.22020174       0.00000000 </v>
     <v>       0.00000000       0.00000000      21.60621523 </v>
    </varray>
    <i name="volume">  11715.86849927 </i>
    <varray name="rec_basis" >
     <v>       0.04097814       0.00000000       0.00000000 </v>
     <v>       0.00000000       0.04500409       0.00000000 </v>
     <v>       0.00000000       0.00000000       0.04628298 </v>
    </varray>
   </crystal>
   <varray name="positions" >
    <v>       0.51372766       0.43282809       0.47987584 </v>
    <v>       0.51670589       0.44158782       0.37350541 </v>
    <v>       0.46549381       0.51551875       0.42708735 </v>
    <v>       0.50983172       0.53618992       0.52065384 </v>
    <v>       0.58968707       0.47584049       0.52655176 </v>
    <v>       0.43459189       0.47284057       0.51859250 </v>
    <v>       0.51021243       0.45089182       0.59356609 </v>
    <v>       0.60629126       0.41197032       0.42885791 </v>
    <v>       0.56603967       0.52881820       0.42567121 </v>
    <v>       0.42797940       0.41289554       0.42103187 </v>
   </varray>
  </structure>
  <varray name="forces" >
   <v>       0.48504684      -0.63722992      -0.06922434 </v>
   <v>       0.24762688       0.15407047       0.35951058 </v>
   <v>      -0.13994925       0.18116212      -0.34821433 </v>
   <v>       0.19851506       0.30951772       0.23331259 </v>
   <v>      -0.23448747      -0.05042706      -0.44614556 </v>
   <v>      -0.23347823      -0.05878995       0.15751684 </v>
   <v>      -0.01720719      -0.07639450       0.42380824 </v>
   <v>      -0.44910616       0.41072034       0.14889167 </v>
   <v>       0.51274914       0.01722307      -0.27407662 </v>
   <v>      -0.36970962      -0.24985228      -0.18537907 </v>
  </varray>
  <energy>
   <i name="e_fr_energy">    -37.89648797 </i>
   <i name="e_wo_entrp">    -37.88084804 </i>
   <i name="e_0_energy">    -37.89127466 </i>
  </energy>
  <time name="totalsc">  124.27  125.01</time>
 </calculation>
 <calculation>
  <scstep>
   <time name="dav">    2.70    2.71</time>
   <time name="total">    4.34    4.36</time>
   <energy>
    <i name="alphaZ">      4.83700637 </i>
    <i name="ewald">  13173.32609855 </i>
    <i name="hartreedc"> -22218.30342199 </i>
    <i name="XCdc">     60.58757562 </i>
    <i name="pawpsdc">  10188.58294798 </i>
    <i name="pawaedc"> -10353.94564956 </i>
    <i name="eentropy">      0.00827869 </i>
    <i name="bandstr">   -597.89898294 </i>
    <i name="atom">   9704.95859309 </i>
    <i name="e_fr_energy">    -37.84755418 </i>
    <i name="e_wo_entrp">    -37.85583287 </i>
    <i name="e_0_energy">    -37.85031375 </i>
   </energy>
  </scstep>
  <scstep>
   <time name="dav">    3.33    3.34</time>
   <time name="total">    5.01    5.02</time>
   <energy>
    <i name="e_fr_energy">    -39.93181205 </i>
    <i name="e_wo_entrp">    -39.88751826 </i>
    <i name="e_0_energy">    -39.91704745 </i>
   </energy>
  </scstep>
  <scstep>
   <time name="dav">    3.05    3.06</time>
   <time name="total">    4.68    4.70</time>
   <energy>
    <i name="e_fr_energy">    -37.97624410 </i>
    <i name="e_wo_entrp">    -37.97185965 </i>
    <i name="e_0_energy">    -37.97478261 </i>
   </energy>
  </scstep>
  <scstep>
   <time name="dav">    3.32    3.32</time>
   <time name="total">    4.93    4.93</time>
   <energy>
    <i name="e_fr_energy">    -38.00235426 </i>
    <i name="e_wo_entrp">    -38.00407355 </i>
    <i name="e_0_energy">    -38.00292735 </i>
   </energy>
  </scstep>
  <scstep>
   <time name="dav">    3.38    3.41</time>
   <time name="total">    5.04    5.07</time>
   <energy>
    <i name="e_fr_energy">    -38.02645937 </i>
    <i name="e_wo_entrp">    -38.05075490 </i>
    <i name="e_0_energy">    -38.03455788 </i>
   </energy>
  </scstep>
  <scstep>
   <time name="dav">    3.35    3.37</time>
   <time name="total">    5.01    5.03</time>
   <energy>
    <i name="e_fr_energy">    -37.99636380 </i>
    <i name="e_wo_entrp">    -38.01782067 </i>
    <i name="e_0_energy">    -38.00351609 </i>
   </energy>
  </scstep>
  <scstep>
   <time name="dav">    3.28    3.29</time>
   <time name="total">    4.96    4.97</time>
   <energy>
    <i name="e_fr_energy">    -37.99408663 </i>
    <i name="e_wo_entrp">    -38.00786258 </i>
    <i name="e_0_energy">    -37.99867861 </i>
   </energy>
  </scstep>
  <scstep>
   <time name="dav">    3.54    3.54</time>
   <time name="total">    5.14    5.15</time>
   <energy>
    <i name="e_fr_energy">    -38.00630522 </i>
    <i name="e_wo_entrp">    -38.01570248 </i>
    <i name="e_0_energy">    -38.00943764 </i>
   </energy>
  </scstep>
  <scstep>
   <time name="dav">    3.34    3.35</time>
   <time name="total">    5.00    5.02</time>
   <energy>
    <i name="e_fr_energy">    -37.99900750 </i>
    <i name="e_wo_entrp">    -38.01905249 </i>
    <i name="e_0_energy">    -38.00568917 </i>
   </energy>
  </scstep>
  <scstep>
   <time name="dav">    3.45    3.46</time>
   <time name="total">    5.12    5.13</time>
   <energy>
    <i name="e_fr_energy">    -38.00113447 </i>
    <i name="e_wo_entrp">    -38.02044802 </i>
    <i name="e_0_energy">    -38.00757232 </i>
   </energy>
  </scstep>
  <scstep>
   <time name="dav">    3.25    3.27</time>
   <time name="total">    4.91    4.93</time>
   <energy>
    <i name="e_fr_energy">    -38.00196833 </i>
    <i name="e_wo_entrp">    -38.01969379 </i>
    <i name="e_0_energy">    -38.00787682 </i>
   </energy>
  </scstep>
  <scstep>
   <time name="dav">    3.29    3.30</time>
   <time name="total">    4.91    4.92</time>
   <energy>
    <i name="e_fr_energy">    -38.00212630 </i>
    <i name="e_wo_entrp">    -38.02168939 </i>
    <i name="e_0_energy">    -38.00864733 </i>
   </energy>
  </scstep>
  <scstep>
   <time name="dav">    3.11    3.12</time>
   <time name="total">    4.74    4.76</time>
   <energy>
    <i name="e_fr_energy">    -38.00222365 </i>
    <i name="e_wo_entrp">    -38.02226969 </i>
    <i name="e_0_energy">    -38.00890566 </i>
   </energy>
  </scstep>
  <scstep>
   <time name="dav">    2.22    2.26</time>
   <time name="total">    3.87    3.93</time>
   <energy>
    <i name="e_fr_energy">    -38.00287689 </i>
    <i name="e_wo_entrp">    -38.02303239 </i>
    <i name="e_0_energy">    -38.00959539 </i>
   </energy>
  </scstep>
  <scstep>
   <time name="dav">    2.13    2.16</time>
   <time name="total">    3.81    3.86</time>
   <energy>
    <i name="e_fr_energy">    -38.00335764 </i>
    <i name="e_wo_entrp">    -38.02376612 </i>
    <i name="e_0_energy">    -38.01016047 </i>
   </energy>
  </scstep>
  <scstep>
   <time name="dav">    2.13    2.16</time>
   <time name="total">    3.77    3.82</time>
   <energy>
    <i name="e_fr_energy">    -38.00366614 </i>
    <i name="e_wo_entrp">    -38.02415969 </i>
    <i name="e_0_energy">    -38.01049732 </i>
   </energy>
  </scstep>
  <scstep>
   <time name="dav">    2.12    2.14</time>
   <time name="total">    3.79    3.81</time>
   <energy>
    <i name="e_fr_energy">    -38.00398459 </i>
    <i name="e_wo_entrp">    -38.02459983 </i>
    <i name="e_0_energy">    -38.01085634 </i>
   </energy>
  </scstep>
  <scstep>
   <time name="dav">    2.20    2.22</time>
   <time name="total">    3.86    3.88</time>
   <energy>
    <i name="e_fr_energy">    -38.00428701 </i>
    <i name="e_wo_entrp">    -38.02506850 </i>
    <i name="e_0_energy">    -38.01121418 </i>
   </energy>
  </scstep>
  <scstep>
   <time name="dav">    2.08    2.08</time>
   <time name="total">    3.78    3.80</time>
   <energy>
    <i name="e_fr_energy">    -38.00446392 </i>
    <i name="e_wo_entrp">    -38.02523827 </i>
    <i name="e_0_energy">    -38.01138871 </i>
   </energy>
  </scstep>
  <scstep>
   <time name="dav">    2.14    2.16</time>
   <time name="total">    3.84    3.87</time>
   <energy>
    <i name="e_fr_energy">    -38.00466458 </i>
    <i name="e_wo_entrp">    -38.02543876 </i>
    <i name="e_0_energy">    -38.01158931 </i>
   </energy>
  </scstep>
  <scstep>
   <time name="dav">    2.04    2.05</time>
   <time name="total">    3.76    3.76</time>
   <energy>
    <i name="e_fr_energy">    -38.00483451 </i>
    <i name="e_wo_entrp">    -38.02561389 </i>
    <i name="e_0_energy">    -38.01176097 </i>
   </energy>
  </scstep>
  <scstep>
   <time name="dav">    2.09    2.09</time>
   <time name="total">    3.83    3.83</time>
   <energy>
    <i name="e_fr_energy">    -38.00499112 </i>
    <i name="e_wo_entrp">    -38.02577364 </i>
    <i name="e_0_energy">    -38.01191862 </i>
   </energy>
  </scstep>
  <scstep>
   <time name="dav">    2.08    2.09</time>
   <time name="total">    3.76    3.77</time>
   <energy>
    <i name="e_fr_energy">    -38.00512745 </i>
    <i name="e_wo_entrp">    -38.02592260 </i>
    <i name="e_0_energy">    -38.01205917 </i>
   </energy>
  </scstep>
  <scstep>
   <time name="dav">    2.09    2.09</time>
   <time name="total">    3.79    3.79</time>
   <energy>
    <i name="e_fr_energy">    -38.00525914 </i>
    <i name="e_wo_entrp">    -38.02604828 </i>
    <i name="e_0_energy">    -38.01218885 </i>
   </energy>
  </scstep>
  <scstep>
   <time name="dav">    2.10    2.10</time>
   <time name="total">    3.42    3.42</time>
   <energy>
    <i name="alphaZ">      4.83700637 </i>
    <i name="ewald">  13173.32609855 </i>
    <i name="hartreedc"> -22217.29046111 </i>
    <i name="XCdc">     60.57890881 </i>
    <i name="pawpsdc">  10176.15891759 </i>
    <i name="pawaedc"> -10341.30679893 </i>
    <i name="eentropy">      0.02078555 </i>
    <i name="bandstr">   -599.28838070 </i>
    <i name="atom">   9704.95859309 </i>
    <i name="e_fr_energy">    -38.00533078 </i>
    <i name="e_wo_entrp">    -38.02611633 </i>
    <i name="e_0_energy">    -38.01225929 </i>
   </energy>
  </scstep>
  <structure>
   <crystal>
    <varray name="basis" >
     <v>      24.40325695       0.00000000       0.00000000 </v>
     <v>       0.00000000      22.22020174       0.00000000 </v>
     <v>       0.00000000       0.00000000      21.60621523 </v>
    </varray>
    <i name="volume">  11715.86849927 </i>
    <varray name="rec_basis" >
     <v>       0.04097814       0.00000000       0.00000000 </v>
     <v>       0.00000000       0.04500409       0.00000000 </v>
     <v>       0.00000000       0.00000000       0.04628298 </v>
    </varray>
   </crystal>
   <varray name="positions" >
    <v>       0.51483076       0.43081747       0.47976720 </v>
    <v>       0.51712936       0.44268043       0.37618057 </v>
    <v>       0.46554440       0.51565433       0.42673971 </v>
    <v>       0.51018794       0.53642895       0.52073473 </v>
    <v>       0.58766942       0.47576863       0.52441891 </v>
    <v>       0.43537229       0.47306977       0.51809845 </v>
    <v>       0.51020576       0.45055424       0.59531092 </v>
    <v>       0.60563820       0.41182666       0.42930616 </v>
    <v>       0.56723071       0.53067004       0.42454584 </v>
    <v>       0.42675195       0.41191101       0.42029128 </v>
   </varray>
  </structure>
  <varray name="forces" >
   <v>      -0.20082605      -0.55061642       0.22758321 </v>
   <v>       0.12078255       0.11431301       0.02723194 </v>
   <v>      -0.05430152       0.04777361      -0.24613439 </v>
   <v>       0.16555838       0.15812278       0.15025721 </v>
   <v>       0.03868441       0.05814481      -0.12896324 </v>
   <v>      -0.05405972      -0.20808982       0.07072118 </v>
   <v>      -0.03520748       0.05437518       0.06800547 </v>
   <v>      -0.20148176       0.31662922       0.02746414 </v>
   <v>       0.30003008      -0.01194462      -0.16591258 </v>
   <v>      -0.07917889       0.02129223      -0.03025294 </v>
  </varray>
  <energy>
   <i name="e_fr_energy">    -38.00533078 </i>
   <i name="e_wo_entrp">    -38.02611633 </i>
   <i name="e_0_energy">    -38.01225929 </i>
  </energy>
  <time name="totalsc">  113.75  114.25</time>
 </calculation>
 <calculation>
  <scstep>
   <time name="dav">    2.75    2.76</time>
   <time name="total">    4.53    4.60</time>
   <energy>
    <i name="alphaZ">      4.83700637 </i>
    <i name="ewald">  13168.37773814 </i>
    <i name="hartreedc"> -22212.58610660 </i>
    <i name="XCdc">     60.56089887 </i>
    <i name="pawpsdc">  10176.15223637 </i>
    <i name="pawaedc"> -10341.29989481 </i>
    <i name="eentropy">      0.03370750 </i>
    <i name="bandstr">   -599.02668112 </i>
    <i name="atom">   9704.95859309 </i>
    <i name="e_fr_energy">    -37.99250219 </i>
    <i name="e_wo_entrp">    -38.02620969 </i>
    <i name="e_0_energy">    -38.00373802 </i>
   </energy>
  </scstep>
  <scstep>
   <time name="dav">    3.42    3.43</time>
   <time name="total">    5.05    5.06</time>
   <energy>
    <i name="e_fr_energy">    -38.29923259 </i>
    <i name="e_wo_entrp">    -38.29504771 </i>
    <i name="e_0_energy">    -38.29783763 </i>
   </energy>
  </scstep>
  <scstep>
   <time name="dav">    3.13    3.14</time>
   <time name="total">    4.85    4.86</time>
   <energy>
    <i name="e_fr_energy">    -37.96173544 </i>
    <i name="e_wo_entrp">    -37.98682250 </i>
    <i name="e_0_energy">    -37.97009779 </i>
   </energy>
  </scstep>
  <scstep>
   <time name="dav">    3.44    3.45</time>
   <time name="total">    5.12    5.14</time>
   <energy>
    <i name="e_fr_energy">    -38.01328120 </i>
    <i name="e_wo_entrp">    -38.04992788 </i>
    <i name="e_0_energy">    -38.02549676 </i>
   </energy>
  </scstep>
  <scstep>
   <time name="dav">    3.18    3.20</time>
   <time name="total">    4.83    4.85</time>
   <energy>
    <i name="e_fr_energy">    -38.01873055 </i>
    <i name="e_wo_entrp">    -38.04956782 </i>
    <i name="e_0_energy">    -38.02900964 </i>
   </energy>
  </scstep>
  <scstep>
   <time name="dav">    3.19    3.20</time>
   <time name="total">    4.85    4.86</time>
   <energy>
    <i name="e_fr_energy">    -38.01058457 </i>
    <i name="e_wo_entrp">    -38.04383068 </i>
    <i name="e_0_energy">    -38.02166661 </i>
   </energy>
  </scstep>
  <scstep>
   <time name="dav">    3.70    3.71</time>
   <time name="total">    5.37    5.38</time>
   <energy>
    <i name="e_fr_energy">    -38.01471911 </i>
    <i name="e_wo_entrp">    -38.04633636 </i>
    <i name="e_0_energy">    -38.02525820 </i>
   </energy>
  </scstep>
  <scstep>
   <time name="dav">    3.28    3.28</time>
   <time name="total">    4.90    4.90</time>
   <energy>
    <i name="e_fr_energy">    -38.01327485 </i>
    <i name="e_wo_entrp">    -38.04590035 </i>
    <i name="e_0_energy">    -38.02415002 </i>
   </energy>
  </scstep>
  <scstep>
   <time name="dav">    3.42    3.44</time>
   <time name="total">    5.08    5.11</time>
   <energy>
    <i name="e_fr_energy">    -38.01433516 </i>
    <i name="e_wo_entrp">    -38.05006090 </i>
    <i name="e_0_energy">    -38.02624374 </i>
   </energy>
  </scstep>
  <scstep>
   <time name="dav">    3.25    3.26</time>
   <time name="total">    4.94    4.95</time>
   <energy>
    <i name="e_fr_energy">    -38.01269105 </i>
    <i name="e_wo_entrp">    -38.04550167 </i>
    <i name="e_0_energy">    -38.02362793 </i>
   </energy>
  </scstep>
  <scstep>
   <time name="dav">    4.08    4.09</time>
   <time name="total">    5.75    5.77</time>
   <energy>
    <i name="e_fr_energy">    -38.01414502 </i>
    <i name="e_wo_entrp">    -38.04777500 </i>
    <i name="e_0_energy">    -38.02535501 </i>
   </energy>
  </scstep>
  <scstep>
   <time name="dav">    2.19    2.20</time>
   <time name="total">    3.50    3.51</time>
   <energy>
    <i name="alphaZ">      4.83700637 </i>
    <i name="ewald">  13168.37773814 </i>
    <i name="hartreedc"> -22212.31907061 </i>
    <i name="XCdc">     60.56844984 </i>
    <i name="pawpsdc">  10174.32967866 </i>
    <i name="pawaedc"> -10339.44644837 </i>
    <i name="eentropy">      0.03401071 </i>
    <i name="bandstr">   -599.35404222 </i>
    <i name="atom">   9704.95859309 </i>
    <i name="e_fr_energy">    -38.01408438 </i>
    <i name="e_wo_entrp">    -38.04809509 </i>
    <i name="e_0_energy">    -38.02542128 </i>
   </energy>
  </scstep>
  <structure>
   <crystal>
    <varray name="basis" >
     <v>      24.40325695       0.00000000       0.00000000 </v>
     <v>       0.00000000      22.22020174       0.00000000 </v>
     <v>       0.00000000       0.00000000      21.60621523 </v>
    </varray>
    <i name="volume">  11715.86849927 </i>
    <varray name="rec_basis" >
     <v>       0.04097814       0.00000000       0.00000000 </v>
     <v>       0.00000000       0.04500409       0.00000000 </v>
     <v>       0.00000000       0.00000000       0.04628298 </v>
    </varray>
   </crystal>
   <varray name="positions" >
    <v>       0.51526493       0.43002610       0.47972445 </v>
    <v>       0.51729603       0.44311047       0.37723349 </v>
    <v>       0.46556431       0.51570769       0.42660289 </v>
    <v>       0.51032815       0.53652303       0.52076657 </v>
    <v>       0.58687528       0.47574035       0.52357944 </v>
    <v>       0.43567946       0.47315998       0.51790399 </v>
    <v>       0.51020313       0.45042138       0.59599767 </v>
    <v>       0.60538115       0.41177011       0.42948259 </v>
    <v>       0.56769949       0.53139891       0.42410291 </v>
    <v>       0.42626884       0.41152351       0.41999979 </v>
   </varray>
  </structure>
  <varray name="forces" >
   <v>      -0.49216867      -0.55093426       0.36216909 </v>
   <v>       0.06991595       0.09562327      -0.14221501 </v>
   <v>      -0.02815830       0.01040770      -0.20386663 </v>
   <v>       0.14781495       0.12613767       0.12956531 </v>
   <v>       0.15938614       0.11346301      -0.00369622 </v>
   <v>      -0.00296232      -0.27046747       0.05087504 </v>
   <v>      -0.03618071       0.10270912      -0.06454731 </v>
   <v>      -0.07997694       0.27065112      -0.02664189 </v>
   <v>       0.23241700      -0.01765110      -0.12727086 </v>
   <v>       0.02991289       0.12006092       0.02562849 </v>
  </varray>
  <energy>
   <i name="e_fr_energy">    -38.01408438 </i>
   <i name="e_wo_entrp">    -38.04809509 </i>
   <i name="e_0_energy">    -38.02542128 </i>
  </energy>
  <time name="totalsc">   63.43   63.67</time>
 </calculation>
