unknown system                          
            1
    24.403257    0.000000    0.000000
     0.000000   22.220202    0.000000
     0.000000    0.000000   21.606215
   Ni   Pd
     6     4
Direct configuration=     1
   0.51451131  0.43314744  0.47951015
   0.51758931  0.43941204  0.36810006
   0.46399133  0.51693677  0.42455987
   0.51048202  0.53858702  0.52287338
   0.59444456  0.47556387  0.52915248
   0.42967692  0.47143507  0.52198953
   0.51007230  0.45126413  0.59206872
   0.60429127  0.41674588  0.42890191
   0.56678178  0.52258975  0.42662912
   0.42871997  0.41369958  0.42160855
Direct configuration=     2
   0.51424412  0.43303856  0.47963484
   0.51728810  0.44015389  0.36994306
   0.46450362  0.51645328  0.42542164
   0.51026029  0.53776971  0.52211661
   0.59282245  0.47565818  0.52826574
   0.43135272  0.47191429  0.52083128
   0.51012008  0.45113719  0.59257926
   0.60497319  0.41511761  0.42888691
   0.56652875  0.52471339  0.42630251
   0.42846747  0.41342544  0.42141193
Direct configuration=     3
   0.51372766  0.43282809  0.47987584
   0.51670589  0.44158782  0.37350541
   0.46549381  0.51551875  0.42708735
   0.50983172  0.53618992  0.52065384
   0.58968707  0.47584049  0.52655176
   0.43459189  0.47284057  0.51859250
   0.51021243  0.45089182  0.59356609
   0.60629126  0.41197032  0.42885791
   0.56603967  0.52881820  0.42567121
   0.42797940  0.41289554  0.42103187
Direct configuration=     4
   0.51483076  0.43081747  0.47976720
   0.51712936  0.44268043  0.37618057
   0.46554440  0.51565433  0.42673971
   0.51018794  0.53642895  0.52073473
   0.58766942  0.47576863  0.52441891
   0.43537229  0.47306977  0.51809845
   0.51020576  0.45055424  0.59531092
   0.60563820  0.41182666  0.42930616
   0.56723071  0.53067004  0.42454584
   0.42675195  0.41191101  0.42029128
Direct configuration=     5
   0.51526493  0.43002610  0.47972445
   0.51729603  0.44311047  0.37723349
   0.46556431  0.51570769  0.42660289
   0.51032815  0.53652303  0.52076657
   0.58687528  0.47574035  0.52357944
   0.43567946  0.47315998  0.51790399
   0.51020313  0.45042138  0.59599767
   0.60538115  0.41177011  0.42948259
   0.56769949  0.53139891  0.42410291
   0.42626884  0.41152351  0.41999979
