  10  10   0   0
  0.1231970E+04  0.2292112E-08  0.2372708E-08  0.2265269E-08  0.5000000E-15
   1.0000000000000000E-004
  CAR 
 unknown system                          
      1.83485596    -11.67675372  301     -3.98226825      1.00000000
    -11.677  0.0000E+00  0.0000E+00  0.0000E+00  0.0000E+00
    -11.632  0.0000E+00  0.0000E+00  0.0000E+00  0.0000E+00
    -11.587  0.0000E+00  0.0000E+00  0.0000E+00  0.0000E+00
    -11.542  0.0000E+00  0.0000E+00  0.0000E+00  0.0000E+00
    -11.497  0.0000E+00  0.0000E+00  0.0000E+00  0.0000E+00
    -11.452  0.0000E+00  0.0000E+00  0.0000E+00  0.0000E+00
    -11.407  0.0000E+00  0.0000E+00  0.0000E+00  0.0000E+00
    -11.361  0.0000E+00  0.0000E+00  0.0000E+00  0.0000E+00
    -11.316 -0.3308E-30  0.0000E+00 -0.1490E-31  0.0000E+00
    -11.271 -0.1195E-28  0.0000E+00 -0.5530E-30  0.0000E+00
    -11.226 -0.3991E-27 -0.4120E-29 -0.1853E-28 -0.1856E-30
    -11.181 -0.1203E-25 -0.1383E-27 -0.5604E-27 -0.6415E-29
    -11.136 -0.3273E-24 -0.4302E-26 -0.1530E-25 -0.2002E-27
    -11.091 -0.8035E-23 -0.1208E-24 -0.3772E-24 -0.5639E-26
    -11.046 -0.1779E-21 -0.3059E-23 -0.8392E-23 -0.1434E-24
    -11.001 -0.3555E-20 -0.6991E-22 -0.1685E-21 -0.3292E-23
    -10.956 -0.6407E-19 -0.1441E-20 -0.3054E-20 -0.6821E-22
    -10.911 -0.1041E-17 -0.2681E-19 -0.4995E-19 -0.1276E-20
    -10.866 -0.1526E-16 -0.4496E-18 -0.7371E-18 -0.2152E-19
    -10.821 -0.1954E-15 -0.6800E-17 -0.9538E-17 -0.3278E-18
    -10.776 -0.2321E-14 -0.9025E-16 -0.1141E-15 -0.4393E-17
    -10.731 -0.2483E-13 -0.1103E-14 -0.1232E-14 -0.5405E-16
    -10.686 -0.2392E-12 -0.1218E-13 -0.1200E-13 -0.6027E-15
    -10.641 -0.2073E-11 -0.1212E-12 -0.1054E-12 -0.6060E-14
    -10.596 -0.1617E-10 -0.1085E-11 -0.8337E-12 -0.5492E-13
    -10.551 -0.1134E-09 -0.8738E-11 -0.5941E-11 -0.4485E-12
    -10.506 -0.7143E-09 -0.6330E-10 -0.3811E-10 -0.3299E-11
    -10.461 -0.4040E-08 -0.4121E-09 -0.2201E-09 -0.2186E-10
    -10.416 -0.2049E-07 -0.2409E-08 -0.1143E-08 -0.1303E-09
    -10.371 -0.9304E-07 -0.1263E-07 -0.5333E-08 -0.6992E-09
    -10.326 -0.3777E-06 -0.5933E-07 -0.2235E-07 -0.3371E-08
    -10.281 -0.1368E-05 -0.2493E-06 -0.8395E-07 -0.1460E-07
    -10.236 -0.4404E-05 -0.9351E-06 -0.2823E-06 -0.5671E-07
    -10.190 -0.1255E-04 -0.3122E-05 -0.8476E-06 -0.1973E-06
    -10.145 -0.3146E-04 -0.9240E-05 -0.2265E-05 -0.6135E-06
    -10.100 -0.6864E-04 -0.2411E-04 -0.5356E-05 -0.1699E-05
    -10.055 -0.1280E-03 -0.5495E-04 -0.1112E-04 -0.4174E-05
    -10.010 -0.1965E-03 -0.1078E-03 -0.1997E-04 -0.9029E-05
     -9.965 -0.2253E-03 -0.1766E-03 -0.3011E-04 -0.1698E-04
     -9.920 -0.1184E-03 -0.2255E-03 -0.3545E-04 -0.2714E-04
     -9.875  0.2474E-03 -0.1728E-03 -0.2431E-04 -0.3492E-04
     -9.830  0.9585E-03  0.1015E-03  0.1886E-04 -0.3035E-04
     -9.785  0.1974E-02  0.7040E-03  0.1078E-03  0.1357E-05
     -9.740  0.3076E-02  0.1642E-02  0.2463E-03  0.7529E-04
     -9.695  0.3921E-02  0.2750E-02  0.4229E-03  0.1992E-03
     -9.650  0.4199E-02  0.3712E-02  0.6120E-03  0.3663E-03
     -9.605  0.3799E-02  0.4186E-02  0.7831E-03  0.5549E-03
     -9.560  0.2878E-02  0.3988E-02  0.9127E-03  0.7345E-03
     -9.515  0.1768E-02  0.3196E-02  0.9924E-03  0.8784E-03
     -9.470  0.7984E-03  0.2105E-02  0.1028E-02  0.9732E-03
     -9.425  0.1539E-03  0.1065E-02  0.1035E-02  0.1021E-02
     -9.380 -0.1545E-03  0.3125E-03  0.1028E-02  0.1035E-02
     -9.335 -0.2267E-03 -0.9120E-04  0.1018E-02  0.1031E-02
     -9.290 -0.1845E-03 -0.2220E-03  0.1010E-02  0.1021E-02
     -9.245 -0.1154E-03 -0.2033E-03  0.1005E-02  0.1012E-02
     -9.200 -0.5998E-04 -0.1361E-03  0.1002E-02  0.1006E-02
     -9.155 -0.2676E-04 -0.7450E-04  0.1001E-02  0.1003E-02
     -9.110 -0.1042E-04 -0.3475E-04  0.1000E-02  0.1001E-02
     -9.065 -0.3620E-05 -0.1408E-04  0.1000E-02  0.1000E-02
     -9.019 -0.1300E-05 -0.5013E-05  0.1000E-02  0.1000E-02
     -8.974 -0.1113E-05 -0.1580E-05  0.1000E-02  0.1000E-02
     -8.929 -0.2841E-05 -0.4456E-06  0.9998E-03  0.1000E-02
     -8.884 -0.8319E-05 -0.1285E-06  0.9995E-03  0.1000E-02
     -8.839 -0.2196E-04 -0.1076E-06  0.9985E-03  0.1000E-02
     -8.794 -0.5079E-04 -0.3449E-06  0.9962E-03  0.1000E-02
     -8.749 -0.1013E-03 -0.1243E-05  0.9916E-03  0.9999E-03
     -8.704 -0.1695E-03 -0.4037E-05  0.9840E-03  0.9997E-03
     -8.659 -0.2235E-03 -0.1162E-04  0.9739E-03  0.9992E-03
     -8.614 -0.1869E-03 -0.2942E-04  0.9655E-03  0.9979E-03
     -8.569  0.5711E-04 -0.6493E-04  0.9681E-03  0.9950E-03
     -8.524  0.6186E-03 -0.1227E-03  0.9959E-03  0.9894E-03
     -8.479  0.1515E-02 -0.1916E-03  0.1064E-02  0.9808E-03
     -8.434  0.2594E-02 -0.2264E-03  0.1181E-02  0.9706E-03
     -8.389  0.3542E-02 -0.1345E-03  0.1341E-02  0.9646E-03
     -8.344  0.4008E-02  0.2069E-03  0.1521E-02  0.9739E-03
     -8.299  0.3801E-02  0.8902E-03  0.1692E-02  0.1014E-02
     -8.254  0.3026E-02  0.1887E-02  0.1829E-02  0.1099E-02
     -8.209  0.2060E-02  0.2992E-02  0.1921E-02  0.1234E-02
     -8.164  0.1371E-02  0.3864E-02  0.1983E-02  0.1408E-02
     -8.119  0.1290E-02  0.4180E-02  0.2041E-02  0.1596E-02
     -8.074  0.1871E-02  0.3802E-02  0.2125E-02  0.1767E-02
     -8.029  0.2907E-02  0.2860E-02  0.2256E-02  0.1896E-02
     -7.984  0.4096E-02  0.1681E-02  0.2441E-02  0.1972E-02
     -7.939  0.5232E-02  0.6301E-03  0.2676E-02  0.2000E-02
     -7.894  0.6294E-02 -0.2439E-04  0.2960E-02  0.1999E-02
     -7.848  0.7381E-02 -0.1521E-03  0.3292E-02  0.1992E-02
     -7.803  0.8532E-02  0.2534E-03  0.3677E-02  0.2004E-02
     -7.758  0.9586E-02  0.1089E-02  0.4108E-02  0.2053E-02
     -7.713  0.1021E-01  0.2145E-02  0.4568E-02  0.2149E-02
     -7.668  0.1010E-01  0.3153E-02  0.5023E-02  0.2291E-02
     -7.623  0.9208E-02  0.3902E-02  0.5438E-02  0.2467E-02
     -7.578  0.7848E-02  0.4376E-02  0.5791E-02  0.2664E-02
     -7.533  0.6538E-02  0.4796E-02  0.6086E-02  0.2880E-02
     -7.488  0.5749E-02  0.5482E-02  0.6345E-02  0.3127E-02
     -7.443  0.5693E-02  0.6613E-02  0.6601E-02  0.3425E-02
     -7.398  0.6266E-02  0.8045E-02  0.6883E-02  0.3787E-02
     -7.353  0.7140E-02  0.9331E-02  0.7205E-02  0.4207E-02
     -7.308  0.7930E-02  0.9930E-02  0.7562E-02  0.4655E-02
     -7.263  0.8403E-02  0.9514E-02  0.7940E-02  0.5083E-02
     -7.218  0.8628E-02  0.8173E-02  0.8329E-02  0.5451E-02
     -7.173  0.8973E-02  0.6424E-02  0.8733E-02  0.5741E-02
     -7.128  0.9869E-02  0.4971E-02  0.9178E-02  0.5965E-02
     -7.083  0.1147E-01  0.4359E-02  0.9694E-02  0.6161E-02
     -7.038  0.1345E-01  0.4708E-02  0.1030E-01  0.6373E-02
     -6.993  0.1518E-01  0.5693E-02  0.1098E-01  0.6629E-02
     -6.948  0.1610E-01  0.6785E-02  0.1171E-01  0.6935E-02
     -6.903  0.1598E-01  0.7573E-02  0.1243E-01  0.7276E-02
     -6.858  0.1504E-01  0.7958E-02  0.1311E-01  0.7634E-02
     -6.813  0.1371E-01  0.8105E-02  0.1372E-01  0.7999E-02
     -6.768  0.1245E-01  0.8223E-02  0.1428E-01  0.8370E-02
     -6.722  0.1162E-01  0.8375E-02  0.1481E-01  0.8747E-02
     -6.677  0.1140E-01  0.8463E-02  0.1532E-01  0.9128E-02
     -6.632  0.1175E-01  0.8371E-02  0.1585E-01  0.9505E-02
     -6.587  0.1238E-01  0.8146E-02  0.1641E-01  0.9872E-02
     -6.542  0.1281E-01  0.8048E-02  0.1698E-01  0.1023E-01
     -6.497  0.1268E-01  0.8440E-02  0.1756E-01  0.1061E-01
     -6.452  0.1196E-01  0.9570E-02  0.1809E-01  0.1105E-01
     -6.407  0.1104E-01  0.1137E-01  0.1859E-01  0.1156E-01
     -6.362  0.1047E-01  0.1340E-01  0.1906E-01  0.1216E-01
     -6.317  0.1056E-01  0.1502E-01  0.1954E-01  0.1284E-01
     -6.272  0.1107E-01  0.1575E-01  0.2004E-01  0.1355E-01
     -6.227  0.1139E-01  0.1553E-01  0.2055E-01  0.1425E-01
     -6.182  0.1100E-01  0.1475E-01  0.2105E-01  0.1491E-01
     -6.137  0.9905E-02  0.1400E-01  0.2149E-01  0.1554E-01
     -6.092  0.8659E-02  0.1361E-01  0.2188E-01  0.1615E-01
     -6.047  0.7980E-02  0.1349E-01  0.2224E-01  0.1676E-01
     -6.002  0.8255E-02  0.1327E-01  0.2261E-01  0.1736E-01
     -5.957  0.9312E-02  0.1260E-01  0.2303E-01  0.1793E-01
     -5.912  0.1060E-01  0.1143E-01  0.2351E-01  0.1844E-01
     -5.867  0.1156E-01  0.1006E-01  0.2403E-01  0.1889E-01
     -5.822  0.1195E-01  0.8902E-02  0.2457E-01  0.1930E-01
     -5.777  0.1195E-01  0.8270E-02  0.2511E-01  0.1967E-01
     -5.732  0.1200E-01  0.8278E-02  0.2565E-01  0.2004E-01
     -5.687  0.1247E-01  0.8876E-02  0.2621E-01  0.2044E-01
     -5.642  0.1346E-01  0.9974E-02  0.2681E-01  0.2089E-01
     -5.597  0.1465E-01  0.1148E-01  0.2747E-01  0.2141E-01
     -5.551  0.1556E-01  0.1324E-01  0.2818E-01  0.2200E-01
     -5.506  0.1585E-01  0.1487E-01  0.2889E-01  0.2267E-01
     -5.461  0.1561E-01  0.1584E-01  0.2959E-01  0.2339E-01
     -5.416  0.1528E-01  0.1561E-01  0.3028E-01  0.2409E-01
     -5.371  0.1539E-01  0.1401E-01  0.3097E-01  0.2472E-01
     -5.326  0.1629E-01  0.1148E-01  0.3171E-01  0.2524E-01
     -5.281  0.1803E-01  0.8979E-02  0.3252E-01  0.2564E-01
     -5.236  0.2042E-01  0.7603E-02  0.3344E-01  0.2598E-01
     -5.191  0.2314E-01  0.8010E-02  0.3448E-01  0.2635E-01
     -5.146  0.2574E-01  0.1006E-01  0.3564E-01  0.2680E-01
     -5.101  0.2772E-01  0.1287E-01  0.3689E-01  0.2738E-01
     -5.056  0.2876E-01  0.1524E-01  0.3819E-01  0.2806E-01
     -5.011  0.2887E-01  0.1627E-01  0.3949E-01  0.2880E-01
     -4.966  0.2848E-01  0.1578E-01  0.4077E-01  0.2951E-01
     -4.921  0.2824E-01  0.1433E-01  0.4204E-01  0.3015E-01
     -4.876  0.2857E-01  0.1282E-01  0.4333E-01  0.3073E-01
     -4.831  0.2940E-01  0.1200E-01  0.4465E-01  0.3127E-01
     -4.786  0.3010E-01  0.1215E-01  0.4601E-01  0.3182E-01
     -4.741  0.2988E-01  0.1309E-01  0.4735E-01  0.3241E-01
     -4.696  0.2817E-01  0.1445E-01  0.4862E-01  0.3306E-01
     -4.651  0.2498E-01  0.1596E-01  0.4975E-01  0.3378E-01
     -4.606  0.2080E-01  0.1752E-01  0.5068E-01  0.3457E-01
     -4.561  0.1637E-01  0.1904E-01  0.5142E-01  0.3542E-01
     -4.516  0.1231E-01  0.2030E-01  0.5197E-01  0.3634E-01
     -4.471  0.8951E-02  0.2096E-01  0.5238E-01  0.3728E-01
     -4.426  0.6313E-02  0.2076E-01  0.5266E-01  0.3822E-01
     -4.380  0.4238E-02  0.1981E-01  0.5285E-01  0.3911E-01
     -4.335  0.2562E-02  0.1857E-01  0.5297E-01  0.3995E-01
     -4.290  0.1220E-02  0.1765E-01  0.5302E-01  0.4074E-01
     -4.245  0.2466E-03  0.1743E-01  0.5303E-01  0.4153E-01
     -4.200 -0.2787E-03  0.1789E-01  0.5302E-01  0.4233E-01
     -4.155 -0.2900E-03  0.1871E-01  0.5301E-01  0.4317E-01
     -4.110  0.2262E-03  0.1957E-01  0.5302E-01  0.4406E-01
     -4.065  0.1188E-02  0.2025E-01  0.5307E-01  0.4497E-01
     -4.020  0.2378E-02  0.2069E-01  0.5318E-01  0.4590E-01
     -3.975  0.3454E-02  0.2088E-01  0.5334E-01  0.4684E-01
     -3.930  0.4048E-02  0.2080E-01  0.5352E-01  0.4778E-01
     -3.885  0.3939E-02  0.2043E-01  0.5370E-01  0.4870E-01
     -3.840  0.3177E-02  0.1980E-01  0.5384E-01  0.4959E-01
     -3.795  0.2075E-02  0.1898E-01  0.5393E-01  0.5044E-01
     -3.750  0.1079E-02  0.1794E-01  0.5398E-01  0.5125E-01
     -3.705  0.5779E-03  0.1654E-01  0.5401E-01  0.5200E-01
     -3.660  0.7633E-03  0.1458E-01  0.5404E-01  0.5265E-01
     -3.615  0.1565E-02  0.1198E-01  0.5411E-01  0.5319E-01
     -3.570  0.2674E-02  0.8902E-02  0.5423E-01  0.5359E-01
     -3.525  0.3651E-02  0.5795E-02  0.5440E-01  0.5386E-01
     -3.480  0.4098E-02  0.3231E-02  0.5458E-01  0.5400E-01
     -3.435  0.3834E-02  0.1671E-02  0.5475E-01  0.5408E-01
     -3.390  0.2964E-02  0.1273E-02  0.5489E-01  0.5413E-01
     -3.345  0.1807E-02  0.1819E-02  0.5497E-01  0.5422E-01
     -3.300  0.7342E-03  0.2798E-02  0.5500E-01  0.5434E-01
     -3.255  0.3039E-04  0.3616E-02  0.5500E-01  0.5450E-01
     -3.209 -0.1547E-03  0.3840E-02  0.5500E-01  0.5468E-01
     -3.164  0.2130E-03  0.3359E-02  0.5501E-01  0.5483E-01
     -3.119  0.1065E-02  0.2374E-02  0.5505E-01  0.5494E-01
     -3.074  0.2209E-02  0.1251E-02  0.5515E-01  0.5499E-01
     -3.029  0.3326E-02  0.3326E-03  0.5530E-01  0.5501E-01
     -2.984  0.4048E-02 -0.1605E-03  0.5548E-01  0.5500E-01
     -2.939  0.4115E-02 -0.1362E-03  0.5567E-01  0.5499E-01
     -2.894  0.3505E-02  0.4051E-03  0.5583E-01  0.5501E-01
     -2.849  0.2445E-02  0.1370E-02  0.5594E-01  0.5507E-01
     -2.804  0.1283E-02  0.2540E-02  0.5600E-01  0.5519E-01
     -2.759  0.3224E-03  0.3579E-02  0.5601E-01  0.5535E-01
     -2.714 -0.2669E-03  0.4132E-02  0.5600E-01  0.5554E-01
     -2.669 -0.4261E-03  0.3993E-02  0.5598E-01  0.5571E-01
     -2.624 -0.1371E-03  0.3210E-02  0.5597E-01  0.5586E-01
     -2.579  0.6116E-03  0.2059E-02  0.5600E-01  0.5595E-01
     -2.534  0.1791E-02  0.9034E-03  0.5608E-01  0.5599E-01
     -2.489  0.3268E-02  0.4685E-04  0.5623E-01  0.5600E-01
     -2.444  0.4792E-02 -0.3266E-03  0.5644E-01  0.5598E-01
     -2.399  0.6039E-02 -0.1260E-03  0.5672E-01  0.5597E-01
     -2.354  0.6722E-02  0.6802E-03  0.5702E-01  0.5601E-01
     -2.309  0.6674E-02  0.2044E-02  0.5732E-01  0.5610E-01
     -2.264  0.5909E-02  0.3778E-02  0.5759E-01  0.5627E-01
     -2.219  0.4607E-02  0.5528E-02  0.5779E-01  0.5652E-01
     -2.174  0.3067E-02  0.6850E-02  0.5793E-01  0.5682E-01
     -2.129  0.1604E-02  0.7362E-02  0.5800E-01  0.5716E-01
     -2.084  0.4561E-03  0.6909E-02  0.5802E-01  0.5747E-01
     -2.038 -0.2625E-03  0.5633E-02  0.5801E-01  0.5772E-01
     -1.993 -0.5292E-03  0.3905E-02  0.5799E-01  0.5790E-01
     -1.948 -0.3440E-03  0.2161E-02  0.5797E-01  0.5799E-01
     -1.903  0.3084E-03  0.7402E-03  0.5799E-01  0.5803E-01
     -1.858  0.1428E-02 -0.1986E-03  0.5805E-01  0.5802E-01
     -1.813  0.2922E-02 -0.6306E-03  0.5818E-01  0.5799E-01
     -1.768  0.4553E-02 -0.5606E-03  0.5839E-01  0.5797E-01
     -1.723  0.5965E-02  0.5103E-04  0.5866E-01  0.5797E-01
     -1.678  0.6795E-02  0.1259E-02  0.5896E-01  0.5802E-01
     -1.633  0.6811E-02  0.3007E-02  0.5927E-01  0.5816E-01
     -1.588  0.6019E-02  0.5011E-02  0.5954E-01  0.5839E-01
     -1.543  0.4692E-02  0.6763E-02  0.5975E-01  0.5869E-01
     -1.498  0.3293E-02  0.7704E-02  0.5990E-01  0.5904E-01
     -1.453  0.2306E-02  0.7497E-02  0.6000E-01  0.5937E-01
     -1.408  0.2032E-02  0.6223E-02  0.6010E-01  0.5966E-01
     -1.363  0.2436E-02  0.4371E-02  0.6021E-01  0.5985E-01
     -1.318  0.3160E-02  0.2622E-02  0.6035E-01  0.5997E-01
     -1.273  0.3705E-02  0.1555E-02  0.6051E-01  0.6004E-01
     -1.228  0.3698E-02  0.1412E-02  0.6068E-01  0.6010E-01
     -1.183  0.3090E-02  0.2027E-02  0.6082E-01  0.6019E-01
     -1.138  0.2175E-02  0.2935E-02  0.6092E-01  0.6033E-01
     -1.093  0.1416E-02  0.3606E-02  0.6098E-01  0.6049E-01
     -1.048  0.1193E-02  0.3714E-02  0.6104E-01  0.6066E-01
     -1.003  0.1609E-02  0.3290E-02  0.6111E-01  0.6080E-01
     -0.958  0.2453E-02  0.2683E-02  0.6122E-01  0.6093E-01
     -0.913  0.3335E-02  0.2326E-02  0.6137E-01  0.6103E-01
     -0.867  0.3904E-02  0.2453E-02  0.6154E-01  0.6114E-01
     -0.822  0.4050E-02  0.2964E-02  0.6173E-01  0.6127E-01
     -0.777  0.3922E-02  0.3514E-02  0.6190E-01  0.6143E-01
     -0.732  0.3793E-02  0.3772E-02  0.6207E-01  0.6160E-01
     -0.687  0.3868E-02  0.3659E-02  0.6225E-01  0.6177E-01
     -0.642  0.4214E-02  0.3380E-02  0.6244E-01  0.6192E-01
     -0.597  0.4815E-02  0.3255E-02  0.6266E-01  0.6207E-01
     -0.552  0.5654E-02  0.3483E-02  0.6291E-01  0.6222E-01
     -0.507  0.6677E-02  0.4031E-02  0.6321E-01  0.6240E-01
     -0.462  0.7684E-02  0.4716E-02  0.6356E-01  0.6262E-01
     -0.417  0.8300E-02  0.5369E-02  0.6393E-01  0.6286E-01
     -0.372  0.8130E-02  0.5930E-02  0.6430E-01  0.6313E-01
     -0.327  0.7023E-02  0.6402E-02  0.6461E-01  0.6341E-01
     -0.282  0.5202E-02  0.6754E-02  0.6485E-01  0.6372E-01
     -0.237  0.3168E-02  0.6867E-02  0.6499E-01  0.6403E-01
     -0.192  0.1429E-02  0.6578E-02  0.6505E-01  0.6432E-01
     -0.147  0.2746E-03  0.5794E-02  0.6507E-01  0.6459E-01
     -0.102 -0.2843E-03  0.4574E-02  0.6505E-01  0.6479E-01
     -0.057 -0.4211E-03  0.3136E-02  0.6503E-01  0.6493E-01
     -0.012 -0.3485E-03  0.1766E-02  0.6502E-01  0.6501E-01
      0.033 -0.2223E-03  0.7038E-03  0.6501E-01  0.6504E-01
      0.078 -0.1182E-03  0.4850E-04  0.6500E-01  0.6505E-01
      0.123 -0.5410E-04 -0.2411E-03  0.6500E-01  0.6503E-01
      0.168 -0.2165E-04 -0.2887E-03  0.6500E-01  0.6502E-01
      0.213 -0.7650E-05 -0.2248E-03  0.6500E-01  0.6501E-01
      0.259 -0.2400E-05 -0.1390E-03  0.6500E-01  0.6501E-01
      0.304 -0.6712E-06 -0.7245E-04  0.6500E-01  0.6500E-01
      0.349 -0.1678E-06 -0.3262E-04  0.6500E-01  0.6500E-01
      0.394 -0.3757E-07 -0.1287E-04  0.6500E-01  0.6500E-01
      0.439 -0.7547E-08 -0.4480E-05  0.6500E-01  0.6500E-01
      0.484 -0.1361E-08 -0.1384E-05  0.6500E-01  0.6500E-01
      0.529 -0.2208E-09 -0.3809E-06  0.6500E-01  0.6500E-01
      0.574 -0.3220E-10 -0.9360E-07  0.6500E-01  0.6500E-01
      0.619 -0.4227E-11 -0.2057E-07  0.6500E-01  0.6500E-01
      0.664 -0.4996E-12 -0.4052E-08  0.6500E-01  0.6500E-01
      0.709 -0.5320E-13 -0.7159E-09  0.6500E-01  0.6500E-01
      0.754 -0.5103E-14 -0.1136E-09  0.6500E-01  0.6500E-01
      0.799 -0.4437E-15 -0.1619E-10  0.6500E-01  0.6500E-01
      0.844 -0.2958E-16 -0.2075E-11  0.6500E-01  0.6500E-01
      0.889 -0.4930E-17 -0.2393E-12  0.6500E-01  0.6500E-01
      0.934  0.0000E+00 -0.2484E-13  0.6500E-01  0.6500E-01
      0.979  0.0000E+00 -0.2322E-14  0.6500E-01  0.6500E-01
      1.024  0.0000E+00 -0.1972E-15  0.6500E-01  0.6500E-01
      1.069  0.0000E+00 -0.1479E-16  0.6500E-01  0.6500E-01
      1.114  0.0000E+00  0.0000E+00  0.6500E-01  0.6500E-01
      1.159  0.0000E+00  0.0000E+00  0.6500E-01  0.6500E-01
      1.204  0.0000E+00  0.0000E+00  0.6500E-01  0.6500E-01
      1.249  0.0000E+00  0.0000E+00  0.6500E-01  0.6500E-01
      1.294  0.0000E+00  0.0000E+00  0.6500E-01  0.6500E-01
      1.339  0.0000E+00  0.0000E+00  0.6500E-01  0.6500E-01
      1.384  0.0000E+00  0.0000E+00  0.6500E-01  0.6500E-01
      1.430  0.0000E+00  0.0000E+00  0.6500E-01  0.6500E-01
      1.475  0.0000E+00  0.0000E+00  0.6500E-01  0.6500E-01
      1.520  0.0000E+00  0.0000E+00  0.6500E-01  0.6500E-01
      1.565  0.0000E+00  0.0000E+00  0.6500E-01  0.6500E-01
      1.610  0.0000E+00  0.0000E+00  0.6500E-01  0.6500E-01
      1.655  0.0000E+00  0.0000E+00  0.6500E-01  0.6500E-01
      1.700  0.0000E+00  0.0000E+00  0.6500E-01  0.6500E-01
      1.745  0.0000E+00  0.0000E+00  0.6500E-01  0.6500E-01
      1.790  0.0000E+00  0.0000E+00  0.6500E-01  0.6500E-01
      1.835  0.0000E+00  0.0000E+00  0.6500E-01  0.6500E-01
