   10   10 1000    2
  0.1231970E+04  0.2292112E-08  0.2372708E-08  0.2265269E-08  0.5000000E-15
   1.0000000000000000E-004
  CAR 
 unknown system                          
    100      1     65
 
  0.1262379E-14  0.1262379E-14  0.1262379E-14  0.1000000E+01
    1       -9.676754     -9.617973   1.000000   1.000000
    2       -8.352216     -8.141918   1.000000   1.000000
    3       -7.979209     -7.631057   1.000000   1.000000
    4       -7.814643     -7.413042   1.000000   1.000000
    5       -7.692158     -7.313165   1.000000   1.000000
    6       -7.662396     -7.247591   1.000000   1.000000
    7       -7.453364     -6.989697   1.000000   1.000000
    8       -7.290511     -6.893968   1.000000   1.000000
    9       -7.242081     -6.735545   1.000000   1.000000
   10       -7.043443     -6.650072   1.000000   1.000000
   11       -7.028661     -6.517185   1.000000   1.000000
   12       -6.975767     -6.386593   1.000000   1.000000
   13       -6.914057     -6.308525   1.000000   1.000000
   14       -6.820926     -6.296306   1.000000   1.000000
   15       -6.768213     -6.247207   1.000000   1.000000
   16       -6.649137     -6.125286   1.000000   1.000000
   17       -6.559154     -6.046813   1.000000   1.000000
   18       -6.507699     -5.999948   1.000000   1.000000
   19       -6.452016     -5.928833   1.000000   1.000000
   20       -6.274510     -5.791439   1.000000   1.000000
   21       -6.219853     -5.674474   1.000000   1.000000
   22       -6.195242     -5.591914   1.000000   1.000000
   23       -5.973715     -5.478522   1.000000   1.000000
   24       -5.928178     -5.450855   1.000000   1.000000
   25       -5.818314     -5.419987   1.000000   1.000000
   26       -5.774243     -5.337195   1.000000   1.000000
   27       -5.638062     -5.118031   1.000000   1.000000
   28       -5.565517     -5.076549   1.000000   1.000000
   29       -5.556546     -5.043500   1.000000   1.000000
   30       -5.497554     -4.995979   1.000000   1.000000
   31       -5.397616     -4.913989   1.000000   1.000000
   32       -5.324246     -4.783990   1.000000   1.000000
   33       -5.279162     -4.732332   1.000000   1.000001
   34       -5.249325     -4.682009   1.000000   1.000004
   35       -5.170836     -4.597245   1.000000   1.000061
   36       -5.126921     -4.556152   1.000000   1.000190
   37       -5.110927     -4.485920   1.000000   1.001067
   38       -5.092640     -4.457261   1.000000   1.001988
   39       -5.047550     -4.420321   1.000000   1.004123
   40       -5.034261     -4.406201   1.000000   1.005329
   41       -4.978006     -4.285884   1.000000   1.026838
   42       -4.944745     -4.241409   1.000000   1.034754
   43       -4.909722     -4.168954   1.000000   1.016768
   44       -4.847211     -4.159459   1.000000   1.008888
   45       -4.817791     -4.088536   1.000000   0.886821
   46       -4.782162     -4.031477   1.000000   0.701396
   47       -4.779075     -3.993347   1.000000   0.546800
   48       -4.733387     -3.929767   1.000001   0.286110
   49       -4.714830     -3.907910   1.000001   0.208176
   50       -4.686324     -3.851587   1.000004   0.057458
   51       -4.605852     -3.787223   1.000048  -0.022361
   52       -4.580682     -3.718013   1.000098  -0.034203
   53       -4.432616     -3.682082   1.003264  -0.027610
   54       -3.935134     -3.602500   0.306568  -0.010932
   55       -3.498445     -3.249761  -0.001649  -0.000001
   56       -2.980574     -2.722486  -0.000000  -0.000000
   57       -2.427641     -2.205900  -0.000000  -0.000000
   58       -2.285427     -2.093667  -0.000000  -0.000000
   59       -1.738991     -1.542912  -0.000000  -0.000000
   60       -1.608814     -1.464246  -0.000000  -0.000000
   61       -1.273369     -1.091472  -0.000000  -0.000000
   62       -0.885945     -0.763228  -0.000000  -0.000000
   63       -0.634331     -0.486546  -0.000000  -0.000000
   64       -0.432341     -0.306348  -0.000000  -0.000000
   65       -0.376457     -0.165144  -0.000000  -0.000000
