       N       E                     dE             d eps       ncg     rms          rms(c)
DAV:   1     0.727855404001E+03    0.72786E+03   -0.15639E+04   260   0.699E+02
DAV:   2     0.256169332353E+03   -0.47169E+03   -0.44102E+03   488   0.114E+02
DAV:   3     0.209643695797E+02   -0.23520E+03   -0.22256E+03   376   0.126E+02
DAV:   4    -0.368294169818E+02   -0.57794E+02   -0.49860E+02   400   0.594E+01
DAV:   5    -0.430228477898E+02   -0.61934E+01   -0.56598E+01   320   0.254E+01    0.269E+01
DAV:   6    -0.610478819954E+02   -0.18025E+02   -0.97941E+01   310   0.158E+02    0.552E+01
DAV:   7    -0.386373459999E+02    0.22411E+02   -0.54315E+01   334   0.801E+01    0.315E+01
DAV:   8    -0.385881987060E+02    0.49147E-01   -0.30239E+01   344   0.758E+01    0.316E+01
DAV:   9    -0.409225926173E+02   -0.23344E+01   -0.29847E+01   351   0.674E+01    0.419E+01
DAV:  10    -0.369166655198E+02    0.40059E+01   -0.21043E+01   344   0.580E+01    0.372E+01
DAV:  11    -0.351682314554E+02    0.17484E+01   -0.10113E+01   383   0.339E+01    0.233E+01
DAV:  12    -0.354257107294E+02   -0.25748E+00   -0.71461E+00   334   0.414E+01    0.256E+01
DAV:  13    -0.340147969805E+02    0.14109E+01   -0.33391E+00   319   0.345E+01    0.107E+01
DAV:  14    -0.340929674890E+02   -0.78171E-01   -0.88611E-01   368   0.106E+01    0.583E+00
DAV:  15    -0.344166026832E+02   -0.32364E+00   -0.95581E-01   368   0.133E+01    0.115E+01
DAV:  16    -0.343349876142E+02    0.81615E-01   -0.91603E-01   303   0.120E+01    0.402E+00
DAV:  17    -0.346030821715E+02   -0.26809E+00   -0.17593E-01   360   0.394E+00    0.652E+00
DAV:  18    -0.348472271077E+02   -0.24414E+00   -0.77073E-02   336   0.334E+00    0.572E+00
DAV:  19    -0.351602154337E+02   -0.31299E+00   -0.37027E-01   359   0.593E+00    0.308E+00
DAV:  20    -0.353290385326E+02   -0.16882E+00   -0.56682E-02   367   0.210E+00    0.381E+00
DAV:  21    -0.354216029825E+02   -0.92564E-01   -0.21806E-02   360   0.214E+00    0.263E+00
DAV:  22    -0.355789275897E+02   -0.15732E+00   -0.34138E-02   365   0.203E+00    0.109E+00
DAV:  23    -0.357665397134E+02   -0.18761E+00   -0.16696E-02   318   0.110E+00    0.897E-01
DAV:  24    -0.359627712668E+02   -0.19623E+00   -0.18232E-02   349   0.950E-01    0.838E-01
DAV:  25    -0.361331334646E+02   -0.17036E+00   -0.14248E-02   365   0.110E+00    0.498E-01
DAV:  26    -0.362451481058E+02   -0.11201E+00   -0.52240E-03   348   0.560E-01    0.534E-01
DAV:  27    -0.363615159259E+02   -0.11637E+00   -0.47905E-03   332   0.670E-01    0.241E-01
DAV:  28    -0.365241037579E+02   -0.16259E+00   -0.76106E-03   284   0.397E-01    0.183E-01
DAV:  29    -0.366247558945E+02   -0.10065E+00   -0.40057E-03   284   0.243E-01    0.235E-01
DAV:  30    -0.367078210930E+02   -0.83065E-01   -0.30926E-03   285   0.300E-01    0.147E-01
DAV:  31    -0.367717928871E+02   -0.63972E-01   -0.20163E-03   301   0.235E-01    0.110E-01
DAV:  32    -0.368228335834E+02   -0.51041E-01   -0.13437E-03   262   0.150E-01    0.697E-02
DAV:  33    -0.368619316583E+02   -0.39098E-01   -0.10318E-03   270   0.144E-01    0.101E-01
DAV:  34    -0.368862095490E+02   -0.24278E-01   -0.65486E-04   239   0.150E-01    0.523E-02
DAV:  35    -0.369010682207E+02   -0.14859E-01   -0.43412E-04   238   0.103E-01    0.494E-02
DAV:  36    -0.369090547213E+02   -0.79865E-02   -0.21541E-04   206   0.743E-02    0.261E-02
DAV:  37    -0.369133004880E+02   -0.42458E-02   -0.10782E-04   182   0.492E-02    0.235E-02
DAV:  38    -0.369160515258E+02   -0.27510E-02   -0.79556E-05   184   0.364E-02    0.170E-02
DAV:  39    -0.369174457428E+02   -0.13942E-02   -0.54413E-05   166   0.306E-02    0.202E-02
DAV:  40    -0.369188522435E+02   -0.14065E-02   -0.62880E-05   175   0.329E-02    0.114E-02
DAV:  41    -0.369194859012E+02   -0.63366E-03   -0.42856E-05   176   0.249E-02    0.867E-03
DAV:  42    -0.369198957281E+02   -0.40983E-03   -0.30292E-05   166   0.211E-02    0.118E-02
DAV:  43    -0.369201885270E+02   -0.29280E-03   -0.24272E-05   175   0.221E-02    0.690E-03
DAV:  44    -0.369203283928E+02   -0.13987E-03   -0.14058E-05   175   0.155E-02    0.580E-03
DAV:  45    -0.369204686602E+02   -0.14027E-03   -0.11186E-05   166   0.134E-02    0.466E-03
DAV:  46    -0.369205468325E+02   -0.78172E-04   -0.57815E-06   167   0.122E-02
   1 F= -.36920547E+02 E0= -.36892016E+02  d E =-.369205E+02  mag=     6.9836
       N       E                     dE             d eps       ncg     rms          rms(c)
DAV:   1    -0.370481892866E+02   -0.12772E+00   -0.82007E+01   260   0.338E+01    0.342E+00
DAV:   2    -0.380200063989E+02   -0.97182E+00   -0.41818E+00   383   0.276E+01    0.203E+01
DAV:   3    -0.372322964088E+02    0.78771E+00   -0.40667E+00   302   0.253E+01    0.811E+00
DAV:   4    -0.371931491075E+02    0.39147E-01   -0.10345E+00   358   0.150E+01    0.656E+00
DAV:   5    -0.372217462208E+02   -0.28597E-01   -0.68462E-01   351   0.101E+01    0.654E+00
DAV:   6    -0.372004177048E+02    0.21329E-01   -0.51353E-01   350   0.804E+00    0.486E+00
DAV:   7    -0.371641106451E+02    0.36307E-01   -0.18623E-01   334   0.608E+00    0.157E+00
DAV:   8    -0.371844990222E+02   -0.20388E-01   -0.83868E-02   383   0.394E+00    0.259E+00
DAV:   9    -0.371728681557E+02    0.11631E-01   -0.74112E-02   350   0.355E+00    0.188E+00
DAV:  10    -0.371731368065E+02   -0.26865E-03   -0.43975E-02   366   0.284E+00    0.184E+00
DAV:  11    -0.371643775990E+02    0.87592E-02   -0.22094E-02   384   0.225E+00    0.684E-01
DAV:  12    -0.371658131054E+02   -0.14355E-02   -0.44222E-03   375   0.780E-01    0.378E-01
DAV:  13    -0.371674161220E+02   -0.16030E-02   -0.17529E-03   350   0.548E-01    0.192E-01
DAV:  14    -0.371689117152E+02   -0.14956E-02   -0.53507E-04   208   0.271E-01    0.112E-01
DAV:  15    -0.371702016673E+02   -0.12900E-02   -0.23464E-04   181   0.158E-01    0.661E-02
DAV:  16    -0.371718207906E+02   -0.16191E-02   -0.16645E-04   166   0.107E-01    0.470E-02
DAV:  17    -0.371728124465E+02   -0.99166E-03   -0.79821E-05   174   0.595E-02    0.334E-02
DAV:  18    -0.371738394536E+02   -0.10270E-02   -0.44506E-05   166   0.428E-02    0.205E-02
DAV:  19    -0.371750737805E+02   -0.12343E-02   -0.38038E-05   173   0.296E-02    0.176E-02
DAV:  20    -0.371758418106E+02   -0.76803E-03   -0.20704E-05   175   0.236E-02    0.107E-02
DAV:  21    -0.371768928872E+02   -0.10511E-02   -0.23866E-05   173   0.190E-02    0.135E-02
DAV:  22    -0.371778612139E+02   -0.96833E-03   -0.21845E-05   174   0.203E-02    0.785E-03
DAV:  23    -0.371786050382E+02   -0.74382E-03   -0.17985E-05   174   0.154E-02    0.741E-03
DAV:  24    -0.371794715099E+02   -0.86647E-03   -0.19962E-05   173   0.154E-02    0.728E-03
DAV:  25    -0.371801457425E+02   -0.67423E-03   -0.16501E-05   174   0.153E-02    0.642E-03
DAV:  26    -0.371808410147E+02   -0.69527E-03   -0.18772E-05   173   0.147E-02    0.618E-03
DAV:  27    -0.371812861761E+02   -0.44516E-03   -0.14029E-05   175   0.132E-02    0.407E-03
DAV:  28    -0.371815695955E+02   -0.28342E-03   -0.93487E-06   176   0.113E-02    0.277E-03
DAV:  29    -0.371818449058E+02   -0.27531E-03   -0.94187E-06   175   0.876E-03    0.240E-03
DAV:  30    -0.371820254046E+02   -0.18050E-03   -0.63199E-06   176   0.899E-03    0.224E-03
DAV:  31    -0.371821076174E+02   -0.82213E-04   -0.40043E-06   168   0.696E-03
   2 F= -.37182108E+02 E0= -.37158628E+02  d E =-.261561E+00  mag=     6.8507
       N       E                     dE             d eps       ncg     rms          rms(c)
DAV:   1    -0.371473895810E+02    0.34636E-01   -0.71882E+01   260   0.316E+01    0.300E+00
DAV:   2    -0.378325197521E+02   -0.68513E+00   -0.31105E+00   390   0.239E+01    0.166E+01
DAV:   3    -0.372902227669E+02    0.54230E+00   -0.25802E+00   318   0.223E+01    0.615E+00
DAV:   4    -0.372602268706E+02    0.29996E-01   -0.67408E-01   375   0.121E+01    0.361E+00
DAV:   5    -0.373376281783E+02   -0.77401E-01   -0.59419E-01   351   0.892E+00    0.771E+00
DAV:   6    -0.372517400260E+02    0.85888E-01   -0.39220E-01   342   0.663E+00    0.222E+00
DAV:   7    -0.372618320384E+02   -0.10092E-01   -0.76120E-02   366   0.371E+00    0.172E+00
DAV:   8    -0.372793083046E+02   -0.17476E-01   -0.92847E-02   382   0.391E+00    0.319E+00
DAV:   9    -0.372575614259E+02    0.21747E-01   -0.71282E-02   350   0.367E+00    0.130E+00
DAV:  10    -0.372660433219E+02   -0.84819E-02   -0.27833E-02   399   0.296E+00    0.190E+00
DAV:  11    -0.372556906338E+02    0.10353E-01   -0.28133E-02   368   0.273E+00    0.573E-01
DAV:  12    -0.372587399380E+02   -0.30493E-02   -0.30842E-03   374   0.695E-01    0.328E-01
DAV:  13    -0.372600000244E+02   -0.12601E-02   -0.11681E-03   296   0.448E-01    0.157E-01
DAV:  14    -0.372610114914E+02   -0.10115E-02   -0.31072E-04   180   0.223E-01    0.973E-02
DAV:  15    -0.372618511661E+02   -0.83967E-03   -0.15877E-04   175   0.127E-01    0.563E-02
DAV:  16    -0.372625773638E+02   -0.72620E-03   -0.92477E-05   164   0.788E-02    0.335E-02
DAV:  17    -0.372631043070E+02   -0.52694E-03   -0.46755E-05   174   0.515E-02    0.228E-02
DAV:  18    -0.372636120192E+02   -0.50771E-03   -0.26265E-05   166   0.371E-02    0.177E-02
DAV:  19    -0.372642659129E+02   -0.65389E-03   -0.24349E-05   174   0.300E-02    0.104E-02
DAV:  20    -0.372646850364E+02   -0.41912E-03   -0.14532E-05   174   0.220E-02    0.103E-02
DAV:  21    -0.372651839391E+02   -0.49890E-03   -0.13135E-05   174   0.191E-02    0.865E-03
DAV:  22    -0.372656514395E+02   -0.46750E-03   -0.11750E-05   174   0.142E-02    0.499E-03
DAV:  23    -0.372660832222E+02   -0.43178E-03   -0.10826E-05   174   0.105E-02    0.524E-03
DAV:  24    -0.372665849482E+02   -0.50173E-03   -0.11132E-05   174   0.107E-02    0.484E-03
DAV:  25    -0.372669019481E+02   -0.31700E-03   -0.70226E-06   174   0.981E-03    0.395E-03
DAV:  26    -0.372672638055E+02   -0.36186E-03   -0.83810E-06   174   0.883E-03    0.391E-03
DAV:  27    -0.372675510759E+02   -0.28727E-03   -0.70709E-06   174   0.843E-03    0.324E-03
DAV:  28    -0.372677246004E+02   -0.17352E-03   -0.45836E-06   167   0.810E-03    0.187E-03
DAV:  29    -0.372678885010E+02   -0.16390E-03   -0.49775E-06   174   0.679E-03    0.219E-03
DAV:  30    -0.372679914044E+02   -0.10290E-03   -0.32824E-06   167   0.702E-03    0.140E-03
DAV:  31    -0.372680408031E+02   -0.49399E-04   -0.21636E-06   168   0.516E-03
   3 F= -.37268041E+02 E0= -.37246489E+02  d E =-.347494E+00  mag=     6.7658
       N       E                     dE             d eps       ncg     rms          rms(c)
DAV:   1    -0.372844579347E+02   -0.16467E-01   -0.26217E+01   260   0.191E+01    0.287E+00
DAV:   2    -0.384166341898E+02   -0.11322E+01   -0.54275E+00   334   0.312E+01    0.160E+01
DAV:   3    -0.373088928914E+02    0.11077E+01   -0.12683E+00   334   0.266E+01    0.510E+00
DAV:   4    -0.373181993543E+02   -0.93065E-02   -0.38149E-01   382   0.892E+00    0.374E+00
DAV:   5    -0.373220617345E+02   -0.38624E-02   -0.21989E-01   358   0.630E+00    0.296E+00
DAV:   6    -0.373309677258E+02   -0.89060E-02   -0.13685E-01   358   0.482E+00    0.278E+00
DAV:   7    -0.373172425873E+02    0.13725E-01   -0.51943E-02   335   0.358E+00    0.987E-01
DAV:   8    -0.373200679333E+02   -0.28253E-02   -0.14445E-02   383   0.150E+00    0.767E-01
DAV:   9    -0.373228507420E+02   -0.27828E-02   -0.10883E-02   351   0.169E+00    0.115E+00
DAV:  10    -0.373192159068E+02    0.36348E-02   -0.10612E-02   343   0.164E+00    0.291E-01
DAV:  11    -0.373233260406E+02   -0.41101E-02   -0.62780E-03   374   0.903E-01    0.933E-01
DAV:  12    -0.373214191451E+02    0.19069E-02   -0.41248E-03   360   0.890E-01    0.448E-01
DAV:  13    -0.373220071130E+02   -0.58797E-03   -0.79918E-04   198   0.372E-01    0.139E-01
DAV:  14    -0.373226823288E+02   -0.67522E-03   -0.43147E-04   208   0.215E-01    0.817E-02
DAV:  15    -0.373229801553E+02   -0.29783E-03   -0.16136E-04   190   0.136E-01    0.362E-02
DAV:  16    -0.373231188672E+02   -0.13871E-03   -0.40583E-05   176   0.618E-02    0.167E-02
DAV:  17    -0.373232284679E+02   -0.10960E-03   -0.18010E-05   176   0.332E-02    0.210E-02
DAV:  18    -0.373233828024E+02   -0.15433E-03   -0.18822E-05   175   0.458E-02    0.327E-02
DAV:  19    -0.373234779997E+02   -0.95197E-04   -0.96701E-06   184   0.303E-02
   4 F= -.37323478E+02 E0= -.37303559E+02  d E =-.554372E-01  mag=     6.7537
       N       E                     dE             d eps       ncg     rms          rms(c)
DAV:   1    -0.373166115987E+02    0.67712E-02   -0.10118E+01   260   0.118E+01    0.163E+00
DAV:   2    -0.377533331691E+02   -0.43672E+00   -0.19267E+00   342   0.173E+01    0.123E+01
DAV:   3    -0.372798215475E+02    0.47351E+00   -0.60676E-01   334   0.162E+01    0.206E+00
DAV:   4    -0.373263455369E+02   -0.46524E-01   -0.12577E-01   390   0.499E+00    0.205E+00
DAV:   5    -0.373328810346E+02   -0.65355E-02   -0.86785E-02   358   0.377E+00    0.201E+00
DAV:   6    -0.373307912730E+02    0.20898E-02   -0.39550E-02   350   0.259E+00    0.129E+00
DAV:   7    -0.373284685257E+02    0.23227E-02   -0.12777E-02   366   0.163E+00    0.315E-01
DAV:   8    -0.373308541681E+02   -0.23856E-02   -0.50012E-03   382   0.784E-01    0.658E-01
DAV:   9    -0.373311856322E+02   -0.33146E-03   -0.54021E-03   359   0.122E+00    0.820E-01
DAV:  10    -0.373292937080E+02    0.18919E-02   -0.46844E-03   358   0.107E+00    0.205E-01
DAV:  11    -0.373313654450E+02   -0.20717E-02   -0.12816E-03   302   0.580E-01    0.415E-01
DAV:  12    -0.373309373634E+02    0.42808E-03   -0.10410E-03   255   0.593E-01    0.337E-01
DAV:  13    -0.373310419687E+02   -0.10461E-03   -0.79132E-04   190   0.318E-01    0.727E-02
DAV:  14    -0.373314180344E+02   -0.37607E-03   -0.10342E-04   176   0.118E-01    0.292E-02
DAV:  15    -0.373315767486E+02   -0.15871E-03   -0.38793E-05   168   0.555E-02    0.214E-02
DAV:  16    -0.373316489731E+02   -0.72224E-04   -0.16738E-05   182   0.347E-02
   5 F= -.37331649E+02 E0= -.37312827E+02  d E =-.636082E-01  mag=     6.7450
       N       E                     dE             d eps       ncg     rms          rms(c)
DAV:   1    -0.373326084135E+02   -0.10317E-02   -0.84589E+00   260   0.106E+01    0.123E+00
DAV:   2    -0.375919130504E+02   -0.25930E+00   -0.11709E+00   366   0.129E+01    0.109E+01
DAV:   3    -0.372952335501E+02    0.29668E+00   -0.69704E-01   326   0.124E+01    0.157E+00
DAV:   4    -0.373432060418E+02   -0.47972E-01   -0.88696E-02   382   0.410E+00    0.177E+00
DAV:   5    -0.373485389272E+02   -0.53329E-02   -0.67223E-02   350   0.333E+00    0.171E+00
DAV:   6    -0.373457913896E+02    0.27475E-02   -0.36152E-02   327   0.238E+00    0.112E+00
DAV:   7    -0.373438950747E+02    0.18963E-02   -0.11421E-02   335   0.149E+00    0.271E-01
DAV:   8    -0.373460188452E+02   -0.21238E-02   -0.33655E-03   391   0.954E-01    0.631E-01
DAV:   9    -0.373453683393E+02    0.65051E-03   -0.25016E-03   351   0.964E-01    0.347E-01
DAV:  10    -0.373455472961E+02   -0.17896E-03   -0.11277E-03   303   0.448E-01    0.128E-01
DAV:  11    -0.373465075497E+02   -0.96025E-03   -0.14775E-03   264   0.571E-01    0.406E-01
DAV:  12    -0.373460618613E+02    0.44569E-03   -0.84501E-04   206   0.502E-01    0.189E-01
DAV:  13    -0.373463302222E+02   -0.26836E-03   -0.39003E-04   182   0.231E-01    0.890E-02
DAV:  14    -0.373465197849E+02   -0.18956E-03   -0.66538E-05   173   0.945E-02    0.515E-02
DAV:  15    -0.373466008438E+02   -0.81059E-04   -0.38621E-05   166   0.651E-02
   6 F= -.37346601E+02 E0= -.37328983E+02  d E =-.149519E-01  mag=     6.7417
       N       E                     dE             d eps       ncg     rms          rms(c)
DAV:   1    -0.373378811808E+02    0.86386E-02   -0.82117E+00   260   0.105E+01    0.119E+00
DAV:   2    -0.375729983951E+02   -0.23512E+00   -0.10415E+00   374   0.123E+01    0.105E+01
DAV:   3    -0.372997429320E+02    0.27326E+00   -0.77956E-01   334   0.118E+01    0.148E+00
DAV:   4    -0.373484785542E+02   -0.48736E-01   -0.80183E-02   382   0.397E+00    0.174E+00
DAV:   5    -0.373533742659E+02   -0.48957E-02   -0.60706E-02   350   0.326E+00    0.167E+00
DAV:   6    -0.373503975808E+02    0.29767E-02   -0.32955E-02   318   0.232E+00    0.105E+00
DAV:   7    -0.373489090093E+02    0.14886E-02   -0.10900E-02   343   0.141E+00    0.278E-01
DAV:   8    -0.373509360343E+02   -0.20270E-02   -0.32225E-03   390   0.922E-01    0.604E-01
DAV:   9    -0.373503544788E+02    0.58156E-03   -0.23515E-03   334   0.945E-01    0.341E-01
DAV:  10    -0.373505315532E+02   -0.17707E-03   -0.11696E-03   319   0.487E-01    0.196E-01
DAV:  11    -0.373511628285E+02   -0.63128E-03   -0.17558E-03   304   0.656E-01    0.359E-01
DAV:  12    -0.373509652986E+02    0.19753E-03   -0.79875E-04   206   0.462E-01    0.182E-01
DAV:  13    -0.373511884530E+02   -0.22315E-03   -0.38173E-04   182   0.229E-01    0.898E-02
DAV:  14    -0.373513341395E+02   -0.14569E-03   -0.67895E-05   173   0.979E-02    0.476E-02
DAV:  15    -0.373514041163E+02   -0.69977E-04   -0.34370E-05   166   0.628E-02
   7 F= -.37351404E+02 E0= -.37335190E+02  d E =-.197551E-01  mag=     6.7422
       N       E                     dE             d eps       ncg     rms          rms(c)
DAV:   1    -0.373463817509E+02    0.49524E-02   -0.60084E+00   260   0.905E+00    0.745E-01
DAV:   2    -0.373787496278E+02   -0.32368E-01   -0.21224E-01   390   0.513E+00    0.393E+00
DAV:   3    -0.373490402396E+02    0.29709E-01   -0.18373E-01   318   0.558E+00    0.191E+00
DAV:   4    -0.373604425535E+02   -0.11402E-01   -0.66441E-02   366   0.318E+00    0.188E+00
DAV:   5    -0.373546119132E+02    0.58306E-02   -0.37282E-02   358   0.257E+00    0.884E-01
DAV:   6    -0.373565304965E+02   -0.19186E-02   -0.12388E-02   335   0.161E+00    0.931E-01
DAV:   7    -0.373556609606E+02    0.86954E-03   -0.68740E-03   350   0.112E+00    0.396E-01
DAV:   8    -0.373564961771E+02   -0.83522E-03   -0.37238E-03   366   0.908E-01    0.496E-01
DAV:   9    -0.373562620689E+02    0.23411E-03   -0.23985E-03   334   0.906E-01    0.283E-01
DAV:  10    -0.373564434519E+02   -0.18138E-03   -0.76381E-04   270   0.378E-01    0.142E-01
DAV:  11    -0.373568324511E+02   -0.38900E-03   -0.11694E-03   255   0.518E-01    0.314E-01
DAV:  12    -0.373565137672E+02    0.31868E-03   -0.69018E-04   191   0.482E-01    0.175E-01
DAV:  13    -0.373566599880E+02   -0.14622E-03   -0.11254E-04   174   0.156E-01    0.792E-02
DAV:  14    -0.373567638375E+02   -0.10385E-03   -0.50993E-05   158   0.643E-02    0.193E-02
DAV:  15    -0.373568836544E+02   -0.11982E-03   -0.19474E-05   156   0.401E-02    0.183E-02
DAV:  16    -0.373569484709E+02   -0.64817E-04   -0.83595E-06   149   0.233E-02
   8 F= -.37356948E+02 E0= -.37340650E+02  d E =-.554435E-02  mag=     6.7297
       N       E                     dE             d eps       ncg     rms          rms(c)
DAV:   1    -0.373570206010E+02   -0.13695E-03   -0.92068E-04   269   0.112E-01    0.109E-02
DAV:   2    -0.373570958616E+02   -0.75261E-04   -0.36442E-05   150   0.800E-02
   9 F= -.37357096E+02 E0= -.37340776E+02  d E =-.569175E-02  mag=     6.7289
       N       E                     dE             d eps       ncg     rms          rms(c)
DAV:   1    -0.373570210528E+02   -0.45183E-06   -0.14744E+00   260   0.454E+00    0.518E-01
DAV:   2    -0.373994950721E+02   -0.42474E-01   -0.18380E-01   398   0.497E+00    0.520E+00
DAV:   3    -0.373394771692E+02    0.60018E-01   -0.18173E-01   318   0.496E+00    0.546E-01
DAV:   4    -0.373592817596E+02   -0.19805E-01   -0.18586E-02   358   0.200E+00    0.102E+00
DAV:   5    -0.373576581391E+02    0.16236E-02   -0.99274E-03   343   0.156E+00    0.422E-01
DAV:   6    -0.373583054546E+02   -0.64732E-03   -0.31684E-03   326   0.773E-01    0.463E-01
DAV:   7    -0.373579245039E+02    0.38095E-03   -0.22426E-03   278   0.591E-01    0.219E-01
DAV:   8    -0.373582482042E+02   -0.32370E-03   -0.10744E-03   230   0.464E-01    0.269E-01
DAV:   9    -0.373581402731E+02    0.10793E-03   -0.63704E-04   190   0.408E-01    0.229E-01
DAV:  10    -0.373580158106E+02    0.12446E-03   -0.25987E-04   175   0.238E-01    0.152E-01
DAV:  11    -0.373581205717E+02   -0.10476E-03   -0.23308E-04   167   0.277E-01    0.117E-01
DAV:  12    -0.373582509529E+02   -0.13038E-03   -0.23424E-04   173   0.200E-01    0.106E-01
DAV:  13    -0.373583058935E+02   -0.54941E-04   -0.84471E-05   157   0.114E-01
  10 F= -.37358306E+02 E0= -.37342218E+02  d E =-.121003E-02  mag=     6.7136
       N       E                     dE             d eps       ncg     rms          rms(c)
DAV:   1    -0.373560697285E+02    0.21812E-02   -0.20851E+00   260   0.539E+00    0.613E-01
DAV:   2    -0.374147902056E+02   -0.58720E-01   -0.25928E-01   390   0.586E+00    0.607E+00
DAV:   3    -0.373334087951E+02    0.81381E-01   -0.25632E-01   318   0.582E+00    0.624E-01
DAV:   4    -0.373592434586E+02   -0.25835E-01   -0.23566E-02   350   0.237E+00    0.120E+00
DAV:   5    -0.373568855829E+02    0.23579E-02   -0.11730E-02   342   0.183E+00    0.427E-01
DAV:   6    -0.373576644573E+02   -0.77887E-03   -0.31706E-03   310   0.811E-01    0.369E-01
DAV:   7    -0.373574430024E+02    0.22145E-03   -0.23774E-03   334   0.686E-01    0.233E-01
DAV:   8    -0.373577031053E+02   -0.26010E-03   -0.90182E-04   230   0.447E-01    0.288E-01
DAV:   9    -0.373576755542E+02    0.27551E-04   -0.13593E-03   198   0.459E-01    0.402E-01
DAV:  10    -0.373573484835E+02    0.32707E-03   -0.77316E-04   182   0.387E-01    0.155E-01
DAV:  11    -0.373577202752E+02   -0.37179E-03   -0.34391E-04   174   0.343E-01    0.160E-01
DAV:  12    -0.373578504687E+02   -0.13019E-03   -0.33985E-04   174   0.281E-01    0.129E-01
DAV:  13    -0.373579644191E+02   -0.11395E-03   -0.12382E-04   165   0.140E-01    0.248E-02
DAV:  14    -0.373581499712E+02   -0.18555E-03   -0.31245E-05   157   0.530E-02    0.185E-02
DAV:  15    -0.373583208119E+02   -0.17084E-03   -0.15346E-05   157   0.291E-02    0.969E-03
DAV:  16    -0.373584693058E+02   -0.14849E-03   -0.71479E-06   149   0.158E-02    0.821E-03
DAV:  17    -0.373586947351E+02   -0.22543E-03   -0.53835E-06   174   0.139E-02    0.606E-03
DAV:  18    -0.373589866338E+02   -0.29190E-03   -0.73992E-06   174   0.124E-02    0.824E-03
DAV:  19    -0.373592533690E+02   -0.26674E-03   -0.68219E-06   174   0.111E-02    0.469E-03
DAV:  20    -0.373594092751E+02   -0.15591E-03   -0.38563E-06   150   0.783E-03    0.425E-03
DAV:  21    -0.373596301894E+02   -0.22091E-03   -0.40530E-06   174   0.731E-03    0.314E-03
DAV:  22    -0.373598926395E+02   -0.26245E-03   -0.50465E-06   174   0.689E-03    0.251E-03
DAV:  23    -0.373601885421E+02   -0.29590E-03   -0.72227E-06   174   0.695E-03    0.287E-03
DAV:  24    -0.373604127946E+02   -0.22425E-03   -0.66746E-06   174   0.799E-03    0.196E-03
DAV:  25    -0.373605430070E+02   -0.13021E-03   -0.48554E-06   174   0.756E-03    0.200E-03
DAV:  26    -0.373606097810E+02   -0.66774E-04   -0.30913E-06   165   0.639E-03
  11 F= -.37360610E+02 E0= -.37344960E+02  d E =-.351392E-02  mag=     6.6633
       N       E                     dE             d eps       ncg     rms          rms(c)
DAV:   1    -0.373606131286E+02   -0.70122E-04   -0.10599E+00   260   0.386E+00    0.462E-01
DAV:   2    -0.373942864640E+02   -0.33673E-01   -0.12976E-01   383   0.465E+00    0.461E+00
DAV:   3    -0.373479669392E+02    0.46320E-01   -0.11933E-01   318   0.450E+00    0.691E-01
DAV:   4    -0.373616542577E+02   -0.13687E-01   -0.17425E-02   374   0.181E+00    0.852E-01
DAV:   5    -0.373611656961E+02    0.48856E-03   -0.83527E-03   342   0.123E+00    0.432E-01
DAV:   6    -0.373612297589E+02   -0.64063E-04   -0.22673E-03   278   0.660E-01    0.302E-01
DAV:   7    -0.373613708348E+02   -0.14108E-03   -0.12660E-03   238   0.469E-01    0.239E-01
DAV:   8    -0.373613915238E+02   -0.20689E-04   -0.97621E-04   214   0.450E-01
  12 F= -.37361392E+02 E0= -.37346285E+02  d E =-.781743E-03  mag=     6.6567
       N       E                     dE             d eps       ncg     rms          rms(c)
DAV:   1    -0.373583183613E+02    0.30525E-02   -0.25315E+00   260   0.597E+00    0.586E-01
DAV:   2    -0.373894830946E+02   -0.31165E-01   -0.13855E-01   391   0.482E+00    0.432E+00
DAV:   3    -0.373490776249E+02    0.40405E-01   -0.12624E-01   318   0.486E+00    0.110E+00
DAV:   4    -0.373634751337E+02   -0.14398E-01   -0.35903E-02   366   0.254E+00    0.143E+00
DAV:   5    -0.373593724167E+02    0.41027E-02   -0.18416E-02   342   0.194E+00    0.490E-01
DAV:   6    -0.373602041518E+02   -0.83174E-03   -0.44723E-03   327   0.965E-01    0.472E-01
DAV:   7    -0.373601792030E+02    0.24949E-04   -0.30156E-03   326   0.726E-01    0.338E-01
DAV:   8    -0.373605197594E+02   -0.34056E-03   -0.30330E-03   302   0.755E-01    0.438E-01
DAV:   9    -0.373599941849E+02    0.52557E-03   -0.15451E-03   278   0.598E-01    0.319E-01
DAV:  10    -0.373599393592E+02    0.54826E-04   -0.63700E-04   190   0.404E-01
  13 F= -.37359939E+02 E0= -.37345726E+02  d E =0.670422E-03  mag=     6.6383
