 vasp.6.1.2 22Jul20 (build Aug  2 2021 21:04:21) gamma-only                      
 executed on             LinuxPGI date 2021.12.22  02:12:26
 running on   16 total cores
 distrk:  each k-point on   16 cores,    1 groups
 distr:  one band on NCORE=  16 cores,    1 groups


--------------------------------------------------------------------------------------------------------


 INCAR:
 POTCAR:    PAW_PBE Ni 02Aug2007                  
 POTCAR:    PAW_PBE Pd 04Jan2005                  
 -----------------------------------------------------------------------------
|                                                                             |
|           W    W    AA    RRRRR   N    N  II  N    N   GGGG   !!!           |
|           W    W   A  A   R    R  NN   N  II  NN   N  G    G  !!!           |
|           W    W  A    A  R    R  N N  N  II  N N  N  G       !!!           |
|           W WW W  AAAAAA  RRRRR   N  N N  II  N  N N  G  GGG   !            |
|           WW  WW  A    A  R   R   N   NN  II  N   NN  G    G                |
|           W    W  A    A  R    R  N    N  II  N    N   GGGG   !!!           |
|                                                                             |
|     You use a magnetic or noncollinear calculation, but did not specify     |
|     the initial magnetic moment with the MAGMOM tag. Note that a            |
|     default of 1 will be used for all atoms. This ferromagnetic setup       |
|     may break the symmetry of the crystal, in particular it may rule        |
|     out finding an antiferromagnetic solution. Thence, we recommend         |
|     setting the initial magnetic moment manually or verifying carefully     |
|     that this magnetic setup is desired.                                    |
|                                                                             |
 -----------------------------------------------------------------------------

 -----------------------------------------------------------------------------
|                                                                             |
|           W    W    AA    RRRRR   N    N  II  N    N   GGGG   !!!           |
|           W    W   A  A   R    R  NN   N  II  NN   N  G    G  !!!           |
|           W    W  A    A  R    R  N N  N  II  N N  N  G       !!!           |
|           W WW W  AAAAAA  RRRRR   N  N N  II  N  N N  G  GGG   !            |
|           WW  WW  A    A  R   R   N   NN  II  N   NN  G    G                |
|           W    W  A    A  R    R  N    N  II  N    N   GGGG   !!!           |
|                                                                             |
|     For optimal performance we recommend to set                             |
|       NCORE = 4 - approx SQRT(number of cores).                             |
|     NCORE specifies how many cores store one orbital (NPAR=cpu/NCORE).      |
|     This setting can greatly improve the performance of VASP for DFT.       |
|     The default, NCORE=1 might be grossly inefficient on modern             |
|     multi-core architectures or massively parallel machines. Do your        |
|     own testing!!!!                                                         |
|     Unfortunately you need to use the default for GW and RPA                |
|     calculations (for HF NCORE is supported but not extensively tested      |
|     yet).                                                                   |
|                                                                             |
 -----------------------------------------------------------------------------

 POTCAR:    PAW_PBE Ni 02Aug2007                  
   SHA256 =  0534bc51ca8003dfef23f56753fef9fdd3e22eac8d719fccacb59f3e6b7a69c7 Ni/POTCAR             
   COPYR  = (c) Copyright 02Aug2007 Georg Kresse                                                    
   COPYR  = This file is part of the software VASP. Any use, copying, and all other rights are regul
   COPYR  = If you do not have a valid VASP license, you may not use, copy or distribute this file. 
   VRHFIN =Ni:                                                                                      
   LEXCH  = PE                                                                                      
   EATOM  =  1077.6739 eV,   79.2068 Ry                                                             
                                                                                                    
   TITEL  = PAW_PBE Ni 02Aug2007                                                                    
   LULTRA =        F    use ultrasoft PP ?                                                          
   IUNSCR =        1    unscreen: 0-lin 1-nonlin 2-no                                               
   RPACOR =    2.000    partial core radius                                                         
   POMASS =   58.690; ZVAL   =   10.000    mass and valenz                                          
   RCORE  =    2.300    outmost cutoff radius                                                       
   RWIGS  =    2.430; RWIGS  =    1.286    wigner-seitz radius (au A)                               
   ENMAX  =  269.532; ENMIN  =  202.149 eV                                                          
   RCLOC  =    1.201    cutoff for local pot                                                        
   LCOR   =        T    correct aug charges                                                         
   LPAW   =        T    paw PP                                                                      
   EAUG   =  544.565                                                                                
   DEXC   =    0.000                                                                                
   RMAX   =    2.357    core radius for proj-oper                                                   
   RAUG   =    1.300    factor for augmentation sphere                                              
   RDEP   =    2.390    radius for radial grids                                                     
   RDEPT  =    1.838    core radius for aug-charge                                                  
                                                                                                    
   Atomic configuration                                                                             
    9 entries                                                                                       
     n  l   j            E        occ.                                                              
     1  0  0.50     -8206.4253   2.0000                                                             
     2  0  0.50      -976.1748   2.0000                                                             
     2  1  1.50      -839.0571   6.0000                                                             
     3  0  0.50      -105.9991   2.0000                                                             
     3  1  1.50       -66.4603   6.0000                                                             
     3  2  2.50        -4.6458   9.0000                                                             
     4  0  0.50        -4.4926   1.0000                                                             
     4  1  1.50        -4.0817   0.0000                                                             
     4  3  2.50        -1.3606   0.0000                                                             
   Description                                                                                      
     l       E           TYP  RCUT    TYP  RCUT                                                     
     2     -4.6457903     23  2.300                                                                 
     2     -6.0063729     23  2.300                                                                 
     0     -4.4925590     23  2.300                                                                 
     0      5.0102601     23  2.300                                                                 
     1     -2.7211652     23  2.300                                                                 
     1     16.5183231     23  2.300                                                                 
  local pseudopotential read in
  partial core-charges read in
  partial kinetic energy density read in
  atomic valenz-charges read in
  non local Contribution for L=            2  read in
    real space projection operators read in
  non local Contribution for L=            2  read in
    real space projection operators read in
  non local Contribution for L=            0  read in
    real space projection operators read in
  non local Contribution for L=            0  read in
    real space projection operators read in
  non local Contribution for L=            1  read in
    real space projection operators read in
  non local Contribution for L=            1  read in
    real space projection operators read in
    PAW grid and wavefunctions read in
 
   number of l-projection  operators is LMAX  =            6
   number of lm-projection operators is LMMAX =           18
 
 POTCAR:    PAW_PBE Pd 04Jan2005                  
   SHA256 =  dd6f6f02930356371984e2b707ff5e456046761dc76b07c1eba30abd15eb3c39 Pd/POTCAR             
   COPYR  = (c) Copyright 04Jan2005 Georg Kresse                                                    
   COPYR  = This file is part of the software VASP. Any use, copying, and all other rights are regul
   COPYR  = If you do not have a valid VASP license, you may not use, copy or distribute this file. 
   VRHFIN =Pd : s1 d9                                                                               
   LEXCH  = PE                                                                                      
   EATOM  =   809.7530 eV,   59.5152 Ry                                                             
                                                                                                    
   TITEL  = PAW_PBE Pd 04Jan2005                                                                    
   LULTRA =        F    use ultrasoft PP ?                                                          
   IUNSCR =        1    unscreen: 0-lin 1-nonlin 2-no                                               
   RPACOR =    2.000    partial core radius                                                         
   POMASS =  106.420; ZVAL   =   10.000    mass and valenz                                          
   RCORE  =    2.600    outmost cutoff radius                                                       
   RWIGS  =    2.710; RWIGS  =    1.434    wigner-seitz radius (au A)                               
   ENMAX  =  250.925; ENMIN  =  188.194 eV                                                          
   ICORE  =        3    local potential                                                             
   LCOR   =        T    correct aug charges                                                         
   LPAW   =        T    paw PP                                                                      
   EAUG   =  416.230                                                                                
   DEXC   =    0.000                                                                                
   RMAX   =    2.653    core radius for proj-oper                                                   
   RAUG   =    1.300    factor for augmentation sphere                                              
   RDEP   =    2.734    radius for radial grids                                                     
   RDEPT  =    2.103    core radius for aug-charge                                                  
                                                                                                    
   Atomic configuration                                                                             
   12 entries                                                                                       
     n  l   j            E        occ.                                                              
     1  0  0.50    -24164.6631   2.0000                                                             
     2  0  0.50     -3530.9218   2.0000                                                             
     2  1  1.50     -3165.6822   6.0000                                                             
     3  0  0.50      -639.4577   2.0000                                                             
     3  1  1.50      -519.4532   6.0000                                                             
     3  2  2.50      -328.9757  10.0000                                                             
     4  0  0.50       -88.7014   2.0000                                                             
     4  1  1.50       -54.4540   6.0000                                                             
     4  2  2.50        -6.6878   9.0000                                                             
     5  0  0.50        -4.3543   1.0000                                                             
     5  1  0.50        -1.3606   0.0000                                                             
     4  3  2.50        -1.3606   0.0000                                                             
   Description                                                                                      
     l       E           TYP  RCUT    TYP  RCUT                                                     
     2     -6.6878251     23  2.400                                                                 
     2     -8.0484077     23  2.400                                                                 
     0     -4.3542939     23  2.400                                                                 
     0      4.3406793     23  2.400                                                                 
     1     -4.0817478     23  2.600                                                                 
     1     15.8380318     23  2.600                                                                 
     3     -4.0817478     23  2.400                                                                 
  local pseudopotential read in
  partial core-charges read in
  partial kinetic energy density read in
  atomic valenz-charges read in
  non local Contribution for L=            2  read in
    real space projection operators read in
  non local Contribution for L=            2  read in
    real space projection operators read in
  non local Contribution for L=            0  read in
    real space projection operators read in
  non local Contribution for L=            0  read in
    real space projection operators read in
  non local Contribution for L=            1  read in
    real space projection operators read in
  non local Contribution for L=            1  read in
    real space projection operators read in
    PAW grid and wavefunctions read in
 
   number of l-projection  operators is LMAX  =            6
   number of lm-projection operators is LMMAX =           18
 
  PAW_PBE Ni 02Aug2007                  :
 energy of atom  1       EATOM=-1077.6739
 kinetic energy error for atom=    0.0101 (will be added to EATOM!!)
  PAW_PBE Pd 04Jan2005                  :
 energy of atom  2       EATOM= -809.7530
 kinetic energy error for atom=    0.0091 (will be added to EATOM!!)
 
 
 POSCAR: Ni Pd
  positions in cartesian coordinates
  No initial velocities read in
 exchange correlation table for  LEXCH =        8
   RHO(1)=    0.500       N(1)  =     2000
   RHO(2)=  100.500       N(2)  =     4000
 


--------------------------------------------------------------------------------------------------------


 ion  position               nearest neighbor table
   1  0.484  0.477  0.521-   3 2.44   2 2.44   5 2.44   4 2.45   8 2.49   7 2.50   6 2.55  10 2.65

   2  0.574  0.439  0.564-   1 2.44  10 2.49   8 2.50   7 2.52
   3  0.411  0.524  0.460-   9 2.43   1 2.44   5 2.46   6 2.47   4 2.50
   4  0.454  0.572  0.548-   9 2.45   1 2.45   6 2.46   3 2.50   7 2.53
   5  0.490  0.468  0.414-   1 2.44   3 2.46   6 2.47   8 2.50  10 2.52
   6  0.512  0.561  0.458-   4 2.46   9 2.46   3 2.47   5 2.47  10 2.51   7 2.53   1 2.55
   7  0.560  0.545  0.557-   1 2.50   2 2.52   4 2.53   6 2.53  10 2.60
   8  0.530  0.391  0.477-   1 2.49   2 2.50   5 2.50  10 2.55
   9  0.427  0.625  0.459-   3 2.43   4 2.45   6 2.46
  10  0.586  0.483  0.465-   2 2.49   6 2.51   5 2.52   8 2.55   7 2.60   1 2.65
 

IMPORTANT INFORMATION: All symmetrisations will be switched off!
NOSYMM: (Re-)initialisation of all symmetry stuff for point group C_1.


----------------------------------------------------------------------------------------

                                     Primitive cell                                     

  volume of cell :   12319.6976

  direct lattice vectors                    reciprocal lattice vectors
    22.921124483  0.000000000  0.000000000     0.043627877  0.000000000  0.000000000
     0.000000000 23.727081187  0.000000000     0.000000000  0.042145934  0.000000000
     0.000000000  0.000000000 22.652691596     0.000000000  0.000000000  0.044144864

  length of vectors
    22.921124483 23.727081187 22.652691596     0.043627877  0.042145934  0.044144864

  position of ions in fractional coordinates (direct lattice)
     0.484356958  0.476854744  0.520931311
     0.573762841  0.439350669  0.564373483
     0.411405680  0.524200618  0.460238327
     0.453960670  0.572476129  0.548156493
     0.489519084  0.468461865  0.413533790
     0.512018199  0.561340710  0.457543400
     0.560135777  0.544527274  0.556677169
     0.529578952  0.391245458  0.476892155
     0.427481034  0.625351631  0.459446159
     0.585868878  0.483364663  0.465183110

  ion indices of the primitive-cell ions
   primitive index   ion index
                 1           1
                 2           2
                 3           3
                 4           4
                 5           5
                 6           6
                 7           7
                 8           8
                 9           9
                10          10

----------------------------------------------------------------------------------------

 
 
 KPOINTS: KPOINTS created by Atomic Simulation Env

Automatic generation of k-mesh.
Space group operators:
 irot       det(A)        alpha          n_x          n_y          n_z        tau_x        tau_y        tau_z
    1     1.000000     0.000000     1.000000     0.000000     0.000000     0.000000     0.000000     0.000000
 
 Subroutine IBZKPT returns following result:
 ===========================================
 
 Found      1 irreducible k-points:
 
 Following reciprocal coordinates:
            Coordinates               Weight
  0.000000  0.000000  0.000000      1.000000
 
 Following cartesian coordinates:
            Coordinates               Weight
  0.000000  0.000000  0.000000      1.000000
 


--------------------------------------------------------------------------------------------------------




 Dimension of arrays:
   k-points           NKPTS =      1   k-points in BZ     NKDIM =      1   number of bands    NBANDS=     65
   number of dos      NEDOS =    301   number of ions     NIONS =     10
   non local maximal  LDIM  =      6   non local SUM 2l+1 LMDIM =     18
   total plane-waves  NPLWV = ******
   max r-space proj   IRMAX =      1   max aug-charges    IRDMAX=   6126
   dimension x,y,z NGX =   112 NGY =  120 NGZ =  112
   dimension x,y,z NGXF=   224 NGYF=  240 NGZF=  224
   support grid    NGXF=   224 NGYF=  240 NGZF=  224
   ions per type =               6   4
   NGX,Y,Z   is equivalent  to a cutoff of   8.12,  8.41,  8.22 a.u.
   NGXF,Y,Z  is equivalent  to a cutoff of  16.25, 16.82, 16.44 a.u.

 SYSTEM =  unknown system                          
 POSCAR =  Ni Pd                                   

 Startparameter for this run:
   NWRITE =      2    write-flag & timer
   PREC   = normal    normal or accurate (medium, high low for compatibility)
   ISTART =      0    job   : 0-new  1-cont  2-samecut
   ICHARG =      2    charge: 1-file 2-atom 10-const
   ISPIN  =      2    spin polarized calculation?
   LNONCOLLINEAR =      F non collinear calculations
   LSORBIT =      F    spin-orbit coupling
   INIWAV =      1    electr: 0-lowe 1-rand  2-diag
   LASPH  =      F    aspherical Exc in radial PAW
   METAGGA=      F    non-selfconsistent MetaGGA calc.

 Electronic Relaxation 1
   ENCUT  =  400.0 eV  29.40 Ry    5.42 a.u.  37.38 38.69 36.94*2*pi/ulx,y,z
   ENINI  =  400.0     initial cutoff
   ENAUG  =  544.6 eV  augmentation charge cutoff
   NELM   =     60;   NELMIN=  2; NELMDL=  0     # of ELM steps 
   EDIFF  = 0.1E-03   stopping-criterion for ELM
   LREAL  =      F    real-space projection
   NLSPLINE    = F    spline interpolate recip. space projectors
   LCOMPAT=      F    compatible to vasp.4.4
   GGA_COMPAT  = T    GGA compatible to vasp.4.4-vasp.4.6
   LMAXPAW     = -100 max onsite density
   LMAXMIX     =    2 max onsite mixed and CHGCAR
   VOSKOWN=      0    Vosko Wilk Nusair interpolation
   ROPT   =    0.00000   0.00000
 Ionic relaxation
   EDIFFG = 0.1E-02   stopping-criterion for IOM
   NSW    =   1000    number of steps for IOM
   NBLOCK =      1;   KBLOCK =   1000    inner block; outer block 
   IBRION =      2    ionic relax: 0-MD 1-quasi-New 2-CG
   NFREE  =      1    steps in history (QN), initial steepest desc. (CG)
   ISIF   =      0    stress and relaxation
   IWAVPR =     11    prediction:  0-non 1-charg 2-wave 3-comb
   ISYM   =      0    0-nonsym 1-usesym 2-fastsym
   LCORR  =      T    Harris-Foulkes like correction to forces

   POTIM  = 0.5000    time-step for ionic-motion
   TEIN   =    0.0    initial temperature
   TEBEG  =    0.0;   TEEND  =   0.0 temperature during run
   SMASS  =  -3.00    Nose mass-parameter (am)
   estimated Nose-frequenzy (Omega)   =  0.10E-29 period in steps = 0.13E+47 mass=  -0.120E-25a.u.
   SCALEE = 1.0000    scale energy and forces
   NPACO  =    256;   APACO  = 16.0  distance and # of slots for P.C.
   PSTRESS=    0.0 pullay stress

  Mass of Ions in am
   POMASS =  58.69106.42
  Ionic Valenz
   ZVAL   =  10.00 10.00
  Atomic Wigner-Seitz radii
   RWIGS  =  -1.00 -1.00
  virtual crystal weights 
   VCA    =   1.00  1.00
   NELECT =     100.0000    total number of electrons
   NUPDOWN=      -1.0000    fix difference up-down

 DOS related values:
   EMIN   =  10.00;   EMAX   =-10.00  energy-range for DOS
   EFERMI =   0.00
   ISMEAR =     1;   SIGMA  =   0.20  broadening in eV -4-tet -1-fermi 0-gaus

 Electronic relaxation 2 (details)
   IALGO  =     38    algorithm
   LDIAG  =      T    sub-space diagonalisation (order eigenvalues)
   LSUBROT=      F    optimize rotation matrix (better conditioning)
   TURBO    =      0    0=normal 1=particle mesh
   IRESTART =      0    0=no restart 2=restart with 2 vectors
   NREBOOT  =      0    no. of reboots
   NMIN     =      0    reboot dimension
   EREF     =   0.00    reference energy to select bands
   IMIX   =      4    mixing-type and parameters
     AMIX     =   0.40;   BMIX     =  1.00
     AMIX_MAG =   1.60;   BMIX_MAG =  1.00
     AMIN     =   0.10
     WC   =   100.;   INIMIX=   1;  MIXPRE=   1;  MAXMIX= -45

 Intra band minimization:
   WEIMIN = 0.0010     energy-eigenvalue tresh-hold
   EBREAK =  0.38E-06  absolut break condition
   DEPER  =   0.30     relativ break condition  

   TIME   =   0.40     timestep for ELM

  volume/ion in A,a.u.               =    1231.97      8313.74
  Fermi-wavevector in a.u.,A,eV,Ry     =   0.329009  0.621737  1.472791  0.108247
  Thomas-Fermi vector in A             =   1.223089
 
 Write flags
   LWAVE        =      F    write WAVECAR
   LDOWNSAMPLE  =      F    k-point downsampling of WAVECAR
   LCHARG       =      F    write CHGCAR
   LVTOT        =      F    write LOCPOT, total local potential
   LVHAR        =      F    write LOCPOT, Hartree potential only
   LELF         =      F    write electronic localiz. function (ELF)
   LORBIT       =      0    0 simple, 1 ext, 2 COOP (PROOUT), +10 PAW based schemes


 Dipole corrections
   LMONO  =      F    monopole corrections only (constant potential shift)
   LDIPOL =      F    correct potential (dipole corrections)
   IDIPOL =      0    1-x, 2-y, 3-z, 4-all directions 
   EPSILON=  1.0000000 bulk dielectric constant

 Exchange correlation treatment:
   GGA     =    PE    GGA type
   LEXCH   =     8    internal setting for exchange type
   VOSKOWN=      0    Vosko Wilk Nusair interpolation
   LHFCALC =     F    Hartree Fock is set to
   LHFONE  =     F    Hartree Fock one center treatment
   AEXX    =    0.0000 exact exchange contribution

 Linear response parameters
   LEPSILON=     F    determine dielectric tensor
   LRPA    =     F    only Hartree local field effects (RPA)
   LNABLA  =     F    use nabla operator in PAW spheres
   LVEL    =     F    velocity operator in full k-point grid
   LINTERFAST=   F  fast interpolation
   KINTER  =     0    interpolate to denser k-point grid
   CSHIFT  =0.1000    complex shift for real part using Kramers Kronig
   OMEGAMAX=  -1.0    maximum frequency
   DEG_THRESHOLD= 0.2000000E-02 threshold for treating states as degnerate
   RTIME   =   -0.100 relaxation time in fs
  (WPLASMAI=    0.000 imaginary part of plasma frequency in eV, 0.658/RTIME)
   DFIELD  = 0.0000000 0.0000000 0.0000000 field for delta impulse in time
 
 Orbital magnetization related:
   ORBITALMAG=     F  switch on orbital magnetization
   LCHIMAG   =     F  perturbation theory with respect to B field
   DQ        =  0.001000  dq finite difference perturbation B field
   LLRAUG    =     F  two centre corrections for induced B field



--------------------------------------------------------------------------------------------------------


 conjugate gradient relaxation of ions
 charge density and potential will be updated during run
 spin polarized calculation
 Variant of blocked Davidson
 Davidson routine will perform the subspace rotation
 perform sub-space diagonalisation
    after iterative eigenvector-optimisation
 modified Broyden-mixing scheme, WC =      100.0
 initial mixing is a Kerker type mixing with AMIX =  0.4000 and BMIX =      1.0000
 Hartree-type preconditioning will be used
 using additional bands            15
 reciprocal scheme for non local part
 use partial core corrections
 calculate Harris-corrections to forces 
   (improved forces if not selfconsistent)
 use gradient corrections 
 use of overlap-Matrix (Vanderbilt PP)
 Methfessel and Paxton  Order N= 1 SIGMA  =   0.20


--------------------------------------------------------------------------------------------------------


  energy-cutoff  :      400.00
  volume of cell :    12319.70
      direct lattice vectors                 reciprocal lattice vectors
    22.921124483  0.000000000  0.000000000     0.043627877  0.000000000  0.000000000
     0.000000000 23.727081187  0.000000000     0.000000000  0.042145934  0.000000000
     0.000000000  0.000000000 22.652691596     0.000000000  0.000000000  0.044144864

  length of vectors
    22.921124483 23.727081187 22.652691596     0.043627877  0.042145934  0.044144864


 
 k-points in units of 2pi/SCALE and weight: KPOINTS created by Atomic Simulation Env
   0.00000000  0.00000000  0.00000000       1.000
 
 k-points in reciprocal lattice and weights: KPOINTS created by Atomic Simulation Env
   0.00000000  0.00000000  0.00000000       1.000
 
 position of ions in fractional coordinates (direct lattice) 
   0.48435696  0.47685474  0.52093131
   0.57376284  0.43935067  0.56437348
   0.41140568  0.52420062  0.46023833
   0.45396067  0.57247613  0.54815649
   0.48951908  0.46846187  0.41353379
   0.51201820  0.56134071  0.45754340
   0.56013578  0.54452727  0.55667717
   0.52957895  0.39124546  0.47689215
   0.42748103  0.62535163  0.45944616
   0.58586888  0.48336466  0.46518311
 
 position of ions in cartesian coordinates  (Angst):
  11.10200613 11.31437122 11.80049634
  13.15128950 10.42450900 12.78457845
   9.42988081 12.43775062 10.42563688
  10.40528902 13.58318758 12.41721997
  11.22032787 11.11523271  9.36765341
  11.73603287 13.31897660 10.36458952
  12.83894186 12.92004284 12.61023624
  12.13854509  9.28311274 10.80289091
   9.79834599 14.83776893 10.40769215
  13.42877348 11.46883260 10.53764953
 


--------------------------------------------------------------------------------------------------------


 use parallel FFT for orbitals z direction half grid
 k-point   1 :   0.0000 0.0000 0.0000  plane waves:  111914

 maximum and minimum number of plane-waves per node :      7002     6984

 maximum number of plane-waves:    111914
 maximum index in each direction: 
   IXMAX=   37   IYMAX=   38   IZMAX=   36
   IXMIN=  -37   IYMIN=  -38   IZMIN=    0


 parallel 3D FFT for wavefunctions:
    minimum data exchange during FFTs selected (reduces bandwidth)
 parallel 3D FFT for charge:
    minimum data exchange during FFTs selected (reduces bandwidth)


 total amount of memory used by VASP MPI-rank0   143329. kBytes
=======================================================================

   base      :      30000. kBytes
   nonl-proj :       3128. kBytes
   fftplans  :      27447. kBytes
   grid      :      68194. kBytes
   one-center:         15. kBytes
   wavefun   :      14545. kBytes
 
     INWAV:  cpu time    0.0000: real time    0.0000
 Broyden mixing: mesh for mixing (old mesh)
   NGX = 75   NGY = 77   NGZ = 73
  (NGX  =224   NGY  =240   NGZ  =224)
  gives a total of 421575 points

 initial charge density was supplied:
 charge density of overlapping atoms calculated
 number of electron     100.0000000 magnetization      10.0000000
 keeping initial charge density in first step


--------------------------------------------------------------------------------------------------------


 Maximum index for augmentation-charges           392 (set IRDMAX)


--------------------------------------------------------------------------------------------------------


 First call to EWALD:  gamma=   0.077
 Maximum number of real-space cells 3x 3x 3
 Maximum number of reciprocal cells 3x 3x 3

    FEWALD:  cpu time    0.0013: real time    0.0013


--------------------------------------- Iteration      1(   1)  ---------------------------------------


    POTLOK:  cpu time    2.4592: real time    2.4671
    SETDIJ:  cpu time    0.0230: real time    0.0230
     EDDAV:  cpu time    5.0652: real time    5.0721
       DOS:  cpu time    0.0011: real time    0.0011
    --------------------------------------------
      LOOP:  cpu time    7.5486: real time    7.5634

 eigenvalue-minimisations  :   260
 total energy-change (2. order) : 0.7278554E+03  (-0.1563856E+04)
 number of electron     100.0000000 magnetization      10.0000000
 augmentation part      100.0000000 magnetization      10.0000000

 Free energy of the ion-electron system (eV)
  ---------------------------------------------------
  alpha Z        PSCENC =         4.59992870
  Ewald energy   TEWEN  =     12570.32259529
  -Hartree energ DENC   =    -21550.60501424
  -exchange      EXHF   =         0.00000000
  -V(xc)+E(xc)   XCENC  =        62.65349057
  PAW double counting   =      9003.59075477    -9155.75339974
  entropy T*S    EENTRO =         0.03566741
  eigenvalues    EBANDS =        88.05278816
  atomic energy  EATOM  =      9704.95859309
  Solvation  Ediel_sol  =         0.00000000
  ---------------------------------------------------
  free energy    TOTEN  =       727.85540400 eV

  energy without entropy =      727.81973659  energy(sigma->0) =      727.84351486


--------------------------------------------------------------------------------------------------------




--------------------------------------- Iteration      1(   2)  ---------------------------------------


     EDDAV:  cpu time    8.1318: real time    8.1406
       DOS:  cpu time    0.0035: real time    0.0035
    --------------------------------------------
      LOOP:  cpu time    8.1353: real time    8.1441

 eigenvalue-minimisations  :   488
 total energy-change (2. order) :-0.4716861E+03  (-0.4410198E+03)
 number of electron     100.0000000 magnetization      10.0000000
 augmentation part      100.0000000 magnetization      10.0000000

 Free energy of the ion-electron system (eV)
  ---------------------------------------------------
  alpha Z        PSCENC =         4.59992870
  Ewald energy   TEWEN  =     12570.32259529
  -Hartree energ DENC   =    -21550.60501424
  -exchange      EXHF   =         0.00000000
  -V(xc)+E(xc)   XCENC  =        62.65349057
  PAW double counting   =      9003.59075477    -9155.75339974
  entropy T*S    EENTRO =        -0.00146305
  eigenvalues    EBANDS =      -383.59615303
  atomic energy  EATOM  =      9704.95859309
  Solvation  Ediel_sol  =         0.00000000
  ---------------------------------------------------
  free energy    TOTEN  =       256.16933235 eV

  energy without entropy =      256.17079541  energy(sigma->0) =      256.16982004


--------------------------------------------------------------------------------------------------------




--------------------------------------- Iteration      1(   3)  ---------------------------------------


     EDDAV:  cpu time    6.5543: real time    6.5610
       DOS:  cpu time    0.0067: real time    0.0067
    --------------------------------------------
      LOOP:  cpu time    6.5610: real time    6.5678

 eigenvalue-minimisations  :   376
 total energy-change (2. order) :-0.2352050E+03  (-0.2225632E+03)
 number of electron     100.0000000 magnetization      10.0000000
 augmentation part      100.0000000 magnetization      10.0000000

 Free energy of the ion-electron system (eV)
  ---------------------------------------------------
  alpha Z        PSCENC =         4.59992870
  Ewald energy   TEWEN  =     12570.32259529
  -Hartree energ DENC   =    -21550.60501424
  -exchange      EXHF   =         0.00000000
  -V(xc)+E(xc)   XCENC  =        62.65349057
  PAW double counting   =      9003.59075477    -9155.75339974
  entropy T*S    EENTRO =        -0.03479974
  eigenvalues    EBANDS =      -618.76777912
  atomic energy  EATOM  =      9704.95859309
  Solvation  Ediel_sol  =         0.00000000
  ---------------------------------------------------
  free energy    TOTEN  =        20.96436958 eV

  energy without entropy =       20.99916932  energy(sigma->0) =       20.97596949


--------------------------------------------------------------------------------------------------------




--------------------------------------- Iteration      1(   4)  ---------------------------------------


     EDDAV:  cpu time    6.8692: real time    6.8768
       DOS:  cpu time    0.0036: real time    0.0036
    --------------------------------------------
      LOOP:  cpu time    6.8728: real time    6.8804

 eigenvalue-minimisations  :   400
 total energy-change (2. order) :-0.5779379E+02  (-0.4986006E+02)
 number of electron     100.0000000 magnetization      10.0000000
 augmentation part      100.0000000 magnetization      10.0000000

 Free energy of the ion-electron system (eV)
  ---------------------------------------------------
  alpha Z        PSCENC =         4.59992870
  Ewald energy   TEWEN  =     12570.32259529
  -Hartree energ DENC   =    -21550.60501424
  -exchange      EXHF   =         0.00000000
  -V(xc)+E(xc)   XCENC  =        62.65349057
  PAW double counting   =      9003.59075477    -9155.75339974
  entropy T*S    EENTRO =        -0.05474018
  eigenvalues    EBANDS =      -676.54162523
  atomic energy  EATOM  =      9704.95859309
  Solvation  Ediel_sol  =         0.00000000
  ---------------------------------------------------
  free energy    TOTEN  =       -36.82941698 eV

  energy without entropy =      -36.77467680  energy(sigma->0) =      -36.81117025


--------------------------------------------------------------------------------------------------------




--------------------------------------- Iteration      1(   5)  ---------------------------------------


     EDDAV:  cpu time    5.7596: real time    5.7670
       DOS:  cpu time    0.0039: real time    0.0039
    CHARGE:  cpu time    0.6274: real time    0.6287
    MIXING:  cpu time    0.0455: real time    0.0456
    --------------------------------------------
      LOOP:  cpu time    6.4364: real time    6.4452

 eigenvalue-minimisations  :   320
 total energy-change (2. order) :-0.6193431E+01  (-0.5659786E+01)
 number of electron     100.0000206 magnetization       9.8316605
 augmentation part       52.0428379 magnetization       7.6103554

 Broyden mixing:
  rms(total) = 0.26860E+01    rms(broyden)= 0.26852E+01
  rms(prec ) = 0.28108E+01
  weight for this iteration     100.00

 Free energy of the ion-electron system (eV)
  ---------------------------------------------------
  alpha Z        PSCENC =         4.59992870
  Ewald energy   TEWEN  =     12570.32259529
  -Hartree energ DENC   =    -21550.60501424
  -exchange      EXHF   =         0.00000000
  -V(xc)+E(xc)   XCENC  =        62.65349057
  PAW double counting   =      9003.59075477    -9155.75339974
  entropy T*S    EENTRO =        -0.01894025
  eigenvalues    EBANDS =      -682.77085597
  atomic energy  EATOM  =      9704.95859309
  Solvation  Ediel_sol  =         0.00000000
  ---------------------------------------------------
  free energy    TOTEN  =       -43.02284779 eV

  energy without entropy =      -43.00390754  energy(sigma->0) =      -43.01653437


--------------------------------------------------------------------------------------------------------




--------------------------------------- Iteration      1(   6)  ---------------------------------------


    POTLOK:  cpu time    2.4754: real time    2.4801
    SETDIJ:  cpu time    0.0244: real time    0.0244
     EDDAV:  cpu time    5.6057: real time    5.6115
       DOS:  cpu time    0.0082: real time    0.0082
    CHARGE:  cpu time    0.6336: real time    0.6343
    MIXING:  cpu time    0.0437: real time    0.0437
    --------------------------------------------
      LOOP:  cpu time    8.7910: real time    8.8022

 eigenvalue-minimisations  :   310
 total energy-change (2. order) :-0.1802503E+02  (-0.9794068E+01)
 number of electron     100.0000219 magnetization       9.5883339
 augmentation part       57.0734589 magnetization       9.0783443

 Broyden mixing:
  rms(total) = 0.55153E+01    rms(broyden)= 0.55150E+01
  rms(prec ) = 0.58680E+01
  weight for this iteration     100.00

 eigenvalues of (default mixing * dielectric matrix)
  average eigenvalue GAMMA=   0.2871
  0.2871

 Free energy of the ion-electron system (eV)
  ---------------------------------------------------
  alpha Z        PSCENC =         4.59992870
  Ewald energy   TEWEN  =     12570.32259529
  -Hartree energ DENC   =    -21464.11923909
  -exchange      EXHF   =         0.00000000
  -V(xc)+E(xc)   XCENC  =        58.53175908
  PAW double counting   =      9420.18262005    -9545.50571400
  entropy T*S    EENTRO =        -0.00200852
  eigenvalues    EBANDS =      -810.01641658
  atomic energy  EATOM  =      9704.95859309
  Solvation  Ediel_sol  =         0.00000000
  ---------------------------------------------------
  free energy    TOTEN  =       -61.04788200 eV

  energy without entropy =      -61.04587347  energy(sigma->0) =      -61.04721249


--------------------------------------------------------------------------------------------------------




--------------------------------------- Iteration      1(   7)  ---------------------------------------


    POTLOK:  cpu time    3.1851: real time    3.1918
    SETDIJ:  cpu time    0.0239: real time    0.0239
     EDDAV:  cpu time    5.9489: real time    5.9560
       DOS:  cpu time    0.0064: real time    0.0064
    CHARGE:  cpu time    0.6292: real time    0.6306
    MIXING:  cpu time    0.0488: real time    0.0489
    --------------------------------------------
      LOOP:  cpu time    9.8424: real time    9.8577

 eigenvalue-minimisations  :   334
 total energy-change (2. order) : 0.2241054E+02  (-0.5431476E+01)
 number of electron     100.0000202 magnetization       9.5292495
 augmentation part       55.4852435 magnetization       7.4527327

 Broyden mixing:
  rms(total) = 0.31465E+01    rms(broyden)= 0.31460E+01
  rms(prec ) = 0.33387E+01
  weight for this iteration     100.00

 eigenvalues of (default mixing * dielectric matrix)
  average eigenvalue GAMMA=   0.2367
  0.2367  0.2367

 Free energy of the ion-electron system (eV)
  ---------------------------------------------------
  alpha Z        PSCENC =         4.59992870
  Ewald energy   TEWEN  =     12570.32259529
  -Hartree energ DENC   =    -21520.68842629
  -exchange      EXHF   =         0.00000000
  -V(xc)+E(xc)   XCENC  =        60.36201844
  PAW double counting   =      9570.56940154    -9720.71206012
  entropy T*S    EENTRO =         0.02787380
  eigenvalues    EBANDS =      -708.07727044
  atomic energy  EATOM  =      9704.95859309
  Solvation  Ediel_sol  =         0.00000000
  ---------------------------------------------------
  free energy    TOTEN  =       -38.63734600 eV

  energy without entropy =      -38.66521980  energy(sigma->0) =      -38.64663727


--------------------------------------------------------------------------------------------------------




--------------------------------------- Iteration      1(   8)  ---------------------------------------


    POTLOK:  cpu time    2.4612: real time    2.4645
    SETDIJ:  cpu time    0.0237: real time    0.0237
     EDDAV:  cpu time    6.1014: real time    6.1093
       DOS:  cpu time    0.0067: real time    0.0067
    CHARGE:  cpu time    0.6217: real time    0.6231
    MIXING:  cpu time    0.0583: real time    0.0583
    --------------------------------------------
      LOOP:  cpu time    9.2730: real time    9.2857

 eigenvalue-minimisations  :   344
 total energy-change (2. order) : 0.4914729E-01  (-0.3023901E+01)
 number of electron     100.0000219 magnetization       9.4006308
 augmentation part       55.4419445 magnetization       7.1257109

 Broyden mixing:
  rms(total) = 0.31633E+01    rms(broyden)= 0.31623E+01
  rms(prec ) = 0.33412E+01
  weight for this iteration     100.00

 eigenvalues of (default mixing * dielectric matrix)
  average eigenvalue GAMMA=   0.2812
  0.3949  0.3141  0.1346

 Free energy of the ion-electron system (eV)
  ---------------------------------------------------
  alpha Z        PSCENC =         4.59992870
  Ewald energy   TEWEN  =     12570.32259529
  -Hartree energ DENC   =    -21528.93851201
  -exchange      EXHF   =         0.00000000
  -V(xc)+E(xc)   XCENC  =        60.73645118
  PAW double counting   =      9629.70750768    -9780.38918526
  entropy T*S    EENTRO =        -0.03982218
  eigenvalues    EBANDS =      -699.54575519
  atomic energy  EATOM  =      9704.95859309
  Solvation  Ediel_sol  =         0.00000000
  ---------------------------------------------------
  free energy    TOTEN  =       -38.58819871 eV

  energy without entropy =      -38.54837652  energy(sigma->0) =      -38.57492465


--------------------------------------------------------------------------------------------------------




--------------------------------------- Iteration      1(   9)  ---------------------------------------


    POTLOK:  cpu time    2.4624: real time    2.4678
    SETDIJ:  cpu time    0.0230: real time    0.0230
     EDDAV:  cpu time    6.1785: real time    6.1849
       DOS:  cpu time    0.0076: real time    0.0076
    CHARGE:  cpu time    0.6218: real time    0.6224
    MIXING:  cpu time    0.0507: real time    0.0507
    --------------------------------------------
      LOOP:  cpu time    9.3441: real time    9.3564

 eigenvalue-minimisations  :   351
 total energy-change (2. order) :-0.2334394E+01  (-0.2984680E+01)
 number of electron     100.0000275 magnetization       9.2867730
 augmentation part       54.0590524 magnetization       6.6514083

 Broyden mixing:
  rms(total) = 0.41927E+01    rms(broyden)= 0.41922E+01
  rms(prec ) = 0.44735E+01
  weight for this iteration     100.00

 eigenvalues of (default mixing * dielectric matrix)
  average eigenvalue GAMMA=   0.3311
  0.8047  0.2438  0.1380  0.1380

 Free energy of the ion-electron system (eV)
  ---------------------------------------------------
  alpha Z        PSCENC =         4.59992870
  Ewald energy   TEWEN  =     12570.32259529
  -Hartree energ DENC   =    -21563.51664435
  -exchange      EXHF   =         0.00000000
  -V(xc)+E(xc)   XCENC  =        61.83815162
  PAW double counting   =      9765.60535520    -9922.13071761
  entropy T*S    EENTRO =         0.02388291
  eigenvalues    EBANDS =      -662.62373748
  atomic energy  EATOM  =      9704.95859309
  Solvation  Ediel_sol  =         0.00000000
  ---------------------------------------------------
  free energy    TOTEN  =       -40.92259262 eV

  energy without entropy =      -40.94647553  energy(sigma->0) =      -40.93055359


--------------------------------------------------------------------------------------------------------




--------------------------------------- Iteration      1(  10)  ---------------------------------------


    POTLOK:  cpu time    2.4616: real time    2.4670
    SETDIJ:  cpu time    0.0238: real time    0.0238
     EDDAV:  cpu time    6.0814: real time    6.0875
       DOS:  cpu time    0.0068: real time    0.0068
    CHARGE:  cpu time    0.6198: real time    0.6205
    MIXING:  cpu time    0.0552: real time    0.0553
    --------------------------------------------
      LOOP:  cpu time    9.2487: real time    9.2609

 eigenvalue-minimisations  :   344
 total energy-change (2. order) : 0.4005927E+01  (-0.2104289E+01)
 number of electron     100.0000203 magnetization       9.2416643
 augmentation part       54.5645374 magnetization       7.0440480

 Broyden mixing:
  rms(total) = 0.37152E+01    rms(broyden)= 0.37148E+01
  rms(prec ) = 0.39850E+01
  weight for this iteration     100.00

 eigenvalues of (default mixing * dielectric matrix)
  average eigenvalue GAMMA=   0.2976
  0.8728  0.2604  0.1386  0.1386  0.0777

 Free energy of the ion-electron system (eV)
  ---------------------------------------------------
  alpha Z        PSCENC =         4.59992870
  Ewald energy   TEWEN  =     12570.32259529
  -Hartree energ DENC   =    -21581.01114275
  -exchange      EXHF   =         0.00000000
  -V(xc)+E(xc)   XCENC  =        62.44736984
  PAW double counting   =      9872.15365318   -10032.83907588
  entropy T*S    EENTRO =        -0.01585995
  eigenvalues    EBANDS =      -637.53272705
  atomic energy  EATOM  =      9704.95859309
  Solvation  Ediel_sol  =         0.00000000
  ---------------------------------------------------
  free energy    TOTEN  =       -36.91666552 eV

  energy without entropy =      -36.90080557  energy(sigma->0) =      -36.91137887


--------------------------------------------------------------------------------------------------------




--------------------------------------- Iteration      1(  11)  ---------------------------------------


    POTLOK:  cpu time    2.4633: real time    2.4654
    SETDIJ:  cpu time    0.0237: real time    0.0237
     EDDAV:  cpu time    6.6122: real time    6.6197
       DOS:  cpu time    0.0086: real time    0.0087
    CHARGE:  cpu time    0.6251: real time    0.6257
    MIXING:  cpu time    0.0632: real time    0.0633
    --------------------------------------------
      LOOP:  cpu time    9.7961: real time    9.8064

 eigenvalue-minimisations  :   383
 total energy-change (2. order) : 0.1748434E+01  (-0.1011294E+01)
 number of electron     100.0000204 magnetization       9.1490110
 augmentation part       54.5460519 magnetization       6.5979904

 Broyden mixing:
  rms(total) = 0.23326E+01    rms(broyden)= 0.23319E+01
  rms(prec ) = 0.25006E+01
  weight for this iteration     100.00

 eigenvalues of (default mixing * dielectric matrix)
  average eigenvalue GAMMA=   0.2991
  0.8972  0.3612  0.1846  0.1846  0.0835  0.0835

 Free energy of the ion-electron system (eV)
  ---------------------------------------------------
  alpha Z        PSCENC =         4.59992870
  Ewald energy   TEWEN  =     12570.32259529
  -Hartree energ DENC   =    -21584.57411878
  -exchange      EXHF   =         0.00000000
  -V(xc)+E(xc)   XCENC  =        62.59573320
  PAW double counting   =      9900.84216826   -10062.22398171
  entropy T*S    EENTRO =        -0.01992053
  eigenvalues    EBANDS =      -631.66922897
  atomic energy  EATOM  =      9704.95859309
  Solvation  Ediel_sol  =         0.00000000
  ---------------------------------------------------
  free energy    TOTEN  =       -35.16823146 eV

  energy without entropy =      -35.14831093  energy(sigma->0) =      -35.16159128


--------------------------------------------------------------------------------------------------------




--------------------------------------- Iteration      1(  12)  ---------------------------------------


    POTLOK:  cpu time    2.4505: real time    2.4581
    SETDIJ:  cpu time    0.0233: real time    0.0233
     EDDAV:  cpu time    5.9506: real time    5.9574
       DOS:  cpu time    0.0068: real time    0.0068
    CHARGE:  cpu time    0.6248: real time    0.6255
    MIXING:  cpu time    0.0694: real time    0.0694
    --------------------------------------------
      LOOP:  cpu time    9.1254: real time    9.1406

 eigenvalue-minimisations  :   334
 total energy-change (2. order) :-0.2574793E+00  (-0.7146095E+00)
 number of electron     100.0000237 magnetization       9.0491808
 augmentation part       54.4026459 magnetization       6.5225487

 Broyden mixing:
  rms(total) = 0.25574E+01    rms(broyden)= 0.25568E+01
  rms(prec ) = 0.26924E+01
  weight for this iteration     100.00

 eigenvalues of (default mixing * dielectric matrix)
  average eigenvalue GAMMA=   0.3323
  1.0933  0.5459  0.1851  0.1851  0.1597  0.0785  0.0785

 Free energy of the ion-electron system (eV)
  ---------------------------------------------------
  alpha Z        PSCENC =         4.59992870
  Ewald energy   TEWEN  =     12570.32259529
  -Hartree energ DENC   =    -21588.24698441
  -exchange      EXHF   =         0.00000000
  -V(xc)+E(xc)   XCENC  =        62.44710117
  PAW double counting   =      9955.14016981   -10117.06581704
  entropy T*S    EENTRO =        -0.00506362
  eigenvalues    EBANDS =      -627.57623370
  atomic energy  EATOM  =      9704.95859309
  Solvation  Ediel_sol  =         0.00000000
  ---------------------------------------------------
  free energy    TOTEN  =       -35.42571073 eV

  energy without entropy =      -35.42064711  energy(sigma->0) =      -35.42402285


--------------------------------------------------------------------------------------------------------




--------------------------------------- Iteration      1(  13)  ---------------------------------------


    POTLOK:  cpu time    2.4562: real time    2.4596
    SETDIJ:  cpu time    0.0236: real time    0.0236
     EDDAV:  cpu time    5.6951: real time    5.7023
       DOS:  cpu time    0.0065: real time    0.0065
    CHARGE:  cpu time    0.6246: real time    0.6260
    MIXING:  cpu time    0.0718: real time    0.0719
    --------------------------------------------
      LOOP:  cpu time    8.8779: real time    8.8899

 eigenvalue-minimisations  :   319
 total energy-change (2. order) : 0.1410914E+01  (-0.3339084E+00)
 number of electron     100.0000218 magnetization       8.9544743
 augmentation part       54.6347460 magnetization       6.6333415

 Broyden mixing:
  rms(total) = 0.10657E+01    rms(broyden)= 0.10645E+01
  rms(prec ) = 0.11349E+01
  weight for this iteration     100.00

 eigenvalues of (default mixing * dielectric matrix)
  average eigenvalue GAMMA=   0.3509
  1.1039  0.5832  0.4443  0.1947  0.1947  0.1281  0.0789  0.0789

 Free energy of the ion-electron system (eV)
  ---------------------------------------------------
  alpha Z        PSCENC =         4.59992870
  Ewald energy   TEWEN  =     12570.32259529
  -Hartree energ DENC   =    -21594.24383642
  -exchange      EXHF   =         0.00000000
  -V(xc)+E(xc)   XCENC  =        62.43331696
  PAW double counting   =     10009.72744749   -10172.67497019
  entropy T*S    EENTRO =        -0.07350439
  eigenvalues    EBANDS =      -619.06436751
  atomic energy  EATOM  =      9704.95859309
  Solvation  Ediel_sol  =         0.00000000
  ---------------------------------------------------
  free energy    TOTEN  =       -34.01479698 eV

  energy without entropy =      -33.94129259  energy(sigma->0) =      -33.99029552


--------------------------------------------------------------------------------------------------------




--------------------------------------- Iteration      1(  14)  ---------------------------------------


    POTLOK:  cpu time    2.4605: real time    2.4658
    SETDIJ:  cpu time    0.0237: real time    0.0237
     EDDAV:  cpu time    6.3298: real time    6.3361
       DOS:  cpu time    0.0065: real time    0.0065
    CHARGE:  cpu time    0.6215: real time    0.6221
    MIXING:  cpu time    0.0878: real time    0.0878
    --------------------------------------------
      LOOP:  cpu time    9.5297: real time    9.5420

 eigenvalue-minimisations  :   368
 total energy-change (2. order) :-0.7817051E-01  (-0.8861056E-01)
 number of electron     100.0000214 magnetization       8.8786136
 augmentation part       54.3997911 magnetization       6.5228802

 Broyden mixing:
  rms(total) = 0.58252E+00    rms(broyden)= 0.58202E+00
  rms(prec ) = 0.61465E+00
  weight for this iteration     100.00

 eigenvalues of (default mixing * dielectric matrix)
  average eigenvalue GAMMA=   0.3726
  1.2249  0.5647  0.5647  0.3108  0.2014  0.2014  0.1285  0.0785  0.0785

 Free energy of the ion-electron system (eV)
  ---------------------------------------------------
  alpha Z        PSCENC =         4.59992870
  Ewald energy   TEWEN  =     12570.32259529
  -Hartree energ DENC   =    -21601.34562730
  -exchange      EXHF   =         0.00000000
  -V(xc)+E(xc)   XCENC  =        62.40779502
  PAW double counting   =     10032.71934768   -10196.30167638
  entropy T*S    EENTRO =        -0.07804915
  eigenvalues    EBANDS =      -611.37587443
  atomic energy  EATOM  =      9704.95859309
  Solvation  Ediel_sol  =         0.00000000
  ---------------------------------------------------
  free energy    TOTEN  =       -34.09296749 eV

  energy without entropy =      -34.01491834  energy(sigma->0) =      -34.06695111


--------------------------------------------------------------------------------------------------------




--------------------------------------- Iteration      1(  15)  ---------------------------------------


    POTLOK:  cpu time    2.4630: real time    2.4653
    SETDIJ:  cpu time    0.0243: real time    0.0243
     EDDAV:  cpu time    6.3687: real time    6.3754
       DOS:  cpu time    0.0063: real time    0.0063
    CHARGE:  cpu time    0.6258: real time    0.6264
    MIXING:  cpu time    0.0848: real time    0.0849
    --------------------------------------------
      LOOP:  cpu time    9.5729: real time    9.5826

 eigenvalue-minimisations  :   368
 total energy-change (2. order) :-0.3236352E+00  (-0.9558085E-01)
 number of electron     100.0000210 magnetization       8.8185394
 augmentation part       54.4465980 magnetization       6.4752073

 Broyden mixing:
  rms(total) = 0.11530E+01    rms(broyden)= 0.11526E+01
  rms(prec ) = 0.12195E+01
  weight for this iteration     100.00

 eigenvalues of (default mixing * dielectric matrix)
  average eigenvalue GAMMA=   0.3869
  1.3938  0.6801  0.6801  0.3389  0.2175  0.1794  0.1351  0.0785  0.0785  0.0869

 Free energy of the ion-electron system (eV)
  ---------------------------------------------------
  alpha Z        PSCENC =         4.59992870
  Ewald energy   TEWEN  =     12570.32259529
  -Hartree energ DENC   =    -21602.69871409
  -exchange      EXHF   =         0.00000000
  -V(xc)+E(xc)   XCENC  =        62.24997873
  PAW double counting   =     10048.74680492   -10212.22924571
  entropy T*S    EENTRO =        -0.07876015
  eigenvalues    EBANDS =      -610.28778345
  atomic energy  EATOM  =      9704.95859309
  Solvation  Ediel_sol  =         0.00000000
  ---------------------------------------------------
  free energy    TOTEN  =       -34.41660268 eV

  energy without entropy =      -34.33784253  energy(sigma->0) =      -34.39034930


--------------------------------------------------------------------------------------------------------




--------------------------------------- Iteration      1(  16)  ---------------------------------------


    POTLOK:  cpu time    2.4620: real time    2.4663
    SETDIJ:  cpu time    0.0238: real time    0.0238
     EDDAV:  cpu time    5.5552: real time    5.5621
       DOS:  cpu time    0.0066: real time    0.0066
    CHARGE:  cpu time    0.6260: real time    0.6267
    MIXING:  cpu time    0.0919: real time    0.0920
    --------------------------------------------
      LOOP:  cpu time    8.7655: real time    8.7776

 eigenvalue-minimisations  :   303
 total energy-change (2. order) : 0.8161507E-01  (-0.9160286E-01)
 number of electron     100.0000210 magnetization       8.7370114
 augmentation part       54.5185248 magnetization       6.5625492

 Broyden mixing:
  rms(total) = 0.40200E+00    rms(broyden)= 0.40119E+00
  rms(prec ) = 0.42137E+00
  weight for this iteration     100.00

 eigenvalues of (default mixing * dielectric matrix)
  average eigenvalue GAMMA=   0.4020
  1.4656  0.7295  0.7295  0.3758  0.3758  0.1920  0.1920  0.1283  0.0785  0.0785
  0.0768

 Free energy of the ion-electron system (eV)
  ---------------------------------------------------
  alpha Z        PSCENC =         4.59992870
  Ewald energy   TEWEN  =     12570.32259529
  -Hartree energ DENC   =    -21604.27583339
  -exchange      EXHF   =         0.00000000
  -V(xc)+E(xc)   XCENC  =        62.14286635
  PAW double counting   =     10061.26149104   -10224.74403780
  entropy T*S    EENTRO =        -0.11250528
  eigenvalues    EBANDS =      -608.48808561
  atomic energy  EATOM  =      9704.95859309
  Solvation  Ediel_sol  =         0.00000000
  ---------------------------------------------------
  free energy    TOTEN  =       -34.33498761 eV

  energy without entropy =      -34.22248233  energy(sigma->0) =      -34.29748585


--------------------------------------------------------------------------------------------------------




--------------------------------------- Iteration      1(  17)  ---------------------------------------


    POTLOK:  cpu time    2.4531: real time    2.4606
    SETDIJ:  cpu time    0.0224: real time    0.0224
     EDDAV:  cpu time    6.2333: real time    6.2436
       DOS:  cpu time    0.0088: real time    0.0088
    CHARGE:  cpu time    0.6223: real time    0.6229
    MIXING:  cpu time    0.1019: real time    0.1021
    --------------------------------------------
      LOOP:  cpu time    9.4418: real time    9.4604

 eigenvalue-minimisations  :   360
 total energy-change (2. order) :-0.2680946E+00  (-0.1759322E-01)
 number of electron     100.0000211 magnetization       8.6548299
 augmentation part       54.5822105 magnetization       6.5674248

 Broyden mixing:
  rms(total) = 0.65199E+00    rms(broyden)= 0.65188E+00
  rms(prec ) = 0.69006E+00
  weight for this iteration     100.00

 eigenvalues of (default mixing * dielectric matrix)
  average eigenvalue GAMMA=   0.4256
  1.4206  0.7716  0.7716  0.5118  0.5118  0.3617  0.1962  0.1962  0.1295  0.0785
  0.0785  0.0788

 Free energy of the ion-electron system (eV)
  ---------------------------------------------------
  alpha Z        PSCENC =         4.59992870
  Ewald energy   TEWEN  =     12570.32259529
  -Hartree energ DENC   =    -21606.79447885
  -exchange      EXHF   =         0.00000000
  -V(xc)+E(xc)   XCENC  =        61.96350600
  PAW double counting   =     10069.90579010   -10233.27732186
  entropy T*S    EENTRO =        -0.10687283
  eigenvalues    EBANDS =      -606.17482179
  atomic energy  EATOM  =      9704.95859309
  Solvation  Ediel_sol  =         0.00000000
  ---------------------------------------------------
  free energy    TOTEN  =       -34.60308217 eV

  energy without entropy =      -34.49620934  energy(sigma->0) =      -34.56745789


--------------------------------------------------------------------------------------------------------




--------------------------------------- Iteration      1(  18)  ---------------------------------------


    POTLOK:  cpu time    2.4577: real time    2.4624
    SETDIJ:  cpu time    0.0235: real time    0.0236
     EDDAV:  cpu time    5.9264: real time    5.9325
       DOS:  cpu time    0.0065: real time    0.0065
    CHARGE:  cpu time    0.6223: real time    0.6236
    MIXING:  cpu time    0.1073: real time    0.1074
    --------------------------------------------
      LOOP:  cpu time    9.1438: real time    9.1559

 eigenvalue-minimisations  :   336
 total energy-change (2. order) :-0.2441449E+00  (-0.7707309E-02)
 number of electron     100.0000212 magnetization       8.5285463
 augmentation part       54.5298648 magnetization       6.4552350

 Broyden mixing:
  rms(total) = 0.57150E+00    rms(broyden)= 0.57144E+00
  rms(prec ) = 0.61011E+00
  weight for this iteration     100.00

 eigenvalues of (default mixing * dielectric matrix)
  average eigenvalue GAMMA=   0.4874
  1.4733  0.9662  0.9662  0.7159  0.7159  0.3716  0.3716  0.1950  0.1950  0.1295
  0.0785  0.0785  0.0787

 Free energy of the ion-electron system (eV)
  ---------------------------------------------------
  alpha Z        PSCENC =         4.59992870
  Ewald energy   TEWEN  =     12570.32259529
  -Hartree energ DENC   =    -21611.05616331
  -exchange      EXHF   =         0.00000000
  -V(xc)+E(xc)   XCENC  =        61.83235602
  PAW double counting   =     10071.95725767   -10235.41931222
  entropy T*S    EENTRO =        -0.09098934
  eigenvalues    EBANDS =      -601.95149301
  atomic energy  EATOM  =      9704.95859309
  Solvation  Ediel_sol  =         0.00000000
  ---------------------------------------------------
  free energy    TOTEN  =       -34.84722711 eV

  energy without entropy =      -34.75623777  energy(sigma->0) =      -34.81689733


--------------------------------------------------------------------------------------------------------




--------------------------------------- Iteration      1(  19)  ---------------------------------------


    POTLOK:  cpu time    2.4492: real time    2.4525
    SETDIJ:  cpu time    0.0238: real time    0.0238
     EDDAV:  cpu time    6.2414: real time    6.2477
       DOS:  cpu time    0.0093: real time    0.0093
    CHARGE:  cpu time    0.6273: real time    0.6279
    MIXING:  cpu time    0.1148: real time    0.1150
    --------------------------------------------
      LOOP:  cpu time    9.4658: real time    9.4762

 eigenvalue-minimisations  :   359
 total energy-change (2. order) :-0.3129883E+00  (-0.3702657E-01)
 number of electron     100.0000213 magnetization       8.4271593
 augmentation part       54.5917440 magnetization       6.4589299

 Broyden mixing:
  rms(total) = 0.30755E+00    rms(broyden)= 0.30715E+00
  rms(prec ) = 0.32178E+00
  weight for this iteration     100.00

 eigenvalues of (default mixing * dielectric matrix)
  average eigenvalue GAMMA=   0.4888
  1.7333  0.9643  0.6563  0.6563  0.6593  0.6593  0.3797  0.3797  0.1952  0.1952
  0.1295  0.0785  0.0785  0.0787

 Free energy of the ion-electron system (eV)
  ---------------------------------------------------
  alpha Z        PSCENC =         4.59992870
  Ewald energy   TEWEN  =     12570.32259529
  -Hartree energ DENC   =    -21614.86880868
  -exchange      EXHF   =         0.00000000
  -V(xc)+E(xc)   XCENC  =        61.55642393
  PAW double counting   =     10073.67606858   -10236.98363483
  entropy T*S    EENTRO =        -0.09416703
  eigenvalues    EBANDS =      -598.32721448
  atomic energy  EATOM  =      9704.95859309
  Solvation  Ediel_sol  =         0.00000000
  ---------------------------------------------------
  free energy    TOTEN  =       -35.16021543 eV

  energy without entropy =      -35.06604840  energy(sigma->0) =      -35.12882642


--------------------------------------------------------------------------------------------------------




--------------------------------------- Iteration      1(  20)  ---------------------------------------


    POTLOK:  cpu time    2.4566: real time    2.4659
    SETDIJ:  cpu time    0.0239: real time    0.0240
     EDDAV:  cpu time    6.3167: real time    6.3255
       DOS:  cpu time    0.0087: real time    0.0088
    CHARGE:  cpu time    0.6149: real time    0.6155
    MIXING:  cpu time    0.1259: real time    0.1260
    --------------------------------------------
      LOOP:  cpu time    9.5468: real time    9.5657

 eigenvalue-minimisations  :   367
 total energy-change (2. order) :-0.1688231E+00  (-0.5668167E-02)
 number of electron     100.0000215 magnetization       8.3502277
 augmentation part       54.6460186 magnetization       6.4416058

 Broyden mixing:
  rms(total) = 0.38092E+00    rms(broyden)= 0.38080E+00
  rms(prec ) = 0.40042E+00
  weight for this iteration     100.00

 eigenvalues of (default mixing * dielectric matrix)
  average eigenvalue GAMMA=   0.5208
  1.6060  1.4899  0.6645  0.6645  0.6954  0.6954  0.4256  0.4256  0.3895  0.1952
  0.1952  0.1295  0.0785  0.0785  0.0787

 Free energy of the ion-electron system (eV)
  ---------------------------------------------------
  alpha Z        PSCENC =         4.59992870
  Ewald energy   TEWEN  =     12570.32259529
  -Hartree energ DENC   =    -21618.60303953
  -exchange      EXHF   =         0.00000000
  -V(xc)+E(xc)   XCENC  =        61.45340155
  PAW double counting   =     10077.71295748   -10240.92767057
  entropy T*S    EENTRO =        -0.08650183
  eigenvalues    EBANDS =      -594.75930270
  atomic energy  EATOM  =      9704.95859309
  Solvation  Ediel_sol  =         0.00000000
  ---------------------------------------------------
  free energy    TOTEN  =       -35.32903853 eV

  energy without entropy =      -35.24253670  energy(sigma->0) =      -35.30020459


--------------------------------------------------------------------------------------------------------




--------------------------------------- Iteration      1(  21)  ---------------------------------------


    POTLOK:  cpu time    2.4540: real time    2.4585
    SETDIJ:  cpu time    0.0238: real time    0.0238
     EDDAV:  cpu time    6.3192: real time    6.3258
       DOS:  cpu time    0.0040: real time    0.0040
    CHARGE:  cpu time    0.6255: real time    0.6261
    MIXING:  cpu time    0.1344: real time    0.1345
    --------------------------------------------
      LOOP:  cpu time    9.5609: real time    9.5729

 eigenvalue-minimisations  :   360
 total energy-change (2. order) :-0.9256445E-01  (-0.2180641E-02)
 number of electron     100.0000214 magnetization       8.2422515
 augmentation part       54.5986345 magnetization       6.3096738

 Broyden mixing:
  rms(total) = 0.26337E+00    rms(broyden)= 0.26335E+00
  rms(prec ) = 0.27856E+00
  weight for this iteration     100.00

 eigenvalues of (default mixing * dielectric matrix)
  average eigenvalue GAMMA=   0.5589
  1.7069  1.7069  0.8222  0.8222  0.6832  0.6832  0.5353  0.4196  0.4196  0.3879
  0.1951  0.1951  0.1295  0.0785  0.0785  0.0787

 Free energy of the ion-electron system (eV)
  ---------------------------------------------------
  alpha Z        PSCENC =         4.59992870
  Ewald energy   TEWEN  =     12570.32259529
  -Hartree energ DENC   =    -21622.05986431
  -exchange      EXHF   =         0.00000000
  -V(xc)+E(xc)   XCENC  =        61.40351774
  PAW double counting   =     10078.52919182   -10241.79734134
  entropy T*S    EENTRO =        -0.08691930
  eigenvalues    EBANDS =      -591.29130467
  atomic energy  EATOM  =      9704.95859309
  Solvation  Ediel_sol  =         0.00000000
  ---------------------------------------------------
  free energy    TOTEN  =       -35.42160298 eV

  energy without entropy =      -35.33468368  energy(sigma->0) =      -35.39262988


--------------------------------------------------------------------------------------------------------




--------------------------------------- Iteration      1(  22)  ---------------------------------------


    POTLOK:  cpu time    2.4473: real time    2.4539
    SETDIJ:  cpu time    0.0235: real time    0.0235
     EDDAV:  cpu time    6.2895: real time    6.2957
       DOS:  cpu time    0.0067: real time    0.0067
    CHARGE:  cpu time    0.6155: real time    0.6168
    MIXING:  cpu time    0.1389: real time    0.1398
    --------------------------------------------
      LOOP:  cpu time    9.5214: real time    9.5365

 eigenvalue-minimisations  :   365
 total energy-change (2. order) :-0.1573246E+00  (-0.3413759E-02)
 number of electron     100.0000213 magnetization       8.1376737
 augmentation part       54.5590420 magnetization       6.2194440

 Broyden mixing:
  rms(total) = 0.10936E+00    rms(broyden)= 0.10925E+00
  rms(prec ) = 0.11558E+00
  weight for this iteration     100.00

 eigenvalues of (default mixing * dielectric matrix)
  average eigenvalue GAMMA=   0.5803
  1.8892  1.6191  0.8054  0.8054  0.9387  0.6986  0.6986  0.4484  0.4484  0.3788
  0.3788  0.1951  0.1951  0.1295  0.0785  0.0785  0.0787

 Free energy of the ion-electron system (eV)
  ---------------------------------------------------
  alpha Z        PSCENC =         4.59992870
  Ewald energy   TEWEN  =     12570.32259529
  -Hartree energ DENC   =    -21625.27003469
  -exchange      EXHF   =         0.00000000
  -V(xc)+E(xc)   XCENC  =        61.28853356
  PAW double counting   =     10077.41022772   -10240.69303069
  entropy T*S    EENTRO =        -0.08753531
  eigenvalues    EBANDS =      -588.10820526
  atomic energy  EATOM  =      9704.95859309
  Solvation  Ediel_sol  =         0.00000000
  ---------------------------------------------------
  free energy    TOTEN  =       -35.57892759 eV

  energy without entropy =      -35.49139228  energy(sigma->0) =      -35.54974915


--------------------------------------------------------------------------------------------------------




--------------------------------------- Iteration      1(  23)  ---------------------------------------


    POTLOK:  cpu time    2.4559: real time    2.4593
    SETDIJ:  cpu time    0.0229: real time    0.0237
     EDDAV:  cpu time    5.6872: real time    5.6930
       DOS:  cpu time    0.0040: real time    0.0040
    CHARGE:  cpu time    0.6232: real time    0.6238
    MIXING:  cpu time    0.1533: real time    0.1535
    --------------------------------------------
      LOOP:  cpu time    8.9465: real time    8.9573

 eigenvalue-minimisations  :   318
 total energy-change (2. order) :-0.1876121E+00  (-0.1669561E-02)
 number of electron     100.0000212 magnetization       8.0249881
 augmentation part       54.5772944 magnetization       6.1397286

 Broyden mixing:
  rms(total) = 0.89706E-01    rms(broyden)= 0.89651E-01
  rms(prec ) = 0.95712E-01
  weight for this iteration     100.00

 eigenvalues of (default mixing * dielectric matrix)
  average eigenvalue GAMMA=   0.6158
  2.2757  1.6605  0.8193  0.8193  0.8894  0.8894  0.6884  0.6884  0.4328  0.4328
  0.3942  0.3390  0.1951  0.1951  0.1295  0.0785  0.0785  0.0787

 Free energy of the ion-electron system (eV)
  ---------------------------------------------------
  alpha Z        PSCENC =         4.59992870
  Ewald energy   TEWEN  =     12570.32259529
  -Hartree energ DENC   =    -21627.23493209
  -exchange      EXHF   =         0.00000000
  -V(xc)+E(xc)   XCENC  =        61.12850365
  PAW double counting   =     10074.45131895   -10237.65801663
  entropy T*S    EENTRO =        -0.09003537
  eigenvalues    EBANDS =      -586.24449530
  atomic energy  EATOM  =      9704.95859309
  Solvation  Ediel_sol  =         0.00000000
  ---------------------------------------------------
  free energy    TOTEN  =       -35.76653971 eV

  energy without entropy =      -35.67650434  energy(sigma->0) =      -35.73652792


--------------------------------------------------------------------------------------------------------




--------------------------------------- Iteration      1(  24)  ---------------------------------------


    POTLOK:  cpu time    2.4505: real time    2.4545
    SETDIJ:  cpu time    0.0240: real time    0.0240
     EDDAV:  cpu time    6.0705: real time    6.0783
       DOS:  cpu time    0.0061: real time    0.0061
    CHARGE:  cpu time    0.6155: real time    0.6161
    MIXING:  cpu time    0.1649: real time    0.1659
    --------------------------------------------
      LOOP:  cpu time    9.3315: real time    9.3449

 eigenvalue-minimisations  :   349
 total energy-change (2. order) :-0.1962316E+00  (-0.1823155E-02)
 number of electron     100.0000212 magnetization       7.9215862
 augmentation part       54.5804143 magnetization       6.0825480

 Broyden mixing:
  rms(total) = 0.83772E-01    rms(broyden)= 0.83694E-01
  rms(prec ) = 0.88694E-01
  weight for this iteration     100.00

 eigenvalues of (default mixing * dielectric matrix)
  average eigenvalue GAMMA=   0.6556
  2.6978  1.8228  0.9725  0.9725  0.8392  0.8392  0.6743  0.6743  0.5757  0.4426
  0.4426  0.3979  0.3490  0.1951  0.1951  0.1295  0.0785  0.0785  0.0787

 Free energy of the ion-electron system (eV)
  ---------------------------------------------------
  alpha Z        PSCENC =         4.59992870
  Ewald energy   TEWEN  =     12570.32259529
  -Hartree energ DENC   =    -21629.59386638
  -exchange      EXHF   =         0.00000000
  -V(xc)+E(xc)   XCENC  =        60.96803329
  PAW double counting   =     10071.31273216   -10234.48407336
  entropy T*S    EENTRO =        -0.09022460
  eigenvalues    EBANDS =      -583.95648946
  atomic energy  EATOM  =      9704.95859309
  Solvation  Ediel_sol  =         0.00000000
  ---------------------------------------------------
  free energy    TOTEN  =       -35.96277127 eV

  energy without entropy =      -35.87254667  energy(sigma->0) =      -35.93269640


--------------------------------------------------------------------------------------------------------




--------------------------------------- Iteration      1(  25)  ---------------------------------------


    POTLOK:  cpu time    2.4505: real time    2.4533
    SETDIJ:  cpu time    0.0239: real time    0.0240
     EDDAV:  cpu time    6.3401: real time    6.3465
       DOS:  cpu time    0.0080: real time    0.0080
    CHARGE:  cpu time    0.6261: real time    0.6267
    MIXING:  cpu time    0.1800: real time    0.1802
    --------------------------------------------
      LOOP:  cpu time    9.6286: real time    9.6386

 eigenvalue-minimisations  :   365
 total energy-change (2. order) :-0.1703622E+00  (-0.1424783E-02)
 number of electron     100.0000213 magnetization       7.8549470
 augmentation part       54.5568978 magnetization       6.0416912

 Broyden mixing:
  rms(total) = 0.49839E-01    rms(broyden)= 0.49759E-01
  rms(prec ) = 0.52633E-01
  weight for this iteration     100.00

 eigenvalues of (default mixing * dielectric matrix)
  average eigenvalue GAMMA=   0.6577
  2.7586  1.8377  0.8402  0.8402  0.9139  0.9139  0.6516  0.6516  0.6759  0.6759
  0.4456  0.4456  0.3968  0.3501  0.1951  0.1951  0.1295  0.0785  0.0785  0.0787

 Free energy of the ion-electron system (eV)
  ---------------------------------------------------
  alpha Z        PSCENC =         4.59992870
  Ewald energy   TEWEN  =     12570.32259529
  -Hartree energ DENC   =    -21631.78316213
  -exchange      EXHF   =         0.00000000
  -V(xc)+E(xc)   XCENC  =        60.84248479
  PAW double counting   =     10067.89598834   -10231.08068187
  entropy T*S    EENTRO =        -0.08662384
  eigenvalues    EBANDS =      -581.80225582
  atomic energy  EATOM  =      9704.95859309
  Solvation  Ediel_sol  =         0.00000000
  ---------------------------------------------------
  free energy    TOTEN  =       -36.13313346 eV

  energy without entropy =      -36.04650963  energy(sigma->0) =      -36.10425885


--------------------------------------------------------------------------------------------------------




--------------------------------------- Iteration      1(  26)  ---------------------------------------


    POTLOK:  cpu time    2.4743: real time    2.4771
    SETDIJ:  cpu time    0.0236: real time    0.0236
     EDDAV:  cpu time    6.0748: real time    6.0822
       DOS:  cpu time    0.0031: real time    0.0031
    CHARGE:  cpu time    0.6219: real time    0.6225
    MIXING:  cpu time    0.1823: real time    0.1825
    --------------------------------------------
      LOOP:  cpu time    9.3800: real time    9.3909

 eigenvalue-minimisations  :   348
 total energy-change (2. order) :-0.1120146E+00  (-0.5223981E-03)
 number of electron     100.0000214 magnetization       7.7717559
 augmentation part       54.5640295 magnetization       5.9802573

 Broyden mixing:
  rms(total) = 0.53382E-01    rms(broyden)= 0.53336E-01
  rms(prec ) = 0.56460E-01
  weight for this iteration     100.00

 eigenvalues of (default mixing * dielectric matrix)
  average eigenvalue GAMMA=   0.6822
  2.8354  1.8934  0.8379  0.8379  0.9502  0.9502  0.8730  0.8730  0.6459  0.6459
  0.5223  0.4971  0.4291  0.4291  0.3492  0.1951  0.1951  0.1295  0.0785  0.0785
  0.0787

 Free energy of the ion-electron system (eV)
  ---------------------------------------------------
  alpha Z        PSCENC =         4.59992870
  Ewald energy   TEWEN  =     12570.32259529
  -Hartree energ DENC   =    -21632.38309848
  -exchange      EXHF   =         0.00000000
  -V(xc)+E(xc)   XCENC  =        60.73729782
  PAW double counting   =     10065.50032482   -10228.67529194
  entropy T*S    EENTRO =        -0.08604982
  eigenvalues    EBANDS =      -581.21944757
  atomic energy  EATOM  =      9704.95859309
  Solvation  Ediel_sol  =         0.00000000
  ---------------------------------------------------
  free energy    TOTEN  =       -36.24514811 eV

  energy without entropy =      -36.15909828  energy(sigma->0) =      -36.21646483


--------------------------------------------------------------------------------------------------------




--------------------------------------- Iteration      1(  27)  ---------------------------------------


    POTLOK:  cpu time    2.4639: real time    2.4694
    SETDIJ:  cpu time    0.0232: real time    0.0232
     EDDAV:  cpu time    5.8554: real time    5.8622
       DOS:  cpu time    0.0013: real time    0.0013
    CHARGE:  cpu time    0.6202: real time    0.6208
    MIXING:  cpu time    0.2004: real time    0.2007
    --------------------------------------------
      LOOP:  cpu time    9.1644: real time    9.1776

 eigenvalue-minimisations  :   332
 total energy-change (2. order) :-0.1163678E+00  (-0.4790485E-03)
 number of electron     100.0000213 magnetization       7.6345857
 augmentation part       54.5611201 magnetization       5.8655568

 Broyden mixing:
  rms(total) = 0.24067E-01    rms(broyden)= 0.24029E-01
  rms(prec ) = 0.25493E-01
  weight for this iteration     100.00

 eigenvalues of (default mixing * dielectric matrix)
  average eigenvalue GAMMA=   0.7139
  3.2702  1.8230  1.2645  0.8379  0.8379  0.8521  0.8521  0.8503  0.8503  0.6510
  0.6510  0.5122  0.5122  0.4180  0.4180  0.3491  0.1951  0.1951  0.1295  0.0785
  0.0785  0.0787

 Free energy of the ion-electron system (eV)
  ---------------------------------------------------
  alpha Z        PSCENC =         4.59992870
[...]

 eigenvalue-minimisations  :   190
 total energy-change (2. order) : 0.5482573E-04  (-0.6369993E-04)
 number of electron     100.0000120 magnetization       6.6392536
 augmentation part       54.5185469 magnetization       5.3390908

 Free energy of the ion-electron system (eV)
  ---------------------------------------------------
  alpha Z        PSCENC =         4.59992870
  Ewald energy   TEWEN  =     12804.77549054
  -Hartree energ DENC   =    -21867.10463354
  -exchange      EXHF   =         0.00000000
  -V(xc)+E(xc)   XCENC  =        60.41023474
  PAW double counting   =     10140.40683611   -10303.94851237
  entropy T*S    EENTRO =        -0.04264056
  eigenvalues    EBANDS =      -581.41523608
  atomic energy  EATOM  =      9704.95859309
  Solvation  Ediel_sol  =         0.00000000
  ---------------------------------------------------
  free energy    TOTEN  =       -37.35993936 eV

  energy without entropy =      -37.31729880  energy(sigma->0) =      -37.34572584


--------------------------------------------------------------------------------------------------------




 average (electrostatic) potential at core
  the test charge radii are     0.9791  1.1199
  (the norm of the test charge is              1.0000)
       1 -95.2519       2 -94.9773       3 -95.1110       4 -95.0120       5 -94.9979
       6 -95.2494       7 -83.5849       8 -83.5804       9 -83.3896      10 -83.6937
 
 
 
 E-fermi :  -3.9823     XC(G=0):  -0.2710     alpha+bet : -0.1672


 spin component 1

 k-point     1 :       0.0000    0.0000    0.0000
  band No.  band energies     occupation 
      1      -9.6768      1.00000
      2      -8.3522      1.00000
      3      -7.9792      1.00000
      4      -7.8146      1.00000
      5      -7.6922      1.00000
      6      -7.6624      1.00000
      7      -7.4534      1.00000
      8      -7.2905      1.00000
      9      -7.2421      1.00000
     10      -7.0434      1.00000
     11      -7.0287      1.00000
     12      -6.9758      1.00000
     13      -6.9141      1.00000
     14      -6.8209      1.00000
     15      -6.7682      1.00000
     16      -6.6491      1.00000
     17      -6.5592      1.00000
     18      -6.5077      1.00000
     19      -6.4520      1.00000
     20      -6.2745      1.00000
     21      -6.2199      1.00000
     22      -6.1952      1.00000
     23      -5.9737      1.00000
     24      -5.9282      1.00000
     25      -5.8183      1.00000
     26      -5.7742      1.00000
     27      -5.6381      1.00000
     28      -5.5655      1.00000
     29      -5.5565      1.00000
     30      -5.4976      1.00000
     31      -5.3976      1.00000
     32      -5.3242      1.00000
     33      -5.2792      1.00000
     34      -5.2493      1.00000
     35      -5.1708      1.00000
     36      -5.1269      1.00000
     37      -5.1109      1.00000
     38      -5.0926      1.00000
     39      -5.0476      1.00000
     40      -5.0343      1.00000
     41      -4.9780      1.00000
     42      -4.9447      1.00000
     43      -4.9097      1.00000
     44      -4.8472      1.00000
     45      -4.8178      1.00000
     46      -4.7822      1.00000
     47      -4.7791      1.00000
     48      -4.7334      1.00000
     49      -4.7148      1.00000
     50      -4.6863      1.00000
     51      -4.6059      1.00005
     52      -4.5807      1.00010
     53      -4.4326      1.00326
     54      -3.9351      0.30657
     55      -3.4984     -0.00165
     56      -2.9806     -0.00000
     57      -2.4276     -0.00000
     58      -2.2854     -0.00000
     59      -1.7390     -0.00000
     60      -1.6088     -0.00000
     61      -1.2734     -0.00000
     62      -0.8859     -0.00000
     63      -0.6343     -0.00000
     64      -0.4323     -0.00000
     65      -0.3765     -0.00000

 spin component 2

 k-point     1 :       0.0000    0.0000    0.0000
  band No.  band energies     occupation 
      1      -9.6180      1.00000
      2      -8.1419      1.00000
      3      -7.6311      1.00000
      4      -7.4130      1.00000
      5      -7.3132      1.00000
      6      -7.2476      1.00000
      7      -6.9897      1.00000
      8      -6.8940      1.00000
      9      -6.7355      1.00000
     10      -6.6501      1.00000
     11      -6.5172      1.00000
     12      -6.3866      1.00000
     13      -6.3085      1.00000
     14      -6.2963      1.00000
     15      -6.2472      1.00000
     16      -6.1253      1.00000
     17      -6.0468      1.00000
     18      -5.9999      1.00000
     19      -5.9288      1.00000
     20      -5.7914      1.00000
     21      -5.6745      1.00000
     22      -5.5919      1.00000
     23      -5.4785      1.00000
     24      -5.4509      1.00000
     25      -5.4200      1.00000
     26      -5.3372      1.00000
     27      -5.1180      1.00000
     28      -5.0765      1.00000
     29      -5.0435      1.00000
     30      -4.9960      1.00000
     31      -4.9140      1.00000
     32      -4.7840      1.00000
     33      -4.7323      1.00000
     34      -4.6820      1.00000
     35      -4.5972      1.00006
     36      -4.5562      1.00019
     37      -4.4859      1.00107
     38      -4.4573      1.00199
     39      -4.4203      1.00412
     40      -4.4062      1.00533
     41      -4.2859      1.02684
     42      -4.2414      1.03475
     43      -4.1690      1.01677
     44      -4.1595      1.00889
     45      -4.0885      0.88682
     46      -4.0315      0.70140
     47      -3.9933      0.54680
     48      -3.9298      0.28611
     49      -3.9079      0.20818
     50      -3.8516      0.05746
     51      -3.7872     -0.02236
     52      -3.7180     -0.03420
     53      -3.6821     -0.02761
     54      -3.6025     -0.01093
     55      -3.2498     -0.00000
     56      -2.7225     -0.00000
     57      -2.2059     -0.00000
     58      -2.0937     -0.00000
     59      -1.5429     -0.00000
     60      -1.4642     -0.00000
     61      -1.0915     -0.00000
     62      -0.7632     -0.00000
     63      -0.4865     -0.00000
     64      -0.3063     -0.00000
     65      -0.1651     -0.00000


--------------------------------------------------------------------------------------------------------


 soft charge-density along one line, spin component            1
         0         1         2         3         4         5         6         7         8         9
 total charge-density along one line
 
 soft charge-density along one line, spin component            2
         0         1         2         3         4         5         6         7         8         9
 total charge-density along one line
 
 pseudopotential strength for first ion, spin component:            1
-10.115  -0.004  -0.105   0.093   0.051 -10.392  -0.004  -0.100
 -0.004 -10.160  -0.008   0.089   0.050  -0.004 -10.436  -0.008
 -0.105  -0.008 -10.184   0.003  -0.065  -0.100  -0.008 -10.459
  0.093   0.089   0.003 -10.067  -0.178   0.089   0.085   0.003
  0.051   0.050  -0.065  -0.178 -10.060   0.049   0.048  -0.062
-10.392  -0.004  -0.100   0.089   0.049 -10.614  -0.003  -0.095
 -0.004 -10.436  -0.008   0.085   0.048  -0.003 -10.656  -0.007
 -0.100  -0.008 -10.459   0.003  -0.062  -0.095  -0.007 -10.678
  0.089   0.085   0.003 -10.347  -0.170   0.086   0.081   0.004
  0.049   0.048  -0.062  -0.170 -10.340   0.047   0.045  -0.060
 -0.026  -0.001   0.007   0.023  -0.014  -0.026  -0.001   0.007
 -0.046  -0.002   0.012   0.041  -0.025  -0.045  -0.002   0.012
 -0.009   0.009   0.002  -0.003   0.003  -0.008   0.008   0.002
 -0.003  -0.003   0.006  -0.009   0.000  -0.002  -0.002   0.005
 -0.003  -0.003   0.007   0.009  -0.012  -0.003  -0.002   0.006
 -0.009   0.009   0.001  -0.004   0.002  -0.008   0.008   0.001
 -0.004  -0.001   0.005  -0.009  -0.000  -0.003  -0.001   0.004
 -0.002  -0.004   0.007   0.009  -0.013  -0.002  -0.003   0.007
 pseudopotential strength for first ion, spin component:            2
 -9.354  -0.080  -0.074  -0.029  -0.030  -9.666  -0.077  -0.071
 -0.080  -9.437   0.016   0.064  -0.033  -0.077  -9.746   0.016
 -0.074   0.016  -9.385  -0.054  -0.034  -0.071   0.016  -9.696
 -0.029   0.064  -0.054  -9.378  -0.009  -0.028   0.061  -0.052
 -0.030  -0.033  -0.034  -0.009  -9.382  -0.029  -0.032  -0.032
 -9.666  -0.077  -0.071  -0.028  -0.029  -9.923  -0.073  -0.068
 -0.077  -9.746   0.016   0.061  -0.032  -0.073 -10.000   0.015
 -0.071   0.016  -9.696  -0.052  -0.032  -0.068   0.015  -9.951
 -0.028   0.061  -0.052  -9.690  -0.008  -0.027   0.058  -0.049
 -0.029  -0.032  -0.032  -0.008  -9.693  -0.028  -0.031  -0.031
 -0.015   0.000   0.002   0.012  -0.007  -0.014   0.000   0.002
 -0.025   0.000   0.003   0.021  -0.013  -0.024   0.000   0.003
 -0.013   0.011   0.004   0.000   0.006  -0.012   0.010   0.003
  0.000  -0.006   0.013  -0.014   0.000   0.000  -0.006   0.012
 -0.007   0.000   0.007   0.011  -0.013  -0.006   0.000   0.007
 -0.015   0.011   0.004   0.000   0.007  -0.014   0.010   0.004
  0.000  -0.007   0.015  -0.015  -0.000   0.001  -0.006   0.013
 -0.007   0.000   0.008   0.011  -0.015  -0.007   0.001   0.007
 total augmentation occupancy for first ion, spin component:            1
  3.158   0.180  -0.115   0.182   0.189  -1.452  -0.104  -0.047  -0.012  -0.102   0.424  -0.011  -0.125  -0.080  -0.097   0.001
  0.180   3.049  -0.091   0.164   0.358  -0.105  -1.334   0.068  -0.016  -0.161   0.046  -0.042   0.176  -0.109  -0.081  -0.009
 -0.115  -0.091   2.964   0.048  -0.064  -0.044   0.082  -1.289  -0.012  -0.021   0.066   0.004   0.084   0.232   0.115  -0.004
  0.182   0.164   0.048   2.985  -0.611  -0.018  -0.016  -0.015  -1.225   0.245  -0.226  -0.013  -0.059  -0.112   0.101   0.008
  0.189   0.358  -0.064  -0.611   3.126  -0.103  -0.179  -0.019   0.253  -1.362   0.247  -0.014   0.146  -0.027  -0.185  -0.013
 -1.452  -0.105  -0.044  -0.018  -0.103   1.479   0.077   0.161  -0.077   0.062  -0.483   0.035   0.158   0.050   0.118  -0.015
 -0.104  -1.334   0.082  -0.016  -0.179   0.077   1.377  -0.073  -0.103   0.050  -0.014   0.026  -0.184   0.133   0.052   0.021
 -0.047   0.068  -1.289  -0.015  -0.019   0.161  -0.073   1.340   0.002   0.071  -0.059   0.003  -0.089  -0.281  -0.117   0.009
 -0.012  -0.016  -0.012  -1.225   0.253  -0.077  -0.103   0.002   1.251  -0.026   0.282  -0.009   0.039   0.136  -0.115  -0.007
 -0.102  -0.161  -0.021   0.245  -1.362   0.062   0.050   0.071  -0.026   1.395  -0.213   0.018  -0.164   0.029   0.182   0.019
  0.424   0.046   0.066  -0.226   0.247  -0.483  -0.014  -0.059   0.282  -0.213   2.066  -0.259   0.137  -0.185   0.156  -0.026
 -0.011  -0.042   0.004  -0.013  -0.014   0.035   0.026   0.003  -0.009   0.018  -0.259   0.039  -0.028   0.036  -0.031   0.004
 -0.125   0.176   0.084  -0.059   0.146   0.158  -0.184  -0.089   0.039  -0.164   0.137  -0.028   0.265   0.014  -0.051  -0.026
 -0.080  -0.109   0.232  -0.112  -0.027   0.050   0.133  -0.281   0.136   0.029  -0.185   0.036   0.014   0.231   0.042   0.001
 -0.097  -0.081   0.115   0.101  -0.185   0.118   0.052  -0.117  -0.115   0.182   0.156  -0.031  -0.051   0.042   0.228   0.003
  0.001  -0.009  -0.004   0.008  -0.013  -0.015   0.021   0.009  -0.007   0.019  -0.026   0.004  -0.026   0.001   0.003   0.003
  0.009   0.004  -0.010  -0.001   0.004  -0.008  -0.014   0.026  -0.012  -0.004   0.034  -0.005   0.000  -0.023  -0.002  -0.000
 -0.003   0.007  -0.006   0.000   0.008  -0.008  -0.007   0.013   0.013  -0.018  -0.031   0.005   0.003  -0.002  -0.023  -0.000
 total augmentation occupancy for first ion, spin component:            2
  1.007  -0.131   0.139  -0.367  -0.269  -0.468   0.041  -0.064   0.179   0.143   0.042   0.023  -0.027   0.027  -0.014  -0.005
 -0.131   0.975   0.101  -0.180  -0.311   0.046  -0.468  -0.051   0.109   0.159  -0.034  -0.015  -0.009  -0.012   0.026   0.005
  0.139   0.101   1.241  -0.180   0.108  -0.077  -0.067  -0.610   0.090  -0.053   0.021   0.009   0.007   0.045  -0.009   0.001
 -0.367  -0.180  -0.180   0.849   0.560   0.184   0.110   0.099  -0.402  -0.275  -0.023  -0.015   0.021  -0.024  -0.005   0.000
 -0.269  -0.311   0.108   0.560   0.857   0.138   0.179  -0.052  -0.286  -0.416  -0.024  -0.002   0.015  -0.001  -0.004   0.002
 -0.468   0.046  -0.077   0.184   0.138   0.132  -0.011   0.021  -0.083  -0.069  -0.002  -0.015   0.010  -0.010   0.000   0.003
  0.041  -0.468  -0.067   0.110   0.179  -0.011   0.140   0.033  -0.054  -0.084   0.015   0.007   0.009  -0.001  -0.010  -0.004
 -0.064  -0.051  -0.610   0.099  -0.052   0.021   0.033   0.212  -0.049   0.023  -0.015  -0.006  -0.001  -0.015   0.005  -0.001
  0.179   0.109   0.090  -0.402  -0.286  -0.083  -0.054  -0.049   0.103   0.119  -0.003   0.010  -0.008   0.008   0.007   0.001
  0.143   0.159  -0.053  -0.275  -0.416  -0.069  -0.084   0.023   0.119   0.117   0.010  -0.003  -0.003  -0.001   0.003  -0.001
  0.042  -0.034   0.021  -0.023  -0.024  -0.002   0.015  -0.015  -0.003   0.010  -0.130   0.046  -0.019   0.018  -0.005   0.002
  0.023  -0.015   0.009  -0.015  -0.002  -0.015   0.007  -0.006   0.010  -0.003   0.046  -0.008   0.002  -0.003   0.002  -0.001
 -0.027  -0.009   0.007   0.021   0.015   0.010   0.009  -0.001  -0.008  -0.003  -0.019   0.002  -0.012  -0.000   0.007   0.003
  0.027  -0.012   0.045  -0.024  -0.001  -0.010  -0.001  -0.015   0.008  -0.001   0.018  -0.003  -0.000  -0.007  -0.005   0.000
 -0.014   0.026  -0.009  -0.005  -0.004   0.000  -0.010   0.005   0.007   0.003  -0.005   0.002   0.007  -0.005  -0.013  -0.000
 -0.005   0.005   0.001   0.000   0.002   0.003  -0.004  -0.001   0.001  -0.001   0.002  -0.001   0.003   0.000  -0.000  -0.000
  0.000  -0.003   0.005  -0.004  -0.000   0.000   0.002  -0.003   0.002   0.000  -0.002   0.001   0.000   0.002   0.000  -0.000
 -0.004   0.000   0.002   0.004  -0.001   0.003   0.001  -0.001  -0.003   0.001   0.001  -0.001  -0.000   0.000   0.002   0.000


------------------------ aborting loop because EDIFF is reached ----------------------------------------


    CHARGE:  cpu time    0.6264: real time    0.6270
    FORLOC:  cpu time    0.0865: real time    0.0866
    FORNL :  cpu time    2.7581: real time    2.7596
    FORCOR:  cpu time    2.3731: real time    2.3757
    FORHAR:  cpu time    0.3219: real time    0.3222
    MIXING:  cpu time    0.0795: real time    0.0795
    OFIELD:  cpu time    0.0000: real time    0.0000

 VOLUME and BASIS-vectors are now :
 -----------------------------------------------------------------------------
  energy-cutoff  :      400.00
  volume of cell :    12319.70
      direct lattice vectors                 reciprocal lattice vectors
    22.921124483  0.000000000  0.000000000     0.043627877  0.000000000  0.000000000
     0.000000000 23.727081187  0.000000000     0.000000000  0.042145934  0.000000000
     0.000000000  0.000000000 22.652691596     0.000000000  0.000000000  0.044144864

  length of vectors
    22.921124483 23.727081187 22.652691596     0.043627877  0.042145934  0.044144864


 FORCES acting on ions
    electron-ion (+dipol)            ewald-force                    non-local-force                 convergence-correction
 -----------------------------------------------------------------------------------------------
   0.439E+03 0.471E+03 -.510E+03   -.437E+03 -.471E+03 0.508E+03   -.162E+01 -.826E+00 0.139E+01   -.137E+00 0.332E+00 -.361E+00
   -.520E+03 0.514E+03 -.693E+03   0.517E+03 -.510E+03 0.687E+03   0.303E+01 -.395E+01 0.581E+01   0.207E+00 -.173E-01 0.182E-01
   0.982E+03 0.645E+02 0.342E+03   -.977E+03 -.627E+02 -.341E+03   -.569E+01 -.198E+01 -.936E+00   0.101E+00 0.190E+00 -.251E+00
   0.434E+03 -.525E+03 -.761E+03   -.431E+03 0.523E+03 0.756E+03   -.252E+01 0.149E+01 0.530E+01   -.682E-01 0.310E+00 -.118E+00
   0.166E+03 0.421E+03 0.927E+03   -.165E+03 -.420E+03 -.921E+03   -.523E+00 -.144E+01 -.586E+01   -.497E-01 0.139E+00 -.342E+00
   -.383E+03 -.662E+03 0.517E+03   0.381E+03 0.660E+03 -.515E+03   0.171E+01 0.144E+01 -.167E+01   -.120E+00 0.147E+00 -.181E+00
   -.569E+03 -.479E+03 -.645E+03   0.565E+03 0.475E+03 0.642E+03   0.432E+01 0.410E+01 0.360E+01   -.667E-01 0.288E+00 -.885E-01
   -.589E+02 0.960E+03 0.144E+03   0.590E+02 -.952E+03 -.143E+03   -.595E-01 -.789E+01 -.104E+01   -.999E-02 -.713E-01 -.312E+00
   0.411E+03 -.811E+03 0.252E+03   -.408E+03 0.803E+03 -.249E+03   -.288E+01 0.778E+01 -.288E+01   0.103E+00 -.116E+00 0.316E-01
   -.903E+03 0.441E+02 0.428E+03   0.897E+03 -.448E+02 -.425E+03   0.591E+01 0.521E+00 -.325E+01   -.494E-01 0.155E+00 -.301E+00
 -----------------------------------------------------------------------------------------------
   -.158E+01 -.619E+00 0.149E+01   0.000E+00 0.242E-12 -.568E-13   0.168E+01 -.764E+00 0.464E+00   -.901E-01 0.136E+01 -.191E+01
 
 
 POSITION                                       TOTAL-FORCE (eV/Angst)
 -----------------------------------------------------------------------------------
     11.07713     11.32148     11.77224        -0.042129      0.031605     -0.029076
     13.04628     10.55304     12.65116         0.006721      0.030881      0.063794
      9.52903     12.42172     10.36394         0.005736      0.007116      0.003497
     10.48899     13.51584     12.36589        -0.014592     -0.029865     -0.011782
     11.17568     11.09260      9.45867         0.008582      0.005771     -0.005081
     11.69243     13.22994     10.42516         0.010182     -0.021468      0.020129
     12.86888     13.00428     12.76788         0.000088      0.001063     -0.008667
     12.07520      9.21399     10.80946        -0.002485     -0.009140      0.001194
      9.77678     14.84424     10.43585         0.013729     -0.004709      0.029700
     13.51904     11.50665     10.46839         0.014168     -0.011253     -0.063707
 -----------------------------------------------------------------------------------
    total drift:                                0.007313     -0.026137      0.046401


--------------------------------------------------------------------------------------------------------



  FREE ENERGIE OF THE ION-ELECTRON SYSTEM (eV)
  ---------------------------------------------------
  free  energy   TOTEN  =       -37.35993936 eV

  energy  without entropy=      -37.31729880  energy(sigma->0) =      -37.34572584
 
 d Force = 0.1036891E-02[ 0.312E-03, 0.176E-02]  d Energy =-0.1452165E-02 0.249E-02
 d Force = 0.5309765E+01[ 0.534E+01, 0.528E+01]  d Ewald  = 0.5309720E+01 0.449E-04


--------------------------------------------------------------------------------------------------------


    POTLOK:  cpu time    2.4777: real time    2.4805


--------------------------------------------------------------------------------------------------------




--------------------------------------------------------------------------------------------------------


  
 reached required accuracy - stopping structural energy minimisation
     LOOP+:  cpu time   95.3350: real time   95.4566
    4ORBIT:  cpu time    0.0000: real time    0.0000

 total amount of memory used by VASP MPI-rank0   143329. kBytes
=======================================================================

   base      :      30000. kBytes
   nonl-proj :       3128. kBytes
   fftplans  :      27447. kBytes
   grid      :      68194. kBytes
   one-center:         15. kBytes
   wavefun   :      14545. kBytes
 
  
  
 General timing and accounting informations for this job:
 ========================================================
  
                  Total CPU time used (sec):     2159.804
                            User time (sec):     2140.828
                          System time (sec):       18.976
                         Elapsed time (sec):     2166.341
  
                   Maximum memory used (kb):      313004.
                   Average memory used (kb):           0.
  
                          Minor page faults:      4996850
                          Major page faults:        81540
                 Voluntary context switches:         4599
