<?xml version="1.0" encoding="ISO-8859-1"?>
<modeling>
 <generator>
  <i name="program" type="string">vasp </i>
  <i name="version" type="string">6.1.2  </i>
  <i name="subversion" type="string">22Jul20 (build Aug  2 2021 21:04:21) gamma-only                       parallel </i>
  <i name="platform" type="string">LinuxPGI </i>
  <i name="date" type="string">2021 12 22 </i>
  <i name="time" type="string">02:12:26 </i>
 </generator>
 <incar>
  <i type="int" name="ISPIN">     2</i>
  <i type="int" name="IBRION">     2</i>
  <i type="int" name="NSW">  1000</i>
  <i type="int" name="ISIF">     0</i>
  <i type="int" name="ISYM">     0</i>
  <i name="ENCUT">    400.00000000</i>
  <i type="logical" name="LREAL"> F  </i>
  <i type="int" name="ISMEAR">     1</i>
  <i name="SIGMA">      0.20000000</i>
  <i type="logical" name="LWAVE"> F  </i>
  <i type="logical" name="LCHARG"> F  </i>
  <i type="int" name="KPAR">     1</i>
  <i type="int" name="NCORE">    16</i>
  <i type="string" name="GGA"> PE</i>
  <i type="int" name="ISPIN">     2</i>
 </incar>
 <structure name="primitive_cell" >
  <crystal>
   <varray name="basis" >
    <v>      22.92112448       0.00000000       0.00000000 </v>
    <v>       0.00000000      23.72708119       0.00000000 </v>
    <v>       0.00000000       0.00000000      22.65269160 </v>
   </varray>
   <i name="volume">  12319.69761934 </i>
   <varray name="rec_basis" >
    <v>       0.04362788       0.00000000       0.00000000 </v>
    <v>       0.00000000       0.04214593       0.00000000 </v>
    <v>       0.00000000       0.00000000       0.04414486 </v>
   </varray>
  </crystal>
  <varray name="positions" >
   <v>       0.48435696       0.47685474       0.52093131 </v>
   <v>       0.57376284       0.43935067       0.56437348 </v>
   <v>       0.41140568       0.52420062       0.46023833 </v>
   <v>       0.45396067       0.57247613       0.54815649 </v>
   <v>       0.48951908       0.46846187       0.41353379 </v>
   <v>       0.51201820       0.56134071       0.45754340 </v>
   <v>       0.56013578       0.54452727       0.55667717 </v>
   <v>       0.52957895       0.39124546       0.47689215 </v>
   <v>       0.42748103       0.62535163       0.45944616 </v>
   <v>       0.58586888       0.48336466       0.46518311 </v>
  </varray>
 </structure>
 <varray name="primitive_index" >
  <v type="int" >        1 </v>
  <v type="int" >        2 </v>
  <v type="int" >        3 </v>
  <v type="int" >        4 </v>
  <v type="int" >        5 </v>
  <v type="int" >        6 </v>
  <v type="int" >        7 </v>
  <v type="int" >        8 </v>
  <v type="int" >        9 </v>
  <v type="int" >       10 </v>
 </varray>
 <kpoints>
  <generation param="Gamma">
   <v type="int" name="divisions">       1        1        1 </v>
   <v name="usershift">      0.00000000       0.00000000       0.00000000 </v>
   <v name="genvec1">      1.00000000       0.00000000       0.00000000 </v>
   <v name="genvec2">      0.00000000       1.00000000       0.00000000 </v>
   <v name="genvec3">      0.00000000       0.00000000       1.00000000 </v>
   <v name="shift">      0.00000000       0.00000000       0.00000000 </v>
  </generation>
  <varray name="kpointlist" >
   <v>       0.00000000       0.00000000       0.00000000 </v>
  </varray>
  <varray name="weights" >
   <v>       1.00000000 </v>
  </varray>
 </kpoints>
 <parameters>
  <separator name="general" >
   <i type="string" name="SYSTEM">unknown system</i>
   <i type="logical" name="LCOMPAT"> F  </i>
  </separator>
  <separator name="electronic" >
   <i type="string" name="PREC">normal</i>
   <i name="ENMAX">    400.00000000</i>
   <i name="ENAUG">    544.56500000</i>
   <i name="EDIFF">      0.00010000</i>
   <i type="int" name="IALGO">    38</i>
   <i type="int" name="IWAVPR">    11</i>
   <i type="int" name="NBANDS">    65</i>
   <i type="int" name="NBANDSLOW">    -1</i>
   <i type="int" name="NBANDSHIGH">    -1</i>
   <i name="NELECT">    100.00000000</i>
   <i type="int" name="TURBO">     0</i>
   <i type="int" name="IRESTART">     0</i>
   <i type="int" name="NREBOOT">     0</i>
   <i type="int" name="NMIN">     0</i>
   <i name="EREF">      0.00000000</i>
   <separator name="electronic smearing" >
    <i type="int" name="ISMEAR">     1</i>
    <i name="SIGMA">      0.20000000</i>
    <i name="KSPACING">      0.50000000</i>
    <i type="logical" name="KGAMMA"> T  </i>
    <i type="logical" name="KBLOWUP"> T  </i>
   </separator>
   <separator name="electronic projectors" >
    <i type="logical" name="LREAL"> F  </i>
    <v name="ROPT">      0.00000000      0.00000000</v>
    <i type="int" name="LMAXPAW">  -100</i>
    <i type="int" name="LMAXMIX">     2</i>
    <i type="logical" name="NLSPLINE"> F  </i>
   </separator>
   <separator name="electronic startup" >
    <i type="int" name="ISTART">     0</i>
    <i type="int" name="ICHARG">     2</i>
    <i type="int" name="INIWAV">     1</i>
   </separator>
   <separator name="electronic spin" >
    <i type="int" name="ISPIN">     2</i>
    <i type="logical" name="LNONCOLLINEAR"> F  </i>
    <v name="MAGMOM">      1.00000000      1.00000000      1.00000000      1.00000000      1.00000000      1.00000000      1.00000000      1.00000000      1.00000000      1.00000000</v>
    <i name="NUPDOWN">     -1.00000000</i>
    <i type="logical" name="LSORBIT"> F  </i>
    <v name="SAXIS">      0.00000000      0.00000000      1.00000000</v>
    <i type="logical" name="LSPIRAL"> F  </i>
    <v name="QSPIRAL">      0.00000000      0.00000000      0.00000000</v>
    <i type="logical" name="LZEROZ"> F  </i>
   </separator>
   <separator name="electronic exchange-correlation" >
    <i type="logical" name="LASPH"> F  </i>
    <i type="logical" name="LMETAGGA"> F  </i>
   </separator>
   <separator name="electronic convergence" >
    <i type="int" name="NELM">    60</i>
    <i type="int" name="NELMDL">     0</i>
    <i type="int" name="NELMIN">     2</i>
    <i name="ENINI">    400.00000000</i>
    <separator name="electronic convergence detail" >
     <i type="logical" name="LDIAG"> T  </i>
     <i type="logical" name="LSUBROT"> F  </i>
     <i name="WEIMIN">      0.00100000</i>
     <i name="EBREAK">      0.00000038</i>
     <i name="DEPER">      0.30000000</i>
     <i type="int" name="NRMM">     4</i>
     <i name="TIME">      0.40000000</i>
    </separator>
   </separator>
   <separator name="electronic mixer" >
    <i name="AMIX">      0.40000000</i>
    <i name="BMIX">      1.00000000</i>
    <i name="AMIN">      0.10000000</i>
    <i name="AMIX_MAG">      1.60000000</i>
    <i name="BMIX_MAG">      1.00000000</i>
    <separator name="electronic mixer details" >
     <i type="int" name="IMIX">     4</i>
     <i type="logical" name="MIXFIRST"> F  </i>
     <i type="int" name="MAXMIX">   -45</i>
     <i name="WC">    100.00000000</i>
     <i type="int" name="INIMIX">     1</i>
     <i type="int" name="MIXPRE">     1</i>
     <i type="int" name="MREMOVE">     5</i>
    </separator>
   </separator>
   <separator name="electronic dipolcorrection" >
    <i type="logical" name="LDIPOL"> F  </i>
    <i type="logical" name="LMONO"> F  </i>
    <i type="int" name="IDIPOL">     0</i>
    <i name="EPSILON">      1.00000000</i>
    <v name="DIPOL">   -100.00000000   -100.00000000   -100.00000000</v>
    <i name="EFIELD">      0.00000000</i>
   </separator>
  </separator>
  <separator name="grids" >
   <i type="int" name="NGX">   112</i>
   <i type="int" name="NGY">   120</i>
   <i type="int" name="NGZ">   112</i>
   <i type="int" name="NGXF">   224</i>
   <i type="int" name="NGYF">   240</i>
   <i type="int" name="NGZF">   224</i>
   <i type="logical" name="ADDGRID"> F  </i>
  </separator>
  <separator name="ionic" >
   <i type="int" name="NSW">  1000</i>
   <i type="int" name="IBRION">     2</i>
   <i type="int" name="MDALGO">     0</i>
   <i type="int" name="ISIF">     0</i>
   <i name="PSTRESS">      0.00000000</i>
   <i name="EDIFFG">      0.00100000</i>
   <i type="int" name="NFREE">     1</i>
   <i name="POTIM">      0.50000000</i>
   <i name="SMASS">     -3.00000000</i>
   <i name="SCALEE">      1.00000000</i>
  </separator>
  <separator name="ionic md" >
   <i name="TEBEG">      0.00010000</i>
   <i name="TEEND">      0.00010000</i>
   <i type="int" name="NBLOCK">     1</i>
   <i type="int" name="KBLOCK">  1000</i>
   <i type="int" name="NPACO">   256</i>
   <i name="APACO">     16.00000000</i>
  </separator>
  <separator name="symmetry" >
   <i type="int" name="ISYM">     0</i>
   <i name="SYMPREC">      0.00001000</i>
  </separator>
  <separator name="dos" >
   <i type="int" name="LORBIT">     0</i>
   <v name="RWIGS">     -1.00000000     -1.00000000</v>
   <i type="int" name="NEDOS">   301</i>
   <i name="EMIN">     10.00000000</i>
   <i name="EMAX">    -10.00000000</i>
   <i name="EFERMI">      0.00000000</i>
  </separator>
  <separator name="writing" >
   <i type="int" name="NWRITE">     2</i>
   <i type="logical" name="LWAVE"> F  </i>
   <i type="logical" name="LDOWNSAMPLE"> F  </i>
   <i type="logical" name="LCHARG"> F  </i>
   <i type="logical" name="LPARD"> F  </i>
   <i type="logical" name="LVTOT"> F  </i>
   <i type="logical" name="LVHAR"> F  </i>
   <i type="logical" name="LELF"> F  </i>
   <i type="logical" name="LOPTICS"> F  </i>
   <v name="STM">      0.00000000      0.00000000      0.00000000      0.00000000      0.00000000      0.00000000      0.00000000</v>
  </separator>
  <separator name="performance" >
   <i type="int" name="NPAR">     1</i>
   <i type="int" name="NSIM">     4</i>
   <i type="int" name="NBLK">    -1</i>
   <i type="logical" name="LPLANE"> T  </i>
   <i type="logical" name="LSCALAPACK"> T  </i>
   <i type="logical" name="LSCAAWARE"> F  </i>
   <i type="logical" name="LSCALU"> F  </i>
   <i type="logical" name="LASYNC"> F  </i>
   <i type="logical" name="LORBITALREAL"> F  </i>
  </separator>
  <separator name="miscellaneous" >
   <i type="int" name="IDIOT">     3</i>
   <i type="int" name="PHON_NSTRUCT">    -1</i>
   <i type="logical" name="LMUSIC"> F  </i>
   <v name="POMASS">     58.69000000    106.42000000</v>
   <v name="DARWINR">      0.00000000      0.00000000</v>
   <v name="DARWINV">      1.00000000      1.00000000</v>
   <i type="logical" name="LCORR"> T  </i>
  </separator>
  <i type="logical" name="GGA_COMPAT"> T  </i>
  <i type="logical" name="LBERRY"> F  </i>
  <i type="int" name="ICORELEVEL">     0</i>
  <i type="logical" name="LDAU"> F  </i>
  <i type="int" name="I_CONSTRAINED_M">     0</i>
  <separator name="electronic exchange-correlation" >
   <i type="string" name="GGA">PE</i>
   <i type="int" name="VOSKOWN">     0</i>
   <i type="logical" name="LHFCALC"> F  </i>
   <i type="string" name="PRECFOCK"></i>
   <i type="logical" name="LSYMGRAD"> F  </i>
   <i type="logical" name="LHFONE"> F  </i>
   <i type="logical" name="LRHFCALC"> F  </i>
   <i type="logical" name="LTHOMAS"> F  </i>
   <i type="logical" name="LMODELHF"> F  </i>
   <i type="logical" name="LFOCKACE"> F  </i>
   <i name="ENCUT4O">     -1.00000000</i>
   <i type="int" name="EXXOEP">     0</i>
   <i type="int" name="FOURORBIT">     0</i>
   <i name="AEXX">      0.00000000</i>
   <i name="HFALPHA">      0.00000000</i>
   <i name="MCALPHA">      0.00000000</i>
   <i name="ALDAX">      1.00000000</i>
   <i name="AGGAX">      1.00000000</i>
   <i name="ALDAC">      1.00000000</i>
   <i name="AGGAC">      1.00000000</i>
   <i type="int" name="NKREDX">     1</i>
   <i type="int" name="NKREDY">     1</i>
   <i type="int" name="NKREDZ">     1</i>
   <i type="logical" name="SHIFTRED"> F  </i>
   <i type="logical" name="ODDONLY"> F  </i>
   <i type="logical" name="EVENONLY"> F  </i>
   <i type="int" name="LMAXFOCK">     0</i>
   <i type="int" name="NMAXFOCKAE">     0</i>
   <i type="logical" name="LFOCKAEDFT"> F  </i>
   <i name="HFSCREEN">      0.00000000</i>
   <i name="HFSCREENC">      0.00000000</i>
   <i type="int" name="NBANDSGWLOW">     0</i>
  </separator>
  <separator name="vdW DFT" >
   <i type="logical" name="LUSE_VDW"> F  </i>
   <i name="Zab_VDW">     -0.84910000</i>
   <i name="PARAM1">      0.12340000</i>
   <i name="PARAM2">      1.00000000</i>
   <i name="PARAM3">      0.00000000</i>
  </separator>
  <separator name="model GW" >
   <i type="int" name="MODEL_GW">     0</i>
   <i name="MODEL_EPS0">    739.18185716</i>
   <i name="MODEL_ALPHA">      1.00000000</i>
  </separator>
  <separator name="linear response parameters" >
   <i type="logical" name="LEPSILON"> F  </i>
   <i type="logical" name="LRPA"> F  </i>
   <i type="logical" name="LNABLA"> F  </i>
   <i type="logical" name="LVEL"> F  </i>
   <i type="int" name="KINTER">     0</i>
   <i name="CSHIFT">      0.10000000</i>
   <i name="OMEGAMAX">     -1.00000000</i>
   <i name="DEG_THRESHOLD">      0.00200000</i>
   <i name="RTIME">     -0.10000000</i>
   <i name="WPLASMAI">      0.00000000</i>
   <v name="DFIELD">      0.00000000      0.00000000      0.00000000</v>
   <v name="WPLASMA">      0.00000000      0.00000000      0.00000000      0.00000000      0.00000000      0.00000000      0.00000000      0.00000000      0.00000000</v>
  </separator>
  <separator name="orbital magnetization" >
   <i type="logical" name="NUCIND"> F  </i>
   <v name="MAGPOS">      0.00000000      0.00000000      0.00000000</v>
   <i type="logical" name="LNICSALL"> T  </i>
   <i type="logical" name="ORBITALMAG"> F  </i>
   <i type="logical" name="LMAGBLOCH"> F  </i>
   <i type="logical" name="LCHIMAG"> F  </i>
   <i type="logical" name="LGAUGE"> T  </i>
   <i type="int" name="MAGATOM">     0</i>
   <v name="MAGDIPOL">      0.00000000      0.00000000      0.00000000</v>
   <v name="AVECCONST">      0.00000000      0.00000000      0.00000000</v>
  </separator>
  <separator name="response functions" >
   <i type="logical" name="LFINITE_TEMPERATURE"> F  </i>
   <i type="logical" name="LADDER"> F  </i>
   <i type="logical" name="LRPAFORCE"> F  </i>
   <i type="logical" name="LFXC"> F  </i>
   <i type="logical" name="LHARTREE"> T  </i>
   <i type="int" name="IBSE">     0</i>
   <v type="int" name="KPOINT">    -1     0     0     0</v>
   <i type="logical" name="LTCTC"> F  </i>
   <i type="logical" name="LTCTE"> F  </i>
   <i type="logical" name="LTETE"> F  </i>
   <i type="logical" name="LTRIPLET"> F  </i>
   <i type="logical" name="LFXCEPS"> F  </i>
   <i type="logical" name="LFXHEG"> F  </i>
   <i type="int" name="NATURALO">     2</i>
   <i type="logical" name="LHOLEGF"> F  </i>
   <i type="logical" name="L2ORDER"> F  </i>
   <i type="logical" name="LDMP1"> F  </i>
   <i type="logical" name="LMP2LT"> F  </i>
   <i type="logical" name="LSMP2LT"> F  </i>
   <i type="logical" name="LGWLF"> F  </i>
   <i name="ENCUTGW">     -2.00000000</i>
   <i name="ENCUTGWSOFT">     -2.00000000</i>
   <i name="ENCUTLF">     -1.00000000</i>
   <i type="logical" name="LESF_SPLINES"> F  </i>
   <i type="int" name="LMAXMP2">    -1</i>
   <i name="SCISSOR">      0.00000000</i>
   <i type="int" name="NOMEGA">     0</i>
   <i type="int" name="NOMEGAR">     0</i>
   <i type="int" name="NBANDSGW">    -1</i>
   <i type="int" name="NBANDSO">    -1</i>
   <i type="int" name="NBANDSV">    -1</i>
   <i type="int" name="NELM">     1</i>
   <i type="int" name="NELMHF">     1</i>
   <i type="int" name="DIM">     3</i>
   <i type="int" name="IESPILON">     4</i>
   <i type="int" name="ANTIRES">     0</i>
   <i name="OMEGAMAX">    -30.00000000</i>
   <i name="OMEGAMIN">    -30.00000000</i>
   <i name="OMEGATL">   -200.00000000</i>
   <i type="int" name="OMEGAGRID">     0</i>
   <i name="CSHIFT">     -0.10000000</i>
   <i type="logical" name="LSELFENERGY"> F  </i>
   <i type="logical" name="LSPECTRAL"> F  </i>
   <i type="logical" name="LSPECTRALGW"> F  </i>
   <i type="logical" name="LSINGLES"> F  </i>
   <i type="logical" name="LFERMIGW"> F  </i>
   <i type="logical" name="ODDONLYGW"> F  </i>
   <i type="logical" name="EVENONLYGW"> F  </i>
   <i type="int" name="NKREDLFX">     1</i>
   <i type="int" name="NKREDLFY">     1</i>
   <i type="int" name="NKREDLFZ">     1</i>
   <i type="int" name="MAXMEM">  2800</i>
   <i type="int" name="TELESCOPE">     0</i>
   <i type="int" name="NTAUPAR">    -1</i>
   <i type="int" name="NOMEGAPAR">    -1</i>
   <i name="LAMBDA">      1.00000000</i>
  </separator>
  <separator name="External order field" >
   <i name="OFIELD_KAPPA">      0.00000000</i>
   <v name="OFIELD_K">      0.00000000      0.00000000      0.00000000</v>
   <i name="OFIELD_Q6_NEAR">      0.00000000</i>
   <i name="OFIELD_Q6_FAR">      0.00000000</i>
   <i name="OFIELD_A">      0.00000000</i>
  </separator>
 </parameters>
 <atominfo>
  <atoms>      10 </atoms>
  <types>       2 </types>
  <array name="atoms" >
   <dimension dim="1">ion</dimension>
   <field type="string">element</field>
   <field type="int">atomtype</field>
   <set>
    <rc><c>Ni</c><c>   1</c></rc>
    <rc><c>Ni</c><c>   1</c></rc>
    <rc><c>Ni</c><c>   1</c></rc>
    <rc><c>Ni</c><c>   1</c></rc>
    <rc><c>Ni</c><c>   1</c></rc>
    <rc><c>Ni</c><c>   1</c></rc>
    <rc><c>Pd</c><c>   2</c></rc>
    <rc><c>Pd</c><c>   2</c></rc>
    <rc><c>Pd</c><c>   2</c></rc>
    <rc><c>Pd</c><c>   2</c></rc>
   </set>
  </array>
  <array name="atomtypes" >
   <dimension dim="1">type</dimension>
   <field type="int">atomspertype</field>
   <field type="string">element</field>
   <field>mass</field>
   <field>valence</field>
   <field type="string">pseudopotential</field>
   <set>
    <rc><c>   6</c><c>Ni</c><c>     58.69000000</c><c>     10.00000000</c><c>  PAW_PBE Ni 02Aug2007                  </c></rc>
    <rc><c>   4</c><c>Pd</c><c>    106.42000000</c><c>     10.00000000</c><c>  PAW_PBE Pd 04Jan2005                  </c></rc>
   </set>
  </array>
 </atominfo>
 <structure name="initialpos" >
  <crystal>
   <varray name="basis" >
    <v>      22.92112448       0.00000000       0.00000000 </v>
    <v>       0.00000000      23.72708119       0.00000000 </v>
    <v>       0.00000000       0.00000000      22.65269160 </v>
   </varray>
   <i name="volume">  12319.69761934 </i>
   <varray name="rec_basis" >
    <v>       0.04362788       0.00000000       0.00000000 </v>
    <v>       0.00000000       0.04214593       0.00000000 </v>
    <v>       0.00000000       0.00000000       0.04414486 </v>
   </varray>
  </crystal>
  <varray name="positions" >
   <v>       0.48435696       0.47685474       0.52093131 </v>
   <v>       0.57376284       0.43935067       0.56437348 </v>
   <v>       0.41140568       0.52420062       0.46023833 </v>
   <v>       0.45396067       0.57247613       0.54815649 </v>
   <v>       0.48951908       0.46846187       0.41353379 </v>
   <v>       0.51201820       0.56134071       0.45754340 </v>
   <v>       0.56013578       0.54452727       0.55667717 </v>
   <v>       0.52957895       0.39124546       0.47689215 </v>
   <v>       0.42748103       0.62535163       0.45944616 </v>
   <v>       0.58586888       0.48336466       0.46518311 </v>
  </varray>
 </structure>
 <calculation>
  <scstep>
   <time name="dav">    5.07    5.07</time>
   <time name="total">    7.55    7.56</time>
   <energy>
    <i name="alphaZ">      4.59992870 </i>
    <i name="ewald">  12570.32259529 </i>
    <i name="hartreedc"> -21550.60501424 </i>
    <i name="XCdc">     62.65349057 </i>
    <i name="pawpsdc">   9003.59075477 </i>
    <i name="pawaedc">  -9155.75339974 </i>
    <i name="eentropy">      0.03566741 </i>
    <i name="bandstr">     88.05278816 </i>
    <i name="atom">   9704.95859309 </i>
    <i name="e_fr_energy">    727.85540400 </i>
    <i name="e_wo_entrp">    727.81973659 </i>
    <i name="e_0_energy">    727.84351486 </i>
   </energy>
  </scstep>
  <scstep>
   <time name="dav">    8.13    8.14</time>
   <time name="total">    8.14    8.14</time>
   <energy>
    <i name="e_fr_energy">    256.16933235 </i>
    <i name="e_wo_entrp">    256.17079541 </i>
    <i name="e_0_energy">    256.16982004 </i>
   </energy>
  </scstep>
  <scstep>
   <time name="dav">    6.55    6.56</time>
   <time name="total">    6.56    6.57</time>
   <energy>
    <i name="e_fr_energy">     20.96436958 </i>
    <i name="e_wo_entrp">     20.99916932 </i>
    <i name="e_0_energy">     20.97596949 </i>
   </energy>
  </scstep>
  <scstep>
   <time name="dav">    6.87    6.88</time>
   <time name="total">    6.87    6.88</time>
   <energy>
    <i name="e_fr_energy">    -36.82941698 </i>
    <i name="e_wo_entrp">    -36.77467680 </i>
    <i name="e_0_energy">    -36.81117025 </i>
   </energy>
  </scstep>
  <scstep>
   <time name="dav">    5.76    5.77</time>
   <time name="total">    6.44    6.45</time>
   <energy>
    <i name="e_fr_energy">    -43.02284779 </i>
    <i name="e_wo_entrp">    -43.00390754 </i>
    <i name="e_0_energy">    -43.01653437 </i>
   </energy>
  </scstep>
  <scstep>
   <time name="dav">    5.61    5.61</time>
   <time name="total">    8.79    8.80</time>
   <energy>
    <i name="e_fr_energy">    -61.04788200 </i>
    <i name="e_wo_entrp">    -61.04587347 </i>
    <i name="e_0_energy">    -61.04721249 </i>
   </energy>
  </scstep>
  <scstep>
   <time name="dav">    5.95    5.96</time>
   <time name="total">    9.84    9.86</time>
   <energy>
    <i name="e_fr_energy">    -38.63734600 </i>
    <i name="e_wo_entrp">    -38.66521980 </i>
    <i name="e_0_energy">    -38.64663727 </i>
   </energy>
  </scstep>
  <scstep>
   <time name="dav">    6.10    6.11</time>
   <time name="total">    9.27    9.29</time>
   <energy>
    <i name="e_fr_energy">    -38.58819871 </i>
    <i name="e_wo_entrp">    -38.54837652 </i>
    <i name="e_0_energy">    -38.57492465 </i>
   </energy>
  </scstep>
  <scstep>
   <time name="dav">    6.18    6.18</time>
   <time name="total">    9.34    9.36</time>
   <energy>
    <i name="e_fr_energy">    -40.92259262 </i>
    <i name="e_wo_entrp">    -40.94647553 </i>
    <i name="e_0_energy">    -40.93055359 </i>
   </energy>
  </scstep>
  <scstep>
   <time name="dav">    6.08    6.09</time>
   <time name="total">    9.25    9.26</time>
   <energy>
    <i name="e_fr_energy">    -36.91666552 </i>
    <i name="e_wo_entrp">    -36.90080557 </i>
    <i name="e_0_energy">    -36.91137887 </i>
   </energy>
  </scstep>
  <scstep>
   <time name="dav">    6.61    6.62</time>
   <time name="total">    9.80    9.81</time>
   <energy>
    <i name="e_fr_energy">    -35.16823146 </i>
    <i name="e_wo_entrp">    -35.14831093 </i>
    <i name="e_0_energy">    -35.16159128 </i>
   </energy>
  </scstep>
  <scstep>
   <time name="dav">    5.95    5.96</time>
   <time name="total">    9.13    9.14</time>
   <energy>
    <i name="e_fr_energy">    -35.42571073 </i>
    <i name="e_wo_entrp">    -35.42064711 </i>
    <i name="e_0_energy">    -35.42402285 </i>
   </energy>
  </scstep>
  <scstep>
   <time name="dav">    5.70    5.70</time>
   <time name="total">    8.88    8.89</time>
   <energy>
    <i name="e_fr_energy">    -34.01479698 </i>
    <i name="e_wo_entrp">    -33.94129259 </i>
    <i name="e_0_energy">    -33.99029552 </i>
   </energy>
  </scstep>
  <scstep>
   <time name="dav">    6.33    6.34</time>
   <time name="total">    9.53    9.54</time>
   <energy>
    <i name="e_fr_energy">    -34.09296749 </i>
    <i name="e_wo_entrp">    -34.01491834 </i>
    <i name="e_0_energy">    -34.06695111 </i>
   </energy>
  </scstep>
  <scstep>
   <time name="dav">    6.37    6.38</time>
   <time name="total">    9.57    9.58</time>
   <energy>
    <i name="e_fr_energy">    -34.41660268 </i>
    <i name="e_wo_entrp">    -34.33784253 </i>
    <i name="e_0_energy">    -34.39034930 </i>
   </energy>
  </scstep>
  <scstep>
   <time name="dav">    5.56    5.56</time>
   <time name="total">    8.77    8.78</time>
   <energy>
    <i name="e_fr_energy">    -34.33498761 </i>
    <i name="e_wo_entrp">    -34.22248233 </i>
    <i name="e_0_energy">    -34.29748585 </i>
   </energy>
  </scstep>
  <scstep>
   <time name="dav">    6.23    6.24</time>
   <time name="total">    9.44    9.46</time>
   <energy>
    <i name="e_fr_energy">    -34.60308217 </i>
    <i name="e_wo_entrp">    -34.49620934 </i>
    <i name="e_0_energy">    -34.56745789 </i>
   </energy>
  </scstep>
  <scstep>
   <time name="dav">    5.93    5.93</time>
   <time name="total">    9.14    9.16</time>
   <energy>
    <i name="e_fr_energy">    -34.84722711 </i>
    <i name="e_wo_entrp">    -34.75623777 </i>
    <i name="e_0_energy">    -34.81689733 </i>
   </energy>
  </scstep>
  <scstep>
   <time name="dav">    6.24    6.25</time>
   <time name="total">    9.47    9.48</time>
   <energy>
    <i name="e_fr_energy">    -35.16021543 </i>
    <i name="e_wo_entrp">    -35.06604840 </i>
    <i name="e_0_energy">    -35.12882642 </i>
   </energy>
  </scstep>
  <scstep>
   <time name="dav">    6.32    6.33</time>
   <time name="total">    9.55    9.57</time>
   <energy>
    <i name="e_fr_energy">    -35.32903853 </i>
    <i name="e_wo_entrp">    -35.24253670 </i>
    <i name="e_0_energy">    -35.30020459 </i>
   </energy>
  </scstep>
  <scstep>
   <time name="dav">    6.32    6.33</time>
   <time name="total">    9.56    9.57</time>
   <energy>
    <i name="e_fr_energy">    -35.42160298 </i>
    <i name="e_wo_entrp">    -35.33468368 </i>
    <i name="e_0_energy">    -35.39262988 </i>
   </energy>
  </scstep>
  <scstep>
   <time name="dav">    6.29    6.30</time>
   <time name="total">    9.52    9.54</time>
   <energy>
    <i name="e_fr_energy">    -35.57892759 </i>
    <i name="e_wo_entrp">    -35.49139228 </i>
    <i name="e_0_energy">    -35.54974915 </i>
   </energy>
  </scstep>
  <scstep>
   <time name="dav">    5.69    5.69</time>
   <time name="total">    8.95    8.96</time>
   <energy>
    <i name="e_fr_energy">    -35.76653971 </i>
    <i name="e_wo_entrp">    -35.67650434 </i>
    <i name="e_0_energy">    -35.73652792 </i>
   </energy>
  </scstep>
  <scstep>
   <time name="dav">    6.07    6.08</time>
   <time name="total">    9.33    9.34</time>
   <energy>
    <i name="e_fr_energy">    -35.96277127 </i>
    <i name="e_wo_entrp">    -35.87254667 </i>
    <i name="e_0_energy">    -35.93269640 </i>
   </energy>
  </scstep>
  <scstep>
   <time name="dav">    6.34    6.35</time>
   <time name="total">    9.63    9.64</time>
   <energy>
    <i name="e_fr_energy">    -36.13313346 </i>
    <i name="e_wo_entrp">    -36.04650963 </i>
    <i name="e_0_energy">    -36.10425885 </i>
   </energy>
  </scstep>
  <scstep>
   <time name="dav">    6.07    6.08</time>
   <time name="total">    9.38    9.39</time>
   <energy>
    <i name="e_fr_energy">    -36.24514811 </i>
    <i name="e_wo_entrp">    -36.15909828 </i>
    <i name="e_0_energy">    -36.21646483 </i>
   </energy>
  </scstep>
  <scstep>
   <time name="dav">    5.86    5.86</time>
   <time name="total">    9.16    9.18</time>
   <energy>
    <i name="e_fr_energy">    -36.36151593 </i>
    <i name="e_wo_entrp">    -36.27482961 </i>
    <i name="e_0_energy">    -36.33262049 </i>
   </energy>
  </scstep>
  <scstep>
   <time name="dav">    5.27    5.27</time>
   <time name="total">    8.60    8.62</time>
   <energy>
    <i name="e_fr_energy">    -36.52410376 </i>
    <i name="e_wo_entrp">    -36.43809458 </i>
    <i name="e_0_energy">    -36.49543403 </i>
   </energy>
  </scstep>
  <scstep>
   <time name="dav">    5.21    5.22</time>
   <time name="total">    8.54    8.55</time>
   <energy>
    <i name="e_fr_energy">    -36.62475589 </i>
    <i name="e_wo_entrp">    -36.53877738 </i>
    <i name="e_0_energy">    -36.59609639 </i>
   </energy>
  </scstep>
  <scstep>
   <time name="dav">    5.23    5.24</time>
   <time name="total">    8.58    8.59</time>
   <energy>
    <i name="e_fr_energy">    -36.70782109 </i>
    <i name="e_wo_entrp">    -36.62226559 </i>
    <i name="e_0_energy">    -36.67930259 </i>
   </energy>
  </scstep>
  <scstep>
   <time name="dav">    5.49    5.49</time>
   <time name="total">    8.88    8.89</time>
   <energy>
    <i name="e_fr_energy">    -36.77179289 </i>
    <i name="e_wo_entrp">    -36.68612566 </i>
    <i name="e_0_energy">    -36.74323714 </i>
   </energy>
  </scstep>
  <scstep>
   <time name="dav">    4.92    4.92</time>
   <time name="total">    8.28    8.29</time>
   <energy>
    <i name="e_fr_energy">    -36.82283358 </i>
    <i name="e_wo_entrp">    -36.73732741 </i>
    <i name="e_0_energy">    -36.79433153 </i>
   </energy>
  </scstep>
  <scstep>
   <time name="dav">    5.02    5.03</time>
   <time name="total">    8.40    8.42</time>
   <energy>
    <i name="e_fr_energy">    -36.86193166 </i>
    <i name="e_wo_entrp">    -36.77622499 </i>
    <i name="e_0_energy">    -36.83336277 </i>
   </energy>
  </scstep>
  <scstep>
   <time name="dav">    4.64    4.65</time>
   <time name="total">    8.06    8.07</time>
   <energy>
    <i name="e_fr_energy">    -36.88620955 </i>
    <i name="e_wo_entrp">    -36.80069724 </i>
    <i name="e_0_energy">    -36.85770544 </i>
   </energy>
  </scstep>
  <scstep>
   <time name="dav">    4.60    4.60</time>
   <time name="total">    8.02    8.03</time>
   <energy>
    <i name="e_fr_energy">    -36.90106822 </i>
    <i name="e_wo_entrp">    -36.81537329 </i>
    <i name="e_0_energy">    -36.87250325 </i>
   </energy>
  </scstep>
  <scstep>
   <time name="dav">    4.17    4.18</time>
   <time name="total">    7.60    7.60</time>
   <energy>
    <i name="e_fr_energy">    -36.90905472 </i>
    <i name="e_wo_entrp">    -36.82348706 </i>
    <i name="e_0_energy">    -36.88053217 </i>
   </energy>
  </scstep>
  <scstep>
   <time name="dav">    3.86    3.86</time>
   <time name="total">    7.29    7.30</time>
   <energy>
    <i name="e_fr_energy">    -36.91330049 </i>
    <i name="e_wo_entrp">    -36.82771042 </i>
    <i name="e_0_energy">    -36.88477047 </i>
   </energy>
  </scstep>
  <scstep>
   <time name="dav">    3.94    3.94</time>
   <time name="total">    7.42    7.43</time>
   <energy>
    <i name="e_fr_energy">    -36.91605153 </i>
    <i name="e_wo_entrp">    -36.83043383 </i>
    <i name="e_0_energy">    -36.88751229 </i>
   </energy>
  </scstep>
  <scstep>
   <time name="dav">    3.65    3.65</time>
   <time name="total">    7.12    7.13</time>
   <energy>
    <i name="e_fr_energy">    -36.91744574 </i>
    <i name="e_wo_entrp">    -36.83182939 </i>
    <i name="e_0_energy">    -36.88890696 </i>
   </energy>
  </scstep>
  <scstep>
   <time name="dav">    3.76    3.76</time>
   <time name="total">    7.23    7.24</time>
   <energy>
    <i name="e_fr_energy">    -36.91885224 </i>
    <i name="e_wo_entrp">    -36.83321886 </i>
    <i name="e_0_energy">    -36.89030778 </i>
   </energy>
  </scstep>
  <scstep>
   <time name="dav">    3.78    3.78</time>
   <time name="total">    7.27    7.27</time>
   <energy>
    <i name="e_fr_energy">    -36.91948590 </i>
    <i name="e_wo_entrp">    -36.83387155 </i>
    <i name="e_0_energy">    -36.89094778 </i>
   </energy>
  </scstep>
  <scstep>
   <time name="dav">    3.67    3.67</time>
   <time name="total">    7.20    7.22</time>
   <energy>
    <i name="e_fr_energy">    -36.91989573 </i>
    <i name="e_wo_entrp">    -36.83429719 </i>
    <i name="e_0_energy">    -36.89136288 </i>
   </energy>
  </scstep>
  <scstep>
   <time name="dav">    3.81    3.81</time>
   <time name="total">    7.34    7.35</time>
   <energy>
    <i name="e_fr_energy">    -36.92018853 </i>
    <i name="e_wo_entrp">    -36.83458270 </i>
    <i name="e_0_energy">    -36.89165325 </i>
   </energy>
  </scstep>
  <scstep>
   <time name="dav">    3.76    3.77</time>
   <time name="total">    7.30    7.31</time>
   <energy>
    <i name="e_fr_energy">    -36.92032839 </i>
    <i name="e_wo_entrp">    -36.83473858 </i>
    <i name="e_0_energy">    -36.89179845 </i>
   </energy>
  </scstep>
  <scstep>
   <time name="dav">    3.64    3.64</time>
   <time name="total">    7.20    7.20</time>
   <energy>
    <i name="e_fr_energy">    -36.92046866 </i>
    <i name="e_wo_entrp">    -36.83486529 </i>
    <i name="e_0_energy">    -36.89193420 </i>
   </energy>
  </scstep>
  <scstep>
   <time name="dav">    3.66    3.66</time>
   <time name="total">    6.11    6.11</time>
   <energy>
    <i name="alphaZ">      4.59992870 </i>
    <i name="ewald">  12570.32259529 </i>
    <i name="hartreedc"> -21636.65757052 </i>
    <i name="XCdc">     60.10838296 </i>
    <i name="pawpsdc">  10058.43464775 </i>
    <i name="pawaedc"> -10221.58618139 </i>
    <i name="eentropy">     -0.08559234 </i>
    <i name="bandstr">   -577.01535036 </i>
    <i name="atom">   9704.95859309 </i>
    <i name="e_fr_energy">    -36.92054683 </i>
    <i name="e_wo_entrp">    -36.83495450 </i>
    <i name="e_0_energy">    -36.89201605 </i>
   </energy>
  </scstep>
  <structure>
   <crystal>
    <varray name="basis" >
     <v>      22.92112448       0.00000000       0.00000000 </v>
     <v>       0.00000000      23.72708119       0.00000000 </v>
     <v>       0.00000000       0.00000000      22.65269160 </v>
    </varray>
    <i name="volume">  12319.69761934 </i>
    <varray name="rec_basis" >
     <v>       0.04362788       0.00000000       0.00000000 </v>
     <v>       0.00000000       0.04214593       0.00000000 </v>
     <v>       0.00000000       0.00000000       0.04414486 </v>
    </varray>
   </crystal>
   <varray name="positions" >
    <v>       0.48435696       0.47685474       0.52093131 </v>
    <v>       0.57376284       0.43935067       0.56437348 </v>
    <v>       0.41140568       0.52420062       0.46023833 </v>
    <v>       0.45396067       0.57247613       0.54815649 </v>
    <v>       0.48951908       0.46846187       0.41353379 </v>
    <v>       0.51201820       0.56134071       0.45754340 </v>
    <v>       0.56013578       0.54452727       0.55667717 </v>
    <v>       0.52957895       0.39124546       0.47689215 </v>
    <v>       0.42748103       0.62535163       0.45944616 </v>
    <v>       0.58586888       0.48336466       0.46518311 </v>
   </varray>
  </structure>
  <varray name="forces" >
   <v>      -0.28193215       0.18962939      -0.22388954 </v>
   <v>      -0.47110745       0.40229100      -0.35165078 </v>
   <v>       1.14099929      -0.21933104       0.14124589 </v>
   <v>       0.43655785      -0.52129129      -0.64885743 </v>
   <v>      -0.43488065       0.49152878       0.62385553 </v>
   <v>      -0.75654094      -0.47555786       0.17149230 </v>
   <v>      -0.07959752       0.39277912       0.80540730 </v>
   <v>      -0.32904120      -0.59795964       0.08528694 </v>
   <v>      -0.05933024       0.11595886       0.02117143 </v>
   <v>       0.83487301       0.22195268      -0.62406163 </v>
  </varray>
  <energy>
   <i name="e_fr_energy">    -36.92054683 </i>
   <i name="e_wo_entrp">    -36.83495450 </i>
   <i name="e_0_energy">    -36.89201605 </i>
  </energy>
  <time name="totalsc">  396.99  397.54</time>
 </calculation>
 <calculation>
  <scstep>
   <time name="dav">    4.90    4.91</time>
   <time name="total">    8.02    8.03</time>
   <energy>
    <i name="alphaZ">      4.59992870 </i>
    <i name="ewald">  12658.49694252 </i>
    <i name="hartreedc"> -21724.35133054 </i>
    <i name="XCdc">     60.26698151 </i>
    <i name="pawpsdc">  10058.46076682 </i>
    <i name="pawaedc"> -10221.61229368 </i>
    <i name="eentropy">     -0.06621604 </i>
    <i name="bandstr">   -577.80156167 </i>
    <i name="atom">   9704.95859309 </i>
    <i name="e_fr_energy">    -37.04818929 </i>
    <i name="e_wo_entrp">    -36.98197325 </i>
    <i name="e_0_energy">    -37.02611727 </i>
   </energy>
  </scstep>
  <scstep>
   <time name="dav">    6.53    6.54</time>
   <time name="total">    9.65    9.66</time>
   <energy>
    <i name="e_fr_energy">    -38.02000640 </i>
    <i name="e_wo_entrp">    -37.96928855 </i>
    <i name="e_0_energy">    -38.00310045 </i>
   </energy>
  </scstep>
  <scstep>
   <time name="dav">    5.45    5.45</time>
   <time name="total">    8.58    8.59</time>
   <energy>
    <i name="e_fr_energy">    -37.23229641 </i>
    <i name="e_wo_entrp">    -37.17677049 </i>
    <i name="e_0_energy">    -37.21378777 </i>
   </energy>
  </scstep>
  <scstep>
   <time name="dav">    6.21    6.22</time>
   <time name="total">    9.35    9.36</time>
   <energy>
    <i name="e_fr_energy">    -37.19314911 </i>
    <i name="e_wo_entrp">    -37.13158580 </i>
    <i name="e_0_energy">    -37.17262801 </i>
   </energy>
  </scstep>
  <scstep>
   <time name="dav">    6.13    6.13</time>
   <time name="total">    9.27    9.28</time>
   <energy>
    <i name="e_fr_energy">    -37.22174622 </i>
    <i name="e_wo_entrp">    -37.15243872 </i>
    <i name="e_0_energy">    -37.19864372 </i>
   </energy>
  </scstep>
  <scstep>
   <time name="dav">    6.09    6.10</time>
   <time name="total">    9.22    9.23</time>
   <energy>
    <i name="e_fr_energy">    -37.20041770 </i>
    <i name="e_wo_entrp">    -37.12370471 </i>
    <i name="e_0_energy">    -37.17484671 </i>
   </energy>
  </scstep>
  <scstep>
   <time name="dav">    5.87    5.88</time>
   <time name="total">    9.01    9.03</time>
   <energy>
    <i name="e_fr_energy">    -37.16411065 </i>
    <i name="e_wo_entrp">    -37.08610765 </i>
    <i name="e_0_energy">    -37.13810965 </i>
   </energy>
  </scstep>
  <scstep>
   <time name="dav">    6.52    6.53</time>
   <time name="total">    9.69    9.70</time>
   <energy>
    <i name="e_fr_energy">    -37.18449902 </i>
    <i name="e_wo_entrp">    -37.11512696 </i>
    <i name="e_0_energy">    -37.16137500 </i>
   </energy>
  </scstep>
  <scstep>
   <time name="dav">    6.15    6.15</time>
   <time name="total">    9.32    9.33</time>
   <energy>
    <i name="e_fr_energy">    -37.17286816 </i>
    <i name="e_wo_entrp">    -37.10194312 </i>
    <i name="e_0_energy">    -37.14922648 </i>
   </energy>
  </scstep>
  <scstep>
   <time name="dav">    6.31    6.32</time>
   <time name="total">    9.49    9.51</time>
   <energy>
    <i name="e_fr_energy">    -37.17313681 </i>
    <i name="e_wo_entrp">    -37.09733129 </i>
    <i name="e_0_energy">    -37.14786830 </i>
   </energy>
  </scstep>
  <scstep>
   <time name="dav">    6.56    6.56</time>
   <time name="total">    9.74    9.75</time>
   <energy>
    <i name="e_fr_energy">    -37.16437760 </i>
    <i name="e_wo_entrp">    -37.09513063 </i>
    <i name="e_0_energy">    -37.14129528 </i>
   </energy>
  </scstep>
  <scstep>
   <time name="dav">    6.42    6.43</time>
   <time name="total">    9.61    9.62</time>
   <energy>
    <i name="e_fr_energy">    -37.16581311 </i>
    <i name="e_wo_entrp">    -37.09590485 </i>
    <i name="e_0_energy">    -37.14251035 </i>
   </energy>
  </scstep>
  <scstep>
   <time name="dav">    6.09    6.10</time>
   <time name="total">    9.30    9.31</time>
   <energy>
    <i name="e_fr_energy">    -37.16741612 </i>
    <i name="e_wo_entrp">    -37.09728719 </i>
    <i name="e_0_energy">    -37.14403981 </i>
   </energy>
  </scstep>
  <scstep>
   <time name="dav">    4.22    4.22</time>
   <time name="total">    7.44    7.45</time>
   <energy>
    <i name="e_fr_energy">    -37.16891172 </i>
    <i name="e_wo_entrp">    -37.09815194 </i>
    <i name="e_0_energy">    -37.14532512 </i>
   </energy>
  </scstep>
  <scstep>
   <time name="dav">    3.84    3.85</time>
   <time name="total">    7.06    7.07</time>
   <energy>
    <i name="e_fr_energy">    -37.17020167 </i>
    <i name="e_wo_entrp">    -37.09947034 </i>
    <i name="e_0_energy">    -37.14662456 </i>
   </energy>
  </scstep>
  <scstep>
   <time name="dav">    3.65    3.65</time>
   <time name="total">    6.89    6.90</time>
   <energy>
    <i name="e_fr_energy">    -37.17182079 </i>
    <i name="e_wo_entrp">    -37.10099299 </i>
    <i name="e_0_energy">    -37.14821152 </i>
   </energy>
  </scstep>
  <scstep>
   <time name="dav">    3.75    3.75</time>
   <time name="total">    6.98    6.99</time>
   <energy>
    <i name="e_fr_energy">    -37.17281245 </i>
    <i name="e_wo_entrp">    -37.10199096 </i>
    <i name="e_0_energy">    -37.14920528 </i>
   </energy>
  </scstep>
  <scstep>
   <time name="dav">    3.64    3.65</time>
   <time name="total">    6.88    6.89</time>
   <energy>
    <i name="e_fr_energy">    -37.17383945 </i>
    <i name="e_wo_entrp">    -37.10312270 </i>
    <i name="e_0_energy">    -37.15026720 </i>
   </energy>
  </scstep>
  <scstep>
   <time name="dav">    3.73    3.74</time>
   <time name="total">    6.98    6.99</time>
   <energy>
    <i name="e_fr_energy">    -37.17507378 </i>
    <i name="e_wo_entrp">    -37.10436951 </i>
    <i name="e_0_energy">    -37.15150569 </i>
   </energy>
  </scstep>
  <scstep>
   <time name="dav">    3.77    3.77</time>
   <time name="total">    7.04    7.05</time>
   <energy>
    <i name="e_fr_energy">    -37.17584181 </i>
    <i name="e_wo_entrp">    -37.10521724 </i>
    <i name="e_0_energy">    -37.15230029 </i>
   </energy>
  </scstep>
  <scstep>
   <time name="dav">    3.74    3.74</time>
   <time name="total">    7.02    7.03</time>
   <energy>
    <i name="e_fr_energy">    -37.17689289 </i>
    <i name="e_wo_entrp">    -37.10632521 </i>
    <i name="e_0_energy">    -37.15337033 </i>
   </energy>
  </scstep>
  <scstep>
   <time name="dav">    3.80    3.80</time>
   <time name="total">    7.10    7.12</time>
   <energy>
    <i name="e_fr_energy">    -37.17786121 </i>
    <i name="e_wo_entrp">    -37.10730648 </i>
    <i name="e_0_energy">    -37.15434297 </i>
   </energy>
  </scstep>
  <scstep>
   <time name="dav">    3.77    3.77</time>
   <time name="total">    7.10    7.11</time>
   <energy>
    <i name="e_fr_energy">    -37.17860504 </i>
    <i name="e_wo_entrp">    -37.10809340 </i>
    <i name="e_0_energy">    -37.15510116 </i>
   </energy>
  </scstep>
  <scstep>
   <time name="dav">    3.74    3.74</time>
   <time name="total">    7.06    7.07</time>
   <energy>
    <i name="e_fr_energy">    -37.17947151 </i>
    <i name="e_wo_entrp">    -37.10897425 </i>
    <i name="e_0_energy">    -37.15597242 </i>
   </energy>
  </scstep>
  <scstep>
   <time name="dav">    3.76    3.76</time>
   <time name="total">    7.10    7.11</time>
   <energy>
    <i name="e_fr_energy">    -37.18014574 </i>
    <i name="e_wo_entrp">    -37.10968060 </i>
    <i name="e_0_energy">    -37.15665736 </i>
   </energy>
  </scstep>
  <scstep>
   <time name="dav">    3.74    3.74</time>
   <time name="total">    7.09    7.09</time>
   <energy>
    <i name="e_fr_energy">    -37.18084101 </i>
    <i name="e_wo_entrp">    -37.11037697 </i>
    <i name="e_0_energy">    -37.15735300 </i>
   </energy>
  </scstep>
  <scstep>
   <time name="dav">    3.77    3.78</time>
   <time name="total">    7.14    7.15</time>
   <energy>
    <i name="e_fr_energy">    -37.18128618 </i>
    <i name="e_wo_entrp">    -37.11082716 </i>
    <i name="e_0_energy">    -37.15779984 </i>
   </energy>
  </scstep>
  <scstep>
   <time name="dav">    3.78    3.79</time>
   <time name="total">    7.16    7.17</time>
   <energy>
    <i name="e_fr_energy">    -37.18156960 </i>
    <i name="e_wo_entrp">    -37.11112406 </i>
    <i name="e_0_energy">    -37.15808775 </i>
   </energy>
  </scstep>
  <scstep>
   <time name="dav">    3.78    3.78</time>
   <time name="total">    7.17    7.19</time>
   <energy>
    <i name="e_fr_energy">    -37.18184491 </i>
    <i name="e_wo_entrp">    -37.11140177 </i>
    <i name="e_0_energy">    -37.15836386 </i>
   </energy>
  </scstep>
  <scstep>
   <time name="dav">    3.79    3.79</time>
   <time name="total">    7.19    7.19</time>
   <energy>
    <i name="e_fr_energy">    -37.18202540 </i>
    <i name="e_wo_entrp">    -37.11158651 </i>
    <i name="e_0_energy">    -37.15854577 </i>
   </energy>
  </scstep>
  <scstep>
   <time name="dav">    3.73    3.73</time>
   <time name="total">    6.22    6.23</time>
   <energy>
    <i name="alphaZ">      4.59992870 </i>
    <i name="ewald">  12658.49694252 </i>
    <i name="hartreedc"> -21724.46871006 </i>
    <i name="XCdc">     60.18931435 </i>
    <i name="pawpsdc">  10080.17302044 </i>
    <i name="pawaedc"> -10243.29721603 </i>
    <i name="eentropy">     -0.07043986 </i>
    <i name="bandstr">   -577.76354076 </i>
    <i name="atom">   9704.95859309 </i>
    <i name="e_fr_energy">    -37.18210762 </i>
    <i name="e_wo_entrp">    -37.11166776 </i>
    <i name="e_0_energy">    -37.15862766 </i>
   </energy>
  </scstep>
  <structure>
   <crystal>
    <varray name="basis" >
     <v>      22.92112448       0.00000000       0.00000000 </v>
     <v>       0.00000000      23.72708119       0.00000000 </v>
     <v>       0.00000000       0.00000000      22.65269160 </v>
    </varray>
    <i name="volume">  12319.69761934 </i>
    <varray name="rec_basis" >
     <v>       0.04362788       0.00000000       0.00000000 </v>
     <v>       0.00000000       0.04214593       0.00000000 </v>
     <v>       0.00000000       0.00000000       0.04414486 </v>
    </varray>
   </crystal>
   <varray name="positions" >
    <v>       0.48376357       0.47724030       0.52045450 </v>
    <v>       0.57277129       0.44016862       0.56362458 </v>
    <v>       0.41380717       0.52375467       0.46053913 </v>
    <v>       0.45487950       0.57141622       0.54677464 </v>
    <v>       0.48860378       0.46946126       0.41486239 </v>
    <v>       0.51042589       0.56037379       0.45790862 </v>
    <v>       0.55996825       0.54532588       0.55839242 </v>
    <v>       0.52888641       0.39002967       0.47707379 </v>
    <v>       0.42735616       0.62558740       0.45949125 </v>
    <v>       0.58762606       0.48381594       0.46385407 </v>
   </varray>
  </structure>
  <varray name="forces" >
   <v>       0.06839984      -0.04461791      -0.10725131 </v>
   <v>      -0.44559847       0.39984925      -0.44580254 </v>
   <v>       0.59227850      -0.13757442      -0.03859322 </v>
   <v>       0.31225907      -0.28340798      -0.30779172 </v>
   <v>      -0.21573118       0.19347683       0.45673008 </v>
   <v>      -0.34801570      -0.38380187       0.11835028 </v>
   <v>      -0.01343133       0.12369065       0.47700113 </v>
   <v>      -0.18486275      -0.12092724       0.08819190 </v>
   <v>      -0.12444081       0.16967986      -0.00122309 </v>
   <v>       0.35914285       0.08363283      -0.23961151 </v>
  </varray>
  <energy>
   <i name="e_fr_energy">    -37.18210762 </i>
   <i name="e_wo_entrp">    -37.11166776 </i>
   <i name="e_0_energy">    -37.15862766 </i>
  </energy>
  <time name="totalsc">  256.42  256.76</time>
 </calculation>
 <calculation>
  <scstep>
   <time name="dav">    4.90    4.91</time>
   <time name="total">    8.07    8.08</time>
   <energy>
    <i name="alphaZ">      4.59992870 </i>
    <i name="ewald">  12746.57154064 </i>
    <i name="hartreedc"> -21811.20879862 </i>
    <i name="XCdc">     60.38169884 </i>
    <i name="pawpsdc">  10080.17640924 </i>
    <i name="pawaedc"> -10243.30048573 </i>
    <i name="eentropy">     -0.06098591 </i>
    <i name="bandstr">   -579.26528982 </i>
    <i name="atom">   9704.95859309 </i>
    <i name="e_fr_energy">    -37.14738958 </i>
    <i name="e_wo_entrp">    -37.08640367 </i>
    <i name="e_0_energy">    -37.12706094 </i>
   </energy>
  </scstep>
  <scstep>
   <time name="dav">    6.63    6.64</time>
   <time name="total">    9.77    9.78</time>
   <energy>
    <i name="e_fr_energy">    -37.83251975 </i>
    <i name="e_wo_entrp">    -37.79324558 </i>
    <i name="e_0_energy">    -37.81942836 </i>
   </energy>
  </scstep>
  <scstep>
   <time name="dav">    5.68    5.68</time>
   <time name="total">    8.82    8.83</time>
   <energy>
    <i name="e_fr_energy">    -37.29022277 </i>
    <i name="e_wo_entrp">    -37.24362182 </i>
    <i name="e_0_energy">    -37.27468912 </i>
   </energy>
  </scstep>
  <scstep>
   <time name="dav">    6.43    6.44</time>
   <time name="total">    9.57    9.58</time>
   <energy>
    <i name="e_fr_energy">    -37.26022687 </i>
    <i name="e_wo_entrp">    -37.20012623 </i>
    <i name="e_0_energy">    -37.24019332 </i>
   </energy>
  </scstep>
  <scstep>
   <time name="dav">    6.12    6.13</time>
   <time name="total">    9.27    9.28</time>
   <energy>
    <i name="e_fr_energy">    -37.33762818 </i>
    <i name="e_wo_entrp">    -37.27552271 </i>
    <i name="e_0_energy">    -37.31692636 </i>
   </energy>
  </scstep>
  <scstep>
   <time name="dav">    6.03    6.04</time>
   <time name="total">    9.18    9.19</time>
   <energy>
    <i name="e_fr_energy">    -37.25174003 </i>
    <i name="e_wo_entrp">    -37.18671794 </i>
    <i name="e_0_energy">    -37.23006600 </i>
   </energy>
  </scstep>
  <scstep>
   <time name="dav">    6.31    6.31</time>
   <time name="total">    9.46    9.47</time>
   <energy>
    <i name="e_fr_energy">    -37.26183204 </i>
    <i name="e_wo_entrp">    -37.19505293 </i>
    <i name="e_0_energy">    -37.23957234 </i>
   </energy>
  </scstep>
  <scstep>
   <time name="dav">    6.54    6.55</time>
   <time name="total">    9.71    9.73</time>
   <energy>
    <i name="e_fr_energy">    -37.27930830 </i>
    <i name="e_wo_entrp">    -37.21666395 </i>
    <i name="e_0_energy">    -37.25842685 </i>
   </energy>
  </scstep>
  <scstep>
   <time name="dav">    6.09    6.10</time>
   <time name="total">    9.27    9.28</time>
   <energy>
    <i name="e_fr_energy">    -37.25756143 </i>
    <i name="e_wo_entrp">    -37.19527983 </i>
    <i name="e_0_energy">    -37.23680089 </i>
   </energy>
  </scstep>
  <scstep>
   <time name="dav">    6.74    6.75</time>
   <time name="total">    9.94    9.95</time>
   <energy>
    <i name="e_fr_energy">    -37.26604332 </i>
    <i name="e_wo_entrp">    -37.19570960 </i>
    <i name="e_0_energy">    -37.24259875 </i>
   </energy>
  </scstep>
  <scstep>
   <time name="dav">    6.34    6.34</time>
   <time name="total">    9.52    9.54</time>
   <energy>
    <i name="e_fr_energy">    -37.25569063 </i>
    <i name="e_wo_entrp">    -37.19237544 </i>
    <i name="e_0_energy">    -37.23458557 </i>
   </energy>
  </scstep>
  <scstep>
   <time name="dav">    6.46    6.46</time>
   <time name="total">    9.67    9.68</time>
   <energy>
    <i name="e_fr_energy">    -37.25873994 </i>
    <i name="e_wo_entrp">    -37.19490344 </i>
    <i name="e_0_energy">    -37.23746111 </i>
   </energy>
  </scstep>
  <scstep>
   <time name="dav">    5.40    5.40</time>
   <time name="total">    8.61    8.62</time>
   <energy>
    <i name="e_fr_energy">    -37.26000002 </i>
    <i name="e_wo_entrp">    -37.19531854 </i>
    <i name="e_0_energy">    -37.23843953 </i>
   </energy>
  </scstep>
  <scstep>
   <time name="dav">    3.82    3.83</time>
   <time name="total">    7.04    7.05</time>
   <energy>
    <i name="e_fr_energy">    -37.26101149 </i>
    <i name="e_wo_entrp">    -37.19615688 </i>
    <i name="e_0_energy">    -37.23939329 </i>
   </energy>
  </scstep>
  <scstep>
   <time name="dav">    3.76    3.77</time>
   <time name="total">    6.99    6.99</time>
   <energy>
    <i name="e_fr_energy">    -37.26185117 </i>
    <i name="e_wo_entrp">    -37.19694894 </i>
    <i name="e_0_energy">    -37.24021709 </i>
   </energy>
  </scstep>
  <scstep>
   <time name="dav">    3.63    3.63</time>
   <time name="total">    6.88    6.88</time>
   <energy>
    <i name="e_fr_energy">    -37.26257736 </i>
    <i name="e_wo_entrp">    -37.19772284 </i>
    <i name="e_0_energy">    -37.24095919 </i>
   </energy>
  </scstep>
  <scstep>
   <time name="dav">    3.76    3.76</time>
   <time name="total">    7.00    7.00</time>
   <energy>
    <i name="e_fr_energy">    -37.26310431 </i>
    <i name="e_wo_entrp">    -37.19826818 </i>
    <i name="e_0_energy">    -37.24149226 </i>
   </energy>
  </scstep>
  <scstep>
   <time name="dav">    3.65    3.65</time>
   <time name="total">    6.90    6.91</time>
   <energy>
    <i name="e_fr_energy">    -37.26361202 </i>
    <i name="e_wo_entrp">    -37.19882872 </i>
    <i name="e_0_energy">    -37.24201759 </i>
   </energy>
  </scstep>
  <scstep>
   <time name="dav">    3.76    3.76</time>
   <time name="total">    7.02    7.03</time>
   <energy>
    <i name="e_fr_energy">    -37.26426591 </i>
    <i name="e_wo_entrp">    -37.19949025 </i>
    <i name="e_0_energy">    -37.24267403 </i>
   </energy>
  </scstep>
  <scstep>
   <time name="dav">    3.76    3.76</time>
   <time name="total">    7.06    7.07</time>
   <energy>
    <i name="e_fr_energy">    -37.26468504 </i>
    <i name="e_wo_entrp">    -37.19994326 </i>
    <i name="e_0_energy">    -37.24310444 </i>
   </energy>
  </scstep>
  <scstep>
   <time name="dav">    3.75    3.76</time>
   <time name="total">    7.03    7.04</time>
   <energy>
    <i name="e_fr_energy">    -37.26518394 </i>
    <i name="e_wo_entrp">    -37.20043662 </i>
    <i name="e_0_energy">    -37.24360150 </i>
   </energy>
  </scstep>
  <scstep>
   <time name="dav">    3.75    3.75</time>
   <time name="total">    7.05    7.06</time>
   <energy>
    <i name="e_fr_energy">    -37.26565144 </i>
    <i name="e_wo_entrp">    -37.20092420 </i>
    <i name="e_0_energy">    -37.24407569 </i>
   </energy>
  </scstep>
  <scstep>
   <time name="dav">    3.75    3.76</time>
   <time name="total">    7.06    7.07</time>
   <energy>
    <i name="e_fr_energy">    -37.26608322 </i>
    <i name="e_wo_entrp">    -37.20136818 </i>
    <i name="e_0_energy">    -37.24451154 </i>
   </energy>
  </scstep>
  <scstep>
   <time name="dav">    3.77    3.78</time>
   <time name="total">    7.10    7.11</time>
   <energy>
    <i name="e_fr_energy">    -37.26658495 </i>
    <i name="e_wo_entrp">    -37.20187907 </i>
    <i name="e_0_energy">    -37.24501632 </i>
   </energy>
  </scstep>
  <scstep>
   <time name="dav">    3.76    3.76</time>
   <time name="total">    7.10    7.11</time>
   <energy>
    <i name="e_fr_energy">    -37.26690195 </i>
    <i name="e_wo_entrp">    -37.20221260 </i>
    <i name="e_0_energy">    -37.24533883 </i>
   </energy>
  </scstep>
  <scstep>
   <time name="dav">    3.75    3.75</time>
   <time name="total">    7.09    7.10</time>
   <energy>
    <i name="e_fr_energy">    -37.26726381 </i>
    <i name="e_wo_entrp">    -37.20257460 </i>
    <i name="e_0_energy">    -37.24570074 </i>
   </energy>
  </scstep>
  <scstep>
   <time name="dav">    3.76    3.77</time>
   <time name="total">    7.13    7.14</time>
   <energy>
    <i name="e_fr_energy">    -37.26755108 </i>
    <i name="e_wo_entrp">    -37.20287374 </i>
    <i name="e_0_energy">    -37.24599197 </i>
   </energy>
  </scstep>
  <scstep>
   <time name="dav">    3.67    3.67</time>
   <time name="total">    7.04    7.05</time>
   <energy>
    <i name="e_fr_energy">    -37.26772460 </i>
    <i name="e_wo_entrp">    -37.20305710 </i>
    <i name="e_0_energy">    -37.24616877 </i>
   </energy>
  </scstep>
  <scstep>
   <time name="dav">    3.80    3.81</time>
   <time name="total">    7.21    7.22</time>
   <energy>
    <i name="e_fr_energy">    -37.26788850 </i>
    <i name="e_wo_entrp">    -37.20323144 </i>
    <i name="e_0_energy">    -37.24633615 </i>
   </energy>
  </scstep>
  <scstep>
   <time name="dav">    3.67    3.68</time>
   <time name="total">    7.07    7.08</time>
   <energy>
    <i name="e_fr_energy">    -37.26799140 </i>
    <i name="e_wo_entrp">    -37.20333101 </i>
    <i name="e_0_energy">    -37.24643794 </i>
   </energy>
  </scstep>
  <scstep>
   <time name="dav">    3.68    3.69</time>
   <time name="total">    6.17    6.18</time>
   <energy>
    <i name="alphaZ">      4.59992870 </i>
    <i name="ewald">  12746.57154064 </i>
    <i name="hartreedc"> -21811.03245602 </i>
    <i name="XCdc">     60.31130064 </i>
    <i name="pawpsdc">  10116.77410919 </i>
    <i name="pawaedc"> -10280.09528428 </i>
    <i name="eentropy">     -0.06465639 </i>
    <i name="bandstr">   -579.29111637 </i>
    <i name="atom">   9704.95859309 </i>
    <i name="e_fr_energy">    -37.26804080 </i>
    <i name="e_wo_entrp">    -37.20338441 </i>
    <i name="e_0_energy">    -37.24648867 </i>
   </energy>
  </scstep>
  <structure>
   <crystal>
    <varray name="basis" >
     <v>      22.92112448       0.00000000       0.00000000 </v>
     <v>       0.00000000      23.72708119       0.00000000 </v>
     <v>       0.00000000       0.00000000      22.65269160 </v>
    </varray>
    <i name="volume">  12319.69761934 </i>
    <varray name="rec_basis" >
     <v>       0.04362788       0.00000000       0.00000000 </v>
     <v>       0.00000000       0.04214593       0.00000000 </v>
     <v>       0.00000000       0.00000000       0.04414486 </v>
    </varray>
   </crystal>
   <varray name="positions" >
    <v>       0.48320769       0.47760149       0.52000783 </v>
    <v>       0.57184242       0.44093487       0.56292303 </v>
    <v>       0.41605686       0.52333691       0.46082093 </v>
    <v>       0.45574026       0.57042332       0.54548014 </v>
    <v>       0.48774633       0.47039748       0.41610701 </v>
    <v>       0.50893423       0.55946799       0.45825076 </v>
    <v>       0.55981130       0.54607401       0.55999924 </v>
    <v>       0.52823765       0.38889073       0.47724394 </v>
    <v>       0.42723918       0.62580827       0.45953349 </v>
    <v>       0.58927216       0.48423870       0.46260904 </v>
   </varray>
  </structure>
  <varray name="forces" >
   <v>       0.40953420      -0.34837159       0.09625714 </v>
   <v>      -0.41088912       0.38507539      -0.53037126 </v>
   <v>      -0.22474730      -0.02897868      -0.21649026 </v>
   <v>       0.15170469      -0.01257901       0.10145980 </v>
   <v>       0.07627823      -0.18276521       0.18908978 </v>
   <v>       0.25567776      -0.17309724       0.00545525 </v>
   <v>       0.04752903      -0.06162638       0.22563214 </v>
   <v>      -0.08752977       0.24199417       0.09269213 </v>
   <v>      -0.17347031       0.19215589      -0.01650791 </v>
   <v>      -0.04408740      -0.01180734       0.05278319 </v>
  </varray>
  <energy>
   <i name="e_fr_energy">    -37.26804080 </i>
   <i name="e_wo_entrp">    -37.20338441 </i>
   <i name="e_0_energy">    -37.24648867 </i>
  </energy>
  <time name="totalsc">  256.31  256.67</time>
 </calculation>
 <calculation>
  <scstep>
   <time name="dav">    4.90    4.90</time>
   <time name="total">    8.06    8.07</time>
   <energy>
    <i name="alphaZ">      4.59992870 </i>
    <i name="ewald">  12797.31727287 </i>
    <i name="hartreedc"> -21861.41297598 </i>
    <i name="XCdc">     60.43321344 </i>
    <i name="pawpsdc">  10116.77811453 </i>
    <i name="pawaedc"> -10280.09935039 </i>
    <i name="eentropy">     -0.06136265 </i>
    <i name="bandstr">   -579.79789155 </i>
    <i name="atom">   9704.95859309 </i>
    <i name="e_fr_energy">    -37.28445793 </i>
    <i name="e_wo_entrp">    -37.22309529 </i>
    <i name="e_0_energy">    -37.26400372 </i>
   </energy>
  </scstep>
  <scstep>
   <time name="dav">    5.88    5.89</time>
   <time name="total">    9.00    9.01</time>
   <energy>
    <i name="e_fr_energy">    -38.41663419 </i>
    <i name="e_wo_entrp">    -38.37759215 </i>
    <i name="e_0_energy">    -38.40362018 </i>
   </energy>
  </scstep>
  <scstep>
   <time name="dav">    5.93    5.93</time>
   <time name="total">    9.07    9.08</time>
   <energy>
    <i name="e_fr_energy">    -37.30889289 </i>
    <i name="e_wo_entrp">    -37.25474594 </i>
    <i name="e_0_energy">    -37.29084391 </i>
   </energy>
  </scstep>
  <scstep>
   <time name="dav">    6.59    6.60</time>
   <time name="total">    9.72    9.74</time>
   <energy>
    <i name="e_fr_energy">    -37.31819935 </i>
    <i name="e_wo_entrp">    -37.26290284 </i>
    <i name="e_0_energy">    -37.29976718 </i>
   </energy>
  </scstep>
  <scstep>
   <time name="dav">    6.20    6.20</time>
   <time name="total">    9.33    9.35</time>
   <energy>
    <i name="e_fr_energy">    -37.32206173 </i>
    <i name="e_wo_entrp">    -37.26218167 </i>
    <i name="e_0_energy">    -37.30210171 </i>
   </energy>
  </scstep>
  <scstep>
   <time name="dav">    6.21    6.22</time>
   <time name="total">    9.35    9.37</time>
   <energy>
    <i name="e_fr_energy">    -37.33096773 </i>
    <i name="e_wo_entrp">    -37.26769577 </i>
    <i name="e_0_energy">    -37.30987707 </i>
   </energy>
  </scstep>
  <scstep>
   <time name="dav">    5.89    5.90</time>
   <time name="total">    9.05    9.07</time>
   <energy>
    <i name="e_fr_energy">    -37.31724259 </i>
    <i name="e_wo_entrp">    -37.25668364 </i>
    <i name="e_0_energy">    -37.29705627 </i>
   </energy>
  </scstep>
  <scstep>
   <time name="dav">    6.54    6.55</time>
   <time name="total">    9.71    9.72</time>
   <energy>
    <i name="e_fr_energy">    -37.32006793 </i>
    <i name="e_wo_entrp">    -37.26075699 </i>
    <i name="e_0_energy">    -37.30029762 </i>
   </energy>
  </scstep>
  <scstep>
   <time name="dav">    6.11    6.12</time>
   <time name="total">    9.28    9.29</time>
   <energy>
    <i name="e_fr_energy">    -37.32285074 </i>
    <i name="e_wo_entrp">    -37.25960686 </i>
    <i name="e_0_energy">    -37.30176945 </i>
   </energy>
  </scstep>
  <scstep>
   <time name="dav">    6.00    6.01</time>
   <time name="total">    9.19    9.21</time>
   <energy>
    <i name="e_fr_energy">    -37.31921591 </i>
    <i name="e_wo_entrp">    -37.25996239 </i>
    <i name="e_0_energy">    -37.29946473 </i>
   </energy>
  </scstep>
  <scstep>
   <time name="dav">    6.44    6.45</time>
   <time name="total">    9.63    9.65</time>
   <energy>
    <i name="e_fr_energy">    -37.32332604 </i>
    <i name="e_wo_entrp">    -37.26482307 </i>
    <i name="e_0_energy">    -37.30382505 </i>
   </energy>
  </scstep>
  <scstep>
   <time name="dav">    6.23    6.24</time>
   <time name="total">    9.43    9.44</time>
   <energy>
    <i name="e_fr_energy">    -37.32141915 </i>
    <i name="e_wo_entrp">    -37.26138913 </i>
    <i name="e_0_energy">    -37.30140914 </i>
   </energy>
  </scstep>
  <scstep>
   <time name="dav">    4.07    4.07</time>
   <time name="total">    7.27    7.28</time>
   <energy>
    <i name="e_fr_energy">    -37.32200711 </i>
    <i name="e_wo_entrp">    -37.26180332 </i>
    <i name="e_0_energy">    -37.30193918 </i>
   </energy>
  </scstep>
  <scstep>
   <time name="dav">    4.20    4.21</time>
   <time name="total">    7.43    7.44</time>
   <energy>
    <i name="e_fr_energy">    -37.32268233 </i>
    <i name="e_wo_entrp">    -37.26292778 </i>
    <i name="e_0_energy">    -37.30276415 </i>
   </energy>
  </scstep>
  <scstep>
   <time name="dav">    3.96    3.97</time>
   <time name="total">    7.20    7.21</time>
   <energy>
    <i name="e_fr_energy">    -37.32298016 </i>
    <i name="e_wo_entrp">    -37.26317403 </i>
    <i name="e_0_energy">    -37.30304478 </i>
   </energy>
  </scstep>
  <scstep>
   <time name="dav">    3.79    3.79</time>
   <time name="total">    7.03    7.04</time>
   <energy>
    <i name="e_fr_energy">    -37.32311887 </i>
    <i name="e_wo_entrp">    -37.26330383 </i>
    <i name="e_0_energy">    -37.30318052 </i>
   </energy>
  </scstep>
  <scstep>
   <time name="dav">    3.80    3.81</time>
   <time name="total">    7.04    7.05</time>
   <energy>
    <i name="e_fr_energy">    -37.32322847 </i>
    <i name="e_wo_entrp">    -37.26344806 </i>
    <i name="e_0_energy">    -37.30330166 </i>
   </energy>
  </scstep>
  <scstep>
   <time name="dav">    3.78    3.79</time>
   <time name="total">    7.04    7.05</time>
   <energy>
    <i name="e_fr_energy">    -37.32338280 </i>
    <i name="e_wo_entrp">    -37.26359695 </i>
    <i name="e_0_energy">    -37.30345419 </i>
   </energy>
  </scstep>
  <scstep>
   <time name="dav">    3.89    3.89</time>
   <time name="total">    6.36    6.37</time>
   <energy>
    <i name="alphaZ">      4.59992870 </i>
    <i name="ewald">  12797.31727287 </i>
    <i name="hartreedc"> -21860.21933335 </i>
    <i name="XCdc">     60.39674796 </i>
    <i name="pawpsdc">  10135.77631502 </i>
    <i name="pawaedc"> -10299.30203727 </i>
    <i name="eentropy">     -0.05975749 </i>
    <i name="bandstr">   -580.79120752 </i>
    <i name="atom">   9704.95859309 </i>
    <i name="e_fr_energy">    -37.32347800 </i>
    <i name="e_wo_entrp">    -37.26372051 </i>
    <i name="e_0_energy">    -37.30355884 </i>
   </energy>
  </scstep>
  <structure>
   <crystal>
    <varray name="basis" >
     <v>      22.92112448       0.00000000       0.00000000 </v>
     <v>       0.00000000      23.72708119       0.00000000 </v>
     <v>       0.00000000       0.00000000      22.65269160 </v>
    </varray>
    <i name="volume">  12319.69761934 </i>
    <varray name="rec_basis" >
     <v>       0.04362788       0.00000000       0.00000000 </v>
     <v>       0.00000000       0.04214593       0.00000000 </v>
     <v>       0.00000000       0.00000000       0.04414486 </v>
    </varray>
   </crystal>
   <varray name="positions" >
    <v>       0.48408498       0.47685543       0.52013379 </v>
    <v>       0.57057135       0.44206598       0.56139743 </v>
    <v>       0.41608672       0.52315710       0.46034758 </v>
    <v>       0.45634570       0.57013188       0.54539633 </v>
    <v>       0.48771151       0.47020241       0.41691241 </v>
    <v>       0.50918098       0.55881194       0.45835451 </v>
    <v>       0.55988882       0.54612195       0.56099228 </v>
    <v>       0.52784832       0.38917548       0.47752307 </v>
    <v>       0.42677491       0.62633024       0.45950285 </v>
    <v>       0.58959480       0.48432135       0.46241515 </v>
   </varray>
  </structure>
  <varray name="forces" >
   <v>       0.07523751      -0.06510357       0.04830789 </v>
   <v>      -0.16408304       0.21828093      -0.23883591 </v>
   <v>      -0.19304124       0.06564085      -0.10550163 </v>
   <v>       0.07525870       0.00115204       0.00586896 </v>
   <v>       0.07367058      -0.21397619       0.05157917 </v>
   <v>       0.16733988      -0.01747333       0.02992282 </v>
   <v>       0.07305762       0.02737773       0.16018979 </v>
   <v>      -0.06328931       0.00423822      -0.02880215 </v>
   <v>      -0.04587091      -0.05213289       0.06465724 </v>
   <v>       0.00172023       0.03199620       0.01261382 </v>
  </varray>
  <energy>
   <i name="e_fr_energy">    -37.32347800 </i>
   <i name="e_wo_entrp">    -37.26372051 </i>
   <i name="e_0_energy">    -37.30355884 </i>
  </energy>
  <time name="totalsc">  169.55  169.79</time>
 </calculation>
 <calculation>
  <scstep>
   <time name="dav">    4.91    4.92</time>
   <time name="total">    8.06    8.07</time>
   <energy>
    <i name="alphaZ">      4.59992870 </i>
    <i name="ewald">  12829.89873865 </i>
    <i name="hartreedc"> -21892.39516354 </i>
    <i name="XCdc">     60.47700473 </i>
    <i name="pawpsdc">  10135.75512794 </i>
    <i name="pawaedc"> -10299.27970722 </i>
    <i name="eentropy">     -0.05866522 </i>
    <i name="bandstr">   -581.27246873 </i>
    <i name="atom">   9704.95859309 </i>
    <i name="e_fr_energy">    -37.31661160 </i>
    <i name="e_wo_entrp">    -37.25794638 </i>
    <i name="e_0_energy">    -37.29705653 </i>
   </energy>
  </scstep>
  <scstep>
   <time name="dav">    5.99    5.99</time>
   <time name="total">    9.08    9.09</time>
   <energy>
    <i name="e_fr_energy">    -37.75333317 </i>
    <i name="e_wo_entrp">    -37.72642311 </i>
    <i name="e_0_energy">    -37.74436315 </i>
   </energy>
  </scstep>
  <scstep>
   <time name="dav">    5.89    5.89</time>
   <time name="total">    9.03    9.04</time>
   <energy>
    <i name="e_fr_energy">    -37.27982155 </i>
    <i name="e_wo_entrp">    -37.22549523 </i>
    <i name="e_0_energy">    -37.26171278 </i>
   </energy>
  </scstep>
  <scstep>
   <time name="dav">    6.63    6.64</time>
   <time name="total">    9.76    9.77</time>
   <energy>
    <i name="e_fr_energy">    -37.32634554 </i>
    <i name="e_wo_entrp">    -37.26952268 </i>
    <i name="e_0_energy">    -37.30740459 </i>
   </energy>
  </scstep>
  <scstep>
   <time name="dav">    6.24    6.24</time>
   <time name="total">    9.37    9.38</time>
   <energy>
    <i name="e_fr_energy">    -37.33288103 </i>
    <i name="e_wo_entrp">    -37.27707101 </i>
    <i name="e_0_energy">    -37.31427769 </i>
   </energy>
  </scstep>
  <scstep>
   <time name="dav">    6.09    6.10</time>
   <time name="total">    9.23    9.24</time>
   <energy>
    <i name="e_fr_energy">    -37.33079127 </i>
    <i name="e_wo_entrp">    -37.27450642 </i>
    <i name="e_0_energy">    -37.31202966 </i>
   </energy>
  </scstep>
  <scstep>
   <time name="dav">    6.31    6.32</time>
   <time name="total">    9.46    9.47</time>
   <energy>
    <i name="e_fr_energy">    -37.32846853 </i>
    <i name="e_wo_entrp">    -37.27127666 </i>
    <i name="e_0_energy">    -37.30940457 </i>
   </energy>
  </scstep>
  <scstep>
   <time name="dav">    6.52    6.52</time>
   <time name="total">    9.67    9.68</time>
   <energy>
    <i name="e_fr_energy">    -37.33085417 </i>
    <i name="e_wo_entrp">    -37.27401465 </i>
    <i name="e_0_energy">    -37.31190766 </i>
   </energy>
  </scstep>
  <scstep>
   <time name="dav">    6.22    6.23</time>
   <time name="total">    9.39    9.40</time>
   <energy>
    <i name="e_fr_energy">    -37.33118563 </i>
    <i name="e_wo_entrp">    -37.27700615 </i>
    <i name="e_0_energy">    -37.31312580 </i>
   </energy>
  </scstep>
  <scstep>
   <time name="dav">    6.21    6.21</time>
   <time name="total">    9.39    9.41</time>
   <energy>
    <i name="e_fr_energy">    -37.32929371 </i>
    <i name="e_wo_entrp">    -37.27302361 </i>
    <i name="e_0_energy">    -37.31053701 </i>
   </energy>
  </scstep>
  <scstep>
   <time name="dav">    5.47    5.47</time>
   <time name="total">    8.65    8.67</time>
   <energy>
    <i name="e_fr_energy">    -37.33136544 </i>
    <i name="e_wo_entrp">    -37.27399788 </i>
    <i name="e_0_energy">    -37.31224292 </i>
   </energy>
  </scstep>
  <scstep>
   <time name="dav">    4.84    4.84</time>
   <time name="total">    8.04    8.06</time>
   <energy>
    <i name="e_fr_energy">    -37.33093736 </i>
    <i name="e_wo_entrp">    -37.27438458 </i>
    <i name="e_0_energy">    -37.31208644 </i>
   </energy>
  </scstep>
  <scstep>
   <time name="dav">    3.97    3.97</time>
   <time name="total">    7.17    7.18</time>
   <energy>
    <i name="e_fr_energy">    -37.33104197 </i>
    <i name="e_wo_entrp">    -37.27444744 </i>
    <i name="e_0_energy">    -37.31217713 </i>
   </energy>
  </scstep>
  <scstep>
   <time name="dav">    3.78    3.79</time>
   <time name="total">    7.00    7.01</time>
   <energy>
    <i name="e_fr_energy">    -37.33141803 </i>
    <i name="e_wo_entrp">    -37.27503617 </i>
    <i name="e_0_energy">    -37.31262408 </i>
   </energy>
  </scstep>
  <scstep>
   <time name="dav">    3.68    3.68</time>
   <time name="total">    6.89    6.90</time>
   <energy>
    <i name="e_fr_energy">    -37.33157675 </i>
    <i name="e_wo_entrp">    -37.27515499 </i>
    <i name="e_0_energy">    -37.31276950 </i>
   </energy>
  </scstep>
  <scstep>
   <time name="dav">    3.86    3.87</time>
   <time name="total">    6.35    6.36</time>
   <energy>
    <i name="alphaZ">      4.59992870 </i>
    <i name="ewald">  12829.89873865 </i>
    <i name="hartreedc"> -21891.64020110 </i>
    <i name="XCdc">     60.45773020 </i>
    <i name="pawpsdc">  10150.09769574 </i>
    <i name="pawaedc"> -10313.78562772 </i>
    <i name="eentropy">     -0.05646651 </i>
    <i name="bandstr">   -581.86204002 </i>
    <i name="atom">   9704.95859309 </i>
    <i name="e_fr_energy">    -37.33164897 </i>
    <i name="e_wo_entrp">    -37.27518247 </i>
    <i name="e_0_energy">    -37.31282680 </i>
   </energy>
  </scstep>
  <structure>
   <crystal>
    <varray name="basis" >
     <v>      22.92112448       0.00000000       0.00000000 </v>
     <v>       0.00000000      23.72708119       0.00000000 </v>
     <v>       0.00000000       0.00000000      22.65269160 </v>
    </varray>
    <i name="volume">  12319.69761934 </i>
    <varray name="rec_basis" >
     <v>       0.04362788       0.00000000       0.00000000 </v>
     <v>       0.00000000       0.04214593       0.00000000 </v>
     <v>       0.00000000       0.00000000       0.04414486 </v>
    </varray>
   </crystal>
   <varray name="positions" >
    <v>       0.48463114       0.47639097       0.52021221 </v>
    <v>       0.56978003       0.44277016       0.56044765 </v>
    <v>       0.41610531       0.52304516       0.46005290 </v>
    <v>       0.45672262       0.56995044       0.54534416 </v>
    <v>       0.48768982       0.47008097       0.41741382 </v>
    <v>       0.50933459       0.55840351       0.45841910 </v>
    <v>       0.55993707       0.54615179       0.56161050 </v>
    <v>       0.52760595       0.38935275       0.47769684 </v>
    <v>       0.42648587       0.62665520       0.45948377 </v>
    <v>       0.58979566       0.48437281       0.46229444 </v>
   </varray>
  </structure>
  <varray name="forces" >
   <v>      -0.17995345       0.13182454       0.00859734 </v>
   <v>       0.03916321       0.09061144      -0.01750499 </v>
   <v>      -0.18353201       0.12760208      -0.04313952 </v>
   <v>       0.02209588       0.01198515      -0.05279115 </v>
   <v>       0.07363522      -0.23309472      -0.04195601 </v>
   <v>       0.12239626       0.07266360       0.04563888 </v>
   <v>       0.09295019       0.09333888       0.12771070 </v>
   <v>      -0.04844493      -0.16415269      -0.11517325 </v>
   <v>       0.02600457      -0.19156870       0.11164231 </v>
   <v>       0.03568506       0.06079041      -0.02302431 </v>
  </varray>
  <energy>
   <i name="e_fr_energy">    -37.33164897 </i>
   <i name="e_wo_entrp">    -37.27518247 </i>
   <i name="e_0_energy">    -37.31282680 </i>
  </energy>
  <time name="totalsc">  145.89  146.08</time>
 </calculation>
 <calculation>
  <scstep>
   <time name="dav">    4.90    4.90</time>
   <time name="total">    8.05    8.07</time>
   <energy>
    <i name="alphaZ">      4.59992870 </i>
    <i name="ewald">  12812.68814336 </i>
    <i name="hartreedc"> -21874.91403412 </i>
    <i name="XCdc">     60.41234841 </i>
    <i name="pawpsdc">  10150.08452894 </i>
    <i name="pawaedc"> -10313.77257542 </i>
    <i name="eentropy">     -0.05599126 </i>
    <i name="bandstr">   -581.33355010 </i>
    <i name="atom">   9704.95859309 </i>
    <i name="e_fr_energy">    -37.33260841 </i>
    <i name="e_wo_entrp">    -37.27661715 </i>
    <i name="e_0_energy">    -37.31394466 </i>
   </energy>
  </scstep>
  <scstep>
   <time name="dav">    6.31    6.32</time>
   <time name="total">    9.43    9.44</time>
   <energy>
    <i name="e_fr_energy">    -37.59191305 </i>
    <i name="e_wo_entrp">    -37.56112605 </i>
    <i name="e_0_energy">    -37.58165072 </i>
   </energy>
  </scstep>
  <scstep>
   <time name="dav">    5.78    5.78</time>
   <time name="total">    8.93    8.94</time>
   <energy>
    <i name="e_fr_energy">    -37.29523355 </i>
    <i name="e_wo_entrp">    -37.24271839 </i>
    <i name="e_0_energy">    -37.27772850 </i>
   </energy>
  </scstep>
  <scstep>
   <time name="dav">    6.52    6.53</time>
   <time name="total">    9.67    9.68</time>
   <energy>
    <i name="e_fr_energy">    -37.34320604 </i>
    <i name="e_wo_entrp">    -37.28719991 </i>
    <i name="e_0_energy">    -37.32453733 </i>
   </energy>
  </scstep>
  <scstep>
   <time name="dav">    6.10    6.10</time>
   <time name="total">    9.24    9.25</time>
   <energy>
    <i name="e_fr_energy">    -37.34853893 </i>
    <i name="e_wo_entrp">    -37.29475039 </i>
    <i name="e_0_energy">    -37.33060941 </i>
   </energy>
  </scstep>
  <scstep>
   <time name="dav">    5.80    5.80</time>
   <time name="total">    8.95    8.96</time>
   <energy>
    <i name="e_fr_energy">    -37.34579139 </i>
    <i name="e_wo_entrp">    -37.29345553 </i>
    <i name="e_0_energy">    -37.32834610 </i>
   </energy>
  </scstep>
  <scstep>
   <time name="dav">    5.91    5.91</time>
   <time name="total">    9.07    9.08</time>
   <energy>
    <i name="e_fr_energy">    -37.34389507 </i>
    <i name="e_wo_entrp">    -37.29009508 </i>
    <i name="e_0_energy">    -37.32596174 </i>
   </energy>
  </scstep>
  <scstep>
   <time name="dav">    6.72    6.73</time>
   <time name="total">    9.90    9.91</time>
   <energy>
    <i name="e_fr_energy">    -37.34601885 </i>
    <i name="e_wo_entrp">    -37.29136407 </i>
    <i name="e_0_energy">    -37.32780059 </i>
   </energy>
  </scstep>
  <scstep>
   <time name="dav">    6.11    6.12</time>
   <time name="total">    9.29    9.31</time>
   <energy>
    <i name="e_fr_energy">    -37.34536834 </i>
    <i name="e_wo_entrp">    -37.29244249 </i>
    <i name="e_0_energy">    -37.32772639 </i>
   </energy>
  </scstep>
  <scstep>
   <time name="dav">    5.47    5.47</time>
   <time name="total">    8.66    8.67</time>
   <energy>
    <i name="e_fr_energy">    -37.34554730 </i>
    <i name="e_wo_entrp">    -37.29269750 </i>
    <i name="e_0_energy">    -37.32793070 </i>
   </energy>
  </scstep>
  <scstep>
   <time name="dav">    4.96    4.97</time>
   <time name="total">    8.16    8.17</time>
   <energy>
    <i name="e_fr_energy">    -37.34650755 </i>
    <i name="e_wo_entrp">    -37.29444081 </i>
    <i name="e_0_energy">    -37.32915197 </i>
   </energy>
  </scstep>
  <scstep>
   <time name="dav">    4.17    4.18</time>
   <time name="total">    7.37    7.38</time>
   <energy>
    <i name="e_fr_energy">    -37.34606186 </i>
    <i name="e_wo_entrp">    -37.29283796 </i>
    <i name="e_0_energy">    -37.32832056 </i>
   </energy>
  </scstep>
  <scstep>
   <time name="dav">    3.86    3.86</time>
   <time name="total">    7.07    7.08</time>
   <energy>
    <i name="e_fr_energy">    -37.34633022 </i>
    <i name="e_wo_entrp">    -37.29319510 </i>
    <i name="e_0_energy">    -37.32861851 </i>
   </energy>
  </scstep>
  <scstep>
   <time name="dav">    3.73    3.74</time>
   <time name="total">    6.94    6.95</time>
   <energy>
    <i name="e_fr_energy">    -37.34651978 </i>
    <i name="e_wo_entrp">    -37.29353796 </i>
    <i name="e_0_energy">    -37.32885918 </i>
   </energy>
  </scstep>
  <scstep>
   <time name="dav">    3.66    3.66</time>
   <time name="total">    6.15    6.16</time>
   <energy>
    <i name="alphaZ">      4.59992870 </i>
    <i name="ewald">  12812.68814336 </i>
    <i name="hartreedc"> -21874.58011767 </i>
    <i name="XCdc">     60.41781883 </i>
    <i name="pawpsdc">  10141.56626304 </i>
    <i name="pawaedc"> -10305.17049557 </i>
    <i name="eentropy">     -0.05285215 </i>
    <i name="bandstr">   -581.77388248 </i>
    <i name="atom">   9704.95859309 </i>
    <i name="e_fr_energy">    -37.34660084 </i>
    <i name="e_wo_entrp">    -37.29374869 </i>
    <i name="e_0_energy">    -37.32898346 </i>
   </energy>
  </scstep>
  <structure>
   <crystal>
    <varray name="basis" >
     <v>      22.92112448       0.00000000       0.00000000 </v>
     <v>       0.00000000      23.72708119       0.00000000 </v>
     <v>       0.00000000       0.00000000      22.65269160 </v>
    </varray>
    <i name="volume">  12319.69761934 </i>
    <varray name="rec_basis" >
     <v>       0.04362788       0.00000000       0.00000000 </v>
     <v>       0.00000000       0.04214593       0.00000000 </v>
     <v>       0.00000000       0.00000000       0.04414486 </v>
    </varray>
   </crystal>
   <varray name="positions" >
    <v>       0.48439453       0.47652000       0.52027529 </v>
    <v>       0.56950021       0.44336310       0.55992992 </v>
    <v>       0.41559870       0.52333642       0.45978504 </v>
    <v>       0.45697042       0.56989359       0.54516834 </v>
    <v>       0.48788607       0.46938834       0.41754156 </v>
    <v>       0.50975424       0.55839954       0.45858070 </v>
    <v>       0.56022206       0.54641988       0.56227825 </v>
    <v>       0.52735039       0.38899446       0.47745496 </v>
    <v>       0.42641654       0.62629524       0.45979183 </v>
    <v>       0.58999491       0.48456319       0.46216950 </v>
[...]
       <r>    -1.6782     6.7947    58.9625 </r>
       <r>    -1.6331     6.8108    59.2693 </r>
       <r>    -1.5881     6.0190    59.5404 </r>
       <r>    -1.5430     4.6919    59.7517 </r>
       <r>    -1.4980     3.2928    59.9000 </r>
       <r>    -1.4530     2.3064    60.0039 </r>
       <r>    -1.4079     2.0318    60.0954 </r>
       <r>    -1.3629     2.4357    60.2051 </r>
       <r>    -1.3179     3.1601    60.3474 </r>
       <r>    -1.2728     3.7052    60.5143 </r>
       <r>    -1.2278     3.6977    60.6808 </r>
       <r>    -1.1827     3.0898    60.8200 </r>
       <r>    -1.1377     2.1752    60.9180 </r>
       <r>    -1.0927     1.4163    60.9818 </r>
       <r>    -1.0476     1.1927    61.0355 </r>
       <r>    -1.0026     1.6085    61.1079 </r>
       <r>    -0.9575     2.4534    61.2184 </r>
       <r>    -0.9125     3.3345    61.3686 </r>
       <r>    -0.8675     3.9043    61.5444 </r>
       <r>    -0.8224     4.0501    61.7269 </r>
       <r>    -0.7774     3.9224    61.9035 </r>
       <r>    -0.7323     3.7929    62.0743 </r>
       <r>    -0.6873     3.8683    62.2486 </r>
       <r>    -0.6423     4.2141    62.4384 </r>
       <r>    -0.5972     4.8153    62.6552 </r>
       <r>    -0.5522     5.6541    62.9099 </r>
       <r>    -0.5072     6.6772    63.2106 </r>
       <r>    -0.4621     7.6845    63.5567 </r>
       <r>    -0.4171     8.2997    63.9305 </r>
       <r>    -0.3720     8.1303    64.2967 </r>
       <r>    -0.3270     7.0230    64.6130 </r>
       <r>    -0.2820     5.2023    64.8473 </r>
       <r>    -0.2369     3.1677    64.9900 </r>
       <r>    -0.1919     1.4286    65.0543 </r>
       <r>    -0.1468     0.2746    65.0667 </r>
       <r>    -0.1018    -0.2843    65.0539 </r>
       <r>    -0.0568    -0.4211    65.0349 </r>
       <r>    -0.0117    -0.3485    65.0192 </r>
       <r>     0.0333    -0.2223    65.0092 </r>
       <r>     0.0783    -0.1182    65.0039 </r>
       <r>     0.1234    -0.0541    65.0015 </r>
       <r>     0.1684    -0.0217    65.0005 </r>
       <r>     0.2135    -0.0077    65.0001 </r>
       <r>     0.2585    -0.0024    65.0000 </r>
       <r>     0.3035    -0.0007    65.0000 </r>
       <r>     0.3486    -0.0002    65.0000 </r>
       <r>     0.3936    -0.0000    65.0000 </r>
       <r>     0.4387    -0.0000    65.0000 </r>
       <r>     0.4837    -0.0000    65.0000 </r>
       <r>     0.5287    -0.0000    65.0000 </r>
       <r>     0.5738    -0.0000    65.0000 </r>
       <r>     0.6188    -0.0000    65.0000 </r>
       <r>     0.6638    -0.0000    65.0000 </r>
       <r>     0.7089    -0.0000    65.0000 </r>
       <r>     0.7539    -0.0000    65.0000 </r>
       <r>     0.7990    -0.0000    65.0000 </r>
       <r>     0.8440    -0.0000    65.0000 </r>
       <r>     0.8890    -0.0000    65.0000 </r>
       <r>     0.9341     0.0000    65.0000 </r>
       <r>     0.9791     0.0000    65.0000 </r>
       <r>     1.0242     0.0000    65.0000 </r>
       <r>     1.0692     0.0000    65.0000 </r>
       <r>     1.1142     0.0000    65.0000 </r>
       <r>     1.1593     0.0000    65.0000 </r>
       <r>     1.2043     0.0000    65.0000 </r>
       <r>     1.2494     0.0000    65.0000 </r>
       <r>     1.2944     0.0000    65.0000 </r>
       <r>     1.3394     0.0000    65.0000 </r>
       <r>     1.3845     0.0000    65.0000 </r>
       <r>     1.4295     0.0000    65.0000 </r>
       <r>     1.4745     0.0000    65.0000 </r>
       <r>     1.5196     0.0000    65.0000 </r>
       <r>     1.5646     0.0000    65.0000 </r>
       <r>     1.6097     0.0000    65.0000 </r>
       <r>     1.6547     0.0000    65.0000 </r>
       <r>     1.6997     0.0000    65.0000 </r>
       <r>     1.7448     0.0000    65.0000 </r>
       <r>     1.7898     0.0000    65.0000 </r>
       <r>     1.8349     0.0000    65.0000 </r>
      </set>
      <set comment="spin 2">
       <r>   -11.6768     0.0000     0.0000 </r>
       <r>   -11.6317     0.0000     0.0000 </r>
       <r>   -11.5867     0.0000     0.0000 </r>
       <r>   -11.5416     0.0000     0.0000 </r>
       <r>   -11.4966     0.0000     0.0000 </r>
       <r>   -11.4516     0.0000     0.0000 </r>
       <r>   -11.4065     0.0000     0.0000 </r>
       <r>   -11.3615     0.0000     0.0000 </r>
       <r>   -11.3164     0.0000     0.0000 </r>
       <r>   -11.2714     0.0000     0.0000 </r>
       <r>   -11.2264    -0.0000    -0.0000 </r>
       <r>   -11.1813    -0.0000    -0.0000 </r>
       <r>   -11.1363    -0.0000    -0.0000 </r>
       <r>   -11.0913    -0.0000    -0.0000 </r>
       <r>   -11.0462    -0.0000    -0.0000 </r>
       <r>   -11.0012    -0.0000    -0.0000 </r>
       <r>   -10.9561    -0.0000    -0.0000 </r>
       <r>   -10.9111    -0.0000    -0.0000 </r>
       <r>   -10.8661    -0.0000    -0.0000 </r>
       <r>   -10.8210    -0.0000    -0.0000 </r>
       <r>   -10.7760    -0.0000    -0.0000 </r>
       <r>   -10.7309    -0.0000    -0.0000 </r>
       <r>   -10.6859    -0.0000    -0.0000 </r>
       <r>   -10.6409    -0.0000    -0.0000 </r>
       <r>   -10.5958    -0.0000    -0.0000 </r>
       <r>   -10.5508    -0.0000    -0.0000 </r>
       <r>   -10.5057    -0.0000    -0.0000 </r>
       <r>   -10.4607    -0.0000    -0.0000 </r>
       <r>   -10.4157    -0.0000    -0.0000 </r>
       <r>   -10.3706    -0.0000    -0.0000 </r>
       <r>   -10.3256    -0.0001    -0.0000 </r>
       <r>   -10.2806    -0.0002    -0.0000 </r>
       <r>   -10.2355    -0.0009    -0.0001 </r>
       <r>   -10.1905    -0.0031    -0.0002 </r>
       <r>   -10.1454    -0.0092    -0.0006 </r>
       <r>   -10.1004    -0.0241    -0.0017 </r>
       <r>   -10.0554    -0.0550    -0.0042 </r>
       <r>   -10.0103    -0.1078    -0.0090 </r>
       <r>    -9.9653    -0.1766    -0.0170 </r>
       <r>    -9.9202    -0.2255    -0.0271 </r>
       <r>    -9.8752    -0.1728    -0.0349 </r>
       <r>    -9.8302     0.1015    -0.0304 </r>
       <r>    -9.7851     0.7040     0.0014 </r>
       <r>    -9.7401     1.6416     0.0753 </r>
       <r>    -9.6951     2.7502     0.1992 </r>
       <r>    -9.6500     3.7120     0.3663 </r>
       <r>    -9.6050     4.1861     0.5549 </r>
       <r>    -9.5599     3.9880     0.7345 </r>
       <r>    -9.5149     3.1959     0.8784 </r>
       <r>    -9.4699     2.1052     0.9732 </r>
       <r>    -9.4248     1.0647     1.0212 </r>
       <r>    -9.3798     0.3125     1.0353 </r>
       <r>    -9.3347    -0.0912     1.0312 </r>
       <r>    -9.2897    -0.2220     1.0212 </r>
       <r>    -9.2447    -0.2033     1.0120 </r>
       <r>    -9.1996    -0.1361     1.0059 </r>
       <r>    -9.1546    -0.0745     1.0025 </r>
       <r>    -9.1095    -0.0347     1.0010 </r>
       <r>    -9.0645    -0.0141     1.0003 </r>
       <r>    -9.0195    -0.0050     1.0001 </r>
       <r>    -8.9744    -0.0016     1.0000 </r>
       <r>    -8.9294    -0.0004     1.0000 </r>
       <r>    -8.8844    -0.0001     1.0000 </r>
       <r>    -8.8393    -0.0001     1.0000 </r>
       <r>    -8.7943    -0.0003     1.0000 </r>
       <r>    -8.7492    -0.0012     0.9999 </r>
       <r>    -8.7042    -0.0040     0.9997 </r>
       <r>    -8.6592    -0.0116     0.9992 </r>
       <r>    -8.6141    -0.0294     0.9979 </r>
       <r>    -8.5691    -0.0649     0.9950 </r>
       <r>    -8.5240    -0.1227     0.9894 </r>
       <r>    -8.4790    -0.1916     0.9808 </r>
       <r>    -8.4340    -0.2264     0.9706 </r>
       <r>    -8.3889    -0.1345     0.9646 </r>
       <r>    -8.3439     0.2069     0.9739 </r>
       <r>    -8.2989     0.8902     1.0140 </r>
       <r>    -8.2538     1.8869     1.0990 </r>
       <r>    -8.2088     2.9918     1.2337 </r>
       <r>    -8.1637     3.8645     1.4077 </r>
       <r>    -8.1187     4.1799     1.5960 </r>
       <r>    -8.0737     3.8016     1.7672 </r>
       <r>    -8.0286     2.8599     1.8960 </r>
       <r>    -7.9836     1.6813     1.9718 </r>
       <r>    -7.9385     0.6301     2.0001 </r>
       <r>    -7.8935    -0.0244     1.9990 </r>
       <r>    -7.8485    -0.1521     1.9922 </r>
       <r>    -7.8034     0.2534     2.0036 </r>
       <r>    -7.7584     1.0888     2.0526 </r>
       <r>    -7.7133     2.1454     2.1493 </r>
       <r>    -7.6683     3.1535     2.2913 </r>
       <r>    -7.6233     3.9016     2.4670 </r>
       <r>    -7.5782     4.3757     2.6641 </r>
       <r>    -7.5332     4.7959     2.8801 </r>
       <r>    -7.4882     5.4821     3.1270 </r>
       <r>    -7.4431     6.6128     3.4248 </r>
       <r>    -7.3981     8.0454     3.7872 </r>
       <r>    -7.3530     9.3309     4.2074 </r>
       <r>    -7.3080     9.9303     4.6547 </r>
       <r>    -7.2630     9.5135     5.0832 </r>
       <r>    -7.2179     8.1731     5.4513 </r>
       <r>    -7.1729     6.4242     5.7406 </r>
       <r>    -7.1278     4.9714     5.9645 </r>
       <r>    -7.0828     4.3595     6.1609 </r>
       <r>    -7.0378     4.7080     6.3729 </r>
       <r>    -6.9927     5.6933     6.6293 </r>
       <r>    -6.9477     6.7854     6.9349 </r>
       <r>    -6.9027     7.5732     7.2760 </r>
       <r>    -6.8576     7.9582     7.6344 </r>
       <r>    -6.8126     8.1048     7.9995 </r>
       <r>    -6.7675     8.2226     8.3698 </r>
       <r>    -6.7225     8.3750     8.7470 </r>
       <r>    -6.6775     8.4625     9.1281 </r>
       <r>    -6.6324     8.3711     9.5052 </r>
       <r>    -6.5874     8.1462     9.8721 </r>
       <r>    -6.5423     8.0480    10.2345 </r>
       <r>    -6.4973     8.4399    10.6147 </r>
       <r>    -6.4523     9.5703    11.0457 </r>
       <r>    -6.4072    11.3695    11.5578 </r>
       <r>    -6.3622    13.3980    12.1612 </r>
       <r>    -6.3171    15.0216    12.8377 </r>
       <r>    -6.2721    15.7495    13.5471 </r>
       <r>    -6.2271    15.5264    14.2464 </r>
       <r>    -6.1820    14.7535    14.9108 </r>
       <r>    -6.1370    13.9992    15.5414 </r>
       <r>    -6.0920    13.6057    16.1541 </r>
       <r>    -6.0469    13.4891    16.7617 </r>
       <r>    -6.0019    13.2685    17.3593 </r>
       <r>    -5.9568    12.5979    17.9267 </r>
       <r>    -5.9118    11.4344    18.4417 </r>
       <r>    -5.8668    10.0628    18.8949 </r>
       <r>    -5.8217     8.9019    19.2958 </r>
       <r>    -5.7767     8.2704    19.6683 </r>
       <r>    -5.7316     8.2777    20.0411 </r>
       <r>    -5.6866     8.8758    20.4409 </r>
       <r>    -5.6416     9.9738    20.8901 </r>
       <r>    -5.5965    11.4828    21.4072 </r>
       <r>    -5.5515    13.2369    22.0034 </r>
       <r>    -5.5065    14.8750    22.6734 </r>
       <r>    -5.4614    15.8434    23.3869 </r>
       <r>    -5.4164    15.6103    24.0900 </r>
       <r>    -5.3713    14.0087    24.7209 </r>
       <r>    -5.3263    11.4759    25.2378 </r>
       <r>    -5.2813     8.9788    25.6422 </r>
       <r>    -5.2362     7.6034    25.9846 </r>
       <r>    -5.1912     8.0097    26.3454 </r>
       <r>    -5.1461    10.0635    26.7986 </r>
       <r>    -5.1011    12.8743    27.3785 </r>
       <r>    -5.0561    15.2426    28.0650 </r>
       <r>    -5.0110    16.2691    28.7977 </r>
       <r>    -4.9660    15.7790    29.5084 </r>
       <r>    -4.9209    14.3274    30.1536 </r>
       <r>    -4.8759    12.8192    30.7310 </r>
       <r>    -4.8309    12.0035    31.2716 </r>
       <r>    -4.7858    12.1545    31.8191 </r>
       <r>    -4.7408    13.0915    32.4087 </r>
       <r>    -4.6958    14.4508    33.0595 </r>
       <r>    -4.6507    15.9612    33.7784 </r>
       <r>    -4.6057    17.5169    34.5673 </r>
       <r>    -4.5606    19.0371    35.4247 </r>
       <r>    -4.5156    20.3001    36.3390 </r>
       <r>    -4.4706    20.9574    37.2829 </r>
       <r>    -4.4255    20.7601    38.2179 </r>
       <r>    -4.3805    19.8060    39.1100 </r>
       <r>    -4.3354    18.5701    39.9463 </r>
       <r>    -4.2904    17.6523    40.7414 </r>
       <r>    -4.2454    17.4305    41.5264 </r>
       <r>    -4.2003    17.8869    42.3320 </r>
       <r>    -4.1553    18.7145    43.1749 </r>
       <r>    -4.1103    19.5690    44.0563 </r>
       <r>    -4.0652    20.2477    44.9682 </r>
       <r>    -4.0202    20.6908    45.9001 </r>
       <r>    -3.9751    20.8848    46.8407 </r>
       <r>    -3.9301    20.8030    47.7776 </r>
       <r>    -3.8851    20.4301    48.6978 </r>
       <r>    -3.8400    19.8021    49.5897 </r>
       <r>    -3.7950    18.9760    50.4443 </r>
       <r>    -3.7499    17.9364    51.2521 </r>
       <r>    -3.7049    16.5401    51.9971 </r>
       <r>    -3.6599    14.5848    52.6540 </r>
       <r>    -3.6148    11.9808    53.1936 </r>
       <r>    -3.5698     8.9016    53.5945 </r>
       <r>    -3.5247     5.7947    53.8555 </r>
       <r>    -3.4797     3.2307    54.0010 </r>
       <r>    -3.4347     1.6712    54.0762 </r>
       <r>    -3.3896     1.2734    54.1336 </r>
       <r>    -3.3446     1.8190    54.2155 </r>
       <r>    -3.2996     2.7976    54.3415 </r>
       <r>    -3.2545     3.6156    54.5044 </r>
       <r>    -3.2095     3.8403    54.6773 </r>
       <r>    -3.1644     3.3592    54.8286 </r>
       <r>    -3.1194     2.3743    54.9355 </r>
       <r>    -3.0744     1.2507    54.9919 </r>
       <r>    -3.0293     0.3326    55.0069 </r>
       <r>    -2.9843    -0.1605    54.9996 </r>
       <r>    -2.9392    -0.1362    54.9935 </r>
       <r>    -2.8942     0.4051    55.0117 </r>
       <r>    -2.8492     1.3701    55.0734 </r>
       <r>    -2.8041     2.5403    55.1879 </r>
       <r>    -2.7591     3.5786    55.3490 </r>
       <r>    -2.7141     4.1321    55.5351 </r>
       <r>    -2.6690     3.9931    55.7150 </r>
       <r>    -2.6240     3.2098    55.8595 </r>
       <r>    -2.5789     2.0588    55.9523 </r>
       <r>    -2.5339     0.9034    55.9930 </r>
       <r>    -2.4889     0.0468    55.9951 </r>
       <r>    -2.4438    -0.3266    55.9804 </r>
       <r>    -2.3988    -0.1260    55.9747 </r>
       <r>    -2.3537     0.6802    56.0053 </r>
       <r>    -2.3087     2.0441    56.0974 </r>
       <r>    -2.2637     3.7775    56.2675 </r>
       <r>    -2.2186     5.5279    56.5165 </r>
       <r>    -2.1736     6.8497    56.8250 </r>
       <r>    -2.1285     7.3618    57.1566 </r>
       <r>    -2.0835     6.9094    57.4677 </r>
       <r>    -2.0385     5.6334    57.7215 </r>
       <r>    -1.9934     3.9050    57.8973 </r>
       <r>    -1.9484     2.1615    57.9947 </r>
       <r>    -1.9034     0.7402    58.0280 </r>
       <r>    -1.8583    -0.1986    58.0191 </r>
       <r>    -1.8133    -0.6306    57.9907 </r>
       <r>    -1.7682    -0.5606    57.9654 </r>
       <r>    -1.7232     0.0510    57.9677 </r>
       <r>    -1.6782     1.2585    58.0244 </r>
       <r>    -1.6331     3.0067    58.1598 </r>
       <r>    -1.5881     5.0114    58.3855 </r>
       <r>    -1.5430     6.7629    58.6901 </r>
       <r>    -1.4980     7.7036    59.0371 </r>
       <r>    -1.4530     7.4970    59.3748 </r>
       <r>    -1.4079     6.2233    59.6550 </r>
       <r>    -1.3629     4.3708    59.8519 </r>
       <r>    -1.3179     2.6220    59.9700 </r>
       <r>    -1.2728     1.5552    60.0400 </r>
       <r>    -1.2278     1.4122    60.1036 </r>
       <r>    -1.1827     2.0275    60.1949 </r>
       <r>    -1.1377     2.9351    60.3271 </r>
       <r>    -1.0927     3.6063    60.4896 </r>
       <r>    -1.0476     3.7136    60.6568 </r>
       <r>    -1.0026     3.2899    60.8050 </r>
       <r>    -0.9575     2.6835    60.9259 </r>
       <r>    -0.9125     2.3260    61.0306 </r>
       <r>    -0.8675     2.4530    61.1411 </r>
       <r>    -0.8224     2.9638    61.2746 </r>
       <r>    -0.7774     3.5135    61.4328 </r>
       <r>    -0.7323     3.7723    61.6027 </r>
       <r>    -0.6873     3.6590    61.7675 </r>
       <r>    -0.6423     3.3801    61.9198 </r>
       <r>    -0.5972     3.2555    62.0664 </r>
       <r>    -0.5522     3.4832    62.2233 </r>
       <r>    -0.5072     4.0309    62.4048 </r>
       <r>    -0.4621     4.7158    62.6172 </r>
       <r>    -0.4171     5.3694    62.8590 </r>
       <r>    -0.3720     5.9301    63.1261 </r>
       <r>    -0.3270     6.4023    63.4145 </r>
       <r>    -0.2820     6.7544    63.7187 </r>
       <r>    -0.2369     6.8666    64.0279 </r>
       <r>    -0.1919     6.5778    64.3242 </r>
       <r>    -0.1468     5.7940    64.5851 </r>
       <r>    -0.1018     4.5744    64.7912 </r>
       <r>    -0.0568     3.1359    64.9324 </r>
       <r>    -0.0117     1.7665    65.0120 </r>
       <r>     0.0333     0.7038    65.0437 </r>
       <r>     0.0783     0.0485    65.0458 </r>
       <r>     0.1234    -0.2411    65.0350 </r>
       <r>     0.1684    -0.2887    65.0220 </r>
       <r>     0.2135    -0.2248    65.0119 </r>
       <r>     0.2585    -0.1390    65.0056 </r>
       <r>     0.3035    -0.0724    65.0023 </r>
       <r>     0.3486    -0.0326    65.0009 </r>
       <r>     0.3936    -0.0129    65.0003 </r>
       <r>     0.4387    -0.0045    65.0001 </r>
       <r>     0.4837    -0.0014    65.0000 </r>
       <r>     0.5287    -0.0004    65.0000 </r>
       <r>     0.5738    -0.0001    65.0000 </r>
       <r>     0.6188    -0.0000    65.0000 </r>
       <r>     0.6638    -0.0000    65.0000 </r>
       <r>     0.7089    -0.0000    65.0000 </r>
       <r>     0.7539    -0.0000    65.0000 </r>
       <r>     0.7990    -0.0000    65.0000 </r>
       <r>     0.8440    -0.0000    65.0000 </r>
       <r>     0.8890    -0.0000    65.0000 </r>
       <r>     0.9341    -0.0000    65.0000 </r>
       <r>     0.9791    -0.0000    65.0000 </r>
       <r>     1.0242    -0.0000    65.0000 </r>
       <r>     1.0692    -0.0000    65.0000 </r>
       <r>     1.1142     0.0000    65.0000 </r>
       <r>     1.1593     0.0000    65.0000 </r>
       <r>     1.2043     0.0000    65.0000 </r>
       <r>     1.2494     0.0000    65.0000 </r>
       <r>     1.2944     0.0000    65.0000 </r>
       <r>     1.3394     0.0000    65.0000 </r>
       <r>     1.3845     0.0000    65.0000 </r>
       <r>     1.4295     0.0000    65.0000 </r>
       <r>     1.4745     0.0000    65.0000 </r>
       <r>     1.5196     0.0000    65.0000 </r>
       <r>     1.5646     0.0000    65.0000 </r>
       <r>     1.6097     0.0000    65.0000 </r>
       <r>     1.6547     0.0000    65.0000 </r>
       <r>     1.6997     0.0000    65.0000 </r>
       <r>     1.7448     0.0000    65.0000 </r>
       <r>     1.7898     0.0000    65.0000 </r>
       <r>     1.8349     0.0000    65.0000 </r>
      </set>
     </set>
    </array>
   </total>
  </dos>
 </calculation>
 <structure name="finalpos" >
  <crystal>
   <varray name="basis" >
    <v>      22.92112448       0.00000000       0.00000000 </v>
    <v>       0.00000000      23.72708119       0.00000000 </v>
    <v>       0.00000000       0.00000000      22.65269160 </v>
   </varray>
   <i name="volume">  12319.69761934 </i>
   <varray name="rec_basis" >
    <v>       0.04362788       0.00000000       0.00000000 </v>
    <v>       0.00000000       0.04214593       0.00000000 </v>
    <v>       0.00000000       0.00000000       0.04414486 </v>
   </varray>
  </crystal>
  <varray name="positions" >
   <v>       0.48327176       0.47715432       0.51968385 </v>
   <v>       0.56918159       0.44476778       0.55848381 </v>
   <v>       0.41573146       0.52352492       0.45751463 </v>
   <v>       0.45761222       0.56963755       0.54589068 </v>
   <v>       0.48757127       0.46750815       0.41755166 </v>
   <v>       0.51011575       0.55758809       0.46021738 </v>
   <v>       0.56144172       0.54807764       0.56363616 </v>
   <v>       0.52681515       0.38833234       0.47718224 </v>
   <v>       0.42653995       0.62562451       0.46068939 </v>
   <v>       0.58980720       0.48495847       0.46212560 </v>
  </varray>
 </structure>
</modeling>
