unknown system                          
            1
    22.921124    0.000000    0.000000
     0.000000   23.727081    0.000000
     0.000000    0.000000   22.652692
   Ni   Pd
     6     4
Direct configuration=     1
   0.48435696  0.47685474  0.52093131
   0.57376284  0.43935067  0.56437348
   0.41140568  0.52420062  0.46023833
   0.45396067  0.57247613  0.54815649
   0.48951908  0.46846187  0.41353379
   0.51201820  0.56134071  0.45754340
   0.56013578  0.54452727  0.55667717
   0.52957895  0.39124546  0.47689215
   0.42748103  0.62535163  0.45944616
   0.58586888  0.48336466  0.46518311
Direct configuration=     2
   0.48376357  0.47724030  0.52045450
   0.57277129  0.44016862  0.56362458
   0.41380717  0.52375467  0.46053913
   0.45487950  0.57141622  0.54677464
   0.48860378  0.46946126  0.41486239
   0.51042589  0.56037379  0.45790862
   0.55996825  0.54532588  0.55839242
   0.52888641  0.39002967  0.47707379
   0.42735616  0.62558740  0.45949125
   0.58762606  0.48381594  0.46385407
Direct configuration=     3
   0.48320769  0.47760149  0.52000783
   0.57184242  0.44093487  0.56292303
   0.41605686  0.52333691  0.46082093
   0.45574026  0.57042332  0.54548014
   0.48774633  0.47039748  0.41610701
   0.50893423  0.55946799  0.45825076
   0.55981130  0.54607401  0.55999924
   0.52823765  0.38889073  0.47724394
   0.42723918  0.62580827  0.45953349
   0.58927216  0.48423870  0.46260904
Direct configuration=     4
   0.48408498  0.47685543  0.52013379
   0.57057135  0.44206598  0.56139743
   0.41608672  0.52315710  0.46034758
   0.45634570  0.57013188  0.54539633
   0.48771151  0.47020241  0.41691241
   0.50918098  0.55881194  0.45835451
   0.55988882  0.54612195  0.56099228
   0.52784832  0.38917548  0.47752307
   0.42677491  0.62633024  0.45950285
   0.58959480  0.48432135  0.46241515
Direct configuration=     5
   0.48463114  0.47639097  0.52021221
   0.56978003  0.44277016  0.56044765
   0.41610531  0.52304516  0.46005290
   0.45672262  0.56995044  0.54534416
   0.48768982  0.47008097  0.41741382
   0.50933459  0.55840351  0.45841910
   0.55993707  0.54615179  0.56161050
   0.52760595  0.38935275  0.47769684
   0.42648587  0.62665520  0.45948377
   0.58979566  0.48437281  0.46229444
Direct configuration=     6
   0.48439453  0.47652000  0.52027529
   0.56950021  0.44336310  0.55992992
   0.41559870  0.52333642  0.45978504
   0.45697042  0.56989359  0.54516834
   0.48788607  0.46938834  0.41754156
   0.50975424  0.55839954  0.45858070
   0.56022206  0.54641988  0.56227825
   0.52735039  0.38899446  0.47745496
   0.42641654  0.62629524  0.45979183
   0.58999491  0.48456319  0.46216950
Direct configuration=     7
   0.48416133  0.47664716  0.52033746
   0.56922443  0.44394748  0.55941967
   0.41509941  0.52362347  0.45952105
   0.45721465  0.56983755  0.54499506
   0.48807949  0.46870572  0.41766746
   0.51016783  0.55839563  0.45873997
   0.56050293  0.54668411  0.56293636
   0.52709852  0.38864134  0.47721657
   0.42634822  0.62594048  0.46009545
   0.59019128  0.48475082  0.46204636
Direct configuration=     8
   0.48346630  0.47713854  0.51984432
   0.56941388  0.44408450  0.55927672
   0.41538170  0.52360563  0.45924646
   0.45738506  0.56969812  0.54494990
   0.48802396  0.46840258  0.41801241
   0.51017734  0.55811614  0.45904519
   0.56078155  0.54713416  0.56331438
   0.52695272  0.38834847  0.47699052
   0.42635008  0.62574102  0.46029293
   0.59015545  0.48490461  0.46200258
Direct configuration=     9
   0.48347481  0.47713252  0.51985036
   0.56941157  0.44408282  0.55927847
   0.41537825  0.52360585  0.45924982
   0.45738298  0.56969983  0.54495045
   0.48802464  0.46840629  0.41800819
   0.51017723  0.55811957  0.45904145
   0.56077814  0.54712865  0.56330975
   0.52695451  0.38835206  0.47699329
   0.42635006  0.62574346  0.46029051
   0.59015589  0.48490273  0.46200312
Direct configuration=    10
   0.48342309  0.47711095  0.51972933
   0.56936691  0.44420350  0.55903411
   0.41548610  0.52351437  0.45885915
   0.45744282  0.56969568  0.54521126
   0.48792901  0.46822410  0.41802819
   0.51020813  0.55794864  0.45926498
   0.56094397  0.54736818  0.56340254
   0.52691707  0.38840030  0.47702648
   0.42635284  0.62578762  0.46033823
   0.59001815  0.48492042  0.46208111
Direct configuration=    11
   0.48336158  0.47708530  0.51958539
   0.56931379  0.44434704  0.55874347
   0.41561437  0.52340556  0.45839451
   0.45751399  0.56969074  0.54552146
   0.48781526  0.46800742  0.41805198
   0.51024487  0.55774533  0.45953085
   0.56114121  0.54765307  0.56351289
   0.52687254  0.38845769  0.47706596
   0.42635614  0.62584014  0.46039500
   0.58985432  0.48494148  0.46217388
Direct configuration=    12
   0.48332629  0.47711242  0.51962407
   0.56926185  0.44451234  0.55864145
   0.41566037  0.52345245  0.45804883
   0.45755258  0.56966984  0.54566652
   0.48771940  0.46781127  0.41785542
   0.51019414  0.55768356  0.45980057
   0.56125927  0.54781987  0.56356132
   0.52684999  0.38840844  0.47711165
   0.42642835  0.62575542  0.46051066
   0.58983581  0.48494815  0.46215491
Direct configuration=    13
   0.48327176  0.47715432  0.51968385
   0.56918159  0.44476778  0.55848381
   0.41573146  0.52352492  0.45751463
   0.45761222  0.56963755  0.54589068
   0.48757127  0.46750815  0.41755166
   0.51011575  0.55758809  0.46021738
   0.56144172  0.54807764  0.56363616
   0.52681515  0.38833234  0.47718224
   0.42653995  0.62562451  0.46068939
   0.58980720  0.48495847  0.46212560
