  13  13   0   0
  0.1066976E+04  0.2571534E-08  0.2239316E-08  0.2408742E-08  0.5000000E-15
   1.0000000000000000E-004
  CAR 
 unknown system                          
      2.36719548    -12.55059893  301     -4.14270662      1.00000000
    -12.551  0.0000E+00  0.0000E+00  0.0000E+00  0.0000E+00
    -12.501  0.0000E+00  0.0000E+00  0.0000E+00  0.0000E+00
    -12.451  0.0000E+00  0.0000E+00  0.0000E+00  0.0000E+00
    -12.401  0.0000E+00  0.0000E+00  0.0000E+00  0.0000E+00
    -12.352  0.0000E+00  0.0000E+00  0.0000E+00  0.0000E+00
    -12.302  0.0000E+00  0.0000E+00  0.0000E+00  0.0000E+00
    -12.252  0.0000E+00  0.0000E+00  0.0000E+00  0.0000E+00
    -12.203  0.0000E+00  0.0000E+00  0.0000E+00  0.0000E+00
    -12.153 -0.6116E-29 -0.2656E-29 -0.3041E-30 -0.1321E-30
    -12.103 -0.2931E-27 -0.1307E-27 -0.1488E-28 -0.6633E-29
    -12.053 -0.1262E-25 -0.5780E-26 -0.6425E-27 -0.2941E-27
    -12.004 -0.4796E-24 -0.2255E-24 -0.2449E-25 -0.1151E-25
    -11.954 -0.1608E-22 -0.7763E-23 -0.8241E-24 -0.3976E-24
    -11.904 -0.4756E-21 -0.2358E-21 -0.2448E-22 -0.1212E-22
    -11.854 -0.1241E-19 -0.6315E-20 -0.6415E-21 -0.3261E-21
    -11.805 -0.2855E-18 -0.1492E-18 -0.1484E-19 -0.7744E-20
    -11.755 -0.5790E-17 -0.3107E-17 -0.3027E-18 -0.1622E-18
    -11.705 -0.1002E-15 -0.5481E-16 -0.5283E-17 -0.2888E-17
    -11.656 -0.1578E-14 -0.8939E-15 -0.8376E-16 -0.4734E-16
    -11.606 -0.2183E-13 -0.1270E-13 -0.1169E-14 -0.6786E-15
    -11.556 -0.2657E-12 -0.1588E-12 -0.1438E-13 -0.8574E-14
    -11.506 -0.2846E-11 -0.1747E-11 -0.1559E-12 -0.9545E-13
    -11.457 -0.2679E-10 -0.1690E-10 -0.1488E-11 -0.9358E-12
    -11.407 -0.2215E-09 -0.1436E-09 -0.1250E-10 -0.8077E-11
    -11.357 -0.1607E-08 -0.1071E-08 -0.9243E-10 -0.6134E-10
    -11.307 -0.1022E-07 -0.7004E-08 -0.6007E-09 -0.4096E-09
    -11.258 -0.5686E-07 -0.4008E-07 -0.3428E-08 -0.2403E-08
    -11.208 -0.2762E-06 -0.2004E-06 -0.1716E-07 -0.1237E-07
    -11.158 -0.1168E-05 -0.8726E-06 -0.7524E-07 -0.5576E-07
    -11.109 -0.4284E-05 -0.3299E-05 -0.2883E-06 -0.2198E-06
    -11.059 -0.1355E-04 -0.1077E-04 -0.9618E-06 -0.7553E-06
    -11.009 -0.3660E-04 -0.3011E-04 -0.2782E-05 -0.2252E-05
    -10.959 -0.8324E-04 -0.7112E-04 -0.6921E-05 -0.5789E-05
    -10.910 -0.1548E-03 -0.1385E-03 -0.1462E-04 -0.1267E-04
    -10.860 -0.2196E-03 -0.2100E-03 -0.2554E-04 -0.2312E-04
    -10.810 -0.1845E-03 -0.2073E-03 -0.3471E-04 -0.3342E-04
    -10.760  0.1045E-03  0.1431E-04 -0.2952E-04 -0.3271E-04
    -10.711  0.7902E-03  0.6098E-03  0.9775E-05 -0.2387E-05
    -10.661  0.1868E-02  0.1617E-02  0.1027E-03  0.7804E-04
    -10.611  0.3081E-02  0.2835E-02  0.2559E-03  0.2190E-03
    -10.562  0.3979E-02  0.3839E-02  0.4537E-03  0.4099E-03
    -10.512  0.4162E-02  0.4193E-02  0.6607E-03  0.6185E-03
    -10.462  0.3544E-02  0.3731E-02  0.8369E-03  0.8040E-03
    -10.412  0.2410E-02  0.2668E-02  0.9567E-03  0.9367E-03
    -10.363  0.1226E-02  0.1458E-02  0.1018E-02  0.1009E-02
    -10.313  0.3531E-03  0.5014E-03  0.1035E-02  0.1034E-02
    -10.263 -0.9850E-04 -0.3574E-04  0.1030E-02  0.1032E-02
    -10.213 -0.2246E-03 -0.2169E-03  0.1019E-02  0.1022E-02
    -10.164 -0.1880E-03 -0.2020E-03  0.1010E-02  0.1011E-02
    -10.114 -0.1125E-03 -0.1279E-03  0.1004E-02  0.1005E-02
    -10.064 -0.5377E-04 -0.6382E-04  0.1002E-02  0.1002E-02
    -10.015 -0.2142E-04 -0.2636E-04  0.1000E-02  0.1001E-02
     -9.965 -0.7250E-05 -0.9223E-05  0.1000E-02  0.1000E-02
     -9.915 -0.2109E-05 -0.2768E-05  0.1000E-02  0.1000E-02
     -9.865 -0.5309E-06 -0.7178E-06  0.1000E-02  0.1000E-02
     -9.816 -0.1179E-06 -0.1630E-06  0.1000E-02  0.1000E-02
     -9.766 -0.3377E-07 -0.4063E-07  0.1000E-02  0.1000E-02
     -9.716 -0.6773E-07 -0.5549E-07  0.1000E-02  0.1000E-02
     -9.666 -0.3086E-06 -0.2465E-06  0.1000E-02  0.1000E-02
     -9.617 -0.1290E-05 -0.1051E-05  0.9999E-03  0.9999E-03
     -9.567 -0.4682E-05 -0.3897E-05  0.9997E-03  0.9997E-03
     -9.517 -0.1466E-04 -0.1248E-04  0.9990E-03  0.9991E-03
     -9.468 -0.3919E-04 -0.3418E-04  0.9970E-03  0.9974E-03
     -9.418 -0.8823E-04 -0.7903E-04  0.9926E-03  0.9935E-03
     -9.368 -0.1625E-03 -0.1503E-03  0.9845E-03  0.9860E-03
     -9.318 -0.2294E-03 -0.2221E-03  0.9731E-03  0.9750E-03
     -9.269 -0.1960E-03 -0.2113E-03  0.9634E-03  0.9645E-03
     -9.219  0.8501E-04  0.2451E-04  0.9676E-03  0.9657E-03
     -9.169  0.7428E-03  0.6241E-03  0.1005E-02  0.9967E-03
     -9.120  0.1766E-02  0.1603E-02  0.1092E-02  0.1076E-02
     -9.070  0.2938E-02  0.2767E-02  0.1238E-02  0.1214E-02
     -9.020  0.3925E-02  0.3784E-02  0.1434E-02  0.1402E-02
     -8.970  0.4507E-02  0.4399E-02  0.1658E-02  0.1621E-02
     -8.921  0.4718E-02  0.4620E-02  0.1892E-02  0.1851E-02
     -8.871  0.4751E-02  0.4650E-02  0.2129E-02  0.2082E-02
     -8.821  0.4709E-02  0.4638E-02  0.2363E-02  0.2313E-02
     -8.771  0.4472E-02  0.4497E-02  0.2585E-02  0.2536E-02
     -8.722  0.3852E-02  0.4010E-02  0.2777E-02  0.2736E-02
     -8.672  0.2836E-02  0.3093E-02  0.2918E-02  0.2889E-02
     -8.622  0.1662E-02  0.1935E-02  0.3000E-02  0.2986E-02
     -8.573  0.6582E-03  0.8674E-03  0.3033E-02  0.3029E-02
     -8.523  0.1775E-04  0.1346E-03  0.3034E-02  0.3035E-02
     -8.473 -0.2768E-03 -0.2323E-03  0.3020E-02  0.3024E-02
     -8.423 -0.3720E-03 -0.3619E-03  0.3002E-02  0.3006E-02
     -8.374 -0.4060E-03 -0.4052E-03  0.2982E-02  0.2986E-02
     -8.324 -0.4128E-03 -0.4241E-03  0.2961E-02  0.2965E-02
     -8.274 -0.2971E-03 -0.3495E-03  0.2946E-02  0.2947E-02
     -8.224  0.1242E-03 -0.6880E-05  0.2952E-02  0.2947E-02
     -8.175  0.1031E-02  0.8018E-03  0.3004E-02  0.2987E-02
     -8.125  0.2497E-02  0.2188E-02  0.3128E-02  0.3096E-02
     -8.075  0.4420E-02  0.4092E-02  0.3348E-02  0.3299E-02
     -8.026  0.6532E-02  0.6258E-02  0.3672E-02  0.3610E-02
     -7.976  0.8449E-02  0.8279E-02  0.4093E-02  0.4022E-02
     -7.926  0.9755E-02  0.9699E-02  0.4578E-02  0.4504E-02
     -7.876  0.1015E-01  0.1017E-01  0.5082E-02  0.5010E-02
     -7.827  0.9588E-02  0.9640E-02  0.5559E-02  0.5489E-02
     -7.777  0.8378E-02  0.8411E-02  0.5976E-02  0.5908E-02
     -7.727  0.7053E-02  0.7042E-02  0.6326E-02  0.6258E-02
     -7.677  0.6148E-02  0.6088E-02  0.6632E-02  0.6561E-02
     -7.628  0.5978E-02  0.5873E-02  0.6929E-02  0.6853E-02
     -7.578  0.6509E-02  0.6386E-02  0.7253E-02  0.7170E-02
     -7.528  0.7412E-02  0.7314E-02  0.7622E-02  0.7534E-02
     -7.479  0.8300E-02  0.8255E-02  0.8034E-02  0.7944E-02
     -7.429  0.9055E-02  0.9031E-02  0.8485E-02  0.8393E-02
     -7.379  0.9952E-02  0.9855E-02  0.8979E-02  0.8883E-02
     -7.329  0.1141E-01  0.1116E-01  0.9547E-02  0.9438E-02
     -7.280  0.1357E-01  0.1317E-01  0.1022E-01  0.1009E-01
     -7.230  0.1604E-01  0.1562E-01  0.1102E-01  0.1087E-01
     -7.180  0.1811E-01  0.1782E-01  0.1192E-01  0.1176E-01
     -7.130  0.1916E-01  0.1912E-01  0.1287E-01  0.1271E-01
     -7.081  0.1903E-01  0.1921E-01  0.1382E-01  0.1366E-01
     -7.031  0.1806E-01  0.1835E-01  0.1472E-01  0.1457E-01
     -6.981  0.1693E-01  0.1715E-01  0.1556E-01  0.1543E-01
     -6.932  0.1622E-01  0.1629E-01  0.1636E-01  0.1624E-01
     -6.882  0.1624E-01  0.1616E-01  0.1717E-01  0.1704E-01
     -6.832  0.1695E-01  0.1679E-01  0.1802E-01  0.1788E-01
     -6.782  0.1804E-01  0.1790E-01  0.1891E-01  0.1877E-01
     -6.733  0.1912E-01  0.1908E-01  0.1986E-01  0.1971E-01
     -6.683  0.1977E-01  0.1986E-01  0.2085E-01  0.2070E-01
     -6.633  0.1966E-01  0.1986E-01  0.2182E-01  0.2169E-01
     -6.583  0.1876E-01  0.1900E-01  0.2276E-01  0.2263E-01
     -6.534  0.1739E-01  0.1759E-01  0.2362E-01  0.2351E-01
     -6.484  0.1618E-01  0.1623E-01  0.2443E-01  0.2432E-01
     -6.434  0.1572E-01  0.1557E-01  0.2521E-01  0.2509E-01
     -6.385  0.1632E-01  0.1599E-01  0.2602E-01  0.2589E-01
     -6.335  0.1796E-01  0.1752E-01  0.2691E-01  0.2676E-01
     -6.285  0.2035E-01  0.1989E-01  0.2792E-01  0.2775E-01
     -6.235  0.2298E-01  0.2255E-01  0.2907E-01  0.2887E-01
     -6.186  0.2517E-01  0.2483E-01  0.3032E-01  0.3010E-01
     -6.136  0.2632E-01  0.2614E-01  0.3163E-01  0.3140E-01
     -6.086  0.2629E-01  0.2627E-01  0.3293E-01  0.3271E-01
     -6.036  0.2560E-01  0.2568E-01  0.3421E-01  0.3398E-01
     -5.987  0.2528E-01  0.2533E-01  0.3546E-01  0.3524E-01
     -5.937  0.2631E-01  0.2622E-01  0.3677E-01  0.3655E-01
     -5.887  0.2907E-01  0.2879E-01  0.3822E-01  0.3798E-01
     -5.838  0.3308E-01  0.3267E-01  0.3986E-01  0.3960E-01
     -5.788  0.3733E-01  0.3690E-01  0.4172E-01  0.4144E-01
     -5.738  0.4079E-01  0.4044E-01  0.4375E-01  0.4345E-01
     -5.688  0.4290E-01  0.4266E-01  0.4588E-01  0.4557E-01
     -5.639  0.4377E-01  0.4359E-01  0.4806E-01  0.4774E-01
     -5.589  0.4390E-01  0.4373E-01  0.5024E-01  0.4991E-01
     -5.539  0.4391E-01  0.4370E-01  0.5242E-01  0.5209E-01
     -5.490  0.4414E-01  0.4394E-01  0.5462E-01  0.5427E-01
     -5.440  0.4455E-01  0.4442E-01  0.5684E-01  0.5648E-01
     -5.390  0.4464E-01  0.4468E-01  0.5906E-01  0.5870E-01
     -5.340  0.4359E-01  0.4391E-01  0.6122E-01  0.6089E-01
     -5.291  0.4055E-01  0.4122E-01  0.6324E-01  0.6294E-01
     -5.241  0.3511E-01  0.3612E-01  0.6498E-01  0.6473E-01
     -5.191  0.2764E-01  0.2888E-01  0.6636E-01  0.6617E-01
     -5.141  0.1934E-01  0.2059E-01  0.6732E-01  0.6719E-01
     -5.092  0.1182E-01  0.1285E-01  0.6791E-01  0.6783E-01
     -5.042  0.6429E-02  0.7064E-02  0.6823E-01  0.6818E-01
     -4.992  0.3646E-02  0.3881E-02  0.6841E-01  0.6838E-01
     -4.943  0.3022E-02  0.2975E-02  0.6856E-01  0.6852E-01
     -4.893  0.3603E-02  0.3435E-02  0.6874E-01  0.6869E-01
     -4.843  0.4516E-02  0.4350E-02  0.6896E-01  0.6891E-01
     -4.793  0.5300E-02  0.5190E-02  0.6923E-01  0.6917E-01
     -4.744  0.5845E-02  0.5802E-02  0.6952E-01  0.6946E-01
     -4.694  0.6157E-02  0.6185E-02  0.6982E-01  0.6976E-01
     -4.644  0.6180E-02  0.6290E-02  0.7013E-01  0.7008E-01
     -4.594  0.5783E-02  0.5989E-02  0.7042E-01  0.7038E-01
     -4.545  0.4876E-02  0.5174E-02  0.7066E-01  0.7063E-01
     -4.495  0.3550E-02  0.3887E-02  0.7084E-01  0.7083E-01
     -4.445  0.2132E-02  0.2380E-02  0.7094E-01  0.7094E-01
     -4.396  0.1090E-02  0.1043E-02  0.7100E-01  0.7100E-01
     -4.346  0.8105E-03  0.2588E-03  0.7104E-01  0.7101E-01
     -4.296  0.1382E-02  0.2536E-03  0.7111E-01  0.7102E-01
     -4.246  0.2499E-02  0.1012E-02  0.7123E-01  0.7107E-01
     -4.197  0.3582E-02  0.2246E-02  0.7141E-01  0.7118E-01
     -4.147  0.4069E-02  0.3452E-02  0.7161E-01  0.7136E-01
     -4.097  0.3717E-02  0.4104E-02  0.7180E-01  0.7156E-01
     -4.047  0.2714E-02  0.3919E-02  0.7193E-01  0.7175E-01
     -3.998  0.1514E-02  0.3011E-02  0.7201E-01  0.7190E-01
     -3.948  0.5392E-03  0.1800E-02  0.7203E-01  0.7199E-01
     -3.898 -0.2863E-04  0.7343E-03  0.7203E-01  0.7203E-01
     -3.849 -0.2473E-03  0.5379E-04  0.7202E-01  0.7203E-01
     -3.799 -0.2856E-03 -0.2571E-03  0.7201E-01  0.7202E-01
     -3.749 -0.2902E-03 -0.3536E-03  0.7199E-01  0.7200E-01
     -3.699 -0.3154E-03 -0.3774E-03  0.7198E-01  0.7198E-01
     -3.650 -0.3050E-03 -0.3590E-03  0.7196E-01  0.7197E-01
     -3.600 -0.1071E-03 -0.1980E-03  0.7195E-01  0.7196E-01
     -3.550  0.4664E-03  0.2829E-03  0.7198E-01  0.7197E-01
     -3.500  0.1530E-02  0.1224E-02  0.7205E-01  0.7203E-01
     -3.451  0.3011E-02  0.2605E-02  0.7220E-01  0.7216E-01
     -3.401  0.4622E-02  0.4189E-02  0.7243E-01  0.7237E-01
     -3.351  0.5955E-02  0.5597E-02  0.7273E-01  0.7265E-01
     -3.302  0.6641E-02  0.6456E-02  0.7306E-01  0.7297E-01
     -3.252  0.6486E-02  0.6537E-02  0.7338E-01  0.7329E-01
     -3.202  0.5533E-02  0.5817E-02  0.7366E-01  0.7358E-01
     -3.152  0.4049E-02  0.4488E-02  0.7386E-01  0.7381E-01
     -3.103  0.2431E-02  0.2901E-02  0.7398E-01  0.7395E-01
     -3.053  0.1055E-02  0.1441E-02  0.7403E-01  0.7402E-01
     -3.003  0.1246E-03  0.3735E-03  0.7404E-01  0.7404E-01
     -2.953 -0.3645E-03 -0.2405E-03  0.7402E-01  0.7403E-01
     -2.904 -0.5386E-03 -0.5009E-03  0.7399E-01  0.7400E-01
     -2.854 -0.4985E-03 -0.5304E-03  0.7397E-01  0.7398E-01
     -2.804 -0.2341E-03 -0.3573E-03  0.7396E-01  0.7396E-01
     -2.755  0.3457E-03  0.9428E-04  0.7397E-01  0.7396E-01
     -2.705  0.1308E-02  0.9149E-03  0.7404E-01  0.7401E-01
     -2.655  0.2625E-02  0.2111E-02  0.7417E-01  0.7411E-01
     -2.605  0.4217E-02  0.3607E-02  0.7438E-01  0.7429E-01
     -2.556  0.6041E-02  0.5332E-02  0.7468E-01  0.7456E-01
     -2.506  0.8063E-02  0.7269E-02  0.7508E-01  0.7492E-01
     -2.456  0.1007E-01  0.9316E-02  0.7558E-01  0.7538E-01
     -2.406  0.1156E-01  0.1109E-01  0.7616E-01  0.7593E-01
     -2.357  0.1185E-01  0.1194E-01  0.7675E-01  0.7653E-01
     -2.307  0.1059E-01  0.1132E-01  0.7727E-01  0.7709E-01
     -2.257  0.8007E-02  0.9191E-02  0.7767E-01  0.7755E-01
     -2.208  0.4894E-02  0.6156E-02  0.7791E-01  0.7785E-01
     -2.158  0.2185E-02  0.3136E-02  0.7802E-01  0.7801E-01
     -2.108  0.5443E-03  0.8944E-03  0.7805E-01  0.7805E-01
     -2.058  0.1823E-03 -0.2198E-03  0.7806E-01  0.7804E-01
     -2.009  0.8969E-03 -0.2328E-03  0.7810E-01  0.7803E-01
     -1.959  0.2189E-02  0.6096E-03  0.7821E-01  0.7806E-01
     -1.909  0.3414E-02  0.1923E-02  0.7838E-01  0.7816E-01
     -1.860  0.3995E-02  0.3205E-02  0.7858E-01  0.7832E-01
     -1.810  0.3675E-02  0.3934E-02  0.7876E-01  0.7851E-01
     -1.760  0.2632E-02  0.3806E-02  0.7889E-01  0.7870E-01
     -1.710  0.1378E-02  0.2933E-02  0.7896E-01  0.7885E-01
     -1.661  0.4847E-03  0.1822E-02  0.7899E-01  0.7894E-01
     -1.611  0.3435E-03  0.1107E-02  0.7900E-01  0.7899E-01
     -1.561  0.1049E-02  0.1209E-02  0.7906E-01  0.7905E-01
     -1.511  0.2406E-02  0.2144E-02  0.7918E-01  0.7916E-01
     -1.462  0.4012E-02  0.3560E-02  0.7938E-01  0.7934E-01
     -1.412  0.5398E-02  0.4946E-02  0.7964E-01  0.7958E-01
     -1.362  0.6185E-02  0.5861E-02  0.7995E-01  0.7988E-01
     -1.313  0.6217E-02  0.6078E-02  0.8026E-01  0.8018E-01
     -1.263  0.5614E-02  0.5624E-02  0.8054E-01  0.8046E-01
     -1.213  0.4744E-02  0.4765E-02  0.8078E-01  0.8069E-01
     -1.163  0.4082E-02  0.3934E-02  0.8098E-01  0.8089E-01
     -1.114  0.3978E-02  0.3570E-02  0.8118E-01  0.8107E-01
     -1.064  0.4465E-02  0.3877E-02  0.8140E-01  0.8126E-01
     -1.014  0.5259E-02  0.4710E-02  0.8166E-01  0.8149E-01
     -0.964  0.5966E-02  0.5671E-02  0.8196E-01  0.8178E-01
     -0.915  0.6330E-02  0.6378E-02  0.8227E-01  0.8209E-01
     -0.865  0.6331E-02  0.6668E-02  0.8259E-01  0.8242E-01
     -0.815  0.6096E-02  0.6591E-02  0.8289E-01  0.8275E-01
     -0.766  0.5719E-02  0.6260E-02  0.8317E-01  0.8306E-01
     -0.716  0.5163E-02  0.5694E-02  0.8343E-01  0.8335E-01
     -0.666  0.4337E-02  0.4829E-02  0.8365E-01  0.8359E-01
     -0.616  0.3290E-02  0.3685E-02  0.8381E-01  0.8377E-01
     -0.567  0.2327E-02  0.2512E-02  0.8393E-01  0.8390E-01
     -0.517  0.1889E-02  0.1751E-02  0.8402E-01  0.8398E-01
     -0.467  0.2276E-02  0.1792E-02  0.8413E-01  0.8407E-01
     -0.417  0.3478E-02  0.2740E-02  0.8431E-01  0.8421E-01
     -0.368  0.5204E-02  0.4357E-02  0.8456E-01  0.8442E-01
     -0.318  0.7034E-02  0.6212E-02  0.8491E-01  0.8473E-01
     -0.268  0.8541E-02  0.7860E-02  0.8534E-01  0.8512E-01
     -0.219  0.9360E-02  0.8978E-02  0.8580E-01  0.8557E-01
     -0.169  0.9310E-02  0.9455E-02  0.8627E-01  0.8604E-01
     -0.119  0.8533E-02  0.9449E-02  0.8669E-01  0.8651E-01
     -0.069  0.7471E-02  0.9317E-02  0.8706E-01  0.8697E-01
     -0.020  0.6633E-02  0.9420E-02  0.8739E-01  0.8744E-01
      0.030  0.6345E-02  0.9933E-02  0.8771E-01  0.8794E-01
      0.080  0.6707E-02  0.1083E-01  0.8804E-01  0.8847E-01
      0.130  0.7708E-02  0.1194E-01  0.8843E-01  0.8907E-01
      0.179  0.9261E-02  0.1294E-01  0.8889E-01  0.8971E-01
      0.229  0.1106E-01  0.1330E-01  0.8944E-01  0.9037E-01
      0.279  0.1247E-01  0.1244E-01  0.9006E-01  0.9099E-01
      0.328  0.1273E-01  0.1020E-01  0.9069E-01  0.9150E-01
      0.378  0.1137E-01  0.7005E-02  0.9125E-01  0.9185E-01
      0.428  0.8625E-02  0.3763E-02  0.9168E-01  0.9203E-01
      0.478  0.5330E-02  0.1281E-02  0.9195E-01  0.9210E-01
      0.527  0.2435E-02 -0.1160E-03  0.9207E-01  0.9209E-01
      0.577  0.5153E-03 -0.5998E-03  0.9209E-01  0.9206E-01
      0.627 -0.3861E-03 -0.5682E-03  0.9208E-01  0.9203E-01
      0.677 -0.5834E-03 -0.3697E-03  0.9205E-01  0.9202E-01
      0.726 -0.4573E-03 -0.1906E-03  0.9202E-01  0.9201E-01
      0.776 -0.2691E-03 -0.8173E-04  0.9201E-01  0.9200E-01
      0.826 -0.1292E-03 -0.2978E-04  0.9200E-01  0.9200E-01
      0.875 -0.5237E-04 -0.9335E-05  0.9200E-01  0.9200E-01
      0.925 -0.1820E-04 -0.2535E-05  0.9200E-01  0.9200E-01
      0.975 -0.5475E-05 -0.5995E-06  0.9200E-01  0.9200E-01
      1.025 -0.1433E-05 -0.1238E-06  0.9200E-01  0.9200E-01
      1.074 -0.3277E-06 -0.2239E-07  0.9200E-01  0.9200E-01
      1.124 -0.6562E-07 -0.3551E-08  0.9200E-01  0.9200E-01
      1.174 -0.1153E-07 -0.4946E-09  0.9200E-01  0.9200E-01
      1.223 -0.1778E-08 -0.6056E-10  0.9200E-01  0.9200E-01
      1.273 -0.2412E-09 -0.6523E-11  0.9200E-01  0.9200E-01
      1.323 -0.2878E-10 -0.6186E-12  0.9200E-01  0.9200E-01
      1.373 -0.3023E-11 -0.5167E-13  0.9200E-01  0.9200E-01
      1.422 -0.2796E-12 -0.3804E-14  0.9200E-01  0.9200E-01
      1.472 -0.2279E-13 -0.2456E-15  0.9200E-01  0.9200E-01
      1.522 -0.1634E-14 -0.1340E-16  0.9200E-01  0.9200E-01
      1.572 -0.1072E-15  0.0000E+00  0.9200E-01  0.9200E-01
      1.621 -0.4465E-17  0.0000E+00  0.9200E-01  0.9200E-01
      1.671  0.0000E+00  0.0000E+00  0.9200E-01  0.9200E-01
      1.721  0.0000E+00  0.0000E+00  0.9200E-01  0.9200E-01
      1.770  0.0000E+00  0.0000E+00  0.9200E-01  0.9200E-01
      1.820  0.0000E+00  0.0000E+00  0.9200E-01  0.9200E-01
      1.870  0.0000E+00  0.0000E+00  0.9200E-01  0.9200E-01
      1.920  0.0000E+00  0.0000E+00  0.9200E-01  0.9200E-01
      1.969  0.0000E+00  0.0000E+00  0.9200E-01  0.9200E-01
      2.019  0.0000E+00  0.0000E+00  0.9200E-01  0.9200E-01
      2.069  0.0000E+00  0.0000E+00  0.9200E-01  0.9200E-01
      2.119  0.0000E+00  0.0000E+00  0.9200E-01  0.9200E-01
      2.168  0.0000E+00  0.0000E+00  0.9200E-01  0.9200E-01
      2.218  0.0000E+00  0.0000E+00  0.9200E-01  0.9200E-01
      2.268  0.0000E+00  0.0000E+00  0.9200E-01  0.9200E-01
      2.317  0.0000E+00  0.0000E+00  0.9200E-01  0.9200E-01
      2.367  0.0000E+00  0.0000E+00  0.9200E-01  0.9200E-01
