   13   13 1000    2
  0.1066976E+04  0.2571534E-08  0.2239316E-08  0.2408742E-08  0.5000000E-15
   1.0000000000000000E-004
  CAR 
 unknown system                          
    143      1     92
 
  0.1262379E-14  0.1262379E-14  0.1262379E-14  0.1000000E+01
    1      -10.550599    -10.540142   1.000000   1.000000
    2       -9.012685     -9.005251   1.000000   1.000000
    3       -8.783207     -8.771708   1.000000   1.000000
    4       -8.048392     -8.038283   1.000000   1.000000
    5       -7.906962     -7.899352   1.000000   1.000000
    6       -7.870780     -7.865782   1.000000   1.000000
    7       -7.703373     -7.690053   1.000000   1.000000
    8       -7.514578     -7.501945   1.000000   1.000000
    9       -7.465354     -7.457532   1.000000   1.000000
   10       -7.309793     -7.300099   1.000000   1.000000
   11       -7.249304     -7.243210   1.000000   1.000000
   12       -7.203576     -7.193525   1.000000   1.000000
   13       -7.150724     -7.138793   1.000000   1.000000
   14       -7.091407     -7.085156   1.000000   1.000000
   15       -7.072407     -7.065047   1.000000   1.000000
   16       -6.993286     -6.984882   1.000000   1.000000
   17       -6.896611     -6.890239   1.000000   1.000000
   18       -6.877304     -6.869080   1.000000   1.000000
   19       -6.795732     -6.784398   1.000000   1.000000
   20       -6.753087     -6.745825   1.000000   1.000000
   21       -6.685758     -6.680438   1.000000   1.000000
   22       -6.645730     -6.638096   1.000000   1.000000
   23       -6.615533     -6.608662   1.000000   1.000000
   24       -6.564230     -6.557723   1.000000   1.000000
   25       -6.467937     -6.461348   1.000000   1.000000
   26       -6.418986     -6.412431   1.000000   1.000000
   27       -6.354147     -6.344754   1.000000   1.000000
   28       -6.294586     -6.283291   1.000000   1.000000
   29       -6.258956     -6.251364   1.000000   1.000000
   30       -6.202238     -6.196289   1.000000   1.000000
   31       -6.171649     -6.164894   1.000000   1.000000
   32       -6.139663     -6.131509   1.000000   1.000000
   33       -6.124344     -6.114854   1.000000   1.000000
   34       -6.069487     -6.059953   1.000000   1.000000
   35       -6.054126     -6.043867   1.000000   1.000000
   36       -5.983911     -5.975682   1.000000   1.000000
   37       -5.941739     -5.931775   1.000000   1.000000
   38       -5.890579     -5.883738   1.000000   1.000000
   39       -5.879288     -5.871490   1.000000   1.000000
   40       -5.833430     -5.827279   1.000000   1.000000
   41       -5.817464     -5.810507   1.000000   1.000000
   42       -5.783101     -5.774452   1.000000   1.000000
   43       -5.767644     -5.760470   1.000000   1.000000
   44       -5.739259     -5.732052   1.000000   1.000000
   45       -5.725911     -5.719374   1.000000   1.000000
   46       -5.703270     -5.697921   1.000000   1.000000
   47       -5.687151     -5.678494   1.000000   1.000000
   48       -5.649752     -5.641377   1.000000   1.000000
   49       -5.638121     -5.632616   1.000000   1.000000
   50       -5.601923     -5.595199   1.000000   1.000000
   51       -5.578363     -5.571273   1.000000   1.000000
   52       -5.554383     -5.544544   1.000000   1.000000
   53       -5.546123     -5.539888   1.000000   1.000000
   54       -5.509364     -5.499012   1.000000   1.000000
   55       -5.497316     -5.489960   1.000000   1.000000
   56       -5.474811     -5.468407   1.000000   1.000000
   57       -5.435370     -5.426608   1.000000   1.000000
   58       -5.414755     -5.406837   1.000000   1.000000
   59       -5.394272     -5.384937   1.000000   1.000000
   60       -5.373003     -5.364952   1.000000   1.000000
   61       -5.346831     -5.341020   1.000000   1.000000
   62       -5.342869     -5.335325   1.000000   1.000000
   63       -5.315177     -5.306106   1.000000   1.000000
   64       -5.285104     -5.276691   1.000000   1.000000
   65       -5.251663     -5.244878   1.000000   1.000000
   66       -5.241675     -5.236042   1.000000   1.000000
   67       -5.199294     -5.190430   1.000000   1.000000
   68       -5.172625     -5.163009   1.000000   1.000000
   69       -4.922924     -4.912691   1.000000   1.000000
   70       -4.741986     -4.731454   1.000095   1.000127
   71       -4.577910     -4.570242   1.004347   1.004997
   72       -4.172359     -4.110701   0.623955   0.366479
   73       -3.384134     -3.372264  -0.000001  -0.000000
   74       -3.236862     -3.221157  -0.000000  -0.000000
   75       -2.594662     -2.576242  -0.000000  -0.000000
   76       -2.421098     -2.408244  -0.000000  -0.000000
   77       -2.390786     -2.362568  -0.000000  -0.000000
   78       -2.311507     -2.297679  -0.000000  -0.000000
   79       -1.879064     -1.814943  -0.000000  -0.000000
   80       -1.434418     -1.425266  -0.000000  -0.000000
   81       -1.282201     -1.264194  -0.000000  -0.000000
   82       -1.035011     -1.004131  -0.000000  -0.000000
   83       -0.883325     -0.858173  -0.000000  -0.000000
   84       -0.698916     -0.684057  -0.000000  -0.000000
   85       -0.377696     -0.352176  -0.000000  -0.000000
   86       -0.221656     -0.208797  -0.000000  -0.000000
   87       -0.182590     -0.153180  -0.000000  -0.000000
   88        0.002922      0.020760  -0.000000  -0.000000
   89        0.137916      0.052318  -0.000000  -0.000000
   90        0.277921      0.199880  -0.000000  -0.000000
   91        0.304474      0.250423  -0.000000  -0.000000
   92        0.367195      0.280623  -0.000000  -0.000000
