       N       E                     dE             d eps       ncg     rms          rms(c)
DAV:   1     0.981965088826E+03    0.98197E+03   -0.24471E+04   368   0.734E+02
DAV:   2     0.295385592183E+03   -0.68658E+03   -0.61771E+03   368   0.206E+02
DAV:   3     0.184384127968E+02   -0.27695E+03   -0.26572E+03   480   0.143E+02
DAV:   4    -0.342663299610E+02   -0.52705E+02   -0.49249E+02   448   0.121E+02
DAV:   5    -0.374149608821E+02   -0.31486E+01   -0.30880E+01   504   0.274E+01    0.288E+01
DAV:   6    -0.144999565075E+02    0.22915E+02   -0.13802E+02   388   0.929E+01    0.124E+01
DAV:   7    -0.844154189340E+01    0.60584E+01   -0.32491E+01   440   0.681E+01    0.519E+00
DAV:   8    -0.869226642724E+01   -0.25072E+00   -0.63652E+00   456   0.512E+01    0.473E+00
DAV:   9    -0.106680044000E+02   -0.19757E+01   -0.16223E+00   488   0.319E+01    0.315E+00
DAV:  10    -0.138293083188E+02   -0.31613E+01   -0.18618E+00   504   0.134E+01    0.246E+00
DAV:  11    -0.172377299716E+02   -0.34084E+01   -0.15012E+00   480   0.153E+01    0.194E+00
DAV:  12    -0.224367923272E+02   -0.51991E+01   -0.30211E+00   520   0.947E+00    0.145E+00
DAV:  13    -0.257536914766E+02   -0.33169E+01   -0.13983E+00   488   0.778E+00    0.114E+00
DAV:  14    -0.275628988319E+02   -0.18092E+01   -0.44815E-01   520   0.678E+00    0.887E-01
DAV:  15    -0.301506058039E+02   -0.25877E+01   -0.79277E-01   488   0.424E+00    0.630E-01
DAV:  16    -0.311333933179E+02   -0.98279E+00   -0.20280E-01   480   0.368E+00    0.461E-01
DAV:  17    -0.316011687849E+02   -0.46778E+00   -0.54386E-02   488   0.288E+00    0.362E-01
DAV:  18    -0.320628953142E+02   -0.46173E+00   -0.31687E-02   528   0.165E+00    0.262E-01
DAV:  19    -0.325544605631E+02   -0.49157E+00   -0.21928E-02   524   0.127E+00    0.167E-01
DAV:  20    -0.327899455279E+02   -0.23548E+00   -0.58112E-03   544   0.109E+00    0.122E-01
DAV:  21    -0.329483939860E+02   -0.15845E+00   -0.36251E-03   528   0.744E-01    0.846E-02
DAV:  22    -0.330192283792E+02   -0.70834E-01   -0.21356E-03   496   0.383E-01    0.758E-02
DAV:  23    -0.330606037996E+02   -0.41375E-01   -0.83502E-04   400   0.362E-01    0.436E-02
DAV:  24    -0.330864714223E+02   -0.25868E-01   -0.42273E-04   328   0.288E-01    0.327E-02
DAV:  25    -0.331040723847E+02   -0.17601E-01   -0.40336E-04   336   0.219E-01    0.262E-02
DAV:  26    -0.331166109321E+02   -0.12539E-01   -0.41246E-04   348   0.145E-01    0.234E-02
DAV:  27    -0.331220946968E+02   -0.54838E-02   -0.13573E-04   288   0.119E-01    0.184E-02
DAV:  28    -0.331255189809E+02   -0.34243E-02   -0.10340E-04   288   0.119E-01    0.167E-02
DAV:  29    -0.331302369044E+02   -0.47179E-02   -0.18999E-04   280   0.982E-02    0.151E-02
DAV:  30    -0.331314788054E+02   -0.12419E-02   -0.10266E-04   296   0.867E-02    0.118E-02
DAV:  31    -0.331326816909E+02   -0.12029E-02   -0.71330E-05   264   0.627E-02    0.107E-02
DAV:  32    -0.331332273638E+02   -0.54567E-03   -0.43576E-05   280   0.548E-02    0.100E-02
DAV:  33    -0.331340116496E+02   -0.78429E-03   -0.48182E-05   252   0.468E-02    0.954E-03
DAV:  34    -0.331343701106E+02   -0.35846E-03   -0.41974E-05   280   0.507E-02    0.930E-03
DAV:  35    -0.331345264001E+02   -0.15629E-03   -0.26342E-05   272   0.361E-02    0.818E-03
DAV:  36    -0.331346397792E+02   -0.11338E-03   -0.27246E-05   256   0.307E-02    0.777E-03
DAV:  37    -0.331347630455E+02   -0.12327E-03   -0.29344E-05   276   0.368E-02    0.812E-03
DAV:  38    -0.331348688896E+02   -0.10584E-03   -0.45930E-05   280   0.355E-02    0.671E-03
DAV:  39    -0.331349646905E+02   -0.95801E-04   -0.34928E-05   264   0.367E-02
   1 F= -.33134965E+02 E0= -.33119226E+02  d E =-.331350E+02  mag=     0.2568
       N       E                     dE             d eps       ncg     rms          rms(c)
DAV:   1    -0.331352567010E+02   -0.38781E-03   -0.16020E-01   416   0.137E+00    0.294E-02
DAV:   2    -0.331356304067E+02   -0.37371E-03   -0.26871E-03   552   0.460E-01    0.342E-02
DAV:   3    -0.331356587231E+02   -0.28316E-04   -0.16760E-04   256   0.298E-01
   2 F= -.33135659E+02 E0= -.33119741E+02  d E =-.694033E-03  mag=     0.2575
       N       E                     dE             d eps       ncg     rms          rms(c)
DAV:   1    -0.331357702030E+02   -0.13980E-03   -0.83592E-02   392   0.990E-01    0.258E-02
DAV:   2    -0.331359625431E+02   -0.19234E-03   -0.15019E-03   560   0.307E-01    0.287E-02
DAV:   3    -0.331359755584E+02   -0.13015E-04   -0.77184E-05   256   0.183E-01
   3 F= -.33135976E+02 E0= -.33120025E+02  d E =-.101087E-02  mag=     0.2576
